/*--------------------------------*- C++ -*----------------------------------*\
| =========                 |                                                 |
| \\      /  F ield         | OpenFOAM: The Open Source CFD Toolbox           |
|  \\    /   O peration     | Version:  2412                                  |
|   \\  /    A nd           | Website:  www.openfoam.com                      |
|    \\/     M anipulation  |                                                 |
\*---------------------------------------------------------------------------*/
FoamFile
{
    version     2.0;
    format      ascii;
    arch        "LSB;label=32;scalar=64";
    class       volScalarField;
    location    "28.5";
    object      Ma;
}
// * * * * * * * * * * * * * * * * * * * * * * * * * * * * * * * * * * * * * //

dimensions      [0 0 0 0 0 0 0];

internalField   nonuniform List<scalar> 
7000
(
2.25598
0.994168
0.300523
0.338438
0.401062
0.442387
0.450593
0.446124
0.439769
0.43486
0.432014
0.429742
0.427143
0.424055
0.420584
0.416809
0.412743
0.408364
0.403653
0.398593
0.393171
0.387374
0.381188
0.374596
0.367583
0.36013
0.352221
0.343835
0.334954
0.325557
0.315623
0.305131
0.294062
0.282393
0.270106
0.257183
0.24361
0.229372
0.214464
0.198882
0.182632
0.165726
0.148189
0.130053
0.111368
0.0921923
0.0725905
0.0528468
0.0319229
0.0155243
2.25603
0.99423
0.300321
0.338273
0.400907
0.442239
0.450446
0.445979
0.439631
0.434728
0.431887
0.429619
0.427023
0.423939
0.420473
0.416703
0.412642
0.408269
0.403565
0.398511
0.393097
0.387308
0.381131
0.374548
0.367546
0.360105
0.352208
0.343836
0.33497
0.325589
0.315674
0.305202
0.294155
0.28251
0.27025
0.257356
0.243815
0.229613
0.214745
0.199208
0.183009
0.166164
0.148701
0.13066
0.112102
0.093117
0.0738189
0.0546556
0.0351572
0.0220571
2.25616
0.994427
0.300453
0.338308
0.400937
0.442272
0.45048
0.446019
0.439689
0.434797
0.43197
0.429705
0.42712
0.424042
0.42059
0.416828
0.412783
0.408419
0.403733
0.398691
0.393297
0.387523
0.38137
0.374807
0.367832
0.360415
0.352552
0.344211
0.335385
0.326042
0.316175
0.305751
0.294762
0.283177
0.270988
0.258171
0.244717
0.230613
0.215857
0.20045
0.184403
0.167741
0.150499
0.132744
0.114565
0.0961164
0.0776336
0.0598397
0.0430408
0.0335721
2.25633
0.994733
0.300724
0.338385
0.401018
0.442371
0.450583
0.446136
0.439819
0.434956
0.432138
0.429894
0.427316
0.42426
0.420818
0.417082
0.41305
0.408716
0.404044
0.399037
0.393662
0.387928
0.381799
0.375283
0.368339
0.360978
0.353154
0.344878
0.336101
0.326837
0.317032
0.306702
0.295792
0.28432
0.272234
0.259552
0.246232
0.232295
0.217716
0.202523
0.186718
0.170346
0.153462
0.136148
0.118554
0.100896
0.0835504
0.0674573
0.0533027
0.0461803
2.25658
0.995163
0.301074
0.338454
0.401103
0.442492
0.450712
0.446287
0.439981
0.435159
0.432353
0.430141
0.427572
0.424551
0.421123
0.417425
0.413412
0.40912
0.404474
0.399513
0.394172
0.38849
0.382405
0.375947
0.369061
0.361766
0.354014
0.345815
0.337131
0.327957
0.318267
0.308045
0.297278
0.285937
0.274027
0.261509
0.248408
0.234681
0.220378
0.205464
0.190015
0.174037
0.157639
0.140921
0.124072
0.107408
0.0913716
0.0770291
0.0651082
0.0594941
2.25691
0.995736
0.301517
0.338526
0.401199
0.442637
0.450881
0.446457
0.440211
0.435394
0.432648
0.430434
0.427922
0.424901
0.421538
0.417845
0.413902
0.40962
0.405052
0.400108
0.394854
0.389199
0.383212
0.376795
0.370019
0.362781
0.355155
0.347035
0.338493
0.329425
0.319897
0.309816
0.299236
0.28808
0.276388
0.264109
0.251268
0.237851
0.223869
0.209359
0.194332
0.178893
0.163087
0.147116
0.131165
0.115612
0.100984
0.0882971
0.0781876
0.0736194
2.25733
0.996462
0.30206
0.338601
0.401306
0.442815
0.451086
0.446689
0.440472
0.435706
0.432988
0.430818
0.428331
0.425361
0.422025
0.418393
0.414483
0.410271
0.405741
0.40088
0.395672
0.390116
0.384185
0.377886
0.371179
0.364083
0.356544
0.348593
0.340162
0.331295
0.321911
0.312067
0.301672
0.290794
0.279345
0.267394
0.254871
0.241843
0.22828
0.214245
0.199771
0.184938
0.169887
0.154751
0.139833
0.125478
0.112234
0.101078
0.0924442
0.0886247
2.25785
0.997354
0.302712
0.338682
0.401426
0.443025
0.451333
0.44697
0.440791
0.436081
0.433402
0.431281
0.428832
0.425915
0.422627
0.419054
0.415201
0.411056
0.406595
0.401811
0.396688
0.391221
0.385396
0.3792
0.372625
0.36565
0.358274
0.350467
0.342236
0.333542
0.324404
0.314771
0.30468
0.294064
0.282985
0.271366
0.259289
0.246691
0.233664
0.220191
0.206374
0.192282
0.178048
0.163895
0.150053
0.136957
0.125074
0.115262
0.107842
0.104622
2.25846
0.998423
0.303482
0.33877
0.401561
0.443271
0.451629
0.447299
0.441181
0.436522
0.433902
0.431826
0.429437
0.426571
0.423351
0.419839
0.416062
0.41199
0.407617
0.402921
0.397903
0.392543
0.38684
0.380777
0.374347
0.367535
0.360332
0.352726
0.344703
0.336257
0.327368
0.318042
0.308249
0.298014
0.287294
0.276148
0.264518
0.2525
0.24004
0.227274
0.214187
0.200955
0.187669
0.174546
0.161895
0.150027
0.139452
0.130888
0.124492
0.121715
2.25919
0.999683
0.304379
0.338868
0.401715
0.44356
0.451977
0.4477
0.441633
0.437053
0.434482
0.43248
0.430141
0.427355
0.424195
0.420773
0.417069
0.413099
0.408814
0.404236
0.399325
0.394104
0.388535
0.382635
0.376369
0.369753
0.362752
0.35538
0.347606
0.339441
0.33086
0.321873
0.312461
0.302635
0.29239
0.281735
0.270694
0.259273
0.247543
0.235511
0.22332
0.210999
0.198784
0.186793
0.175337
0.164783
0.155438
0.14799
0.142489
0.140144
2.26003
1.00115
0.305412
0.338976
0.401891
0.443892
0.452389
0.448156
0.442182
0.43766
0.435177
0.433229
0.43098
0.428256
0.425196
0.421848
0.418257
0.414377
0.410221
0.405753
0.400993
0.395908
0.390515
0.384783
0.378727
0.372318
0.365567
0.358451
0.350977
0.343129
0.334909
0.326311
0.317337
0.30799
0.298276
0.288214
0.277815
0.267125
0.256171
0.245037
0.233779
0.222544
0.211437
0.200702
0.190516
0.181222
0.173164
0.166806
0.162133
0.160098
2.26098
1.00282
0.30659
0.3391
0.402092
0.44428
0.452864
0.448708
0.442804
0.438388
0.435966
0.434119
0.431934
0.42932
0.426336
0.423111
0.419611
0.41587
0.411825
0.407519
0.402895
0.397999
0.392775
0.387268
0.38142
0.375277
0.368785
0.361986
0.354831
0.347363
0.339539
0.331399
0.322912
0.314119
0.305005
0.295612
0.285955
0.276071
0.266025
0.255856
0.245695
0.235597
0.22577
0.216326
0.207538
0.199606
0.192762
0.187488
0.183629
0.182023
2.26207
1.00472
0.307919
0.339242
0.402321
0.44472
0.453417
0.449333
0.443547
0.439216
0.436898
0.435127
0.433052
0.430526
0.427665
0.424541
0.421181
0.41756
0.413679
0.409516
0.405086
0.400365
0.39537
0.390077
0.384503
0.378623
0.372458
0.365983
0.359222
0.352152
0.344802
0.337151
0.329238
0.321046
0.312628
0.303974
0.295156
0.286179
0.277139
0.268074
0.259095
0.250314
0.241829
0.233863
0.226513
0.220064
0.214644
0.210543
0.207567
0.206264
2.26328
1.00684
0.309403
0.339397
0.402593
0.445217
0.454052
0.450064
0.444396
0.44018
0.437959
0.436295
0.434321
0.431915
0.429169
0.426182
0.422953
0.419492
0.415766
0.411794
0.407548
0.403055
0.398283
0.393263
0.387961
0.38241
0.376576
0.370497
0.364141
0.357548
0.350696
0.343622
0.33632
0.328827
0.321158
0.31335
0.305447
0.297496
0.289563
0.281729
0.274075
0.266728
0.259803
0.25342
0.247778
0.242927
0.239021
0.236287
0.234365
0.233711
2.26461
1.00917
0.311042
0.339556
0.402918
0.445776
0.454781
0.450907
0.445373
0.441289
0.439173
0.437628
0.435766
0.433492
0.430875
0.428036
0.424958
0.421667
0.418122
0.414348
0.410322
0.406064
0.40156
0.39682
0.391843
0.386628
0.381191
0.375517
0.369645
0.363543
0.357277
0.350805
0.344213
0.337459
0.330647
0.323753
0.316882
0.310052
0.303362
0.296883
0.290714
0.284967
0.279762
0.275235
0.271477
0.268666
0.266693
0.26572
0.265189
0.265154
2.26607
1.01175
0.312846
0.339753
0.403283
0.446422
0.455625
0.451877
0.446522
0.442559
0.440579
0.439142
0.437425
0.435273
0.432818
0.430118
0.427226
0.4241
0.420772
0.417197
0.413427
0.409413
0.405212
0.400772
0.396156
0.391309
0.386301
0.381082
0.375721
0.370182
0.364527
0.358748
0.352891
0.346992
0.341072
0.335221
0.329445
0.323878
0.318541
0.313582
0.309073
0.305151
0.301924
0.29952
0.298079
0.297579
0.298076
0.299505
0.30115
0.302675
2.26765
1.01454
0.314807
0.339982
0.403702
0.447174
0.456607
0.453011
0.447857
0.444029
0.44219
0.440873
0.439306
0.437292
0.435006
0.432467
0.429764
0.42683
0.423721
0.420382
0.41687
0.413143
0.409248
0.405158
0.400907
0.396487
0.391918
0.387217
0.382389
0.377476
0.372474
0.367449
0.3624
0.357406
0.352489
0.347728
0.343196
0.338955
0.335147
0.331828
0.329176
0.327312
0.32639
0.326514
0.327915
0.330654
0.33452
0.339626
0.344725
0.348724
2.26934
1.01754
0.31691
0.340247
0.404191
0.44806
0.457757
0.454357
0.449402
0.445751
0.444032
0.442871
0.441434
0.439597
0.437457
0.435118
0.432587
0.429885
0.426985
0.423919
0.420663
0.41726
0.41368
0.409974
0.406111
0.402147
0.398058
0.393898
0.38966
0.385395
0.381119
0.376875
0.372716
0.368675
0.364846
0.361266
0.358061
0.355306
0.353119
0.351684
0.351059
0.351506
0.353198
0.356409
0.361328
0.368067
0.376898
0.387631
0.399367
0.409971
2.2711
1.02069
0.319134
0.340562
0.404771
0.449104
0.459114
0.455933
0.451211
0.447736
0.446148
0.445135
0.44385
0.442185
0.440222
0.438076
0.435754
0.433275
0.430627
0.427825
0.424874
0.421785
0.418575
0.415245
0.411829
0.408319
0.404767
0.401159
0.397567
0.393976
0.390474
0.387061
0.383832
0.38082
0.378119
0.375817
0.373995
0.372842
0.372421
0.372922
0.374586
0.377704
0.382626
0.389493
0.39892
0.411249
0.426945
0.447105
0.470987
0.498595
2.27293
1.02393
0.321414
0.340941
0.40548
0.450365
0.460759
0.457821
0.453386
0.450054
0.448614
0.447719
0.446604
0.445086
0.443321
0.441347
0.439254
0.436989
0.434613
0.432078
0.42945
0.426691
0.423866
0.420942
0.417982
0.41497
0.411959
0.408959
0.406014
0.403163
0.400441
0.397927
0.395648
0.393729
0.392202
0.39124
0.390881
0.39131
0.392695
0.395382
0.399588
0.405684
0.41389
0.425051
0.439617
0.459156
0.48508
0.520593
0.571925
0.664902
2.27501
1.02767
0.323948
0.341215
0.40628
0.451965
0.462913
0.460348
0.456261
0.453157
0.451875
0.451202
0.450303
0.449061
0.447542
0.445881
0.444075
0.442176
0.440146
0.438045
0.435837
0.433592
0.431274
0.42896
0.426615
0.424326
0.422062
0.41992
0.417881
0.416052
0.414434
0.413141
0.412213
0.411771
0.411913
0.412685
0.414248
0.417013
0.421204
0.426895
0.434587
0.444557
0.457829
0.474815
0.497601
0.527609
0.569591
0.631145
0.729821
0.881473
2.27722
1.03164
0.326959
0.342166
0.40801
0.454834
0.466502
0.464317
0.460549
0.457503
0.456263
0.455681
0.454942
0.453877
0.452577
0.451142
0.449618
0.448015
0.446347
0.44462
0.44286
0.441075
0.439301
0.437545
0.435854
0.434234
0.432752
0.431412
0.430304
0.429436
0.428929
0.428798
0.429162
0.430044
0.431681
0.434269
0.437983
0.4429
0.449466
0.45779
0.468589
0.482302
0.49981
0.52262
0.55179
0.591352
0.643909
0.71803
0.828974
0.967128
2.2785
1.03396
0.328832
0.343226
0.410173
0.45858
0.471227
0.46954
0.4661
0.463074
0.46187
0.461405
0.460832
0.459945
0.458834
0.457606
0.456316
0.45498
0.453611
0.452221
0.450836
0.449473
0.448163
0.446928
0.445806
0.444825
0.444033
0.443472
0.443202
0.44329
0.443749
0.444652
0.446238
0.448643
0.451864
0.456152
0.461587
0.468577
0.477192
0.488159
0.501493
0.51849
0.539208
0.565766
0.599039
0.641709
0.697365
0.767747
0.864161
0.967468
2.27966
1.03607
0.332146
0.346924
0.415037
0.464994
0.478237
0.47642
0.47263
0.469257
0.467978
0.467618
0.467207
0.466497
0.465591
0.464593
0.463588
0.462562
0.46155
0.460539
0.459576
0.458656
0.457833
0.45711
0.456545
0.456156
0.45601
0.456123
0.456541
0.457351
0.458724
0.460706
0.463355
0.466844
0.471237
0.476839
0.483678
0.492267
0.502616
0.515403
0.530883
0.549715
0.572835
0.600696
0.63532
0.67709
0.728922
0.790937
0.868861
0.949896
2.27609
1.02968
0.334283
0.356822
0.427458
0.479817
0.493318
0.490518
0.485516
0.481268
0.479611
0.479056
0.478484
0.477615
0.476555
0.475462
0.474399
0.473375
0.4724
0.471488
0.470663
0.469954
0.469375
0.468977
0.468782
0.46882
0.469092
0.46976
0.47084
0.472443
0.474537
0.477325
0.480773
0.485169
0.49048
0.497074
0.504974
0.514554
0.526081
0.539787
0.556352
0.575908
0.599478
0.627359
0.660588
0.700046
0.746329
0.800693
0.864197
0.928772
2.28202
1.02253
0.358734
0.382355
0.448475
0.498366
0.510277
0.506524
0.500781
0.496399
0.494698
0.494009
0.49331
0.49236
0.491295
0.490218
0.489187
0.48819
0.487253
0.486373
0.485597
0.484924
0.484411
0.484028
0.483898
0.484054
0.4846
0.485466
0.486857
0.488704
0.491255
0.494402
0.498485
0.50335
0.509461
0.516587
0.525355
0.535458
0.547707
0.561821
0.578643
0.59817
0.621055
0.647781
0.678642
0.714583
0.755554
0.802425
0.855616
0.909172
1.87633
0.77201
0.273258
0.344116
0.417755
0.441224
0.441128
0.437147
0.433504
0.43341
0.435585
0.438473
0.441473
0.444516
0.447654
0.450902
0.45422
0.457563
0.460901
0.464217
0.467492
0.470671
0.473814
0.476954
0.480147
0.483328
0.486619
0.489939
0.493562
0.497371
0.501674
0.506364
0.5118
0.517897
0.52502
0.533154
0.542607
0.553543
0.566084
0.580721
0.597299
0.616685
0.638455
0.66378
0.692057
0.724529
0.760515
0.800987
0.845794
0.890535
1.8689
0.771402
0.282163
0.355347
0.428336
0.447791
0.443317
0.435955
0.430298
0.428404
0.428316
0.42872
0.42932
0.430224
0.431572
0.433353
0.435611
0.438218
0.441294
0.44472
0.448604
0.452671
0.457148
0.461792
0.466826
0.471979
0.477519
0.483247
0.489339
0.495663
0.502397
0.509467
0.517028
0.525163
0.533962
0.543708
0.554311
0.566331
0.579524
0.594594
0.611242
0.630221
0.651262
0.675018
0.701355
0.730662
0.762974
0.798097
0.836498
0.874171
1.86794
0.770088
0.284295
0.365059
0.44362
0.463692
0.457504
0.448127
0.441121
0.43839
0.437491
0.436894
0.436306
0.435903
0.435816
0.436087
0.436717
0.437721
0.439253
0.441237
0.443725
0.446641
0.450161
0.454162
0.458796
0.463938
0.469667
0.475917
0.48271
0.490078
0.497955
0.506542
0.515632
0.525583
0.536004
0.547447
0.559505
0.572776
0.586945
0.602619
0.619546
0.638277
0.658694
0.681193
0.705728
0.732535
0.761576
0.792777
0.826389
0.858916
1.86943
0.77337
0.29009
0.367274
0.44369
0.464289
0.459065
0.450544
0.443966
0.441603
0.441128
0.44095
0.440733
0.440623
0.440708
0.441014
0.441602
0.44251
0.443698
0.44518
0.446984
0.449218
0.451859
0.45507
0.458756
0.463136
0.468048
0.473768
0.480041
0.487238
0.494983
0.503742
0.513048
0.523418
0.534429
0.546562
0.559472
0.573571
0.588568
0.604822
0.622184
0.640922
0.661007
0.682656
0.705838
0.730684
0.757131
0.785225
0.815011
0.84366
1.87254
0.780053
0.297774
0.361234
0.429068
0.450305
0.448017
0.44195
0.436341
0.434468
0.434505
0.435036
0.435624
0.436338
0.43723
0.438402
0.439863
0.441547
0.443418
0.445525
0.447869
0.450532
0.45349
0.45686
0.460597
0.464874
0.469589
0.474999
0.480925
0.487696
0.495076
0.503398
0.512436
0.52248
0.533349
0.54526
0.558084
0.572001
0.586939
0.60304
0.620265
0.638749
0.658392
0.679336
0.701455
0.724928
0.749536
0.775259
0.802274
0.82811
1.88112
0.786632
0.300023
0.349024
0.412201
0.441241
0.444209
0.439522
0.43437
0.432088
0.431844
0.432367
0.433086
0.434006
0.435102
0.436435
0.438031
0.439887
0.442
0.444397
0.447071
0.450078
0.453388
0.457088
0.461125
0.465642
0.470548
0.476049
0.48201
0.488683
0.495928
0.503985
0.512751
0.522408
0.532894
0.544359
0.556735
0.570154
0.584547
0.600038
0.616552
0.634199
0.652898
0.672748
0.693647
0.715631
0.738553
0.762377
0.787193
0.810842
2.26308
1.106
0.407182
0.399177
0.459361
0.508055
0.519344
0.514453
0.507529
0.501482
0.497966
0.495495
0.493384
0.491366
0.489339
0.487367
0.485643
0.484155
0.483007
0.48216
0.481732
0.481684
0.482138
0.483072
0.484553
0.486618
0.489302
0.492663
0.496703
0.501513
0.507072
0.513485
0.520728
0.528921
0.538016
0.548143
0.559231
0.571399
0.584573
0.598856
0.614146
0.63054
0.647915
0.666324
0.685678
0.705967
0.727091
0.748971
0.771682
0.793289
2.27249
1.12788
0.391659
0.377125
0.449991
0.510704
0.5291
0.528217
0.523995
0.520192
0.51875
0.518375
0.518359
0.51832
0.517905
0.517277
0.516605
0.515976
0.515409
0.514934
0.514568
0.514374
0.514372
0.514645
0.515229
0.5162
0.517597
0.519529
0.521993
0.525145
0.528931
0.533547
0.538904
0.545189
0.552328
0.560459
0.569553
0.579707
0.590904
0.603177
0.616549
0.63097
0.646467
0.662944
0.680373
0.698684
0.717784
0.73758
0.758136
0.777701
2.29742
1.1766
0.43424
0.383992
0.447089
0.503379
0.521855
0.522882
0.521057
0.519873
0.520291
0.521523
0.523317
0.525119
0.526527
0.527727
0.528851
0.529998
0.531147
0.532328
0.533514
0.534759
0.536052
0.537455
0.538969
0.540666
0.542564
0.544737
0.547229
0.550108
0.553442
0.55728
0.561721
0.566795
0.572623
0.579213
0.586685
0.595023
0.604329
0.614574
0.625807
0.637996
0.651171
0.665316
0.680403
0.696402
0.713215
0.730688
0.74891
0.766292
1.90074
0.805027
0.305803
0.316892
0.374008
0.414893
0.429173
0.432999
0.435822
0.439473
0.444404
0.45015
0.456588
0.463082
0.469259
0.475256
0.481221
0.487183
0.493127
0.499012
0.504835
0.510573
0.516247
0.521834
0.527371
0.532833
0.538289
0.543708
0.549186
0.554711
0.560355
0.566162
0.572199
0.57853
0.585209
0.592335
0.599933
0.608124
0.616896
0.626387
0.636549
0.647523
0.659218
0.671741
0.684977
0.698943
0.713576
0.728901
0.744914
0.760229
2.30593
1.19374
0.449582
0.386636
0.440662
0.492233
0.509232
0.509292
0.506146
0.503669
0.502411
0.502227
0.502682
0.503078
0.503402
0.503906
0.504732
0.506008
0.507704
0.509862
0.512435
0.515476
0.518939
0.522865
0.527179
0.531937
0.537022
0.542525
0.548285
0.554421
0.560805
0.567546
0.574525
0.581865
0.589457
0.59744
0.605729
0.614457
0.623561
0.633159
0.643217
0.653819
0.664948
0.676638
0.688898
0.70171
0.715082
0.728924
0.743325
0.757044
2.31117
1.20371
0.432883
0.36973
0.438372
0.500627
0.522079
0.52349
0.521271
0.519801
0.519928
0.52106
0.52279
0.524294
0.525319
0.526166
0.527001
0.52795
0.529025
0.530314
0.531823
0.533637
0.535745
0.53823
0.541078
0.544353
0.548048
0.552203
0.556815
0.561899
0.567455
0.573469
0.579948
0.586867
0.59426
0.602064
0.610334
0.618991
0.628118
0.637618
0.647595
0.65794
0.668776
0.679979
0.691669
0.703723
0.716235
0.729068
0.742349
0.754951
2.31389
1.20954
0.43706
0.371772
0.441499
0.505349
0.527724
0.529404
0.52724
0.525892
0.526365
0.527882
0.530152
0.532345
0.534064
0.535594
0.53712
0.538752
0.540484
0.542346
0.544334
0.546481
0.548802
0.551331
0.5541
0.557133
0.560474
0.564137
0.568172
0.572581
0.577421
0.582677
0.588407
0.594581
0.60125
0.608375
0.616001
0.624083
0.632652
0.64167
0.651148
0.661064
0.671405
0.68216
0.693293
0.704813
0.716653
0.728829
0.741332
0.753222
2.31688
1.21726
0.463429
0.387826
0.447095
0.506221
0.528779
0.532009
0.53113
0.53076
0.531652
0.53358
0.536119
0.538417
0.540443
0.542347
0.544305
0.546347
0.548524
0.550805
0.553236
0.555787
0.558512
0.561384
0.564462
0.567721
0.571224
0.57495
0.578963
0.583248
0.587866
0.592811
0.598132
0.60383
0.609934
0.616451
0.623396
0.630788
0.638616
0.646906
0.655623
0.664798
0.674381
0.684398
0.694785
0.705561
0.716654
0.728062
0.739805
0.750981
1.90562
0.813582
0.324706
0.323678
0.376481
0.414373
0.42726
0.430302
0.432593
0.435933
0.440703
0.446614
0.453341
0.460158
0.466867
0.473527
0.48026
0.487054
0.493919
0.500797
0.507694
0.514573
0.521449
0.528297
0.535141
0.54197
0.548808
0.555654
0.562532
0.569453
0.576434
0.583506
0.59068
0.597998
0.605465
0.613135
0.621002
0.629123
0.637487
0.646135
0.655059
0.664286
0.673798
0.683622
0.693732
0.704137
0.714812
0.725748
0.736994
0.747669
2.31198
1.20857
0.464947
0.403496
0.4662
0.527383
0.549309
0.550235
0.546091
0.542259
0.540053
0.53868
0.538086
0.53769
0.536957
0.536235
0.53567
0.535518
0.535706
0.536394
0.537507
0.539121
0.541202
0.543791
0.54685
0.550407
0.554421
0.558916
0.563837
0.569205
0.574966
0.581127
0.587635
0.594502
0.601686
0.609195
0.616999
0.625102
0.633481
0.642147
0.651083
0.660297
0.669778
0.679524
0.689521
0.699756
0.710217
0.72088
0.731808
0.74217
2.29403
1.16957
0.460051
0.422684
0.485793
0.546188
0.566072
0.56611
0.56239
0.559154
0.558397
0.5588
0.559887
0.561151
0.562023
0.562662
0.563254
0.563912
0.564647
0.565471
0.566392
0.567456
0.568709
0.570193
0.571941
0.573999
0.576384
0.579127
0.582245
0.58576
0.589676
0.594014
0.598778
0.603976
0.609606
0.615664
0.622142
0.629031
0.636318
0.643986
0.65202
0.660398
0.669102
0.678114
0.68743
0.697016
0.706872
0.716958
0.727328
0.737181
1.88783
0.80507
0.340769
0.355363
0.406342
0.443121
0.452856
0.452684
0.451749
0.452601
0.455914
0.460538
0.466077
0.472142
0.478231
0.484352
0.490569
0.496888
0.503264
0.509651
0.516013
0.522338
0.528615
0.534844
0.54102
0.547153
0.553254
0.559345
0.565446
0.57159
0.577801
0.5841
0.59052
0.597081
0.60381
0.610724
0.617847
0.625188
0.632766
0.640582
0.648657
0.656983
0.665575
0.674411
0.683492
0.692805
0.702338
0.712077
0.722064
0.731557
1.87402
0.796327
0.339516
0.356659
0.398325
0.426968
0.434882
0.434835
0.433828
0.433316
0.434049
0.435683
0.43824
0.441448
0.44494
0.448772
0.453028
0.457746
0.462906
0.468488
0.474452
0.480775
0.487412
0.49434
0.501515
0.508912
0.516489
0.524227
0.532092
0.540068
0.548131
0.556291
0.564521
0.572841
0.581228
0.589714
0.59828
0.606958
0.615742
0.624639
0.633646
0.642782
0.652046
0.661452
0.670997
0.68069
0.690526
0.700499
0.710651
0.720263
1.88891
0.806045
0.345012
0.373645
0.43094
0.466892
0.47362
0.469566
0.464485
0.461383
0.460432
0.460402
0.460994
0.461959
0.462999
0.464172
0.465605
0.467366
0.469492
0.471995
0.474897
0.478208
0.481958
0.48614
0.490772
0.495837
0.501346
0.507268
0.513605
0.52032
0.527417
0.534846
0.542609
0.550661
0.558992
0.567561
0.576361
0.585353
0.594527
0.603873
0.613387
0.623044
0.632843
0.64276
0.652798
0.662937
0.673184
0.683515
0.693999
0.703892
2.34071
1.12427
0.469014
0.447558
0.513125
0.574864
0.59548
0.59487
0.589571
0.584268
0.581258
0.579349
0.577784
0.576414
0.57486
0.573127
0.571355
0.569643
0.568034
0.566556
0.565233
0.564102
0.563188
0.56254
0.562185
0.562175
0.562527
0.5633
0.564487
0.566126
0.568247
0.570857
0.573982
0.577603
0.581745
0.58638
0.591523
0.597138
0.603235
0.609766
0.616732
0.624088
0.631817
0.63991
0.648324
0.657043
0.666027
0.675263
0.68476
0.693817
1.88936
0.807235
0.346151
0.36347
0.41582
0.456081
0.468552
0.469556
0.469007
0.468985
0.471272
0.47479
0.478997
0.483731
0.488555
0.493366
0.498206
0.503134
0.508109
0.51312
0.51811
0.523086
0.52801
0.532909
0.537751
0.542574
0.547353
0.552131
0.556908
0.561716
0.566559
0.571475
0.57646
0.581567
0.586795
0.592196
0.59776
0.603542
0.609523
0.615759
0.62222
0.628957
0.635943
0.643188
0.650681
0.658433
0.666424
0.674653
0.683135
0.69124
1.8891
0.807383
0.347462
0.364537
0.416093
0.454584
0.465033
0.463969
0.461094
0.458535
0.458068
0.45891
0.460496
0.462703
0.465122
0.467712
0.47058
0.473809
0.477402
0.481345
0.48561
0.490182
0.495038
0.500159
0.505525
0.51111
0.516894
0.522854
0.52897
0.535241
0.541644
0.548177
0.554828
0.561588
0.568454
0.575418
0.582485
0.589654
0.596931
0.604315
0.611816
0.619429
0.627168
0.635027
0.643023
0.651147
0.659412
0.667803
0.676369
0.684503
2.34273
1.12796
0.472698
0.449623
0.516379
0.580616
0.603063
0.603164
0.598084
0.593016
0.590234
0.588679
0.587552
0.586701
0.585699
0.584534
0.583309
0.582185
0.581148
0.58029
0.579552
0.579042
0.578697
0.578638
0.578796
0.579278
0.580043
0.581131
0.582559
0.584333
0.586464
0.588948
0.591788
0.594981
0.598527
0.602424
0.606665
0.611244
0.61615
0.621377
0.626909
0.632739
0.638849
0.645235
0.651875
0.658766
0.665886
0.673229
0.680799
0.68804
1.88982
0.808778
0.35342
0.381409
0.439685
0.479631
0.489588
0.487907
0.484862
0.483477
0.484903
0.487578
0.490927
0.494761
0.498661
0.50261
0.506673
0.510901
0.515263
0.519746
0.524307
0.52894
0.533622
0.538353
0.543122
0.547926
0.552767
0.557644
0.562569
0.567542
0.572575
0.577682
0.582862
0.588138
0.593509
0.598996
0.604595
0.610326
0.616185
0.622187
0.628336
0.634642
0.641106
0.647731
0.65452
0.661475
0.668593
0.675866
0.683321
0.690419
1.87526
0.799751
0.351149
0.378099
0.427534
0.459445
0.467093
0.465963
0.464281
0.463568
0.464095
0.465293
0.467193
0.469479
0.47183
0.474311
0.477019
0.480002
0.48327
0.486819
0.490641
0.494727
0.499069
0.503661
0.508491
0.513549
0.518821
0.524295
0.529958
0.535797
0.5418
0.547949
0.554251
0.560683
0.567252
0.573938
0.580752
0.587678
0.594727
0.601882
0.609153
0.616523
0.624004
0.631583
0.639272
0.647056
0.65495
0.662938
0.67107
0.67877
1.87423
0.799385
0.351674
0.375347
0.422432
0.4541
0.462313
0.46185
0.460733
0.460114
0.460384
0.461209
0.462692
0.464528
0.466376
0.468278
0.470334
0.47259
0.475063
0.477753
0.48067
0.483817
0.487204
0.490832
0.494709
0.49883
0.503203
0.50782
0.512687
0.517795
0.523147
0.528733
0.534552
0.540592
0.546848
0.553308
0.559968
0.56681
0.573837
0.581032
0.588396
0.595917
0.603594
0.611411
0.619362
0.627438
0.635644
0.643974
0.65246
0.660517
1.88906
0.809112
0.354848
0.362656
0.413293
0.452092
0.463034
0.46262
0.460831
0.459584
0.45962
0.460431
0.461971
0.463874
0.465701
0.467509
0.469426
0.471518
0.473803
0.476278
0.478945
0.481803
0.484859
0.488115
0.491575
0.49524
0.499116
0.503202
0.507503
0.512019
0.516753
0.521704
0.526874
0.532262
0.537866
0.543685
0.549718
0.55596
0.562408
0.569058
0.575904
0.582938
0.590154
0.597548
0.60512
0.612862
0.620764
0.628817
0.637041
0.644864
2.31231
1.20464
0.485401
0.431467
0.492565
0.556792
0.582779
0.586272
0.583607
0.580875
0.579587
0.579273
0.579762
0.580592
0.581131
0.581421
0.581654
0.581937
0.582313
0.582781
0.583348
0.584011
0.584789
0.585684
0.586714
0.587883
0.589207
0.590688
0.592343
0.594174
0.596197
0.598413
0.600838
0.60347
0.606325
0.609399
0.612708
0.616245
0.620025
0.62404
0.628302
0.632799
0.637545
0.642525
0.647751
0.653205
0.65889
0.664783
0.670914
0.676808
2.32252
1.22873
0.466081
0.40536
0.481435
0.557492
0.588655
0.593333
0.590699
0.587837
0.586849
0.587302
0.588592
0.590408
0.59209
0.593487
0.594818
0.596231
0.597784
0.599464
0.601267
0.603178
0.605207
0.607347
0.609609
0.611986
0.61449
0.617112
0.619864
0.622739
0.625749
0.628888
0.632167
0.635581
0.639142
0.642843
0.646697
0.650697
0.654857
0.659169
0.663645
0.668279
0.673083
0.67805
0.683189
0.688488
0.693956
0.699577
0.705375
0.710914
2.31272
1.20614
0.486655
0.432532
0.494344
0.559801
0.58686
0.591009
0.588957
0.586845
0.586276
0.586933
0.588442
0.590431
0.59223
0.593824
0.595397
0.59708
0.598909
0.600884
0.602993
0.605237
0.607615
0.610132
0.612788
0.61559
0.618532
0.621623
0.624857
0.628241
0.631769
0.63545
0.639275
0.643254
0.647379
0.651658
0.656083
0.660662
0.665386
0.670266
0.675289
0.680467
0.685789
0.691263
0.696879
0.702646
0.70855
0.714602
0.720809
0.726747
1.88895
0.809179
0.356053
0.364302
0.416383
0.457002
0.469101
0.469118
0.467532
0.466518
0.467162
0.468789
0.471271
0.474227
0.477161
0.480127
0.483235
0.486564
0.490107
0.493868
0.497822
0.501976
0.506312
0.510838
0.515537
0.520418
0.525462
0.53068
0.53605
0.541584
0.547263
0.553096
0.559065
0.565181
0.571424
0.577807
0.58431
0.590945
0.597694
0.604569
0.611552
0.618657
0.625862
0.633184
0.6406
0.648129
0.65575
0.663484
0.671345
0.678833
1.87422
0.800022
0.355289
0.38047
0.428584
0.46013
0.46765
0.466483
0.464741
0.463859
0.464077
0.464928
0.46647
0.468352
0.470184
0.472035
0.473999
0.476138
0.47845
0.480944
0.483609
0.486459
0.489486
0.492706
0.496109
0.49971
0.503499
0.507489
0.51167
0.516053
0.520627
0.525403
0.53037
0.535537
0.540891
0.546441
0.552175
0.558099
0.564201
0.570488
0.576945
0.583578
0.590374
0.597337
0.604452
0.611726
0.619143
0.62671
0.634435
0.641797
1.87704
0.803103
0.35936
0.395136
0.451551
0.484553
0.490474
0.486942
0.482758
0.480811
0.4808
0.481596
0.483007
0.484672
0.48627
0.487892
0.489636
0.491548
0.493623
0.495861
0.498253
0.500807
0.503519
0.506399
0.509441
0.512656
0.516038
0.519595
0.523323
0.527229
0.531309
0.535568
0.540003
0.544618
0.549409
0.554382
0.559528
0.564855
0.570355
0.576033
0.581881
0.587904
0.594092
0.60045
0.606968
0.613649
0.620482
0.627468
0.634613
0.641425
1.19153
1.04878
0.497485
0.190537
0.0109177
0.108741
0.160299
0.208635
0.23022
0.234572
0.22286
0.211384
0.201057
0.191521
0.179484
0.16503
0.147698
0.127764
0.105943
0.0827982
0.0589756
0.0352615
0.0158726
0.0232595
0.0469719
0.0712772
0.0954116
0.119118
0.14243
0.165332
0.187828
0.209901
0.231531
0.252671
0.272676
0.291776
0.311311
0.331682
0.35164
0.370803
0.38931
0.407303
0.424816
0.441863
0.458429
0.47452
0.49012
0.505234
0.519846
0.533961
0.547559
0.56064
0.573178
0.585172
0.596589
0.60742
0.617629
0.627202
0.636097
0.644297
0.651756
0.658456
0.664351
0.669425
0.673639
0.676991
0.679461
0.681074
0.681836
0.682003
0.68182
0.681252
0.679903
0.677385
0.673996
0.670382
0.666697
0.662974
0.65928
0.655698
0.652327
0.649241
0.646507
0.644161
0.642231
0.64072
0.639627
0.638928
0.638594
0.638565
0.638718
0.639051
0.63968
0.640766
0.642145
0.643655
0.645197
0.646865
0.648503
0.653279
1.12189
1.03595
0.806063
0.549159
0.502147
0.431217
0.381334
0.340605
0.310342
0.291785
0.260405
0.230118
0.210544
0.208792
0.21593
0.22648
0.238938
0.252849
0.267976
0.283827
0.300202
0.316668
0.332988
0.349157
0.365885
0.382864
0.400021
0.417116
0.434207
0.451134
0.467981
0.484606
0.501099
0.517328
0.532981
0.547893
0.562887
0.578604
0.594463
0.609683
0.624396
0.638763
0.652837
0.666608
0.680057
0.693168
0.705932
0.718339
0.730379
0.742043
0.753317
0.764191
0.774644
0.784663
0.794225
0.80331
0.81189
0.819944
0.827438
0.834348
0.840639
0.846283
0.851247
0.855507
0.859033
0.861814
0.863836
0.865105
0.865651
0.865655
0.865354
0.864679
0.863314
0.860915
0.857687
0.854203
0.850644
0.847071
0.843549
0.840151
0.836965
0.834062
0.831503
0.829322
0.827542
0.826164
0.825187
0.824581
0.824346
0.824368
0.824538
0.824867
0.825428
0.826387
0.827588
0.828923
0.830238
0.831649
0.832838
0.836637
1.07462
1.07543
1.00803
0.899558
0.831126
0.780821
0.744911
0.714819
0.690005
0.671911
0.656792
0.642448
0.632449
0.627309
0.625786
0.626036
0.627532
0.629928
0.633303
0.637561
0.64267
0.648436
0.654793
0.66162
0.669174
0.67733
0.686098
0.695249
0.704821
0.714622
0.724735
0.734982
0.745473
0.756017
0.766404
0.776345
0.786421
0.797201
0.808568
0.81966
0.830469
0.841084
0.851601
0.861994
0.87227
0.882375
0.892317
0.902048
0.91158
0.920869
0.929925
0.9387
0.947201
0.955381
0.96324
0.970729
0.977847
0.984539
0.990801
0.996579
1.00187
1.0066
1.01079
1.01437
1.01734
1.01966
1.02133
1.02233
1.02267
1.02255
1.02218
1.02149
1.02016
1.01794
1.01497
1.01172
1.00836
1.00501
1.00173
0.998583
0.995647
0.992992