/*--------------------------------*- C++ -*----------------------------------*\
| =========                 |                                                 |
| \\      /  F ield         | OpenFOAM: The Open Source CFD Toolbox           |
|  \\    /   O peration     | Version:  2412                                  |
|   \\  /    A nd           | Website:  www.openfoam.com                      |
|    \\/     M anipulation  |                                                 |
\*---------------------------------------------------------------------------*/
FoamFile
{
    version     2.0;
    format      ascii;
    arch        "LSB;label=32;scalar=64";
    class       surfaceScalarField;
    location    "28.5";
    object      phi;
}
// * * * * * * * * * * * * * * * * * * * * * * * * * * * * * * * * * * * * * //

dimensions      [1 0 -1 0 0 0 0];

oriented        oriented;

internalField   nonuniform List<scalar> 
13790
(
0.00292373
-1.97076e-07
0.00274462
9.30893e-07
0.002804
3.25443e-06
0.00280525
5.5894e-06
0.00279922
6.47606e-06
0.00279208
7.16785e-06
0.00278413
7.96058e-06
0.00277521
8.91064e-06
0.00276522
9.99831e-06
0.00275398
1.12427e-05
0.0027414
1.25747e-05
0.00272745
1.3956e-05
0.00271206
1.53887e-05
0.00269517
1.68898e-05
0.00267669
1.84719e-05
0.00265655
2.01409e-05
0.00263465
2.18999e-05
0.0026109
2.37534e-05
0.00258519
2.57074e-05
0.00255742
2.77694e-05
0.00252748
2.99476e-05
0.00249523
3.22506e-05
0.00246054
3.46876e-05
0.00242327
3.72686e-05
0.00238327
4.00038e-05
0.00234036
4.29042e-05
0.00229438
4.59807e-05
0.00224514
4.92442e-05
0.00219243
5.27055e-05
0.00213606
5.63746e-05
0.0020758
6.02606e-05
0.00201143
6.43699e-05
0.00194272
6.87081e-05
0.00186944
7.32748e-05
0.00179137
7.8068e-05
0.0017083
8.30758e-05
0.00162001
8.82838e-05
0.00152635
9.36617e-05
0.00142718
9.91765e-05
0.0013224
0.000104772
0.00121201
0.000110392
0.00109607
0.000115946
0.00097471
0.000121356
0.00084821
0.0001265
0.000716917
0.000131294
0.000581309
0.000135608
0.000441835
0.000139474
0.00029916
0.000142674
0.000152276
0.000146884
0.000152276
0.00303216
2.04451e-08
0.0028463
8.42726e-07
0.00290647
8.61794e-06
0.00290779
1.12917e-05
0.00290193
1.2814e-05
0.00289474
1.43809e-05
0.00288655
1.6154e-05
0.00287731
1.81566e-05
0.00286691
2.03963e-05
0.00285524
2.29121e-05
0.00284221
2.56042e-05
0.00282776
2.84093e-05
0.00281182
3.13278e-05
0.00279432
3.43881e-05
0.00277518
3.76114e-05
0.00275431
4.10107e-05
0.00273162
4.45922e-05
0.00270701
4.83668e-05
0.00268037
5.23456e-05
0.00265159
5.65451e-05
0.00262056
6.09802e-05
0.00258714
6.56703e-05
0.00255119
7.06325e-05
0.00251257
7.58889e-05
0.00247112
8.14587e-05
0.00242666
8.73658e-05
0.00237901
9.36312e-05
0.00232797
0.000100278
0.00227335
0.000107329
0.00221492
0.000114803
0.00215246
0.000122721
0.00208574
0.000131094
0.00201451
0.000139937
0.00193854
0.000149246
0.00185758
0.000159022
0.00177142
0.000169236
0.00167984
0.000179866
0.00158266
0.000190846
0.00147972
0.000202115
0.00137093
0.000213555
0.00125627
0.000225056
0.00113578
0.000236434
0.00100961
0.000247528
0.000878011
0.000258098
0.000741359
0.000267946
0.000600111
0.000276856
0.000454841
0.000284744
0.000306087
0.000291428
0.000154199
0.000298772
0.000306475
0.00314487
9.21611e-08
0.00295181
1.21271e-06
0.00301442
1.38916e-05
0.0030157
1.72799e-05
0.00300971
1.92998e-05
0.0030024
2.17274e-05
0.00299397
2.45776e-05
0.00298442
2.77089e-05
0.00297366
3.11618e-05
0.00296157
3.4995e-05
0.00294809
3.90868e-05
0.00293314
4.33572e-05
0.00291666
4.78168e-05
0.00289855
5.24909e-05
0.00287875
5.74185e-05
0.00285715
6.26061e-05
0.00283366
6.80785e-05
0.00280819
7.38374e-05
0.00278062
7.99167e-05
0.00275084
8.63233e-05
0.00271872
9.30998e-05
0.00268414
0.000100254
0.00264694
0.000107836
0.00260697
0.000115854
0.00256407
0.000124365
0.00251806
0.000133375
0.00246874
0.00014295
0.00241592
0.000153091
0.00235939
0.000163868
0.00229891
0.000175275
0.00223425
0.000187381
0.00216518
0.000200166
0.00209143
0.000213692
0.00201276
0.000227915
0.0019289
0.000242878
0.00183964
0.000258502
0.00174472
0.000274785
0.00164396
0.000291606
0.00153719
0.000308884
0.00142429
0.00032645
0.00130525
0.000344103
0.00118005
0.000361634
0.00104889
0.000378682
0.000911945
0.000395046
0.000769667
0.000410225
0.000622493
0.00042403
0.000471053
0.000436184
0.000316165
0.000446316
0.000158592
0.000456345
0.000465068
0.0032618
1.16203e-07
0.00306156
1.67026e-06
0.00312673
1.90947e-05
0.00312806
2.34725e-05
0.00312188
2.5993e-05
0.0031144
2.92452e-05
0.00310577
3.3209e-05
0.00309594
3.75439e-05
0.00308482
4.22803e-05
0.00307234
4.74789e-05
0.00305842
5.30059e-05
0.00304298
5.87914e-05
0.00302596
6.48394e-05
0.00300726
7.11905e-05
0.0029868
7.78753e-05
0.00296449
8.49206e-05
0.00294023
9.23394e-05
0.00291391
0.000100159
0.00288542
0.000108399
0.00285465
0.000117099
0.00282147
0.000126281
0.00278573
0.000135997
0.00274729
0.000146268
0.00270599
0.000157158
0.00266167
0.000168685
0.00261412
0.000180927
0.00256317
0.000193894
0.00250859
0.000207678
0.00245018
0.000222273
0.00238767
0.000237785
0.00232087
0.000254183
0.00224945
0.000271584
0.00217323
0.000289912
0.00209186
0.000309292
0.00200515
0.000329581
0.00191276
0.000350898
0.00181453
0.000373009
0.00171014
0.000395995
0.00159952
0.00041951
0.00148242
0.000443551
0.00135884
0.000467673
0.0012288
0.000491675
0.00109236
0.00051512
0.000949929
0.000537482
0.000801616
0.000558537
0.000648239
0.000577407
0.000490305
0.000594117
0.00032867
0.000607952
0.00016476
0.000620254
0.000629828
0.00338304
1.39634e-07
0.00317539
2.15977e-06
0.00324314
2.43246e-05
0.0032446
2.9797e-05
0.00323827
3.286e-05
0.00323061
3.69427e-05
0.0032218
4.20206e-05
0.00321169
4.76499e-05
0.00320025
5.37297e-05
0.00318739
6.03382e-05
0.00317306
6.73396e-05
0.00315716
7.46904e-05
0.00313962
8.23754e-05
0.00312035
9.04632e-05
0.00309926
9.89604e-05
0.00307625
0.000107928
0.00305124
0.000117353
0.0030241
0.000127303
0.00299473
0.000137769
0.00296299
0.000148836
0.00292877
0.000160498
0.00289192
0.000172854
0.00285228
0.000185901
0.00280969
0.000199748
0.00276398
0.000214395
0.00271495
0.000229957
0.00266241
0.000246442
0.00260612
0.00026396
0.00254587
0.000282529
0.00248141
0.000302243
0.00241246
0.000323129
0.0023388
0.000345243
0.00226009
0.000368624
0.00217612
0.000393259
0.00208651
0.000419194
0.0019911
0.000446303
0.00188947
0.000474644
0.00178156
0.000503901
0.00166692
0.000534152
0.00154565
0.000564817
0.00141736
0.000595965
0.00128231
0.000626728
0.0011404
0.000657034
0.000991918
0.00068596
0.000837465
0.00071299
0.000677148
0.000737724
0.000512231
0.000759034
0.000343477
0.000776706
0.000172035
0.000791696
0.000801863
0.00350879
1.63361e-07
0.00329346
2.65569e-06
0.0033639
2.95986e-05
0.00336551
3.62246e-05
0.00335906
3.98877e-05
0.00335124
4.48028e-05
0.00334219
5.10729e-05
0.00333188
5.79566e-05
0.00332016
6.54488e-05
0.00330697
7.35278e-05
0.00329223
8.20762e-05
0.0032759
9.10226e-05
0.00325786
0.000100417
0.00323805
0.000110274
0.00321634
0.000120667
0.00319268
0.000131589
0.00316692
0.000143112
0.00313901
0.000155222
0.00310876
0.000168016
0.00307611
0.00018148
0.00304087
0.000195737
0.00300297
0.000210763
0.00296215
0.000226713
0.00291835
0.00024355
0.00287129
0.000261457
0.00282086
0.000280382
0.00276677
0.00030054
0.00270887
0.000321853
0.00264684
0.000344565
0.00258051
0.00036857
0.00250952
0.000394123
0.00243367
0.000421089
0.00235259
0.000449704
0.00226604
0.000479807
0.00217367
0.000511568
0.00207518
0.000544796
0.00197029
0.000579526
0.00185865
0.000615541
0.00174017
0.000652637
0.00161439
0.000690591
0.00148155
0.000728813
0.00134109
0.000767189
0.00119357
0.000804545
0.00103876
0.000840778
0.000877305
0.000874441
0.000709978
0.000905051
0.000537036
0.000931976
0.000360125
0.000953618
0.000180624
0.000971196
0.000982487
0.00363923
1.87429e-07
0.00341591
3.15342e-06
0.00348916
3.4912e-05
0.00349097
4.27298e-05
0.00348443
4.70261e-05
0.00347648
5.28027e-05
0.00346728
6.0272e-05
0.00345675
6.84872e-05
0.00344477
7.74247e-05
0.00343127
8.70363e-05
0.00341617
9.71674e-05
0.00339942
0.000107778
0.00338092
0.000118914
0.00336057
0.00013062
0.0033383
0.00014294
0.00331399
0.000155905
0.00328754
0.000169554
0.00325884
0.000183924
0.00322779
0.000199068
0.00319423
0.000215044
0.00315805
0.000231908
0.00311908
0.00024974
0.00307719
0.000268596
0.00303216
0.000288581
0.00298388
0.000309742
0.00293204
0.000332217
0.00287655
0.00035603
0.00281704
0.000381361
0.00275342
0.000408193
0.00268524
0.000436751
0.0026124
0.000466957
0.00253441
0.000499079
0.00245116
0.000532952
0.00236211
0.000568863
0.00226713
0.00060655
0.00216567
0.000646251
0.00205759
0.00068761
0.0019424
0.000730727
0.0018199
0.000775137
0.00168982
0.000820676
0.00155185
0.000866783
0.00140622
0.000912819
0.00125242
0.000958342
0.0010912
0.001002
0.000922297
0.00104334
0.000746704
0.00108064
0.000565542
0.00111314
0.000379442
0.00113972
0.000190151
0.00116049
0.00117264
0.00377453
2.1165e-07
0.00354291
3.65026e-06
0.00361911
4.02477e-05
0.00362115
4.92835e-05
0.00361458
5.42364e-05
0.00360652
6.09037e-05
0.0035972
6.95911e-05
0.0035865
7.91868e-05
0.00357431
8.9623e-05
0.00356053
0.000100812
0.00354512
0.00011258
0.00352799
0.000124904
0.00350907
0.000137839
0.00348824
0.000151441
0.00346543
0.000165753
0.00344053
0.000180809
0.00341343
0.000196651
0.00338403
0.000213328
0.0033522
0.000230898
0.00331781
0.000249428
0.00328073
0.00026899
0.00324081
0.000289663
0.00319787
0.000311536
0.00315175
0.000334696
0.00310224
0.00035925
0.00304917
0.000385288
0.00299227
0.000412937
0.00293135
0.000442277
0.00286608
0.000473463
0.00279629
0.000506542
0.00272154
0.000541701
0.0026417
0.000578918
0.00255623
0.000618431
0.002465
0.000660087
0.00236738
0.000704171
0.00226328
0.000750351
0.00215201
0.000798884
0.00203348
0.000849253
0.00190706
0.000901559
0.00177263
0.000955106
0.00162979
0.00100963
0.00147829
0.00106432
0.00131843
0.0011182
0.00114976
0.00117068
0.000973234
0.00121986
0.000788854
0.00126502
0.000597625
0.00130437
0.000401355
0.00133599
0.00020156
0.00136028
0.0013742
0.00391487
2.35887e-07
0.00367462
4.14293e-06
0.00375393
4.55758e-05
0.00375624
5.58477e-05
0.00374968
6.14803e-05
0.00374157
6.90583e-05
0.00373215
7.90136e-05
0.00372134
8.9993e-05
0.00370899
0.00010198
0.003695
0.000114806
0.00367931
0.000128267
0.00366186
0.000142356
0.00364255
0.000157145
0.0036213
0.000172695
0.003598
0.000189053
0.00357255
0.000206253
0.00354486
0.000224345
0.00351481
0.000243382
0.00348227
0.000263434
0.00344712
0.000284575
0.00340922
0.00030689
0.00336842
0.000330468
0.00332455
0.00035541
0.00327742
0.000381822
0.00322685
0.000409817
0.00317262
0.000439517
0.00311452
0.000471041
0.00305227
0.000504529
0.00298563
0.000540096
0.00291428
0.000577895
0.00283796
0.000618018
0.00275625
0.000660631
0.00266892
0.000705758
0.00257542
0.000753593
0.00247558
0.000804007
0.00236869
0.00085724
0.00225467
0.000912902
0.00213267
0.000971258
0.00200268
0.00103154
0.00186383
0.00109396
0.00171615
0.0011573
0.00155904
0.00122144
0.00139232
0.00128491
0.00121645
0.00134655
0.00103081
0.00140549
0.000836926
0.00145891
0.000635286
0.00150601
0.000427027
0.00154425
0.000214247
0.00157306
0.00158845
0.00406044
2.59791e-07
0.00381121
4.62744e-06
0.00389382
5.08497e-05
0.00389647
6.23715e-05
0.00388998
6.86971e-05
0.00388187
7.72148e-05
0.00387245
8.84326e-05
0.00386156
0.000100879
0.00384909
0.000114455
0.00383493
0.000128963
0.00381903
0.000144167
0.00380131
0.000160078
0.00378169
0.00017677
0.00376006
0.000194326
0.00373633
0.000212777
0.00371041
0.000232178
0.00368219
0.000252564
0.00365155
0.000274018
0.00361839
0.000296596
0.00358256
0.000320403
0.00354394
0.000345514
0.00350235
0.000372054
0.00345765
0.000400111
0.00340964
0.000429833
0.00335813
0.000461322
0.00330291
0.000494744
0.00324374
0.000530212
0.00318036
0.00056791
0.0031125
0.000607954
0.00303986
0.000650536
0.00296211
0.000695768
0.0028789
0.000743834
0.00278984
0.000794822
0.00269456
0.000848877
0.00259252
0.00090604
0.00248341
0.00096635
0.00236653
0.00102979
0.00224164
0.00109615
0.00210784
0.00116535
0.00196508
0.00123672
0.00181227
0.00131011
0.0016496
0.00138411
0.0014761
0.00145841
0.00129191
0.00153074
0.00109758
0.00159983
0.00089241
0.00166408
0.000678316
0.0017201
0.000456723
0.00176584
0.000229857
0.00179993
0.0018183
0.00421144
2.8315e-07
0.00395288
5.09783e-06
0.00403898
5.60074e-05
0.00404204
6.87903e-05
0.00403567
7.58418e-05
0.00402763
8.53009e-05
0.00401823
9.78462e-05
0.00400738
0.000111724
0.00399489
0.000126946
0.00398065
0.000143203
0.0039646
0.000160219
0.00394668
0.000177999
0.00392679
0.000196655
0.00390486
0.000216257
0.00388078
0.000236861
0.00385446
0.000258499
0.00382578
0.000281237
0.00379466
0.000305139
0.00376096
0.000330298
0.00372456
0.0003568
0.00368531
0.000384761
0.00364308
0.000414288
0.00359768
0.000445516
0.00354894
0.000478574
0.00349664
0.000513613
0.0034406
0.000550787
0.00338055
0.00059026
0.00331625
0.000632209
0.00324741
0.000676799
0.00317371
0.00072423
0.00309483
0.000774655
0.00301038
0.000828285
0.00291996
0.000885238
0.00282312
0.000945713
0.00271941
0.00100976
0.00260825
0.00107751
0.00248914
0.00114889
0.00236139
0.0012239
0.00222451
0.00130222
0.00207761
0.00138362
0.00192037
0.00146735
0.00175169
0.00155279
0.00157159
0.00163852
0.00137894
0.00172338
0.00117402
0.00180475
0.000957739
0.00188036
0.000729837
0.001948
0.000492306
0.00200337
0.000247511
0.00204472
0.00206581
0.00436807
3.04372e-07
0.0040998
5.54853e-06
0.00418965
6.09513e-05
0.00419321
7.50254e-05
0.00418704
8.28353e-05
0.00417917
9.3225e-05
0.00416994
0.000107078
0.00415917
0.000122492
0.00414672
0.000139404
0.00413246
0.000157461
0.00411635
0.000176332
0.00409829
0.00019605
0.00407824
0.000216709
0.00405608
0.000238422
0.00403173
0.000261207
0.00400509
0.000285143
0.00397607
0.000310254
0.00394455
0.000336661
0.00391043
0.000364412
0.00387357
0.000393664
0.00383385
0.00042448
0.00379109
0.000457047
0.00374516
0.000491443
0.00369585
0.000527889
0.00364298
0.000566475
0.00358632
0.000607456
0.00352564
0.000650932
0.00346066
0.00069719
0.00339112
0.000746338
0.00331667
0.000798685
0.00323698
0.000854341
0.00315164
0.000913623
0.00306025
0.000976633
0.00296231
0.00104365
0.00285729
0.00111477
0.00274465
0.00119015
0.00262368
0.00126986
0.00249378
0.0013538
0.00235402
0.00144199
0.00220382
0.00153381
0.002042
0.00162918
0.00186808
0.00172671
0.00168079
0.00182581
0.00147993
0.00192425
0.00126437
0.00202031
0.00103402
0.0021107
0.000790451
0.00219158
0.000534733
0.00225909
0.000270106
0.00230935
0.00233592
0.00453054
3.18152e-07
0.00425218
5.98297e-06
0.00434607
6.55334e-05
0.00435021
8.10028e-05
0.00434429
8.9637e-05
0.00433673
0.000100836
0.00432773
0.000116087
0.00431719
0.00013303
0.0043049
0.000151694
0.00429074
0.000171624
0.00427464
0.00019243
0.00425656
0.000214128
0.00423641
0.000236857
0.00421412
0.00026071
0.00418959
0.000285739
0.00416275
0.000311989
0.00413347
0.000339529
0.00410169
0.000368442
0.00406727
0.000398837
0.0040301
0.000430827
0.00399004
0.000464545
0.00394696
0.000500129
0.00390066
0.00053774
0.00385101
0.000577539
0.00379777
0.000619718
0.00374076
0.000664462
0.0036797
0.000711991
0.00361438
0.000762511
0.00354445
0.000816273
0.00346964
0.000873494
0.00338952
0.000934459
0.00330377
0.000999372
0.00321185
0.00106855
0.00311335
0.00114215
0.0030076
0.00122052
0.00289407
0.00130369
0.00277193
0.001392
0.00264046
0.00148527
0.00249872
0.00158372
0.00234564
0.0016869
0.00218032
0.0017945
0.00200114
0.00190588
0.00180749
0.00201946
0.0015975
0.00213424
0.00137095
0.00224685
0.00112699
0.00235466
0.000865201
0.00245337
0.000587466
0.00253682
0.000296634
0.00260018
0.00263255
0.00469908
3.27289e-07
0.0044102
6.38788e-06
0.00450837
6.97068e-05
0.00451323
8.65686e-05
0.00450778
9.60297e-05
0.00450067
0.000108017
0.00449206
0.000124699
0.00448185
0.000143241
0.00446983
0.000163717
0.00445585
0.000185602
0.00443988
0.000208398
0.00442186
0.000232146
0.00440174
0.000256983
0.00437941
0.000283036
0.00435482
0.000310328
0.00432787
0.000338942
0.00429849
0.000368911
0.00426655
0.000400374
0.00423199
0.000433396
0.00419466
0.000468159
0.00415446
0.000504746
0.00411122
0.000543375
0.00406481
0.00058415
0.00401502
0.000627328
0.0039617
0.000673034
0.0039046
0.000721561
0.00384353
0.000773065
0.00377817
0.000827865
0.00370829
0.00088616
0.00363351
0.000948275
0.00355349
0.00101447
0.00346781
0.00108505
0.00337601
0.00116035
0.00327755
0.00124062
0.00317182
0.00132625
0.00305812
0.00141738
0.00293569
0.00151443
0.00280354
0.00161742
0.00266072
0.00172654
0.00250589
0.00184173
0.00233778
0.00196261
0.00215488
0.00208879
0.00195515
0.00221919
0.00173736
0.00235203
0.00149874
0.00248547
0.00123861
0.0026148
0.000956596
0.00273538
0.000653279
0.00284014
0.000332524
0.00292094
0.00296508
0.00487392
3.46302e-07
0.00457409
6.71196e-06
0.00467665
7.3562e-05
0.00468249
9.14568e-05
0.00467791
0.000101632
0.00467134
0.000114663
0.0046633
0.000132744
0.00465357
0.000152961
0.00464191
0.000175381
0.00462824
0.000199275
0.00461251
0.000224127
0.00459467
0.000249982
0.00457467
0.000276985
0.00455243
0.000305271
0.00452789
0.000334869
0.00450098
0.000365855
0.00447161
0.000398284
0.0044397
0.000432279
0.00440515
0.00046795
0.00436786
0.000505444
0.00432769
0.000544915
0.00428455
0.000586522
0.00423822
0.000630473
0.00418862
0.000676931
0.00413548
0.000726175
0.00407868
0.000778358
0.0040179
0.000833848
0.00395299
0.000892773
0.00388354
0.000955609
0.00380937
0.00102245
0.00372996
0.00109388
0.00364505
0.00116997
0.00355401
0.00125139
0.00345643
0.0013382
0.00335158
0.0014311
0.00323875
0.00153021
0.00311709
0.00163609
0.00298552
0.00174899
0.0028429
0.00186917
0.00268774
0.00199689
0.00251833
0.00213202
0.00233276
0.00227436
0.00212881
0.00242314
0.00190367
0.00257718
0.00165516
0.00273398
0.0013794
0.00289056
0.00107444
0.00304034
0.000739557
0.00317502
0.000377703
0.00328279
0.00334278
0.00505528
3.61272e-07
0.00474407
6.97346e-06
0.00485155
7.67186e-05
0.00485853
9.55175e-05
0.00485492
0.000106361
0.00484919
0.000120476
0.00484186
0.000140066
0.00483279
0.000162027
0.00482169
0.000186483
0.00480848
0.000212489
0.00479311
0.000239503
0.00477557
0.000267516
0.00475581
0.000296751
0.00473379
0.000327291
0.00470942
0.000359239
0.00468268
0.000392589
0.00465346
0.0004275
0.00462175
0.000463998
0.00458738
0.000502315
0.00455033
0.000542492
0.00451043
0.000584819
0.00446761
0.000629341
0.00442167
0.000676409
0.00437253
0.000726078
0.00431994
0.00077876
0.00426377
0.000834531
0.00420376
0.000893853
0.00413969
0.000956847
0.00407129
0.00102401
0.0039982
0.00109554
0.00392016
0.00117192
0.00383662
0.00125351
0.00374729
0.00134072
0.00365139
0.0014341
0.00354853
0.00153395
0.00343769
0.00164105
0.00331819
0.00175559
0.00318876
0.00187842
0.00304814
0.00200979
0.00289471
0.00215032
0.00272642
0.00230032
0.00254076
0.00246001
0.00233474
0.00262916
0.00210497
0.00280694
0.00184636
0.00299259
0.00155518
0.00318173
0.00122623
0.00336929
0.000855756
0.0035455
0.000444116
0.00369443
0.0037869
0.00524337
3.6951e-07
0.0049204
7.14709e-06
0.00503328
7.88653e-05
0.00504173
9.843e-05
0.00503936
0.000109943
0.00503475
0.000125171
0.00502838
0.000146434
0.00502016
0.000170243
0.0050098
0.000196844
0.00499718
0.000225118
0.00498229
0.000254392
0.00496515
0.000284648
0.00494575
0.000316152
0.00492406
0.000348985
0.00490002
0.000383279
0.00487359
0.000419022
0.00484472
0.00045637
0.00481334
0.000495378
0.00477939
0.00053626
0.00474277
0.000579113
0.00470342
0.000624176
0.00466116
0.000671592
0.00461596
0.000721617
0.00456757
0.000774459
0.00451595
0.000830381
0.00446081
0.000889672
0.00440207
0.000952596
0.00433937
0.00101954
0.0042726
0.00109078
0.00420132
0.00116681
0.00412533
0.00124791
0.00404414
0.0013347
0.00395735
0.00142751
0.00386442
0.00152702
0.00376464
0.00163374
0.0036574
0.00174829
0.00354151
0.00187147
0.00341615
0.00200378
0.00327961
0.00214632
0.00313029
0.00229964
0.00296609
0.00246452
0.00278391
0.00264219
0.00258005
0.00283301
0.00235069
0.0030363
0.00208924
0.00325404
0.00178649
0.00348449
0.00143338
0.0037224
0.00101965
0.00395923
0.000538157
0.00417592
0.00432505
0.00543846
3.70511e-07
0.0051033
7.20093e-06
0.00522214
7.96369e-05
0.00523251
9.97399e-05
0.00523183
0.000111937
0.00522871
0.000128384
0.00522367
0.000151481
0.00521652
0.000177383
0.00520704
0.000206332
0.00519512
0.00023704
0.00518084
0.000268667
0.00516423
0.000301259
0.00514533
0.000335056
0.00512407
0.000370245
0.00510048
0.000406866
0.00507449
0.000445013
0.00504611
0.000484745
0.00501525
0.000526239
0.00498191
0.000569602
0.00494595
0.000615067
0.00490737
0.000662762
0.004866
0.000712962
0.00482179
0.000765825
0.00477458
0.000821671
0.00472426
0.000880699
0.00467066
0.000943272
0.0046136
0.00100965
0.00455292
0.00108023
0.00448832
0.00115537
0.00441965
0.00123549
0.00434647
0.00132109
0.0042686
0.00141257
0.00418545
0.00151066
0.0040967
0.00161577
0.00400162
0.00172882
0.00389956
0.00185035
0.00378967
0.00198136
0.00367062
0.00212284
0.00354143
0.00227551
0.00339943
0.00244164
0.0032435
0.00262045
0.00307143
0.00281426
0.00287666
0.00302779
0.0026518
0.00326115
0.0023914
0.00351445
0.00208591
0.00378997
0.001718
0.00409031
0.0012661
0.00441113
0.000701248
0.00474077
0.0050263
0.0056408
3.50449e-07
0.00529303
7.1069e-06
0.00541857
7.84743e-05
0.00543147
9.88371e-05
0.00543304
0.000111802
0.00543184
0.000129687
0.00542841
0.000154914
0.00542261
0.000183183
0.00541412
0.000214825
0.00540301
0.000248142
0.00538944
0.000282246
0.00537348
0.000317214
0.00535517
0.000353363
0.00533453
0.000390892
0.00531153
0.000429866
0.00528619
0.000470346
0.00525848
0.000512457
0.0052284
0.000556317
0.00519588
0.000602131
0.0051609
0.000650043
0.00512335
0.00070031
0.00508323
0.000753085
0.00504037
0.000808688
0.00499475
0.000867285
0.00494618
0.000929271
0.00489463
0.000994827
0.00483984
0.00106444
0.00478176
0.00113831
0.00472011
0.00121703
0.00465473
0.00130086
0.00458536
0.00139046
0.00451167
0.00148626
0.0044334
0.00158893
0.00435
0.00169917
0.00426117
0.00181766
0.004166
0.00194552
0.00406417
0.00208318
0.0039541
0.00223291
0.00383574
0.00239387
0.00370883
0.00256854
0.00356682
0.00276246
0.00340585
0.00297523
0.00322582
0.00320782
0.00302108
0.00346589
0.00278112
0.0037544
0.00249014
0.00408095
0.00212837
0.00445208
0.00165433
0.00488516
0.000999296
0.00539581
0.0060256
0.00585082
2.03774e-07
0.00548957
7.14432e-06
0.00562297
7.45483e-05
0.00563946
9.46385e-05
0.00564399
0.00010884
0.00564538
0.000128405
0.00564398
0.00015632
0.0056397
0.000187455
0.00563236
0.00022217
0.00562213
0.000258374
0.00560928
0.000295096
0.00559399
0.000332506
0.0055763
0.000371053
0.00555628
0.000410909
0.00553393
0.000452215
0.0055093
0.000494976
0.00548238
0.000539374
0.00545319
0.000585506
0.0054217
0.000633626
0.00538788
0.000683863
0.00535169
0.000736502
0.00531307
0.000791702
0.00527198
0.00084978
0.00522831
0.000910947
0.00518204
0.000975545
0.005133
0.00104386
0.00508118
0.00111626
0.00502635
0.00119314
0.00496851
0.00127487
0.00490734
0.00136203
0.00484284
0.00145496
0.00477461
0.00155449
0.00470259
0.00166095
0.00462631
0.00177545
0.00454552
0.00189845
0.00445932
0.00203172
0.0043686
0.0021739
0.00427378
0.00232773
0.0041694
0.00249825
0.00405337
0.00268457
0.00392867
0.00288716
0.00379289
0.00311101
0.00364124
0.00335948
0.0034687
0.00363844
0.00326852
0.00395458
0.00302854
0.00432093
0.00272153
0.00475909
0.00229839
0.00530831
0.00164581
0.00604838
0.00767141
0.0084601
1.38937e-07
0.00793539
6.2329e-06
0.0081343
6.48354e-05
0.00816378
8.30936e-05
0.00817643
9.84955e-05
0.0081834
0.0001216
0.00818563
0.000154093
0.00818294
0.000190132
0.00817533
0.000229781
0.00816333
0.000270373
0.00814757
0.000310862
0.00812835
0.000351719
0.00810589
0.000393517
0.00808022
0.000436576
0.0080515
0.000480938
0.00801975
0.000526727
0.00798509
0.000574031
0.0079475
0.000623096
0.00790707
0.00067406
0.00786371
0.000727216
0.00781751
0.000782702
0.00776836
0.000840853
0.00771632
0.000901822
0.00766127
0.000965997
0.00760326
0.00103356
0.00754216
0.00110496
0.00747799
0.00118043
0.00741066
0.00126047
0.00734013
0.0013454
0.00726636
0.00143579
0.00718922
0.0015321
0.00710876
0.00163495
0.00702462
0.0017451
0.00693733
0.00186274
0.00684747
0.0019883
0.00675544
0.00212376
0.00665655
0.00227278
0.00655063
0.00243366
0.00644177
0.00260711
0.00633067
0.00279567
0.00621379
0.00300404
0.00609262
0.00323218
0.00596543
0.00348666
0.00583401
0.00376986
0.00570042
0.00408817
0.00557212
0.00444923
0.00548244
0.00484878
0.00550629
0.00528445
0.00591278
0.00564189
0.00547762
0.00810657
0.00846189
1.06768e-07
0.00793482
3.86647e-06
0.00814844
4.2364e-05
0.00818872
6.09283e-05
0.00821069
7.88596e-05
0.00822466
0.000107801
0.00823096
0.000147799
0.00823053
0.000190553
0.00822384
0.000236474
0.00821271
0.000281507
0.00819813
0.000325439
0.00818043
0.000369424
0.0081597
0.000414246
0.00813611
0.000460162
0.00810981
0.000507241
0.00808096
0.000555578
0.00804963
0.000605359
0.00801592
0.0006568
0.00797985
0.000710137
0.00794149
0.000765578
0.00790081
0.000823379
0.00785791
0.000883753
0.00781273
0.000946999
0.00776539
0.00101334
0.00771582
0.00108313
0.00766417
0.00115661
0.00761037
0.00123423
0.0075546
0.00131624
0.00749681
0.00140319
0.00743721
0.00149539
0.00737562
0.00159369
0.00731323
0.00169734
0.00725068
0.00180765
0.00718642
0.001927
0.00711892
0.0020558
0.00704927
0.00219341
0.00698159
0.00234046
0.00691585
0.0024994
0.00685177
0.00267118
0.00679016
0.00285728
0.00673546
0.00305874
0.00668817
0.00327947
0.00665838
0.00351645
0.00664934
0.00377891
0.00668186
0.00405565
0.00677869
0.0043524
0.00698575
0.00464171
0.00738569
0.00488452
0.00800265
0.00502493
0.00467586
0.00880441
0.00846262
1.52296e-07
0.00793451
7.49829e-07
0.00816345
5.50882e-06
0.00822211
2.04665e-05
0.00825924
4.40885e-05
0.00828288
8.43347e-05
0.00829424
0.000136441
0.00829477
0.000190014
0.00828898
0.000242268
0.00827929
0.000291201
0.00826635
0.000338376
0.00825026
0.000385516
0.0082312
0.000433308
0.00820943
0.000481923
0.00818523
0.000531442
0.00815881
0.000582002
0.00813028
0.000633892
0.00809975
0.000687328
0.0080673
0.000742584
0.00803303
0.000799847
0.00799701
0.0008594
0.00795933
0.000921433
0.00792008
0.000986254
0.00787935
0.00105406
0.00783729
0.00112519
0.00779401
0.00119989
0.0077497
0.00127854
0.00770447
0.00136147
0.00765877
0.00144889
0.00761344
0.00154072
0.00756918
0.00163796
0.00752369
0.00174284
0.00747701
0.00185432
0.00743188
0.00197213
0.00739038
0.0020973
0.00735201
0.00223178
0.00731777
0.00237471
0.00728826
0.00252891
0.00726701
0.00269243
0.00725481
0.00286948
0.00725689
0.00305667
0.00727795
0.00325841
0.00732471
0.00346969
0.0074127
0.00369091
0.00755119
0.00391716
0.00777068
0.00413291
0.00808364
0.00432875
0.00851007
0.00445809
0.00903005
0.00450495
0.00424759
0.00945832
0.00846123
1.29494e-06
0.00794077
-9.838e-06
0.00821697
-7.85108e-05
0.00830513
-4.95061e-05
0.00835093
6.64665e-07
0.00837143
6.40058e-05
0.00837574
0.000132133
0.00837148
0.000194265
0.00836379
0.00024997
0.00835439
0.000300597
0.00834244
0.000350323
0.0083276
0.000400362
0.0083102
0.000450704
0.00829057
0.000501556
0.00826911
0.0005529
0.00824595
0.000605159
0.00822116
0.000658686
0.00819481
0.000713683
0.00816696
0.000770428
0.00813771
0.000829101
0.00810711
0.000889995
0.00807526
0.000953284
0.00804227
0.00101924
0.00800827
0.00108806
0.00797346
0.00116001
0.00793793
0.00123542
0.00790234
0.00131412
0.00786732
0.00139649
0.00783268
0.00148353
0.00779726
0.00157614
0.00776183
0.00167339
0.00772923
0.00177544
0.00770027
0.00188327
0.00767463
0.00199778
0.0076536
0.00211833
0.00763854
0.00224684
0.00763125
0.002382
0.00763396
0.00252619
0.00764845
0.00267794
0.00767964
0.00283829
0.00772909
0.00300722
0.00780569
0.0031818
0.00791204
0.00336334
0.00806021
0.00354274
0.00825818
0.00371919
0.00851407
0.00387702
0.00883834
0.00400448
0.00921592
0.00408051
0.00966985
0.00405101
0.00392824
0.00998921
0.00845143
9.9244e-06
0.00798014
-6.57248e-05
0.00836218
-0.000271018
0.00854385
-0.000213047
0.00858687
-4.00527e-05
0.00857775
7.32988e-05
0.00856106
0.000148831
0.0085453
0.000210016
0.00853268
0.000262593
0.00851967
0.000313608
0.00850357
0.000366424
0.00848457
0.000419357
0.00846349
0.000471789
0.00844116
0.000523884
0.00841752
0.000576544
0.00839265
0.000630022
0.00836674
0.0006846
0.0083399
0.000740517
0.0083123
0.000798036
0.00828402
0.000857372
0.00825523
0.00091879
0.00822601
0.000982508
0.00819651
0.00104874
0.00816701
0.00111756
0.00813803
0.00118899
0.00810998
0.00126348
0.00808188
0.00134222
0.00805366
0.00142471
0.0080265
0.0015107
0.00800205
0.00160058
0.00798028
0.00169516
0.00796135
0.00179437
0.00794597
0.00189866
0.00793571
0.00200804
0.00793097
0.00212307
0.00793444
0.00224336
0.00794646
0.00236999
0.00797141
0.00250124
0.00800985
0.0026395
0.00806731
0.00278083
0.0081464
0.00292813
0.0082524
0.0030758
0.00839139
0.00322436
0.00856636
0.00336777
0.00878578
0.00349977
0.00904822
0.00361459
0.00935683
0.00369586
0.00970209
0.00373525
0.0100491
0.00370404
0.00359525
0.0103821
0.00851919
1.56225e-05
0.00824795
-0.000394612
0.00879247
-0.000604467
0.00889064
-0.000291177
0.00887199
-1.84283e-05
0.008804
0.000141515
0.00877203
0.000180804
0.00875212
0.000229917
0.00874242
0.000272298
0.00872789
0.000328137
0.00870893
0.000385385
0.00868788
0.000440405
0.00866587
0.000493799
0.00864286
0.000546889
0.00861889
0.00060052
0.00859384
0.000655066
0.00856771
0.000710732
0.00854057
0.000767656
0.00851254
0.000826065
0.00848378
0.000886134
0.00845435
0.000948221
0.00842462
0.00101224
0.00839508
0.00107828
0.00836596
0.00114667
0.0083365
0.00121845
0.00830737
0.00129261
0.00828032
0.00136926
0.00825628
0.00144875
0.00823484
0.00153214
0.00821691
0.00161852
0.00820271
0.00170935
0.00819361
0.00180346
0.00818969
0.00190259
0.00819274
0.00200498
0.00820303
0.00211278
0.00822266
0.00222374
0.0082526
0.00234004
0.0082949
0.00245894
0.00835254
0.00258187
0.00842678
0.00270659
0.00852311
0.0028318
0.00864212
0.00295678
0.00879077
0.00307571
0.0089692
0.00318934
0.00918243
0.00328654
0.00942927
0.00336775
0.00970746
0.00341767
0.0100123
0.00343046
0.0103156
0.00340071
0.00330269
0.0106081