/*--------------------------------*- C++ -*----------------------------------*\
| =========                 |                                                 |
| \\      /  F ield         | OpenFOAM: The Open Source CFD Toolbox           |
|  \\    /   O peration     | Version:  2412                                  |
|   \\  /    A nd           | Website:  www.openfoam.com                      |
|    \\/     M anipulation  |                                                 |
\*---------------------------------------------------------------------------*/
FoamFile
{
    version     2.0;
    format      ascii;
    arch        "LSB;label=32;scalar=64";
    class       volScalarField;
    location    "26";
    object      Ma;
}
// * * * * * * * * * * * * * * * * * * * * * * * * * * * * * * * * * * * * * //

dimensions      [0 0 0 0 0 0 0];

internalField   nonuniform List<scalar> 
7000
(
2.25598
0.994179
0.300531
0.338438
0.401062
0.442388
0.450595
0.446125
0.439771
0.434861
0.432015
0.429743
0.427144
0.424056
0.420585
0.41681
0.412744
0.408365
0.403654
0.398594
0.393173
0.387375
0.381189
0.374597
0.367584
0.360131
0.352222
0.343836
0.334955
0.325557
0.315624
0.305132
0.294062
0.282393
0.270107
0.257184
0.24361
0.229373
0.214465
0.198882
0.182633
0.165727
0.148189
0.130054
0.111368
0.0921925
0.0725907
0.052847
0.031923
0.0155243
2.25604
0.994241
0.300328
0.338273
0.400907
0.44224
0.450447
0.445981
0.439632
0.43473
0.431888
0.42962
0.427024
0.423941
0.420474
0.416704
0.412643
0.40827
0.403566
0.398512
0.393098
0.387309
0.381132
0.374549
0.367547
0.360106
0.352209
0.343837
0.334971
0.32559
0.315675
0.305203
0.294156
0.282511
0.270251
0.257357
0.243816
0.229614
0.214745
0.199208
0.18301
0.166165
0.148701
0.13066
0.112103
0.0931173
0.0738191
0.0546558
0.0351573
0.0220572
2.25617
0.994438
0.300461
0.338308
0.400937
0.442273
0.450481
0.446021
0.43969
0.434798
0.431971
0.429706
0.427122
0.424044
0.420591
0.416829
0.412784
0.408421
0.403734
0.398692
0.393298
0.387524
0.381371
0.374808
0.367833
0.360416
0.352553
0.344212
0.335386
0.326043
0.316176
0.305752
0.294762
0.283178
0.270989
0.258171
0.244718
0.230614
0.215858
0.200451
0.184403
0.167741
0.1505
0.132745
0.114565
0.0961166
0.0776338
0.0598398
0.0430409
0.0335722
2.25634
0.994744
0.300732
0.338385
0.401018
0.442372
0.450584
0.446138
0.43982
0.434957
0.43214
0.429895
0.427317
0.424262
0.420819
0.417083
0.413051
0.408717
0.404045
0.399038
0.393663
0.387929
0.3818
0.375284
0.36834
0.360979
0.353155
0.344878
0.336102
0.326837
0.317033
0.306702
0.295793
0.28432
0.272234
0.259552
0.246232
0.232296
0.217717
0.202523
0.186719
0.170347
0.153462
0.136148
0.118555
0.100896
0.0835505
0.0674575
0.0533028
0.0461804
2.25659
0.995174
0.301081
0.338454
0.401103
0.442493
0.450713
0.446288
0.439983
0.43516
0.432354
0.430142
0.427573
0.424552
0.421124
0.417427
0.413414
0.409121
0.404476
0.399514
0.394174
0.388491
0.382406
0.375948
0.369062
0.361767
0.354015
0.345816
0.337132
0.327958
0.318268
0.308045
0.297278
0.285937
0.274027
0.261509
0.248408
0.234682
0.220378
0.205465
0.190016
0.174037
0.157639
0.140921
0.124072
0.107409
0.0913718
0.0770292
0.0651083
0.0594942
2.25692
0.995747
0.301525
0.338526
0.401199
0.442638
0.450882
0.446459
0.440212
0.435396
0.432649
0.430435
0.427923
0.424903
0.421539
0.417846
0.413903
0.409622
0.405053
0.400109
0.394856
0.389201
0.383213
0.376796
0.37002
0.362782
0.355156
0.347036
0.338494
0.329426
0.319898
0.309817
0.299237
0.28808
0.276388
0.26411
0.251269
0.237852
0.223869
0.209359
0.194332
0.178893
0.163088
0.147116
0.131165
0.115612
0.100984
0.0882973
0.0781877
0.0736196
2.25734
0.996473
0.302068
0.338602
0.401306
0.442816
0.451087
0.446691
0.440473
0.435707
0.432989
0.430819
0.428332
0.425362
0.422027
0.418394
0.414484
0.410272
0.405742
0.400881
0.395673
0.390117
0.384186
0.377887
0.37118
0.364084
0.356545
0.348594
0.340163
0.331296
0.321911
0.312068
0.301673
0.290795
0.279346
0.267394
0.254872
0.241844
0.22828
0.214245
0.199772
0.184939
0.169887
0.154751
0.139833
0.125479
0.112234
0.101078
0.0924444
0.0886249
2.25785
0.997365
0.30272
0.338682
0.401426
0.443027
0.451334
0.446971
0.440793
0.436082
0.433403
0.431282
0.428834
0.425916
0.422628
0.419055
0.415202
0.411057
0.406596
0.401812
0.39669
0.391222
0.385397
0.379201
0.372626
0.365651
0.358275
0.350468
0.342237
0.333543
0.324405
0.314771
0.304681
0.294064
0.282985
0.271366
0.259289
0.246691
0.233665
0.220191
0.206374
0.192282
0.178049
0.163895
0.150053
0.136958
0.125074
0.115263
0.107843
0.104622
2.25847
0.998434
0.303489
0.33877
0.401562
0.443272
0.451631
0.4473
0.441183
0.436523
0.433903
0.431828
0.429438
0.426572
0.423352
0.41984
0.416063
0.411991
0.407619
0.402922
0.397904
0.392544
0.386841
0.380778
0.374348
0.367536
0.360333
0.352727
0.344704
0.336258
0.327369
0.318043
0.308249
0.298015
0.287295
0.276149
0.264518
0.252501
0.24004
0.227275
0.214188
0.200956
0.18767
0.174546
0.161895
0.150027
0.139452
0.130888
0.124492
0.121715
2.25919
0.999694
0.304386
0.338868
0.401716
0.443561
0.451979
0.447702
0.441635
0.437054
0.434483
0.432482
0.430142
0.427357
0.424196
0.420774
0.41707
0.4131
0.408816
0.404237
0.399327
0.394105
0.388536
0.382636
0.37637
0.369754
0.362753
0.355381
0.347607
0.339442
0.330861
0.321874
0.312462
0.302636
0.292391
0.281736
0.270695
0.259274
0.247544
0.235512
0.22332
0.211
0.198785
0.186793
0.175337
0.164783
0.155438
0.14799
0.14249
0.140144
2.26003
1.00116
0.305419
0.338976
0.401892
0.443893
0.45239
0.448157
0.442184
0.437661
0.435179
0.43323
0.430981
0.428257
0.425198
0.42185
0.418258
0.414378
0.410223
0.405754
0.400994
0.395909
0.390516
0.384784
0.378728
0.372319
0.365568
0.358452
0.350978
0.34313
0.33491
0.326312
0.317338
0.307991
0.298276
0.288214
0.277815
0.267126
0.256171
0.245038
0.233779
0.222545
0.211437
0.200703
0.190517
0.181222
0.173164
0.166806
0.162134
0.160098
2.26099
1.00283
0.306597
0.3391
0.402092
0.444281
0.452865
0.44871
0.442805
0.43839
0.435968
0.43412
0.431935
0.429321
0.426337
0.423112
0.419612
0.415871
0.411827
0.40752
0.402896
0.398001
0.392776
0.387269
0.381421
0.375278
0.368786
0.361987
0.354832
0.347364
0.339539
0.3314
0.322913
0.314119
0.305006
0.295613
0.285955
0.276072
0.266026
0.255857
0.245696
0.235598
0.22577
0.216327
0.207538
0.199607
0.192762
0.187488
0.18363
0.182023
2.26208
1.00473
0.307927
0.339242
0.402322
0.444721
0.453419
0.449335
0.443549
0.439217
0.4369
0.435129
0.433054
0.430527
0.427667
0.424542
0.421183
0.417561
0.41368
0.409518
0.405087
0.400366
0.395371
0.390078
0.384504
0.378624
0.372459
0.365984
0.359223
0.352153
0.344803
0.337152
0.329239
0.321047
0.312629
0.303974
0.295157
0.286179
0.277139
0.268075
0.259095
0.250314
0.241829
0.233864
0.226513
0.220064
0.214644
0.210544
0.207567
0.206264
2.26329
1.00685
0.309411
0.339397
0.402594
0.445218
0.454054
0.450065
0.444397
0.440181
0.43796
0.436296
0.434323
0.431916
0.42917
0.426183
0.422955
0.419493
0.415767
0.411795
0.407549
0.403056
0.398285
0.393264
0.387962
0.382411
0.376577
0.370498
0.364142
0.357549
0.350697
0.343623
0.336321
0.328827
0.321158
0.313351
0.305447
0.297497
0.289563
0.28173
0.274076
0.266728
0.259803
0.25342
0.247779
0.242928
0.239021
0.236287
0.234365
0.233712
2.26462
1.00919
0.311049
0.339557
0.402919
0.445777
0.454782
0.450908
0.445375
0.441291
0.439174
0.43763
0.435768
0.433493
0.430876
0.428037
0.42496
0.421668
0.418123
0.414349
0.410323
0.406065
0.401561
0.396821
0.391844
0.386629
0.381192
0.375518
0.369646
0.363544
0.357278
0.350806
0.344213
0.33746
0.330648
0.323753
0.316883
0.310053
0.303362
0.296884
0.290715
0.284968
0.279763
0.275235
0.271478
0.268666
0.266693
0.265721
0.265189
0.265155
2.26608
1.01176
0.312853
0.339753
0.403284
0.446423
0.455626
0.451879
0.446523
0.442561
0.44058
0.439143
0.437426
0.435274
0.432819
0.43012
0.427228
0.424101
0.420773
0.417199
0.413429
0.409414
0.405214
0.400773
0.396157
0.39131
0.386302
0.381083
0.375722
0.370183
0.364528
0.358749
0.352892
0.346992
0.341073
0.335221
0.329446
0.323879
0.318542
0.313583
0.309073
0.305152
0.301924
0.29952
0.298079
0.29758
0.298077
0.299506
0.30115
0.302675
2.26766
1.01455
0.314814
0.339982
0.403703
0.447175
0.456608
0.453013
0.447859
0.444031
0.442191
0.440874
0.439308
0.437294
0.435007
0.432468
0.429765
0.426831
0.423723
0.420383
0.416871
0.413144
0.409249
0.405159
0.400908
0.396488
0.391919
0.387218
0.38239
0.377477
0.372475
0.36745
0.362401
0.357407
0.35249
0.347729
0.343197
0.338956
0.335148
0.331829
0.329177
0.327312
0.326391
0.326515
0.327915
0.330655
0.334521
0.339626
0.344726
0.348724
2.26934
1.01755
0.316917
0.340247
0.404191
0.448061
0.457759
0.454358
0.449404
0.445753
0.444033
0.442872
0.441435
0.439598
0.437458
0.435119
0.432588
0.429886
0.426986
0.423921
0.420664
0.417261
0.413681
0.409975
0.406113
0.402149
0.398059
0.393899
0.389661
0.385396
0.38112
0.376876
0.372717
0.368676
0.364847
0.361267
0.358062
0.355306
0.35312
0.351685
0.35106
0.351507
0.353199
0.35641
0.361328
0.368068
0.376899
0.387632
0.399368
0.409971
2.27111
1.0207
0.319141
0.340562
0.404772
0.449105
0.459116
0.455935
0.451213
0.447737
0.446149
0.445137
0.443851
0.442187
0.440224
0.438077
0.435755
0.433277
0.430628
0.427826
0.424875
0.421786
0.418576
0.415246
0.41183
0.40832
0.404768
0.40116
0.397568
0.393977
0.390476
0.387062
0.383834
0.380821
0.37812
0.375818
0.373996
0.372843
0.372422
0.372923
0.374587
0.377704
0.382627
0.389494
0.398921
0.41125
0.426946
0.447106
0.470988
0.498596
2.27293
1.02394
0.321421
0.340941
0.405481
0.450367
0.46076
0.457823
0.453388
0.450056
0.448615
0.44772
0.446606
0.445088
0.443323
0.441349
0.439255
0.43699
0.434614
0.432079
0.429452
0.426693
0.423867
0.420944
0.417983
0.414971
0.411961
0.40896
0.406015
0.403164
0.400442
0.397928
0.395649
0.39373
0.392203
0.391241
0.390882
0.391312
0.392696
0.395383
0.399589
0.405685
0.413891
0.425052
0.439618
0.459157
0.485081
0.520594
0.571926
0.664903
2.27501
1.02768
0.323955
0.341215
0.406281
0.451966
0.462914
0.460349
0.456262
0.453158
0.451876
0.451203
0.450304
0.449062
0.447543
0.445882
0.444076
0.442177
0.440148
0.438046
0.435838
0.433593
0.431275
0.428962
0.426616
0.424327
0.422063
0.419921
0.417882
0.416053
0.414435
0.413142
0.412214
0.411772
0.411914
0.412686
0.414249
0.417014
0.421205
0.426896
0.434588
0.444558
0.45783
0.474816
0.497602
0.52761
0.569592
0.631146
0.729823
0.881476
2.27722
1.03165
0.326965
0.342166
0.408011
0.454835
0.466503
0.464318
0.46055
0.457504
0.456264
0.455682
0.454943
0.453878
0.452578
0.451143
0.449619
0.448016
0.446348
0.444621
0.442861
0.441076
0.439302
0.437546
0.435855
0.434235
0.432753
0.431413
0.430305
0.429438
0.42893
0.428799
0.429163
0.430045
0.431682
0.434271
0.437984
0.442902
0.449467
0.457791
0.468591
0.482304
0.499811
0.522621
0.551791
0.591354
0.643911
0.718032
0.828977
0.967132
2.27851
1.03397
0.328838
0.343226
0.410174
0.458581
0.471228
0.469541
0.466101
0.463075
0.461871
0.461406
0.460833
0.459946
0.458835
0.457607
0.456318
0.454981
0.453612
0.452222
0.450837
0.449474
0.448164
0.446929
0.445806
0.444826
0.444034
0.443473
0.443203
0.443291
0.44375
0.444653
0.446239
0.448644
0.451865
0.456153
0.461588
0.468578
0.477193
0.48816
0.501494
0.518492
0.53921
0.565768
0.599041
0.64171
0.697367
0.76775
0.864164
0.967473
2.27966
1.03608
0.332152
0.346924
0.415038
0.464995
0.478238
0.476422
0.472632
0.469258
0.467979
0.467619
0.467209
0.466498
0.465592
0.464595
0.463589
0.462563
0.461552
0.46054
0.459577
0.458657
0.457834
0.457111
0.456546
0.456157
0.456011
0.456124
0.456542
0.457352
0.458725
0.460707
0.463356
0.466845
0.471238
0.47684
0.483679
0.492268
0.502617
0.515404
0.530884
0.549716
0.572836
0.600698
0.635322
0.677092
0.728924
0.790941
0.868864
0.949902
2.2761
1.02969
0.33429
0.356823
0.427459
0.479819
0.49332
0.490521
0.485518
0.481271
0.479613
0.479058
0.478486
0.477617
0.476557
0.475464
0.474401
0.473377
0.472401
0.47149
0.470665
0.469955
0.469377
0.468978
0.468783
0.468821
0.469093
0.469761
0.470841
0.472444
0.474538
0.477327
0.480775
0.48517
0.490481
0.497076
0.504976
0.514555
0.526083
0.539789
0.556354
0.575909
0.599479
0.627362
0.660589
0.700049
0.746331
0.800696
0.864201
0.928777
2.28203
1.02254
0.358742
0.382357
0.448476
0.498368
0.510279
0.506527
0.500784
0.496401
0.4947
0.494011
0.493312
0.492363
0.491298
0.490221
0.489189
0.488193
0.487255
0.486375
0.485599
0.484926
0.484413
0.48403
0.4839
0.484056
0.484602
0.485468
0.486858
0.488706
0.491257
0.494403
0.498487
0.503351
0.509462
0.516588
0.525356
0.53546
0.547708
0.561822
0.578644
0.598172
0.621057
0.647783
0.678644
0.714586
0.755557
0.802428
0.85562
0.909177
1.87633
0.772014
0.273264
0.344117
0.417754
0.441224
0.441129
0.437148
0.433505
0.433411
0.435585
0.438474
0.441474
0.444517
0.447656
0.450903
0.454222
0.457564
0.460903
0.464218
0.467493
0.470672
0.473815
0.476956
0.480148
0.483329
0.486621
0.489941
0.493564
0.497373
0.501676
0.506366
0.511801
0.517898
0.525022
0.533156
0.542608
0.553544
0.566085
0.580723
0.5973
0.616687
0.638457
0.663782
0.69206
0.724532
0.760518
0.800991
0.845798
0.89054
1.8689
0.771405
0.282168
0.355348
0.428335
0.44779
0.443317
0.435956
0.430299
0.428405
0.428316
0.42872
0.42932
0.430225
0.431572
0.433354
0.435612
0.438218
0.441295
0.444721
0.448605
0.452672
0.457149
0.461793
0.466827
0.471981
0.47752
0.483248
0.48934
0.495664
0.502398
0.509468
0.517029
0.525165
0.533963
0.54371
0.554313
0.566333
0.579526
0.594596
0.611244
0.630223
0.651264
0.675021
0.701358
0.730665
0.762977
0.7981
0.836502
0.874176
1.86794
0.770091
0.284301
0.365061
0.443619
0.463692
0.457505
0.448128
0.441123
0.438391
0.437492
0.436894
0.436306
0.435904
0.435817
0.436088
0.436718
0.437721
0.439254
0.441237
0.443726
0.446642
0.450161
0.454163
0.458797
0.463939
0.469667
0.475918
0.482711
0.49008
0.497956
0.506543
0.515633
0.525585
0.536005
0.547448
0.559507
0.572778
0.586947
0.602621
0.619548
0.63828
0.658696
0.681196
0.70573
0.732538
0.761579
0.79278
0.826393
0.85892
1.86943
0.773373
0.290095
0.367275
0.443689
0.464289
0.459066
0.450545
0.443967
0.441604
0.441129
0.440951
0.440734
0.440624
0.440709
0.441014
0.441603
0.44251
0.443699
0.445181
0.446984
0.449219
0.45186
0.455071
0.458757
0.463137
0.468049
0.473769
0.480042
0.487239
0.494984
0.503743
0.513049
0.523419
0.534431
0.546564
0.559474
0.573573
0.588569
0.604824
0.622186
0.640924
0.661009
0.682658
0.70584
0.730687
0.757134
0.785228
0.815015
0.843664
1.87254
0.780056
0.297779
0.361235
0.429067
0.450304
0.448018
0.441951
0.436342
0.434468
0.434506
0.435036
0.435624
0.436338
0.437231
0.438402
0.439863
0.441547
0.443418
0.445525
0.447869
0.450532
0.45349
0.45686
0.460597
0.464874
0.46959
0.474999
0.480925
0.487697
0.495076
0.503399
0.512437
0.522481
0.53335
0.545261
0.558085
0.572002
0.58694
0.603042
0.620267
0.638751
0.658395
0.679338
0.701458
0.724931
0.749539
0.775262
0.802277
0.828114
1.88112
0.786635
0.300028
0.349024
0.412199
0.44124
0.444209
0.439522
0.43437
0.432088
0.431844
0.432367
0.433086
0.434006
0.435102
0.436435
0.438031
0.439887
0.442
0.444397
0.447071
0.450078
0.453388
0.457088
0.461125
0.465643
0.470549
0.476049
0.48201
0.488683
0.495928
0.503985
0.512752
0.522408
0.532895
0.54436
0.556736
0.570155
0.584549
0.600039
0.616554
0.634201
0.6529
0.67275
0.69365
0.715633
0.738556
0.76238
0.787197
0.810846
2.26308
1.10601
0.40719
0.399179
0.459363
0.508057
0.519347
0.514455
0.507532
0.501484
0.497968
0.495497
0.493386
0.491368
0.489341
0.487369
0.485645
0.484156
0.483009
0.482162
0.481734
0.481685
0.482139
0.483073
0.484554
0.486619
0.489303
0.492664
0.496704
0.501514
0.507072
0.513486
0.520729
0.528922
0.538017
0.548144
0.559232
0.5714
0.584574
0.598858
0.614147
0.630542
0.647917
0.666326
0.68568
0.705969
0.727094
0.748973
0.771685
0.793293
2.2725
1.12789
0.391667
0.377127
0.449993
0.510706
0.529103
0.52822
0.523998
0.520195
0.518753
0.518378
0.518362
0.518323
0.517908
0.517279
0.516608
0.515979
0.515411
0.514937
0.51457
0.514376
0.514374
0.514647
0.515231
0.516202
0.517598
0.519531
0.521995
0.525146
0.528933
0.533548
0.538906
0.54519
0.552329
0.56046
0.569555
0.579709
0.590906
0.603179
0.61655
0.630972
0.646469
0.662946
0.680375
0.698686
0.717787
0.737583
0.758139
0.777704
2.29743
1.17661
0.434247
0.383993
0.44709
0.503381
0.521858
0.522885
0.52106
0.519875
0.520294
0.521526
0.52332
0.525122
0.52653
0.527729
0.528853
0.530001
0.53115
0.53233
0.533517
0.534761
0.536054
0.537457
0.538971
0.540669
0.542567
0.544739
0.547231
0.55011
0.553444
0.557282
0.561723
0.566797
0.572625
0.579214
0.586687
0.595025
0.60433
0.614576
0.625809
0.637998
0.651173
0.665319
0.680405
0.696405
0.713218
0.730691
0.748913
0.766295
1.90075
0.805029
0.305807
0.316891
0.374008
0.414893
0.429173
0.432999
0.435822
0.439473
0.444404
0.45015
0.456588
0.463083
0.46926
0.475257
0.481222
0.487184
0.493129
0.499014
0.504837
0.510575
0.516249
0.521836
0.527373
0.532835
0.538291
0.54371
0.549188
0.554713
0.560357
0.566165
0.572201
0.578532
0.585211
0.592337
0.599935
0.608126
0.616898
0.626389
0.636551
0.647525
0.65922
0.671744
0.68498
0.698946
0.713579
0.728903
0.744917
0.760232
2.30593
1.19375
0.44959
0.386638
0.440663
0.492235
0.509234
0.509294
0.506148
0.503671
0.502413
0.502229
0.502684
0.50308
0.503404
0.503908
0.504734
0.50601
0.507706
0.509864
0.512437
0.515478
0.518941
0.522867
0.52718
0.531939
0.537024
0.542526
0.548287
0.554423
0.560808
0.567548
0.574527
0.581867
0.589459
0.597442
0.605731
0.614459
0.623564
0.633162
0.643219
0.653821
0.66495
0.676641
0.6889
0.701713
0.715085
0.728927
0.743328
0.757047
2.31117
1.20372
0.432891
0.369731
0.438373
0.500629
0.522081
0.523493
0.521274
0.519803
0.519931
0.521062
0.522792
0.524297
0.525322
0.526169
0.527003
0.527952
0.529027
0.530316
0.531825
0.533639
0.535747
0.538232
0.54108
0.544356
0.54805
0.552205
0.556817
0.561901
0.567457
0.573471
0.57995
0.58687
0.594262
0.602066
0.610336
0.618994
0.62812
0.637621
0.647597
0.657942
0.668778
0.679981
0.691672
0.703725
0.716237
0.729071
0.742352
0.754954
2.3139
1.20955
0.437067
0.371773
0.4415
0.505351
0.527727
0.529407
0.527243
0.525895
0.526368
0.527884
0.530155
0.532348
0.534067
0.535596
0.537123
0.538755
0.540487
0.542349
0.544336
0.546484
0.548805
0.551334
0.554102
0.557136
0.560477
0.564139
0.568174
0.572584
0.577423
0.582679
0.58841
0.594583
0.601252
0.608378
0.616004
0.624086
0.632655
0.641673
0.651151
0.661067
0.671407
0.682163
0.693295
0.704816
0.716656
0.728832
0.741335
0.753225
2.31688
1.21727
0.463437
0.387828
0.447097
0.506223
0.528781
0.532011
0.531133
0.530762
0.531655
0.533583
0.536121
0.53842
0.540446
0.54235
0.544308
0.546349
0.548527
0.550808
0.553239
0.55579
0.558515
0.561387
0.564464
0.567724
0.571226
0.574953
0.578966
0.583251
0.587868
0.592814
0.598134
0.603832
0.609936
0.616454
0.623399
0.63079
0.638619
0.646909
0.655626
0.664801
0.674384
0.684401
0.694788
0.705565
0.716657
0.728065
0.739808
0.750985
1.90563
0.813584
0.32471
0.323678
0.376481
0.414373
0.42726
0.430302
0.432593
0.435933
0.440703
0.446614
0.453341
0.460159
0.466867
0.473528
0.480261
0.487055
0.49392
0.500798
0.507696
0.514574
0.52145
0.528299
0.535143
0.541972
0.54881
0.555656
0.562534
0.569455
0.576437
0.583508
0.590682
0.598
0.605468
0.613138
0.621005
0.629126
0.637489
0.646138
0.655061
0.664288
0.673801
0.683625
0.693735
0.70414
0.714815
0.725751
0.736997
0.747672
2.31198
1.20858
0.464955
0.403498
0.466202
0.527386
0.549312
0.550238
0.546094
0.542262
0.540056
0.538683
0.538089
0.537693
0.53696
0.536238
0.535673
0.53552
0.535708
0.536396
0.53751
0.539123
0.541205
0.543793
0.546852
0.550409
0.554423
0.558919
0.563839
0.569207
0.574969
0.581129
0.587637
0.594504
0.601688
0.609198
0.617002
0.625105
0.633484
0.64215
0.651086
0.6603
0.669781
0.679527
0.689524
0.699759
0.71022
0.720883
0.731811
0.742174
2.29403
1.16957
0.460058
0.422687
0.485796
0.546191
0.566075
0.566114
0.562393
0.559157
0.5584
0.558804
0.55989
0.561154
0.562027
0.562665
0.563257
0.563915
0.56465
0.565474
0.566395
0.567459
0.568712
0.570196
0.571944
0.574002
0.576386
0.57913
0.582248
0.585763
0.589678
0.594016
0.59878
0.603979
0.609609
0.615667
0.622145
0.629033
0.636321
0.643989
0.652023
0.660401
0.669105
0.678117
0.687433
0.697019
0.706875
0.716961
0.727332
0.737184
1.88783
0.805071
0.340773
0.355364
0.406342
0.443122
0.452856
0.452685
0.451749
0.452601
0.455914
0.460538
0.466078
0.472143
0.478232
0.484353
0.49057
0.49689
0.503265
0.509652
0.516014
0.52234
0.528616
0.534845
0.541022
0.547155
0.553256
0.559347
0.565448
0.571592
0.577803
0.584103
0.590523
0.597083
0.603812
0.610726
0.617849
0.62519
0.632768
0.640585
0.64866
0.656986
0.665578
0.674414
0.683495
0.692809
0.702341
0.71208
0.722068
0.731561
1.87402
0.796327
0.339519
0.35666
0.398325
0.426968
0.434882
0.434835
0.433828
0.433316
0.434049
0.435683
0.43824
0.441448
0.44494
0.448771
0.453028
0.457746
0.462906
0.468488
0.474452
0.480775
0.487412
0.49434
0.501515
0.508912
0.51649
0.524228
0.532093
0.540069
0.548132
0.556293
0.564522
0.572842
0.58123
0.589716
0.598282
0.60696
0.615744
0.624642
0.633649
0.642785
0.652049
0.661455
0.670999
0.680692
0.690528
0.700502
0.710654
0.720266
1.88891
0.806046
0.345016
0.373646
0.43094
0.466893
0.473621
0.469567
0.464486
0.461384
0.460433
0.460403
0.460995
0.46196
0.463
0.464173
0.465605
0.467366
0.469492
0.471995
0.474897
0.478209
0.481959
0.48614
0.490772
0.495837
0.501347
0.507269
0.513606
0.520321
0.527417
0.534847
0.54261
0.550662
0.558993
0.567562
0.576362
0.585354
0.594528
0.603875
0.613389
0.623046
0.632845
0.642762
0.6528
0.66294
0.673186
0.683518
0.694001
0.703895
2.34072
1.12427
0.46902
0.447561
0.513128
0.574868
0.595484
0.594874
0.589576
0.584273
0.581263
0.579353
0.577788
0.576418
0.574864
0.573131
0.571359
0.569646
0.568037
0.566559
0.565236
0.564105
0.563191
0.562542
0.562188
0.562178
0.562529
0.563302
0.564489
0.566128
0.568249
0.570859
0.573984
0.577605
0.581747
0.586382
0.591525
0.597139
0.603236
0.609768
0.616734
0.62409
0.631819
0.639912
0.648326
0.657045
0.666029
0.675265
0.684762
0.69382
1.88937
0.807236
0.346154
0.363471
0.415821
0.456082
0.468553
0.469557
0.469008
0.468986
0.471273
0.474791
0.478998
0.483732
0.488556
0.493367
0.498207
0.503135
0.50811
0.513122
0.518111
0.523088
0.528012
0.532911
0.537753
0.542576
0.547355
0.552133
0.55691
0.561718
0.566561
0.571477
0.576462
0.581569
0.586797
0.592198
0.597762
0.603544
0.609525
0.615761
0.622222
0.62896
0.635945
0.64319
0.650683
0.658435
0.666426
0.674655
0.683138
0.691243
1.8891
0.807384
0.347466
0.364538
0.416094
0.454585
0.465034
0.46397
0.461095
0.458535
0.458069
0.45891
0.460496
0.462703
0.465123
0.467713
0.470581
0.473809
0.477402
0.481345
0.485611
0.490183
0.495038
0.50016
0.505526
0.511111
0.516895
0.522855
0.528971
0.535242
0.541645
0.548178
0.554829
0.56159
0.568455
0.57542
0.582487
0.589656
0.596933
0.604317
0.611818
0.619431
0.62717
0.635029
0.643026
0.651149
0.659414
0.667806
0.676371
0.684505
2.34274
1.12796
0.472704
0.449627
0.516382
0.58062
0.603067
0.603168
0.598089
0.59302
0.590238
0.588683
0.587556
0.586705
0.585703
0.584538
0.583313
0.582189
0.581152
0.580294
0.579555
0.579045
0.578701
0.578642
0.578799
0.579281
0.580046
0.581134
0.582561
0.584336
0.586466
0.588951
0.591791
0.594984
0.59853
0.602426
0.606668
0.611246
0.616153
0.621379
0.626911
0.632741
0.638852
0.645237
0.651877
0.658768
0.665889
0.673232
0.680802
0.688042
1.88982
0.808779
0.353424
0.38141
0.439686
0.479632
0.48959
0.487909
0.484863
0.483478
0.484905
0.48758
0.490928
0.494762
0.498662
0.502612
0.506674
0.510902
0.515265
0.519747
0.524309
0.528942
0.533624
0.538355
0.543124
0.547928
0.552769
0.557646
0.562571
0.567545
0.572578
0.577684
0.582864
0.588141
0.593511
0.598998
0.604597
0.610328
0.616187
0.622189
0.628339
0.634644
0.641108
0.647734
0.654523
0.661477
0.668596
0.675868
0.683323
0.690422
1.87526
0.799751
0.351152
0.3781
0.427535
0.459446
0.467093
0.465964
0.464282
0.463568
0.464095
0.465294
0.467194
0.469479
0.47183
0.474312
0.477019
0.480003
0.483271
0.48682
0.490641
0.494728
0.49907
0.503662
0.508492
0.51355
0.518822
0.524296
0.529959
0.535798
0.541802
0.547951
0.554253
0.560684
0.567254
0.573939
0.580754
0.58768
0.594729
0.601884
0.609155
0.616525
0.624006
0.631585
0.639274
0.647058
0.654952
0.66294
0.671072
0.678772
1.87423
0.799385
0.351676
0.375348
0.422432
0.4541
0.462313
0.461851
0.460734
0.460114
0.460384
0.461209
0.462692
0.464528
0.466376
0.468278
0.470334
0.47259
0.475063
0.477753
0.48067
0.483817
0.487205
0.490833
0.494709
0.49883
0.503203
0.507821
0.512688
0.517796
0.523148
0.528734
0.534553
0.540592
0.546849
0.553309
0.559969
0.566811
0.573838
0.581033
0.588397
0.595919
0.603596
0.611413
0.619364
0.627439
0.635646
0.643976
0.652462
0.660519
1.88906
0.809113
0.354851
0.362657
0.413294
0.452093
0.463034
0.46262
0.460832
0.459585
0.459621
0.460432
0.461972
0.463875
0.465702
0.467509
0.469427
0.471519
0.473804
0.476279
0.478945
0.481803
0.48486
0.488115
0.491575
0.495241
0.499116
0.503203
0.507504
0.51202
0.516754
0.521705
0.526875
0.532262
0.537867
0.543686
0.549718
0.55596
0.562409
0.569059
0.575905
0.582939
0.590155
0.597549
0.605121
0.612863
0.620766
0.628818
0.637043
0.644865
2.31231
1.20464
0.485408
0.431469
0.492567
0.556795
0.582783
0.586275
0.583611
0.580879
0.579591
0.579276
0.579766
0.580596
0.581134
0.581425
0.581658
0.58194
0.582317
0.582785
0.583351
0.584014
0.584792
0.585687
0.586717
0.587886
0.58921
0.590691
0.592346
0.594177
0.5962
0.598416
0.60084
0.603472
0.606327
0.609402
0.61271
0.616248
0.620028
0.624042
0.628304
0.632802
0.637547
0.642528
0.647754
0.653208
0.658893
0.664785
0.670916
0.67681
2.32253
1.22874
0.466088
0.405362
0.481437
0.557495
0.588658
0.593336
0.590703
0.58784
0.586853
0.587306
0.588596
0.590411
0.592093
0.593491
0.594821
0.596234
0.597788
0.599468
0.601271
0.603182
0.605211
0.607351
0.609613
0.61199
0.614493
0.617115
0.619867
0.622742
0.625753
0.628891
0.632171
0.635585
0.639145
0.642846
0.6467
0.650701
0.65486
0.659172
0.663649
0.668283
0.673087
0.678054
0.683192
0.688492
0.693959
0.69958
0.705378
0.710917
2.31272
1.20614
0.48666
0.432534
0.494346
0.559803
0.586863
0.591012
0.58896
0.586848
0.586279
0.586936
0.588445
0.590435
0.592233
0.593827
0.5954
0.597083
0.598912
0.600887
0.602996
0.60524
0.607618
0.610136
0.612792
0.615593
0.618535
0.621626
0.62486
0.628244
0.631772
0.635453
0.639279
0.643257
0.647382
0.651661
0.656086
0.660665
0.66539
0.670269
0.675293
0.680471
0.685792
0.691267
0.696882
0.702649
0.708554
0.714605
0.720812
0.726751
1.88895
0.80918
0.356056
0.364303
0.416384
0.457003
0.469102
0.469119
0.467533
0.466519
0.467163
0.46879
0.471272
0.474228
0.477162
0.480128
0.483236
0.486564
0.490108
0.493869
0.497823
0.501977
0.506313
0.510839
0.515538
0.520419
0.525463
0.530681
0.536051
0.541586
0.547264
0.553098
0.559066
0.565183
0.571426
0.577809
0.584311
0.590947
0.597695
0.604571
0.611554
0.618659
0.625864
0.633186
0.640602
0.648131
0.655752
0.663486
0.671348
0.678835
1.87422
0.800022
0.355292
0.380471
0.428585
0.460131
0.467651
0.466483
0.464742
0.46386
0.464077
0.464929
0.466471
0.468352
0.470184
0.472036
0.474
0.476139
0.47845
0.480944
0.483609
0.486459
0.489487
0.492706
0.49611
0.499711
0.5035
0.50749
0.51167
0.516053
0.520627
0.525404
0.53037
0.535537
0.540891
0.546442
0.552175
0.5581
0.564202
0.570489
0.576945
0.583579
0.590375
0.597338
0.604453
0.611727
0.619144
0.626711
0.634436
0.641798
1.87704
0.803104
0.359363
0.395137
0.451552
0.484554
0.490475
0.486943
0.482759
0.480813
0.480802
0.481598
0.483009
0.484674
0.486272
0.487893
0.489637
0.49155
0.493624
0.495862
0.498254
0.500808
0.50352
0.5064
0.509442
0.512657
0.516039
0.519596
0.523324
0.52723
0.53131
0.535569
0.540004
0.54462
0.54941
0.554383
0.559529
0.564857
0.570356
0.576035
0.581882
0.587905
0.594093
0.600451
0.606969
0.61365
0.620484
0.62747
0.634615
0.641427
1.19153
1.04881
0.49751
0.190543
0.0108789
0.108735
0.16027
0.20861
0.230199
0.234556
0.222852
0.21138
0.201056
0.19152
0.179484
0.16503
0.147698
0.127764
0.105943
0.0827987
0.0589762
0.0352625
0.0158722
0.0232578
0.0469747
0.0712774
0.095415
0.119121
0.142435
0.165337
0.187834
0.209908
0.23154
0.25268
0.272686
0.291786
0.311323
0.331694
0.351654
0.370818
0.389326
0.407319
0.424834
0.441882
0.45845
0.474542
0.490143
0.505259
0.519873
0.533989
0.547589
0.560672
0.573213
0.585209
0.596628
0.607462
0.617674
0.62725
0.636149
0.644353
0.651816
0.65852
0.664419
0.669498
0.673718
0.677075
0.67955
0.681167
0.681934
0.682104
0.681924
0.681359
0.680017
0.677505
0.67412
0.670508
0.666826
0.663105
0.659413
0.655833
0.652463
0.649378
0.646645
0.6443
0.642371
0.640861
0.63977
0.639073
0.638742
0.638714
0.63887
0.639205
0.639837
0.640926
0.642307
0.643819
0.645363
0.647032
0.648671
0.653447
1.1219
1.03597
0.806091
0.549181
0.502182
0.431234
0.381336
0.3406
0.31033
0.291772
0.260403
0.230124
0.21055
0.208801
0.215939
0.22649
0.238948
0.25286
0.267988
0.283841
0.300217
0.316685
0.333007
0.349177
0.365907
0.382887
0.400046
0.417142
0.434236
0.451164
0.468012
0.484639
0.501132
0.517363
0.533017
0.54793
0.562926
0.578643
0.594503
0.609725
0.624439
0.638808
0.652884
0.666655
0.680106
0.693218
0.705984
0.718392
0.730434
0.7421
0.753377
0.764252
0.774708
0.784729
0.794293
0.803381
0.811964
0.820021
0.827519
0.834432
0.840726
0.846375
0.851343
0.855607
0.859138
0.861923
0.86395
0.865223
0.865774
0.865782
0.865483
0.864812
0.863453
0.86106
0.857836
0.854356
0.8508
0.847229
0.843709
0.840313
0.837129
0.834227
0.83167
0.82949
0.827712
0.826336
0.82536
0.824757
0.824524
0.824548
0.824721
0.825052
0.825615
0.826577
0.827781
0.829118
0.830436
0.831848
0.833037
0.836837
1.07462
1.07545
1.00804
0.899585
0.83114
0.780847
0.744932
0.71484
0.690024
0.671931
0.656819
0.642479
0.63248
0.627343
0.625822
0.626074
0.627574
0.629974
0.633352
0.637613
0.642725
0.648493
0.654852
0.661681
0.669235
0.677392
0.68616
0.695312
0.704884
0.714685
0.724797
0.735045
0.745535
0.75608
0.766466
0.776407
0.786482
0.797262
0.808628
0.819721
0.83053
0.841145
0.851662
0.862055
0.872331
0.882437
0.892379
0.902111
0.911644
0.920934
0.929991
0.938767
0.94727
0.955451
0.963312
0.970803
0.977923
0.984617
0.990882
0.996662
1.00195
1.00669
1.01088
1.01447
1.01744
1.01976
1.02144
1.02244
1.02279
1.02267
1.02231
1.02161
1.02029
1.01808
1.01511
1.01186
1.00851
1.00516
1.00188
0.998736
0.995802
0.993149
0.990817