/*--------------------------------*- C++ -*----------------------------------*\
| =========                 |                                                 |
| \\      /  F ield         | OpenFOAM: The Open Source CFD Toolbox           |
|  \\    /   O peration     | Version:  2412                                  |
|   \\  /    A nd           | Website:  www.openfoam.com                      |
|    \\/     M anipulation  |                                                 |
\*---------------------------------------------------------------------------*/
FoamFile
{
    version     2.0;
    format      ascii;
    arch        "LSB;label=32;scalar=64";
    class       volScalarField;
    location    "26";
    object      p;
}
// * * * * * * * * * * * * * * * * * * * * * * * * * * * * * * * * * * * * * //

dimensions      [1 -1 -2 0 0 0 0];

internalField   nonuniform List<scalar> 
7000
(
1.63884
3.75687
11.4559
11.5283
11.0978
10.6883
10.5695
10.5841
10.6251
10.6649
10.6867
10.7004
10.715
10.7327
10.753
10.7752
10.7991
10.8245
10.8517
10.8807
10.9115
10.9442
10.9787
11.0151
11.0533
11.0934
11.1352
11.1789
11.2243
11.2713
11.32
11.3701
11.4215
11.4741
11.5276
11.5818
11.6364
11.691
11.7452
11.7986
11.8506
11.9007
11.9481
11.9923
12.0325
12.0682
12.0985
12.1229
12.1406
12.1535
1.63915
3.75558
11.4554
11.5276
11.0973
10.6879
10.5692
10.5838
10.6248
10.6644
10.6862
10.7
10.7145
10.7322
10.7525
10.7747
10.7985
10.8239
10.8511
10.88
10.9108
10.9435
10.978
11.0143
11.0525
11.0925
11.1343
11.1779
11.2233
11.2703
11.3189
11.369
11.4204
11.4729
11.5264
11.5806
11.6352
11.6898
11.7441
11.7975
11.8496
11.8997
11.9472
11.9915
12.0318
12.0676
12.098
12.1226
12.1403
12.1533
1.63904
3.75465
11.4535
11.5268
11.0966
10.6872
10.5685
10.5831
10.624
10.6635
10.6852
10.6989
10.7134
10.731
10.7513
10.7734
10.7972
10.8225
10.8496
10.8785
10.9092
10.9418
10.9762
11.0124
11.0505
11.0904
11.1321
11.1756
11.2208
11.2677
11.3162
11.3661
11.4174
11.4698
11.5231
11.5772
11.6316
11.6861
11.7402
11.7936
11.8455
11.8956
11.9431
11.9873
12.0277
12.0634
12.0939
12.1185
12.1361
12.149
1.63891
3.75336
11.4502
11.5257
11.0956
10.686
10.5673
10.5818
10.6227
10.6621
10.6837
10.6973
10.7117
10.7293
10.7494
10.7715
10.7951
10.8203
10.8473
10.8761
10.9067
10.9391
10.9734
11.0094
11.0473
11.0871
11.1286
11.1719
11.2169
11.2636
11.3118
11.3615
11.4125
11.4647
11.5178
11.5716
11.6258
11.6801
11.734
11.7871
11.8389
11.8888
11.9362
11.9804
12.0207
12.0564
12.0869
12.1115
12.1289
12.1418
1.63874
3.75149
11.4454
11.5243
11.0943
10.6844
10.5656
10.5801
10.6208
10.6601
10.6815
10.695
10.7093
10.7267
10.7468
10.7687
10.7922
10.8173
10.8441
10.8727
10.9031
10.9353
10.9693
11.0052
11.0429
11.0823
11.1236
11.1666
11.2113
11.2576
11.3055
11.3549
11.4055
11.4573
11.5101
11.5635
11.6174
11.6713
11.7249
11.7777
11.8292
11.8789
11.9262
11.9702
12.0105
12.0462
12.0766
12.1012
12.1186
12.1315
1.63852
3.74896
11.4392
11.5225
11.0927
10.6823
10.5633
10.5778
10.6183
10.6574
10.6786
10.692
10.7061
10.7234
10.7433
10.765
10.7883
10.8132
10.8398
10.8682
10.8983
10.9303
10.964
10.9996
11.0369
11.0761
11.1169
11.1596
11.2039
11.2498
11.2972
11.3461
11.3962
11.4475
11.4998
11.5527
11.606
11.6595
11.7126
11.765
11.8162
11.8655
11.9125
11.9563
11.9964
12.0321
12.0624
12.0871
12.1045
12.1176
1.63825
3.74573
11.4313
11.5203
11.0907
10.6797
10.5604
10.5748
10.6152
10.654
10.675
10.6881
10.7021
10.7192
10.7389
10.7603
10.7834
10.808
10.8343
10.8624
10.8923
10.9239
10.9573
10.9925
11.0294
11.0681
11.1085
11.1506
11.1944
11.2397
11.2866
11.3348
11.3844
11.435
11.4866
11.5388
11.5915
11.6443
11.6968
11.7486
11.7992
11.8481
11.8946
11.9382
11.9781
12.0136
12.0439
12.0686
12.086
12.0993
1.63794
3.74174
11.4216
11.5175
11.0881
10.6765
10.5568
10.5711
10.6113
10.6498
10.6705
10.6834
10.6971
10.714
10.7334
10.7546
10.7773
10.8016
10.8276
10.8554
10.8848
10.916
10.949
10.9837
11.0201
11.0582
11.0981
11.1396
11.1827
11.2273
11.2734
11.3209
11.3697
11.4195
11.4702
11.5216
11.5734
11.6253
11.677
11.728
11.7779
11.8261
11.8721
11.9152
11.9548
11.99
12.0203
12.045
12.0624
12.0759
1.63757
3.73693
11.41
11.5142
11.0852
10.6727
10.5525
10.5667
10.6065
10.6447
10.6651
10.6777
10.6912
10.7077
10.7268
10.7477
10.77
10.794
10.8196
10.8468
10.8758
10.9065
10.939
10.9731
11.0089
11.0464
11.0855
11.1262
11.1685
11.2123
11.2576
11.3041
11.3518
11.4006
11.4503
11.5006
11.5513
11.6022
11.6527
11.7027
11.7516
11.799
11.8442
11.8866
11.9257
11.9606
11.9906
12.0153
12.0327
12.0466
1.63714
3.73126
11.3964
11.5104
11.0816
10.6681
10.5474
10.5614
10.6009
10.6387
10.6587
10.671
10.6841
10.7003
10.719
10.7394
10.7614
10.7849
10.81
10.8367
10.8652
10.8953
10.9271
10.9605
10.9956
11.0323
11.0706
11.1104
11.1517
11.1945
11.2387
11.2841
11.3306
11.3781
11.4265
11.4755
11.5248
11.5743
11.6235
11.6722
11.7198
11.7659
11.8101
11.8516
11.8899
11.9242
11.9539
11.9785
11.9959
12.0101
1.63665
3.72468
11.3807
11.5059
11.0775
10.6629
10.5414
10.5552
10.5942
10.6316
10.6512
10.6631
10.6758
10.6915
10.7098
10.7298
10.7512
10.7742
10.7988
10.8249
10.8527
10.8822
10.9132
10.9458
10.98
11.0158
11.0531
11.0919
11.1321
11.1736
11.2165
11.2605
11.3056
11.3516
11.3984
11.4458
11.4934
11.5412
11.5887
11.6356
11.6816
11.7261
11.7687
11.8089
11.8461
11.8796
11.9086
11.933
11.9503
11.965
1.6361
3.71714
11.3627
11.5007
11.0728
10.6568
10.5344
10.5479
10.5865
10.6233
10.6425
10.6539
10.6661
10.6814
10.6992
10.7186
10.7395
10.7619
10.7858
10.8113
10.8383
10.8669
10.8971
10.9288
10.962
10.9967
11.0329
11.0704
11.1093
11.1494
11.1908
11.2332
11.2766
11.3208
11.3657
11.411
11.4566
11.5023
11.5476
11.5923
11.6361
11.6785
11.7191
11.7574
11.7928
11.825
11.8531
11.8769
11.8939
11.909
1.63548
3.70861
11.3424
11.4948
11.0674
10.6499
10.5265
10.5397
10.5776
10.6138
10.6324
10.6433
10.655
10.6698
10.6869
10.7058
10.726
10.7477
10.7709
10.7956
10.8218
10.8495
10.8787
10.9093
10.9414
10.9749
11.0097
11.0458
11.0831
11.1216
11.1612
11.2017
11.2431
11.2852
11.3278
11.3708
11.4139
11.4569
11.4995
11.5414
11.5823
11.6218
11.6596
11.6953
11.7283
11.7582
11.7845
11.8072
11.8237
11.8394
1.6348
3.69904
11.3197
11.4881
11.0613
10.6422
10.5174
10.5302
10.5674
10.6029
10.6209
10.6313
10.6424
10.6565
10.673
10.6912
10.7107
10.7316
10.754
10.7778
10.803
10.8297
10.8578
10.8872
10.918
10.95
10.9833
11.0178
11.0534
11.09
11.1275
11.1658
11.2049
11.2444
11.2844
11.3245
11.3645
11.4043
11.4435
11.4819
11.5191
11.5549
11.5888
11.6206
11.6499
11.6765
11.7
11.7206
11.7359
11.7518
1.63408
3.68842
11.2947
11.4805
11.0543
10.6335
10.5072
10.5195
10.5558
10.5905
10.6079
10.6176
10.628
10.6414
10.6572
10.6746
10.6934
10.7134
10.7348
10.7577
10.7818
10.8074
10.8342
10.8623
10.8916
10.922
10.9536
10.9862
11.0198
11.0542
11.0894
11.1252
11.1615
11.1981
11.2349
11.2716
11.308
11.3439
11.3789
11.4128
11.4452
11.4759
11.5046
11.5309
11.5547
11.5759
11.5945
11.6112
11.6239
11.6402
1.63328
3.67681
11.2672
11.4721
11.0466
10.6239
10.4956
10.5073
10.5425
10.5764
10.5931
10.6021
10.6118
10.6244
10.6394
10.656
10.6739
10.693
10.7134
10.7351
10.7581
10.7823
10.8077
10.8343
10.8619
10.8906
10.9203
10.9508
10.9821
11.0141
11.0466
11.0795
11.1127
11.1459
11.179
11.2117
11.2438
11.2749
11.3047
11.333
11.3593
11.3833
11.4047
11.4233
11.4389
11.4518
11.4623
11.4717
11.4789
11.4938
1.63243
3.66426
11.2374
11.463
11.0382
10.6131
10.4826
10.4937
10.5276
10.5605
10.5764
10.5846
10.5935
10.6054
10.6195
10.6352
10.6521
10.6701
10.6894
10.7099
10.7316
10.7544
10.7783
10.8032
10.829
10.8557
10.8832
10.9114
10.9401
10.9694
10.9989
11.0285
11.0581
11.0874
11.1163
11.1443
11.1712
11.1966
11.2201
11.2414
11.2599
11.2752
11.2868
11.2945
11.2977
11.297
11.2936
11.2892
11.2852
11.2959
1.63153
3.65088
11.2056
11.4532
11.0291
10.6011
10.468
10.4783
10.5107
10.5425
10.5576
10.565
10.5731
10.584
10.5972
10.6119
10.6277
10.6447
10.6628
10.682
10.7022
10.7235
10.7457
10.7687
10.7925
10.8171
10.8422
10.8678
10.8937
10.9199
10.946
10.972
10.9975
11.0224
11.0463
11.0689
11.0898
11.1085
11.1244
11.1371
11.1459
11.1498
11.1482
11.1412
11.1263
11.1044
11.0765
11.0457
11.0155
11.0118
1.63059
3.63686
11.1721
11.4427
11.0192
10.5879
10.4516
10.461
10.4916
10.5223
10.5365
10.5432
10.5504
10.5604
10.5726
10.5862
10.6009
10.6167
10.6334
10.6512
10.6699
10.6895
10.7098
10.7309
10.7525
10.7746
10.7972
10.8199
10.8427
10.8655
10.8879
10.9098
10.9309
10.9508
10.9691
10.9856
10.9995
11.0103
11.0174
11.0193
11.0165
11.007
10.9876
10.9585
10.9177
10.8634
10.7942
10.7122
10.6217
10.5663
1.62964
3.62245
11.1379
11.4316
11.0084
10.5731
10.4329
10.4411
10.4697
10.4992
10.5126
10.5185
10.5248
10.5338
10.545
10.5576
10.5711
10.5856
10.601
10.6172
10.6343
10.652
10.6704
10.6893
10.7086
10.7281
10.7478
10.7675
10.7869
10.8059
10.8243
10.8417
10.8577
10.8721
10.8843
10.8937
10.8999
10.9014
10.8986
10.8897
10.8711
10.8429
10.8021
10.7458
10.669
10.5659
10.4279
10.247
10.0132
9.75877
1.62883
3.60416
11.0972
11.4184
10.9947
10.5537
10.4081
10.4147
10.4405
10.4687
10.4813
10.4863
10.4915
10.4992
10.5091
10.5203
10.5323
10.5452
10.5588
10.5731
10.588
10.6035
10.6193
10.6354
10.6517
10.668
10.6841
10.6999
10.715
10.7293
10.7425
10.7541
10.7638
10.7711
10.7753
10.7752
10.7723
10.7635
10.7454
10.7187
10.6809
10.6288
10.5581
10.4619
10.331
10.1486
9.88562
9.48041
8.78206
7.25985
1.62804
3.58467
11.0541
11.4012
10.9756
10.5255
10.3719
10.3765
10.3991
10.4265
10.439
10.4434
10.4476
10.4542
10.4628
10.4726
10.483
10.4941
10.5057
10.5178
10.5303
10.543
10.5559
10.5687
10.5814
10.5938
10.6056
10.6166
10.6267
10.6353
10.6422
10.6471
10.6489
10.6479
10.6437
10.6338
10.6168
10.5923
10.5586
10.5129
10.4524
10.3721
10.2657
10.1234
9.93032
9.66264
9.27881
8.70987
7.86758
6.48132
1.62758
3.5734
11.0293
11.3896
10.9601
10.4971
10.3327
10.3349
10.3537
10.3809
10.3934
10.3972
10.4003
10.4056
10.4128
10.421
10.4298
10.439
10.4486
10.4583
10.4682
10.4782
10.488
10.4974
10.5065
10.5148
10.5222
10.5284
10.5332
10.536
10.5362
10.5347
10.5299
10.5196
10.5042
10.4828
10.4539
10.4157
10.3661
10.3021
10.2196
10.1138
9.97646
9.79778
9.56243
9.24923
8.82898
8.26144
7.5296
6.55665
1.62694
3.56419
11.0059
11.3682
10.9321
10.4517
10.2778
10.28
10.3003
10.3309
10.3449
10.3484
10.3506
10.3549
10.3611
10.3682
10.3755
10.3828
10.3903
10.3978
10.4051
10.4122
10.4189
10.425
10.4303
10.4346
10.4376
10.439
10.4385
10.4364
10.4312
10.4217
10.4083
10.39
10.3658
10.3346
10.2946
10.2442
10.1808
10.1013
10.0019
9.87739
9.72091
9.52371
9.27464
8.95988
8.56482
8.07376
7.49343
6.7644
1.62767
3.59855
11.0674
11.3655
10.9047
10.386
10.2008
10.2061
10.2343
10.2721
10.2886
10.2921
10.2938
10.2975
10.3031
10.3092
10.3153
10.3212
10.3269
10.3324
10.3374
10.342
10.3458
10.3489
10.3508
10.3513
10.3506
10.3483
10.3431
10.335
10.3236
10.3083
10.2884
10.2632
10.2313
10.1917
10.1426
10.0823
10.0084
9.91813
9.80789
9.67333
9.50913
9.30899
9.06561
8.77126
8.41869
8.00073
7.51981
6.9688
1.58995
3.70901
11.0722
11.2744
10.8239
10.3046
10.1317
10.1417
10.1783
10.2182
10.2347
10.2384
10.2405
10.2441
10.249
10.2539
10.2584
10.2624
10.266
10.2691
10.2716
10.2733
10.2741
10.2739
10.2728
10.2699
10.2646
10.2574
10.2476
10.2347
10.2182
10.1976
10.172
10.1406
10.1023
10.0559
9.99985
9.93243
9.85162
9.75491
9.6394
9.50168
9.33788
9.14368
8.91462
8.64626
8.33526
7.97895
7.57933
7.13168
1.55515
4.81619
11.2233
10.9534
10.3122
10.0553
10.0509
10.0775
10.1249
10.1514
10.1611
10.1653
10.1696
10.1746
10.1798
10.1843
10.1882
10.1913
10.1937
10.1953
10.1959
10.1957
10.1947
10.1922
10.1877
10.1817
10.174
10.1639
10.1508
10.1343
10.1138
10.0888
10.0586
10.0224
9.97913
9.92774
9.86695
9.79515
9.71058
9.6112
9.49471
9.35855
9.19999
9.01613
8.80427
8.56196
8.28776
7.98165
7.64498
7.27051
1.55604
4.82317
11.1731
10.8843
10.2396
10.0003
10.0105
10.053
10.1015
10.1231
10.1292
10.1317
10.1347
10.1379
10.1405
10.1421
10.1428
10.1427
10.142
10.1402
10.1371
10.1332
10.1283
10.122
10.114
10.1041
10.0919
10.0772
10.0596
10.0389
10.0145
9.98585
9.95213
9.91225
9.8653
9.81043
9.74642
9.67202
9.58585
9.48626
9.37151
9.23969
9.08891
8.9172
8.72297
8.50478
8.26193
7.99391
7.70702
7.391
1.56619
4.84228
11.2357
10.9042
10.1833
9.92286
9.93797
9.99272
10.0501
10.0745
10.0808
10.0835
10.0869
10.0903
10.0926
10.0936
10.0935
10.0925
10.0901
10.0859
10.0808
10.0745
10.0668
10.0575
10.0463
10.033
10.0174
9.99934
9.97837
9.95411
9.9259
9.89311
9.85516
9.81166
9.76188
9.70477
9.63939
9.56433
9.47838
9.3803
9.2689
9.14271
9.00057
8.84113
8.66343
8.46677
8.25149
8.01736
7.76827
7.49785
1.55651
4.82047
11.1598
10.8524
10.1593
9.89807
9.91016
9.95945
10.0156
10.0399
10.0455
10.047
10.0489
10.0508
10.0515
10.0511
10.0495
10.0461
10.0413
10.0354
10.0283
10.0198
10.0097
9.99787
9.98404
9.96805
9.9496
9.92851
9.90437
9.87689
9.84551
9.80982
9.76934
9.72337
9.67128
9.61214
9.54524
9.46977
9.38493
9.28963
9.18294
9.0636
8.93063
8.7832
8.62102
8.44403
8.25242
8.0456
7.8272
7.59248
1.52733
4.76285
10.9523
10.7278
10.1507
9.90267
9.9036
9.93303
9.98169
10.005
10.0107
10.0115
10.0121
10.0123
10.0119
10.0102
10.0065
10.0014
9.99519
9.9878
9.97897
9.96858
9.95643
9.94243
9.92632
9.90803
9.8872
9.86369
9.83706
9.80709
9.77337
9.73547
9.69293
9.64516
9.59168
9.53182
9.46493
9.3903
9.30721
9.21484
9.11237
8.99925
8.87498
8.73908
8.59105
8.43059
8.25782
8.07487
7.88216
7.67618
1.51126
4.71734
10.8691
10.7328
10.234
9.94125
9.8895
9.90784
9.94729
9.97138
9.9781
9.97782
9.97665
9.97434
9.97144
9.96761
9.96252
9.95616
9.94851
9.93953
9.92903
9.91695
9.90307
9.88734
9.86949
9.84941
9.82678
9.80145
9.77305
9.74132
9.70596
9.66654
9.62275
9.57408
9.52003
9.46011
9.39385
9.32065
9.23997
9.15116
9.0537
8.94709
8.83095
8.70494
8.56895
8.42308
8.26764
8.10331
7.93135
7.74876
1.6681
3.29279
10.5075
11.013
10.597
10.0773
9.88915
9.89312
9.91839
9.95144
9.96214
9.96098
9.95702
9.95066
9.94482
9.93889
9.93198
9.92372
9.91407
9.903
9.89043
9.87622
9.8602
9.84239
9.82251
9.80037
9.7757
9.74836
9.71803
9.6845
9.64746
9.60656
9.56145
9.51174
9.45706
9.39706
9.33139
9.2596
9.18125
9.09592
9.00312
8.90253
8.79391
8.677
8.55181
8.41847
8.27729
8.12875
7.97403
7.81066
1.67601
3.16918
10.4417
11.1647
10.7159
10.1121
9.86737
9.85454
9.87228
9.90446
9.91489
9.91302
9.90701
9.89766
9.89003
9.88349
9.87655
9.86834
9.85867
9.84752
9.83484
9.82049
9.80434
9.78619
9.76592
9.74334
9.71818
9.6903
9.6594
9.62534
9.58778
9.54654
9.50135
9.45194
9.39805
9.33926
9.27518
9.20546
9.12979
9.04777
8.95916
8.8638
8.76165
8.65284
8.53721
8.41483
8.2859
8.15085
8.01066
7.86322
1.64117
3.05467
9.91293
11.0087
10.6487
10.1098
9.88665
9.86579
9.87677
9.89508
9.89674
9.89279
9.88264
9.86927
9.8581
9.84839
9.8386
9.82784
9.81586
9.80262
9.78805
9.77202
9.75434
9.73486
9.71338
9.68975
9.66375
9.63514
9.60366
9.56914
9.53139
9.49016
9.44523
9.39631
9.34314
9.28542
9.22286
9.15523
9.08227
9.00387
8.91994
8.83024
8.7346
8.63284
8.52489
8.41111
8.29233
8.16885
8.04117
7.90732
1.43606
4.54911
10.3368
10.5123
10.2198
9.92514
9.81716
9.81454
9.82282
9.83333
9.83324
9.8297
9.82065
9.80869
9.79844
9.78931
9.77981
9.76919
9.75729
9.74409
9.72954
9.71348
9.69576
9.67621
9.65469
9.63101
9.60503
9.57648
9.5452
9.51109
9.4739
9.43337
9.38931
9.3415
9.28973
9.23376
9.17337
9.10838
9.03863
8.96398
8.8843
8.79947
8.70943
8.6142
8.51417
8.40942
8.29986
8.1857
8.06796
7.94517
1.63352
3.0032
9.72785
10.8965
10.5816
10.0813
9.86186
9.8276
9.83296
9.83944
9.83668
9.82753
9.81084
9.79504
9.78143
9.76887
9.75604
9.74221
9.72718
9.71108
9.69389
9.67541
9.65544
9.63382
9.61038
9.58501
9.55752
9.52787
9.4959
9.46129
9.42383
9.38332
9.33961
9.29254
9.2419
9.18746
9.12904
9.06647
8.99962
8.92837
8.85262
8.77236
8.68757
8.5983
8.50469
8.40687
8.30498
8.1994
8.09075
7.97776
1.64238
2.93509
9.72925
11.0214
10.64
10.0491
9.79186
9.75836
9.76851
9.78416
9.78307
9.77593
9.75997
9.74287
9.72903
9.7169
9.70465
9.69156
9.67743
9.66206
9.64529
9.62708
9.60733
9.58592
9.56272
9.53759
9.51036
9.48092
9.4491
9.41474
9.37769
9.33782
9.29494
9.24883
9.19937
9.14643
9.0899
9.02965
8.96559
8.89762
8.82568
8.74972
8.66973
8.58579
8.49796
8.40638
8.31126
8.21306
8.11219
8.00741
1.64069
2.91578
9.67475
10.9998
10.6149
10.009
9.74239
9.70729
9.71844
9.73676
9.73626
9.73002
9.71504
9.69744
9.68331
9.67125
9.65916
9.64609
9.63182
9.61627
9.59939
9.58109
9.56129
9.53985
9.51666
9.49157
9.46448
9.43524
9.40373
9.36981
9.33336
9.29422
9.25228
9.20736
9.15936
9.10815
9.05366
8.9958
8.93449
8.86967
8.80129
8.7293
8.65373
8.57465
8.49215
8.4064
8.31745
8.22565
8.13147
8.03377
1.62632
2.92433
9.50665
10.8594
10.5494
9.99837
9.74279
9.69493
9.69963
9.70792
9.7056
9.69706
9.67984
9.66311
9.64879
9.6357
9.62248
9.60843
9.59332
9.57707
9.55961
9.54085
9.52064
9.49889
9.47547
9.45026
9.42313
9.39398
9.36269
9.32914
9.29319
9.25471
9.21361
9.16979
9.12318
9.07368
9.0212
8.96562
8.90689
8.84499
8.77987
8.71153
8.63998
8.56528
8.48753
8.40685
8.32348
8.2375
8.14924
8.05765
1.3943
4.48175
10.0358
10.3046
10.0239
9.73628
9.62842
9.61927
9.62468
9.63125
9.63018
9.62496
9.61363
9.60092
9.58946
9.5786
9.56725
9.5548
9.54107
9.52601
9.5096
9.49177
9.47243
9.45152
9.42893
9.40454
9.37826
9.34998
9.31963
9.28711
9.25231
9.21513
9.17549
9.1333
9.08847
9.04094
8.99061
8.93742
8.88135
8.82236
8.76047
8.69569
8.62801
8.55747
8.48411
8.40803
8.32944
8.24839
8.16526
8.07907
1.63155
2.94802
9.59392
10.8427
10.4986
9.90977
9.63629
9.59395
9.60425
9.62469
9.62627
9.6216
9.6092
9.59188
9.57696
9.56383
9.55061
9.53635
9.52078
9.50388
9.48576
9.46623
9.44534
9.42308
9.39938
9.37411
9.34712
9.31831
9.28758
9.25481
9.22
9.18312
9.14408
9.10278
9.05914
9.01306
8.96449
8.91337
8.85963
8.80322
8.74411
8.6823
8.61783
8.55076
8.48118
8.4092
8.33494
8.25847
8.18002
8.09868
1.6418
3.07747
9.86671
10.7746
10.3921
9.78024
9.51836
9.49821
9.51553
9.54833
9.55779
9.55513
9.54676
9.53253
9.52004
9.50916
9.49809
9.48579
9.47203
9.4569
9.44055
9.42291
9.40378
9.38303
9.36056
9.33636
9.3104
9.28265
9.25303
9.22153
9.18806
9.15253
9.11486
9.07498
9.03284
8.98837
8.94154
8.89231
8.84064
8.78652
8.72997
8.67102
8.60969
8.54593
8.47983
8.41147
8.34093
8.26833
8.19388
8.11671
1.40445
4.54565
10.1045
10.1595
9.85375
9.54638
9.44683
9.45214
9.47151
9.49149
9.49722
9.4957
9.49066
9.4812
9.47186
9.46279
9.45302
9.44191
9.42933
9.41531
9.39986
9.38294
9.36447
9.34439
9.32265
9.29924
9.27412
9.24724
9.21853
9.18794
9.15548
9.12108
9.08468
9.04622
9.00565
8.96292
8.91799
8.87083
8.82142
8.76974
8.71578
8.65954
8.60106
8.54041
8.47762
8.41275
8.34586
8.277
8.20633
8.13307
1.3884
4.55537
10.0008
10.0257
9.78385
9.55161
9.46922
9.46658
9.47275
9.48216
9.48385
9.48177
9.47582
9.46578
9.45547
9.44506
9.43385
9.42146
9.40777
9.3928
9.37653
9.35895
9.34
9.31961
9.29773
9.27431
9.2493
9.22266
9.19435
9.16433
9.13249
9.09879
9.06317
9.02559
8.986
8.94437
8.90066
8.85482
8.80693
8.75706
8.70517
8.65118
8.59511
8.53698
8.47683
8.41466
8.35058
8.2847
8.21717
8.14724
1.42154
4.56882
10.2127
10.1825
9.79852
9.46312
9.36998
9.38193
9.41314
9.43761
9.44453
9.44315
9.43854
9.42993
9.42097
9.41186
9.40189
9.3906
9.37785
9.36365
9.34802
9.33091
9.31234
9.29228
9.27073
9.24765
9.22299
9.19673
9.16885
9.13932
9.10807
9.07506
9.04024
9.0036
8.96516
8.92487
8.88273
8.83876
8.79284
8.7449
8.69496
8.64308
8.58927
8.53355
8.47595
8.4165
8.35525
8.29228
8.22767
8.1606
1.53229
3.35224
9.88904
10.707
10.3191
9.67693
9.39309
9.36727
9.38491
9.42078
9.43493
9.4339
9.42924
9.41946
9.409
9.399
9.38855
9.37691
9.36382
9.3493
9.33339
9.31612
9.29746
9.27735
9.25575
9.23264
9.20791
9.18156
9.15369
9.1242
9.09303
9.06016
9.02561
8.98938
8.95143
8.91174
8.87031
8.82712
8.78214
8.73535
8.68679
8.63649
8.58433
8.53037
8.4747
8.41738
8.35844
8.29793
8.23596
8.17184
1.39676
4.53414
10.0664
10.0953
9.79222
9.46714
9.34515
9.3436
9.355
9.37646
9.38528
9.38459
9.38107
9.3734
9.36445
9.35569
9.3465
9.33614
9.32434
9.31109
9.29642
9.28035
9.26285
9.24388
9.2234
9.20139
9.17782
9.15268
9.126
9.09776
9.06792
9.03652
9.00348
8.96876
8.9323
8.89412
8.85421
8.81256
8.76918
8.72405
8.67717
8.62853
8.57826
8.52637
8.47287
8.41776
8.3611
8.30294
8.24342
8.18198
1.39415
4.53126
10.0489
10.0823
9.77563
9.44776
9.32756
9.32786
9.34044
9.36319
9.37258
9.37169
9.36763
9.35904
9.34937
9.33988
9.32992
9.31881
9.3063
9.29241
9.27721
9.2607
9.24288
9.22373
9.20321
9.1813
9.15801
9.13331
9.10711
9.07934
9.05
9.01905
8.98652
8.95244
8.91679
8.87955
8.8407
8.80021
8.75809
8.71434
8.66895
8.62195
8.57336
8.52319
8.47146
8.4182
8.36344
8.30722
8.24963
8.19018
1.53047
3.34024
9.84959
10.6878
10.3016
9.63713
9.33333
9.29762
9.31417
9.34897
9.36417
9.36328
9.35871
9.34886
9.33804
9.32808
9.31802
9.30697
9.29455
9.28077
9.26566
9.24925
9.23151
9.21243
9.19195
9.17
9.14673
9.12202
9.09582
9.06812
9.03891
9.00818
8.97595
8.94224
8.90703
8.87028
8.83201
8.7922
8.75085
8.70796
8.66354
8.6176
8.57015
8.52121
8.4708
8.41898
8.36573
8.31114
8.25529
8.19778
1.40816
4.54769
10.1187
10.0924
9.70689
9.35404
9.24388
9.25314
9.28242
9.3114
9.32099
9.32007
9.31617
9.30811
9.29946
9.29098
9.28194
9.27173
9.26016
9.24723
9.23301
9.2175
9.20068
9.18254
9.16305
9.14218
9.11995
9.09631
9.07124
9.04472
9.01673
8.98731
8.95644
8.92409
8.89025
8.85491
8.81807
8.77973
8.73991
8.69857
8.6557
8.6113
8.56541
8.51804
8.46924
8.419
8.36734
8.31435
8.26013
8.20427
1.39311
4.55548
10.0078
9.98197
9.66889
9.38853
9.30006
9.30308
9.31525
9.32606
9.3266
9.3241
9.31749
9.30739
9.29736
9.28744
9.27692
9.26538
9.25268
9.23881
9.22377
9.20758
9.19022
9.17165
9.15185
9.1308
9.10846
9.08484
9.05989
9.03362
9.00601
8.97702
8.9466
8.91474
8.88143
8.84666
8.81042
8.77272
8.73356
8.69296
8.65094
8.60751
8.56264
8.51636
8.46868
8.41961
8.3692
8.31744
8.26438
8.20955
1.38514
4.54775
9.95911
9.94771
9.65901
9.38728
9.29502
9.29434
9.30049
9.3082
9.30826
9.306
9.29985
9.28994
9.28
9.2702
9.25985
9.24855
9.23616
9.22268
9.20809
9.19237
9.17546
9.15736
9.13802
9.11744
9.09558
9.07244
9.04798
9.0222
8.99507
8.96658
8.9367
8.90543
8.87277
8.83871
8.80327
8.76642
8.72815
8.68846
8.64735
8.60482
8.56089
8.51556
8.46889
8.42092
8.37161
8.32093
8.26892
8.21511
1.37723
4.50927
9.91957
10.0316
9.7313
9.40342
9.28218
9.27816
9.28676
9.29911
9.30121
9.29886
9.29217
9.28111
9.2704
9.26026
9.24978
9.23837
9.22584
9.2122
9.19744
9.18157
9.16455
9.14637
9.127
9.10642
9.08461
9.06156
9.03725
9.01165
8.98476
8.95656
8.92703
8.89617
8.86395
8.83039
8.79546
8.75916
8.72149
8.68244
8.64203
8.60027
8.55718
8.51277
8.46702
8.4199
8.37147
8.32176
8.27083
8.2183
1.62614
2.9691
9.52196
10.6176
10.2731
9.64747
9.33803
9.27223
9.27979
9.298
9.30544
9.30318
9.29563
9.28125
9.26806
9.25674
9.24587
9.23433
9.22169
9.20791
9.19305
9.17711
9.16008
9.14192
9.1226
9.1021
9.0804
9.05746
9.03328
9.00784
8.98112
8.9531
8.92377
8.89313
8.86115
8.82784
8.79319
8.75719
8.71985
8.68117
8.64115
8.59981
8.55714
8.51318
8.46791
8.42137
8.37362
8.32472
8.27472
8.22333
1.63546
2.85385
9.48436
10.8213
10.4149
9.67678
9.30968
9.23174
9.2423
9.26826
9.28291
9.28169
9.27555
9.26216
9.24804
9.23646
9.22603
9.21511
9.20303
9.18972
9.17529
9.15977
9.14317
9.12546
9.10661
9.08658
9.06536
9.04293
9.01928
8.99438
8.96823
8.9408
8.91208
8.88206
8.85074
8.81811
8.78415
8.74887
8.71227
8.67434
8.63509
8.59452
8.55265
8.50946
8.46497
8.41924
8.37229
8.32416
8.27494
8.22437
1.62647
2.96227
9.50655
10.6082
10.2637
9.63138
9.31385
9.24624
9.25462
9.27523
9.28539
9.28351
9.27646
9.26204
9.24818
9.23647
9.22552
9.21401
9.20144
9.18775
9.173
9.15724
9.14044
9.12257
9.1036
9.08351
9.06226
9.03985
9.01624
8.99143
8.96538
8.9381
8.90955
8.87974
8.84865
8.81626
8.78258
8.7476
8.71132
8.67372
8.63483
8.59463
8.55315
8.51038
8.46634
8.42104
8.37452
8.32678
8.2779
8.22746
1.37421
4.50589
9.90014
10.012
9.7075
9.3654
9.23672
9.23228
9.24179
9.25635
9.25947
9.25725
9.25074
9.23977
9.22916
9.21922
9.20903
9.19798
9.18585
9.17267
9.15846
9.14321
9.12693
9.10957
9.09111
9.07153
9.0508
9.02891
9.00584
8.98156
8.95607
8.92934
8.90137
8.87213
8.84162
8.80983
8.77675
8.74237
8.70669
8.66971
8.63143
8.59184
8.55095
8.50877
8.46532
8.42061
8.37464
8.32741
8.27891
8.22866
1.37998
4.54113
9.92464
9.90716
9.60729
9.33023
9.24235
9.24464
9.25535
9.26532
9.26556
9.26297
9.25602
9.24518
9.23457
9.22429
9.21359
9.202
9.1894
9.1758
9.16122
9.14563
9.12902
9.11136
9.09263
9.07279
9.05184
9.02975
9.00649
8.98206
8.95643
8.92959
8.90153
8.87222
8.84167
8.80985
8.77677
8.74241
8.70677
8.66985
8.63165
8.59216
8.55141
8.50938
8.4661
8.42157
8.37582
8.32884
8.28067
8.23097
1.40416
4.56239
10.0551
9.98765
9.59229
9.27624
9.19344
9.20504
9.23476
9.25517
9.25773
9.25507
9.24805
9.23766
9.22771
9.21802
9.20775
9.19648
9.18415
9.17079
9.15643
9.14106
9.12465
9.10719
9.08866
9.06902
9.04826
9.02636
9.0033
8.97906
8.95363
8.92699
8.89912
8.87001
8.83965
8.80803
8.77514
8.74098
8.70554
8.66881
8.6308
8.59151
8.55095
8.50912
8.46603
8.4217
8.37614
8.32939
8.28149
8.23221
3.04431
2.45918
3.00478
4.18126
4.12727
4.11033
4.04943
4.01175
3.99886
4.00163
4.02931
4.07299
4.11012
4.14081
4.17479
4.21749
4.26915
4.32722
4.38886
4.45175
4.51416
4.57489
4.63342
4.69034
4.7413
4.78662
4.82628
4.86067
4.88979
4.9138
4.93275
4.94682
4.95613
4.96089
4.9613
4.95967
4.95434
4.94305
4.92762
4.90986
4.88985
4.86753
4.84302
4.81659
4.78851
4.75905
4.72845
4.69697
4.66484
4.63227
4.59949
4.5667
4.53412
4.50193
4.47035
4.43957
4.40978
4.3812
4.35401
4.32841
4.3046
4.28276
4.26308
4.24571
4.23082
4.21853
4.20892
4.20204
4.19785
4.1964
4.19663
4.19773
4.2008
4.20756
4.21933
4.23239
4.24577
4.25934
4.27294
4.28628
4.299
4.3108
4.3214
4.33063
4.33839
4.34461
4.34931
4.35252
4.35434
4.35495
4.35488
4.3545
4.35345
4.35115
4.34721
4.34284
4.33832
4.33363
4.32858
4.32416
4.09683
3.55504
3.75766
4.23583
4.15294
4.09621
4.03685
3.99639
3.98477
3.99701
4.03823
4.08874
4.12053
4.14242
4.17143
4.21235
4.26363
4.32166
4.38317
4.44597
4.50829
4.56915
4.62796
4.68462
4.73565
4.78098
4.82076
4.85528
4.88453
4.90868
4.92774
4.94192
4.9513
4.95609
4.95631
4.95513
4.95086
4.94086
4.9239
4.90553
4.88568
4.86369
4.83943
4.81316
4.7852
4.75585
4.72537
4.694
4.66197
4.62951
4.59682
4.56412
4.53161
4.49949
4.46797
4.43724
4.40751
4.37896
4.35181
4.32624
4.30245
4.28063
4.26096
4.24362
4.22876
4.21651
4.20697
4.20018
4.19622
4.19528
4.19557
4.19675
4.19981
4.20646
4.21832
4.23168
4.24542
4.25927
4.27307
4.28657
4.29944
4.31135
4.32205
4.33134
4.33913
4.34536
4.35003
4.3532
4.35498
4.3555
4.3554
4.35502
4.35398
4.35172
4.34767
4.34317
4.33858
4.33396
4.32916
4.32634
5.22635
4.46538
4.23737
4.26911
4.24982
4.19724
4.11504
4.06198
4.04196
4.04446
4.05702
4.08637
4.12164
4.15307
4.18614
4.22678
4.27575
4.33131
4.39069
4.45162
4.51237
4.57181
4.62911
4.68362
4.73379
4.77863
4.81798
4.85204
4.88085
4.90459
4.92329
4.93711
4.94613
4.9505
4.95042
4.94933
4.94568
4.93706
4.91978
4.90042
4.87997
4.85787
4.83373
4.80762
4.77978
4.75054
4.72016
4.6889
4.65699
4.62464
4.59207
4.55948
4.52708
4.49507
4.46364
4.43301
4.40336
4.3749
4.34782
4.32233
4.29861
4.27686
4.25728
4.24002
4.22526
4.21313
4.20376
4.19725
4.19374
4.19343
4.1938
4.19509
4.1983
4.20512
4.21693
4.23055
4.2448
4.25918
4.27344
4.2873
4.30044
4.31257
4.32343
4.33283
4.34067
4.34689
4.35152
4.35459
4.35626
4.35657
4.35645
4.35601
4.35489
4.3525
4.34835
4.34371
4.339
4.33445
4.32985
4.32878
5.8298
5.09679
4.66443
4.46779
4.42898
4.36305
4.27068
4.19024
4.13842
4.11817
4.1205
4.13163
4.15791
4.1949
4.22839
4.26325
4.30412
4.35187
4.40494
4.46102
4.51806
4.57459
4.62936
4.68165
4.73007
4.77381
4.81238
4.84568
4.8738
4.89692
4.91507
4.92837
4.93692
4.94071
4.94054
4.93941
4.93604
4.92826
4.91237
4.89228
4.87095
4.84841
4.82426
4.79835
4.77078
4.74181
4.71169
4.68068
4.64903
4.61693
4.5846
4.55225
4.52008
4.48829
4.45708
4.42666
4.39721
4.36895
4.34206
4.31675
4.29322
4.27165
4.25225
4.23518
4.22062
4.20874
4.19965
4.19358
4.19074
4.19082
4.19136
4.19295
4.19658
4.20402
4.21555
4.22923
4.24396
4.25901
4.2739
4.28826
4.30178
4.31417
4.32521
4.33471
4.34258
4.34879
4.35333
4.35632
4.35782
4.35785
4.35769
4.35714
4.35583
4.35311
4.34895
4.34426
4.33946
4.33495
4.33059
4.33067
6.23278
5.59784
5.12344
4.8343
4.68549
4.57251
4.46105
4.35949
4.282
4.23454
4.2148
4.21577
4.22212
4.23862
4.27113
4.3039
4.34017
4.38147
4.42762
4.47738
4.52919
4.58148
4.63282
4.68205
4.72814
4.77014
4.80745
4.83959
4.86673
4.88901
4.90637
4.91894
4.92684
4.92986
4.9296
4.92835
4.92499
4.91755
4.9025
4.88275
4.86097
4.83787
4.81343
4.78753
4.76017
4.73148
4.70168
4.67099
4.63964
4.60785
4.57583
4.54378
4.51191
4.48041
4.4495
4.41937
4.39021
4.36224
4.33565
4.31063
4.28739
4.26611
4.247
4.23023
4.216
4.20447
4.19587
4.19029
4.18822
4.1884
4.18918
4.19116
4.19541
4.2037
4.21499
4.22857
4.24357
4.25916
4.27465
4.28953
4.30343
4.31607
4.32726
4.33683
4.34471
4.35087
4.35533
4.35818
4.35938
4.35933
4.35904
4.35827
4.35661
4.3535
4.34939
4.34472
4.33987
4.33538
4.33139
4.33169
6.53982
6.00479
5.55023
5.20653
4.97357
4.80715
4.67002
4.55073
4.45263
4.38054
4.3353
4.31346
4.31342
4.31661
4.32731
4.35049
4.38286
4.41885
4.45764
4.49955
4.5442
4.59046
4.63686
4.68212
4.7251
4.76478
4.80034
4.83124
4.85732
4.87866
4.8951
4.9069
4.91414
4.91636
4.91603
4.91468
4.91123
4.90382
4.88921
4.8703
4.84864
4.82521
4.80045
4.77444
4.74722
4.71884
4.68943
4.65916
4.62823
4.59685
4.56524
4.5336
4.50214
4.47107
4.44058
4.41087
4.38214
4.3546
4.32844
4.30386
4.28106
4.26023
4.24157
4.22523
4.21149
4.2005
4.19245
4.18742
4.18617
4.18644
4.18744
4.18985
4.19488
4.20375
4.21517
4.22871
4.24377
4.25959
4.27543
4.29067
4.30487
4.31771
4.32901
4.33861
4.34647
4.35257
4.35694
4.35965
4.36051
4.36041
4.36
4.359
4.35693
4.35361
4.34945
4.34478
4.33993
4.33548
4.33178
4.33218
6.78403
6.33355
5.91602
5.55697
5.27642
5.06468
4.89693
4.75693
4.63982
4.54634
4.4777
4.43301
4.40956
4.40385
4.4055
4.41223
4.42805
4.45651
4.48831
4.52356
4.56156
4.60141
4.6421
4.68264
4.72191
4.75877
4.79224
4.82163
4.84655
4.86686
4.88252
4.89356
4.90007
4.90152
4.90112
4.89964
4.89602
4.88839
4.87424
4.856
4.83473
4.81133
4.78642
4.76035
4.73323
4.70512
4.67611
4.64629
4.61585
4.58497
4.55385
4.52271
4.49176
4.4612
4.43124
4.40207
4.37389
4.3469
4.32131
4.29729
4.27508
4.25484
4.23677
4.22111
4.20796
4.19756
4.19011
4.1857
4.18524
4.1856
4.18681
4.18965
4.19552
4.2049
4.21654
4.23005
4.24498
4.26072
4.27659
4.29191
4.3062
4.31911
4.33043
4.34003
4.34786
4.35389