/*--------------------------------*- C++ -*----------------------------------*\
| =========                 |                                                 |
| \\      /  F ield         | OpenFOAM: The Open Source CFD Toolbox           |
|  \\    /   O peration     | Version:  2412                                  |
|   \\  /    A nd           | Website:  www.openfoam.com                      |
|    \\/     M anipulation  |                                                 |
\*---------------------------------------------------------------------------*/
FoamFile
{
    version     2.0;
    format      ascii;
    arch        "LSB;label=32;scalar=64";
    class       volVectorField;
    location    "26";
    object      U;
}
// * * * * * * * * * * * * * * * * * * * * * * * * * * * * * * * * * * * * * //

dimensions      [0 1 -1 0 0 0 0];

internalField   nonuniform List<vector> 
7000
(
(2.59105 -7.24827e-05 0)
(1.6205 0.000178365 0)
(0.495628 0.000208985 0)
(0.552994 0.000350764 0)
(0.654684 0.000446559 0)
(0.71988 0.000524599 0)
(0.732761 0.000592442 0)
(0.725868 0.000662737 0)
(0.715806 0.000741199 0)
(0.708108 0.000831615 0)
(0.703641 0.000930258 0)
(0.700073 0.00103346 0)
(0.695987 0.00114043 0)
(0.691132 0.00125209 0)
(0.685668 0.00136948 0)
(0.679721 0.00149317 0)
(0.673309 0.00162345 0)
(0.666398 0.00176065 0)
(0.658953 0.00190518 0)
(0.650948 0.00205763 0)
(0.64236 0.00221857 0)
(0.633167 0.00238869 0)
(0.623342 0.00256868 0)
(0.612858 0.00275932 0)
(0.601688 0.00296143 0)
(0.589799 0.00317589 0)
(0.577161 0.0034036 0)
(0.563739 0.00364553 0)
(0.549499 0.00390264 0)
(0.534404 0.00417591 0)
(0.518417 0.00446632 0)
(0.501501 0.00477476 0)
(0.483617 0.00510209 0)
(0.464727 0.00544894 0)
(0.444797 0.00581592 0)
(0.423792 0.0062031 0)
(0.401683 0.00661054 0)
(0.378445 0.0070374 0)
(0.354061 0.00748276 0)
(0.328524 0.00794444 0)
(0.301837 0.00842005 0)
(0.27402 0.00890549 0)
(0.245106 0.00939683 0)
(0.215149 0.0098877 0)
(0.184222 0.0103736 0)
(0.152419 0.0108475 0)
(0.119821 0.0113135 0)
(0.0868492 0.0117555 0)
(0.0514911 0.0123442 0)
(0.0221144 0.0131962 0)
(2.59118 -4.80846e-05 0)
(1.62066 0.000347464 0)
(0.495316 0.000828111 0)
(0.552733 0.00113978 0)
(0.654445 0.00137489 0)
(0.719654 0.00159693 0)
(0.732537 0.00180494 0)
(0.725648 0.00202025 0)
(0.715594 0.00225776 0)
(0.707906 0.00252754 0)
(0.703445 0.00282033 0)
(0.699881 0.00312657 0)
(0.695799 0.00344408 0)
(0.690948 0.00377514 0)
(0.685489 0.00412237 0)
(0.679548 0.00448716 0)
(0.673142 0.00487024 0)
(0.666237 0.00527231 0)
(0.658799 0.00569444 0)
(0.650801 0.0061379 0)
(0.64222 0.00660421 0)
(0.633033 0.00709485 0)
(0.623216 0.00761154 0)
(0.612741 0.00815593 0)
(0.601579 0.00872994 0)
(0.5897 0.00933527 0)
(0.577071 0.00997394 0)
(0.563658 0.0106475 0)
(0.549428 0.011358 0)
(0.534342 0.0121066 0)
(0.518365 0.0128949 0)
(0.501457 0.0137232 0)
(0.48358 0.0145924 0)
(0.464697 0.0155013 0)
(0.44477 0.0164491 0)
(0.423765 0.0174325 0)
(0.401652 0.0184481 0)
(0.378406 0.0194891 0)
(0.354007 0.0205482 0)
(0.328446 0.021614 0)
(0.301725 0.0226742 0)
(0.273861 0.023712 0)
(0.244886 0.0247099 0)
(0.214851 0.0256467 0)
(0.183827 0.0265017 0)
(0.151907 0.0272554 0)
(0.119163 0.0279055 0)
(0.0860639 0.0284259 0)
(0.0505454 0.0290766 0)
(0.0211885 0.0298265 0)
(2.5913 4.7638e-05 0)
(1.62096 0.00039239 0)
(0.495523 0.00160504 0)
(0.552785 0.0019806 0)
(0.654487 0.0023048 0)
(0.719697 0.00267042 0)
(0.732579 0.00303985 0)
(0.725701 0.00341869 0)
(0.715669 0.0038288 0)
(0.708002 0.00428672 0)
(0.703555 0.0047814 0)
(0.700001 0.00530003 0)
(0.695928 0.00583968 0)
(0.691089 0.0064032 0)
(0.685643 0.0069946 0)
(0.679716 0.00761584 0)
(0.673323 0.00826859 0)
(0.666433 0.00895391 0)
(0.659011 0.00967404 0)
(0.651029 0.0104309 0)
(0.642466 0.0112274 0)
(0.633299 0.0120659 0)
(0.623502 0.0129497 0)
(0.613049 0.0138815 0)
(0.60191 0.0148649 0)
(0.590055 0.0159028 0)
(0.577451 0.0169991 0)
(0.564066 0.0181564 0)
(0.549864 0.0193786 0)
(0.534808 0.0206677 0)
(0.51886 0.0220269 0)
(0.501982 0.0234573 0)
(0.484135 0.0249604 0)
(0.46528 0.0265352 0)
(0.44538 0.0281803 0)
(0.424398 0.0298913 0)
(0.402303 0.031662 0)
(0.379067 0.0334829 0)
(0.354669 0.0353405 0)
(0.329098 0.0372184 0)
(0.302352 0.0390935 0)
(0.274445 0.0409412 0)
(0.245406 0.0427286 0)
(0.215283 0.044424 0)
(0.184143 0.0459904 0)
(0.152083 0.0473928 0)
(0.119169 0.0486187 0)
(0.0859277 0.049629 0)
(0.0502698 0.0506813 0)
(0.020749 0.051674 0)
(2.59148 5.41206e-05 0)
(1.6214 0.000535886 0)
(0.495951 0.00235108 0)
(0.552908 0.00281444 0)
(0.654609 0.00323712 0)
(0.719839 0.00375714 0)
(0.732727 0.00430346 0)
(0.725863 0.0048594 0)
(0.71586 0.00545213 0)
(0.708225 0.00610438 0)
(0.703801 0.00680588 0)
(0.700264 0.00754276 0)
(0.696209 0.00831123 0)
(0.691389 0.0091144 0)
(0.685965 0.00995683 0)
(0.68006 0.0108414 0)
(0.673692 0.0117703 0)
(0.666827 0.0127455 0)
(0.659431 0.0137699 0)
(0.651478 0.0148466 0)
(0.642946 0.0159792 0)
(0.633812 0.0171716 0)
(0.62405 0.0184281 0)
(0.613634 0.019753 0)
(0.602534 0.0211509 0)
(0.590721 0.0226266 0)
(0.578163 0.0241848 0)
(0.564824 0.0258306 0)
(0.550671 0.027568 0)
(0.535666 0.029402 0)
(0.519771 0.0313354 0)
(0.502946 0.033372 0)
(0.485153 0.0355119 0)
(0.46635 0.0377567 0)
(0.4465 0.0401023 0)
(0.425564 0.0425458 0)
(0.403509 0.0450763 0)
(0.380304 0.0476838 0)
(0.355925 0.0503477 0)
(0.330356 0.0530473 0)
(0.303594 0.0557505 0)
(0.275646 0.058421 0)
(0.246539 0.0610167 0)
(0.216316 0.0634862 0)
(0.185044 0.0657853 0)
(0.152817 0.0678577 0)
(0.119701 0.0696748 0)
(0.0862756 0.071183 0)
(0.0504192 0.072608 0)
(0.0206051 0.0737639 0)
(2.59173 6.7756e-05 0)
(1.62204 0.000716437 0)
(0.496502 0.00310385 0)
(0.553018 0.00367981 0)
(0.654736 0.00421153 0)
(0.720011 0.00488563 0)
(0.732913 0.00560903 0)
(0.726067 0.00634913 0)
(0.716101 0.00713325 0)
(0.708507 0.00798602 0)
(0.704116 0.00889959 0)
(0.700605 0.00986107 0)
(0.696576 0.0108657 0)
(0.691786 0.0119169 0)
(0.686393 0.0130192 0)
(0.680523 0.0141767 0)
(0.67419 0.0153917 0)
(0.667363 0.0166676 0)
(0.660007 0.0180074 0)
(0.652097 0.0194162 0)
(0.64361 0.0208976 0)
(0.634525 0.0224579 0)
(0.624815 0.0241014 0)
(0.614455 0.025835 0)
(0.603415 0.0276638 0)
(0.591665 0.029595 0)
(0.579173 0.0316339 0)
(0.565905 0.0337881 0)
(0.551826 0.0360623 0)
(0.536897 0.0384635 0)
(0.521082 0.0409954 0)
(0.504338 0.043663 0)
(0.486626 0.0464673 0)
(0.467903 0.0494098 0)
(0.448131 0.0524866 0)
(0.427267 0.0556925 0)
(0.405275 0.0590163 0)
(0.382122 0.062442 0)
(0.357779 0.065948 0)
(0.332226 0.0695024 0)
(0.305452 0.0730704 0)
(0.27746 0.0765987 0)
(0.248271 0.0800358 0)
(0.217926 0.0833115 0)
(0.186485 0.0863597 0)
(0.154049 0.0891148 0)
(0.120672 0.091518 0)
(0.0869958 0.0934921 0)
(0.050851 0.0952296 0)
(0.020623 0.0964781 0)
(2.59207 8.00463e-05 0)
(1.62288 0.000900557 0)
(0.497201 0.00385572 0)
(0.553133 0.00455779 0)
(0.654879 0.0052048 0)
(0.720222 0.0060333 0)
(0.733149 0.00693926 0)
(0.72633 0.00786857 0)
(0.716408 0.0088527 0)
(0.708863 0.00991487 0)
(0.704514 0.0110489 0)
(0.70104 0.0122428 0)
(0.697046 0.013492 0)
(0.692294 0.0147999 0)
(0.686944 0.0161712 0)
(0.681118 0.0176106 0)
(0.674833 0.0191212 0)
(0.668055 0.0207072 0)
(0.660752 0.0223726 0)
(0.652898 0.0241231 0)
(0.644472 0.0259644 0)
(0.635451 0.027903 0)
(0.625811 0.0299457 0)
(0.615525 0.0320997 0)
(0.604564 0.0343729 0)
(0.592899 0.0367728 0)
(0.580497 0.0393081 0)
(0.567324 0.0419861 0)
(0.553344 0.0448155 0)
(0.538521 0.0478027 0)
(0.522813 0.0509552 0)
(0.50618 0.054277 0)
(0.488581 0.0577726 0)
(0.46997 0.0614416 0)
(0.450306 0.0652825 0)
(0.429545 0.0692874 0)
(0.407646 0.0734454 0)
(0.384571 0.0777354 0)
(0.360285 0.0821326 0)
(0.334763 0.0865975 0)
(0.307986 0.0910853 0)
(0.279951 0.0955364 0)
(0.250667 0.0998796 0)
(0.220171 0.104033 0)
(0.188521 0.107901 0)
(0.155814 0.111393 0)
(0.122103 0.114431 0)
(0.088067 0.116902 0)
(0.0515118 0.118952 0)
(0.0207744 0.120272 0)
(2.5925 9.27125e-05 0)
(1.62396 0.00108685 0)
(0.498057 0.00461538 0)
(0.553254 0.00545133 0)
(0.655037 0.00622009 0)
(0.720473 0.00720673 0)
(0.73344 0.00830274 0)
(0.726653 0.00942583 0)
(0.716785 0.0106168 0)
(0.7093 0.0118968 0)
(0.705003 0.0132594 0)
(0.701575 0.0146932 0)
(0.697628 0.016195 0)
(0.692925 0.0177677 0)
(0.687628 0.0194168 0)
(0.681858 0.0211468 0)
(0.675631 0.0229623 0)
(0.668917 0.0248676 0)
(0.661681 0.0268686 0)
(0.653898 0.0289712 0)
(0.645549 0.0311829 0)
(0.63661 0.0335111 0)
(0.627057 0.0359645 0)
(0.616865 0.0385515 0)
(0.606005 0.0412819 0)
(0.594447 0.0441648 0)
(0.582159 0.0472108 0)
(0.569108 0.0504292 0)
(0.555256 0.0538303 0)
(0.540566 0.0574228 0)
(0.524998 0.0612156 0)
(0.508509 0.0652153 0)
(0.491056 0.0694267 0)
(0.472593 0.073852 0)
(0.453073 0.0784889 0)
(0.43245 0.0833305 0)
(0.410678 0.0883637 0)
(0.387712 0.0935664 0)
(0.363511 0.0989085 0)
(0.338041 0.104345 0)
(0.311274 0.109822 0)
(0.283196 0.115266 0)
(0.253811 0.120593 0)
(0.223136 0.125703 0)
(0.191231 0.130476 0)
(0.158186 0.134794 0)
(0.124045 0.138536 0)
(0.0895421 0.141558 0)
(0.0524189 0.143968 0)
(0.0210218 0.145391 0)
(2.59303 0.000105495 0)
(1.62528 0.00127366 0)
(0.499084 0.00538084 0)
(0.553384 0.00635443 0)
(0.655214 0.00724853 0)
(0.720769 0.00839752 0)
(0.733791 0.00968614 0)
(0.727044 0.0110103 0)
(0.717242 0.0124163 0)
(0.709828 0.0139222 0)
(0.705593 0.0155209 0)
(0.702222 0.0172026 0)
(0.698332 0.0189648 0)
(0.69369 0.0208109 0)
(0.688458 0.0227463 0)
(0.682757 0.0247762 0)
(0.676603 0.0269056 0)
(0.669966 0.02914 0)
(0.662812 0.0314861 0)
(0.655117 0.0339511 0)
(0.646862 0.0365436 0)
(0.638024 0.0392726 0)
(0.62858 0.0421482 0)
(0.618504 0.0451806 0)
(0.607768 0.048381 0)
(0.596342 0.0517611 0)
(0.584196 0.0553326 0)
(0.571294 0.0591077 0)
(0.5576 0.0630981 0)
(0.543077 0.0673154 0)
(0.527682 0.0717698 0)
(0.511373 0.0764703 0)
(0.494104 0.0814243 0)
(0.475826 0.0866344 0)
(0.45649 0.0921016 0)
(0.436045 0.0978177 0)
(0.414439 0.103771 0)
(0.39162 0.109937 0)
(0.367538 0.116283 0)
(0.342148 0.12276 0)
(0.315412 0.129303 0)
(0.2873 0.135831 0)
(0.257803 0.142236 0)
(0.226929 0.148405 0)
(0.194717 0.154184 0)
(0.161263 0.159425 0)
(0.126584 0.163975 0)
(0.0914601 0.167636 0)
(0.0536158 0.170463 0)
(0.0214115 0.172026 0)
(2.59367 0.000118344 0)
(1.62686 0.00146009 0)
(0.500296 0.00614945 0)
(0.553525 0.00726301 0)
(0.655412 0.00828567 0)
(0.721116 0.0096012 0)
(0.734209 0.0110881 0)
(0.727515 0.0126187 0)
(0.717791 0.0142471 0)
(0.710458 0.0159867 0)
(0.706297 0.0178297 0)
(0.702994 0.0197674 0)
(0.699174 0.0217983 0)
(0.694605 0.0239261 0)
(0.689451 0.0261564 0)
(0.683833 0.0284947 0)
(0.677766 0.0309469 0)
(0.671221 0.0335192 0)
(0.664165 0.0362195 0)
(0.656576 0.0390562 0)
(0.648434 0.0420392 0)
(0.639717 0.0451791 0)
(0.630404 0.0484875 0)
(0.620467 0.0519763 0)
(0.609882 0.055659 0)
(0.598617 0.0595488 0)
(0.586641 0.0636601 0)
(0.573921 0.0680068 0)
(0.56042 0.0726037 0)
(0.5461 0.0774642 0)
(0.530917 0.0826019 0)
(0.514828 0.0880274 0)
(0.497785 0.0937514 0)
(0.479737 0.0997783 0)
(0.46063 0.106111 0)
(0.440409 0.112745 0)
(0.419014 0.119666 0)
(0.396387 0.126853 0)
(0.372465 0.134268 0)
(0.347193 0.141862 0)
(0.320516 0.14956 0)
(0.292388 0.157273 0)
(0.262781 0.164874 0)
(0.231681 0.172223 0)
(0.199114 0.179149 0)
(0.165162 0.185447 0)
(0.129834 0.190924 0)
(0.0939374 0.195331 0)
(0.0551451 0.198669 0)
(0.0219193 0.200423 0)
(2.59442 0.000131121 0)
(1.62873 0.00164488 0)
(0.501709 0.00691612 0)
(0.553682 0.00817107 0)
(0.655637 0.00932446 0)
(0.721522 0.0108101 0)
(0.734704 0.0124992 0)
(0.728074 0.0142422 0)
(0.718444 0.0161005 0)
(0.711204 0.0180821 0)
(0.707128 0.0201777 0)
(0.703906 0.0223797 0)
(0.700169 0.0246877 0)
(0.695687 0.0271056 0)
(0.690625 0.0296393 0)
(0.685103 0.0322946 0)
(0.679139 0.035078 0)
(0.672702 0.0379968 0)
(0.665763 0.04106 0)
(0.658298 0.0442772 0)
(0.650289 0.0476599 0)
(0.641716 0.0512199 0)
(0.632557 0.0549707 0)
(0.622787 0.0589262 0)
(0.612379 0.0631018 0)
(0.601304 0.0675129 0)
(0.589532 0.0721764 0)
(0.577029 0.0771088 0)
(0.563758 0.0823275 0)
(0.549681 0.0878488 0)
(0.534754 0.0936895 0)
(0.518932 0.0998637 0)
(0.502164 0.106385 0)
(0.484397 0.113261 0)
(0.465573 0.120497 0)
(0.44563 0.128092 0)
(0.424503 0.136036 0)
(0.402121 0.144306 0)
(0.378415 0.152866 0)
(0.353307 0.161665 0)
(0.32673 0.170622 0)
(0.298612 0.179639 0)
(0.268905 0.188576 0)
(0.23757 0.197264 0)
(0.204599 0.205498 0)
(0.170063 0.213036 0)
(0.133931 0.219622 0)
(0.097063 0.224932 0)
(0.0571062 0.228893 0)
(0.0226248 0.230899 0)
(2.59529 0.000143701 0)
(1.63089 0.00182626 0)
(0.503335 0.0076735 0)
(0.553858 0.00907114 0)
(0.655893 0.0103575 0)
(0.721994 0.0120155 0)
(0.735285 0.0139121 0)
(0.728735 0.0158722 0)
(0.719214 0.0179672 0)
(0.712082 0.0201994 0)
(0.708104 0.0225566 0)
(0.704976 0.0250316 0)
(0.701335 0.0276251 0)
(0.696954 0.0303415 0)
(0.691998 0.0331868 0)
(0.686589 0.0361672 0)
(0.680743 0.0392899 0)
(0.674433 0.0425633 0)
(0.667629 0.0459973 0)
(0.660308 0.0496031 0)
(0.652455 0.0533934 0)
(0.644049 0.0573819 0)
(0.63507 0.0615838 0)
(0.625493 0.0660151 0)
(0.615293 0.0706931 0)
(0.604442 0.075636 0)
(0.592909 0.080863 0)
(0.580661 0.0863936 0)
(0.567662 0.0922482 0)
(0.553873 0.0984466 0)
(0.53925 0.105009 0)
(0.523746 0.111953 0)
(0.507309 0.119297 0)
(0.489882 0.127053 0)
(0.471404 0.135231 0)
(0.451806 0.143834 0)
(0.431014 0.152854 0)
(0.408948 0.162276 0)
(0.385523 0.172064 0)
(0.360646 0.182169 0)
(0.334226 0.192506 0)
(0.306169 0.20297 0)
(0.276385 0.213411 0)
(0.244813 0.223634 0)
(0.2114 0.233399 0)
(0.176186 0.242401 0)
(0.139116 0.250319 0)
(0.101045 0.25675 0)
(0.0595846 0.26152 0)
(0.0235145 0.263876 0)
(2.59628 0.000155789 0)
(1.63337 0.0020022 0)
(0.50519 0.00841049 0)
(0.554058 0.00995409 0)
(0.656187 0.0113767 0)
(0.72254 0.0132059 0)
(0.735964 0.0153133 0)
(0.729508 0.0174959 0)
(0.720118 0.0198361 0)
(0.713109 0.0223281 0)
(0.709242 0.0249561 0)
(0.706222 0.0277131 0)
(0.702691 0.0306006 0)
(0.698427 0.0336237 0)
(0.693593 0.0367886 0)
(0.688312 0.0401019 0)
(0.682603 0.0435713 0)
(0.676437 0.0472064 0)
(0.669787 0.0510183 0)
(0.662633 0.0550196 0)
(0.654959 0.0592245 0)
(0.646745 0.0636484 0)
(0.637973 0.0683085 0)
(0.62862 0.073223 0)
(0.618661 0.0784114 0)
(0.608068 0.0838946 0)
(0.596813 0.0896945 0)
(0.584863 0.0958339 0)
(0.572181 0.102336 0)
(0.55873 0.109226 0)
(0.544464 0.116527 0)
(0.529337 0.124262 0)
(0.513294 0.132452 0)
(0.496276 0.141119 0)
(0.478216 0.150275 0)
(0.45904 0.159932 0)
(0.438667 0.170088 0)
(0.417002 0.180734 0)
(0.393948 0.191841 0)
(0.36939 0.203362 0)
(0.343211 0.21522 0)
(0.315285 0.2273 0)
(0.285484 0.239448 0)
(0.253696 0.251443 0)
(0.219822 0.263012 0)
(0.183837 0.273801 0)
(0.145636 0.283386 0)
(0.106104 0.291242 0)
(0.0627945 0.297061 0)
(0.0247285 0.299901 0)
(2.59741 0.000165222 0)
(1.63618 0.00217213 0)
(0.507284 0.00910956 0)
(0.554291 0.0108074 0)
(0.656522 0.0123737 0)
(0.723167 0.0143652 0)
(0.736753 0.0166884 0)
(0.730414 0.0190998 0)
(0.721177 0.0216939 0)
(0.714306 0.024456 0)
(0.710564 0.0273647 0)
(0.707666 0.0304129 0)
(0.704261 0.0336031 0)
(0.700129 0.0369412 0)
(0.695433 0.0404334 0)
(0.690297 0.0440867 0)
(0.684741 0.0479097 0)
(0.67874 0.051913 0)
(0.672265 0.0561089 0)
(0.6653 0.0605114 0)
(0.657829 0.0651365 0)
(0.649835 0.0700014 0)
(0.6413 0.0751251 0)
(0.632202 0.0805282 0)
(0.622519 0.0862327 0)
(0.612223 0.0922624 0)
(0.601288 0.0986419 0)
(0.58968 0.105398 0)
(0.577367 0.112558 0)
(0.564308 0.12015 0)
(0.55046 0.128202 0)
(0.535775 0.136745 0)
(0.520197 0.145804 0)
(0.503665 0.155409 0)
(0.48611 0.165579 0)
(0.467449 0.176335 0)
(0.447594 0.187685 0)
(0.426439 0.199629 0)
(0.403868 0.212151 0)
(0.379748 0.225212 0)
(0.353926 0.238745 0)
(0.326245 0.25264 0)
(0.29652 0.266738 0)
(0.264582 0.28081 0)
(0.230262 0.294536 0)
(0.193461 0.307503 0)
(0.153971 0.319194 0)
(0.112634 0.328925 0)
(0.0669413 0.336194 0)
(0.026295 0.339741 0)
(2.59867 0.000170543 0)
(1.63932 0.00233398 0)
(0.509617 0.00975669 0)
(0.554565 0.0116128 0)
(0.656901 0.0133284 0)
(0.723876 0.0154728 0)
(0.737663 0.0180221 0)
(0.731461 0.0206688 0)
(0.722403 0.0235254 0)
(0.715691 0.0265684 0)
(0.712089 0.0297683 0)
(0.709327 0.0331172 0)
(0.706064 0.0366189 0)
(0.702079 0.0402798 0)
(0.697538 0.0441064 0)
(0.692566 0.0481061 0)
(0.687182 0.0522883 0)
(0.681365 0.0566647 0)
(0.675088 0.0612489 0)
(0.668336 0.0660568 0)
(0.661094 0.0711055 0)
(0.653348 0.0764147 0)
(0.645081 0.0820051 0)
(0.636274 0.0879001 0)
(0.626903 0.0941239 0)
(0.616946 0.100703 0)
(0.606375 0.107667 0)
(0.595161 0.115044 0)
(0.583269 0.122867 0)
(0.570663 0.131168 0)
(0.557299 0.139983 0)
(0.543129 0.149346 0)
(0.528099 0.159292 0)
(0.512143 0.169857 0)
(0.49519 0.181073 0)
(0.477155 0.19297 0)
(0.457939 0.205571 0)
(0.437427 0.218889 0)
(0.415484 0.232925 0)
(0.391956 0.247656 0)
(0.366659 0.263034 0)
(0.339386 0.278965 0)
(0.309901 0.295301 0)
(0.277944 0.311811 0)
(0.243249 0.328161 0)
(0.205597 0.343871 0)
(0.164651 0.358295 0)
(0.121174 0.370555 0)
(0.0725088 0.379858 0)
(0.0284949 0.384469 0)
(2.60007 0.000178105 0)
(1.64279 0.00247669 0)
(0.512185 0.0103561 0)
(0.554883 0.0123516 0)
(0.657327 0.0141999 0)
(0.724675 0.0165124 0)
(0.738712 0.0192865 0)
(0.732672 0.0221788 0)
(0.723823 0.0253148 0)
(0.717288 0.0286514 0)
(0.713841 0.0321533 0)
(0.71123 0.035813 0)
(0.708123 0.0396353 0)
(0.704302 0.0436275 0)
(0.699933 0.0477959 0)
(0.695141 0.0521485 0)
(0.68995 0.0566953 0)
(0.684337 0.0614494 0)
(0.678281 0.0664255 0)
(0.671766 0.0716412 0)
(0.664781 0.0771155 0)
(0.657314 0.0828701 0)
(0.649348 0.0889277 0)
(0.640866 0.0953143 0)
(0.631849 0.102057 0)
(0.622274 0.109186 0)
(0.612117 0.116732 0)
(0.601349 0.12473 0)
(0.589939 0.133216 0)
(0.577851 0.142229 0)
(0.565045 0.151809 0)
(0.551472 0.161999 0)
(0.53708 0.172842 0)
(0.521803 0.184384 0)
(0.505568 0.19667 0)
(0.488287 0.209742 0)
(0.469855 0.223643 0)
(0.450149 0.238404 0)
(0.429019 0.25405 0)
(0.406286 0.270586 0)
(0.381735 0.287993 0)
(0.355111 0.306208 0)
(0.32611 0.325112 0)
(0.29438 0.344497 0)
(0.259517 0.364033 0)
(0.221129 0.383205 0)
(0.178639 0.401244 0)
(0.132608 0.41705 0)
(0.0800913 0.429389 0)
(0.0315269 0.435737 0)
(2.60159 0.000187955 0)
(1.6466 0.00259411 0)
(0.515016 0.0108873 0)
(0.555251 0.0129954 0)
(0.657825 0.014956 0)
(0.725607 0.0174545 0)
(0.739932 0.0204583 0)
(0.734094 0.0236081 0)
(0.725487 0.0270401 0)
(0.719146 0.0306845 0)
(0.715865 0.0344999 0)
(0.713419 0.0384795 0)
(0.710483 0.0426297 0)
(0.706842 0.0469589 0)
(0.702661 0.0514732 0)
(0.698066 0.0561815 0)
(0.693084 0.0610947 0)
(0.687696 0.0662273 0)
(0.681882 0.0715957 0)
(0.675629 0.077219 0)
(0.668929 0.0831181 0)
(0.661769 0.0893167 0)
(0.654138 0.0958399 0)
(0.646019 0.102716 0)
(0.637396 0.109975 0)
(0.628249 0.117649 0)
(0.618556 0.125775 0)
(0.608291 0.13439 0)
(0.597426 0.143536 0)
(0.585928 0.153257 0)
(0.573758 0.163601 0)
(0.560872 0.174617 0)
(0.547218 0.18636 0)
(0.532735 0.198886 0)
(0.517348 0.212255 0)
(0.500972 0.226526 0)
(0.483497 0.241763 0)
(0.464795 0.258025 0)
(0.444706 0.275366 0)
(0.423032 0.293831 0)
(0.39953 0.313445 0)
(0.373895 0.334205 0)
(0.34575 0.356045 0)
(0.314634 0.378815 0)
(0.279978 0.402277 0)
(0.241125 0.425897 0)
(0.197195 0.448789 0)
(0.148338 0.46968 0)
(0.0910093 0.486697 0)
(0.0361561 0.496106 0)
(2.60324 0.000194249 0)
(1.65074 0.00268392 0)
(0.518098 0.0112996 0)
(0.555671 0.0135038 0)
(0.65841 0.0155706 0)
(0.726702 0.0182554 0)
(0.741363 0.0215124 0)
(0.735767 0.0249361 0)
(0.727438 0.0286813 0)
(0.721306 0.0326547 0)
(0.718203 0.0368035 0)
(0.715932 0.0411198 0)
(0.713181 0.0456121 0)
(0.709733 0.0502893 0)
(0.705754 0.0551588 0)
(0.701373 0.0602294 0)
(0.696619 0.0655132 0)
(0.691476 0.0710256 0)
(0.685927 0.0767851 0)
(0.679961 0.0828125 0)
(0.673573 0.089131 0)
(0.666752 0.0957659 0)
(0.65949 0.102746 0)
(0.651773 0.1101 0)
(0.643587 0.117864 0)
(0.634915 0.126071 0)
(0.625738 0.134763 0)
(0.616036 0.143982 0)
(0.605781 0.153773 0)
(0.594947 0.164187 0)
(0.583498 0.17528 0)
(0.571396 0.187109 0)
(0.558591 0.19974 0)
(0.545028 0.213243 0)
(0.530637 0.227692 0)
(0.515334 0.243169 0)
(0.499016 0.25976 0)
(0.481553 0.277558 0)
(0.462783 0.296657 0)
(0.442499 0.317156 0)
(0.42044 0.339128 0)
(0.396262 0.362687 0)
(0.369515 0.387858 0)
(0.339674 0.414519 0)
(0.305952 0.442714 0)
(0.267303 0.47203 0)
(0.222422 0.501632 0)
(0.170702 0.530075 0)
(0.107365 0.554884 0)
(0.043483 0.570064 0)
(2.605 0.000196894 0)
(1.65516 0.00273498 0)
(0.521406 0.011543 0)
(0.556155 0.0138283 0)
(0.659106 0.0159961 0)
(0.728 0.0188691 0)
(0.743058 0.0223977 0)
(0.737743 0.0261134 0)
(0.729735 0.0301893 0)
(0.723833 0.0345048 0)
(0.720918 0.0389942 0)
(0.718832 0.0436497 0)
(0.716276 0.0484839 0)
(0.713034 0.0535079 0)
(0.70927 0.0587309 0)
(0.705117 0.064162 0)
(0.700605 0.0698148 0)
(0.695725 0.0757059 0)
(0.69046 0.0818554 0)
(0.684805 0.0882855 0)
(0.678753 0.0950215 0)
(0.672301 0.10209 0)
(0.665441 0.109522 0)
(0.658163 0.11735 0)
(0.650456 0.12561 0)
(0.642307 0.134341 0)
(0.633701 0.143586 0)
(0.624621 0.153392 0)
(0.615047 0.163811 0)
(0.604954 0.174899 0)
(0.594316 0.186718 0)
(0.583098 0.199336 0)
(0.571261 0.21283 0)
(0.558755 0.227284 0)
(0.545521 0.242789 0)
(0.531483 0.259451 0)
(0.516548 0.277383 0)
(0.500598 0.296718 0)
(0.483481 0.317588 0)
(0.464983 0.340204 0)
(0.444874 0.364631 0)
(0.422805 0.39107 0)
(0.398168 0.419902 0)
(0.370514 0.451184 0)
(0.338952 0.485051 0)
(0.301908 0.521513 0)
(0.257457 0.560238 0)
(0.20386 0.600011 0)
(0.133822 0.638292 0)
(0.0565604 0.666333 0)
(2.60684 0.000195372 0)
(1.6598 0.00273595 0)
(0.524907 0.011544 0)
(0.55673 0.0138946 0)
(0.659948 0.0161705 0)
(0.729547 0.0192596 0)
(0.745071 0.0231092 0)
(0.740083 0.0271763 0)
(0.73243 0.0316495 0)
(0.726767 0.0363606 0)
(0.724037 0.041231 0)
(0.722139 0.0462566 0)
(0.719788 0.0514554 0)
(0.716764 0.0568422 0)
(0.71323 0.0624256 0)
(0.70932 0.0682166 0)
(0.705071 0.0742306 0)
(0.700473 0.0804868 0)
(0.695517 0.0870082 0)
(0.690198 0.0938196 0)
(0.684513 0.100949 0)
(0.678461 0.108425 0)
(0.672038 0.116282 0)
(0.665237 0.124554 0)
(0.658051 0.133281 0)
(0.650472 0.142505 0)
(0.642491 0.152273 0)
(0.634093 0.162635 0)
(0.625267 0.173647 0)
(0.615995 0.185373 0)
(0.606256 0.197881 0)
(0.596027 0.211248 0)
(0.585278 0.225561 0)
(0.573973 0.240919 0)
(0.562065 0.257433 0)
(0.549495 0.275228 0)
(0.536192 0.294437 0)
(0.52205 0.315284 0)
(0.506994 0.337854 0)
(0.490747 0.362397 0)
(0.473059 0.389344 0)
(0.453921 0.418922 0)
(0.43271 0.451614 0)
(0.408625 0.487921 0)
(0.380858 0.528293 0)
(0.347861 0.573458 0)
(0.306992 0.624237 0)
(0.255015 0.680965 0)
(0.180394 0.743009 0)
(0.0832309 0.803166 0)
(2.60873 0.000141994 0)
(1.66457 0.00273048 0)
(0.528501 0.0112112 0)
(0.557418 0.0135565 0)
(0.660994 0.0159257 0)
(0.731444 0.0192133 0)
(0.747537 0.023386 0)
(0.742941 0.0278081 0)
(0.735688 0.0326819 0)
(0.730258 0.0377822 0)
(0.727702 0.0430209 0)
(0.725985 0.0484062 0)
(0.723835 0.0539668 0)
(0.721028 0.0597195 0)
(0.717723 0.065673 0)
(0.714057 0.0718372 0)
(0.710074 0.0782276 0)
(0.70577 0.0848647 0)
(0.701136 0.0917723 0)
(0.696171 0.0989765 0)
(0.690876 0.106506 0)
(0.685252 0.114392 0)
(0.679299 0.12267 0)
(0.673014 0.131376 0)
(0.666394 0.140552 0)
(0.659435 0.150243 0)
(0.652132 0.160499 0)
(0.64448 0.171375 0)
(0.636473 0.182932 0)
(0.628101 0.195238 0)
(0.619354 0.208369 0)
(0.610221 0.22241 0)
(0.600684 0.23746 0)
(0.590727 0.253625 0)
(0.58032 0.271045 0)
(0.569413 0.289901 0)
(0.558026 0.310211 0)
(0.545994 0.332255 0)
(0.533208 0.356419 0)
(0.519846 0.382907 0)
(0.505629 0.412239 0)
(0.49026 0.444852 0)
(0.473486 0.481235 0)
(0.454815 0.522373 0)
(0.433602 0.569442 0)
(0.408677 0.624261 0)
(0.377648 0.689727 0)
(0.336607 0.770912 0)
(0.270944 0.87817 0)
(0.14644 1.04339 0)
(2.6111 8.1461e-05 0)
(1.67035 0.00260033 0)
(0.532257 0.0103861 0)
(0.557938 0.0128215 0)
(0.662137 0.0154356 0)
(0.733801 0.0191879 0)
(0.750722 0.0239854 0)
(0.746677 0.0290445 0)
(0.73996 0.0345617 0)
(0.73482 0.0402293 0)
(0.732497 0.0459579 0)
(0.73105 0.0517833 0)
(0.729214 0.0577559 0)
(0.726748 0.0639026 0)
(0.723804 0.070238 0)
(0.720523 0.0767766 0)
(0.716955 0.0835389 0)
(0.713104 0.0905508 0)
(0.708965 0.0978405 0)
(0.704542 0.105438 0)
(0.69984 0.113375 0)
(0.694864 0.121686 0)
(0.689619 0.130407 0)
(0.684109 0.139578 0)
(0.678338 0.149242 0)
(0.67231 0.159446 0)
(0.666029 0.170242 0)
(0.6595 0.181687 0)
(0.652728 0.193847 0)
(0.645718 0.206793 0)
(0.638478 0.220606 0)
(0.631014 0.235376 0)
(0.623329 0.251231 0)
(0.615449 0.268255 0)
(0.607439 0.286539 0)
(0.599069 0.306334 0)
(0.590389 0.327868 0)
(0.581879 0.351323 0)
(0.573395 0.377128 0)
(0.564713 0.405645 0)
(0.555956 0.437223 0)
(0.547208 0.47257 0)
(0.53866 0.512524 0)
(0.530538 0.558371 0)
(0.523383 0.611894 0)
(0.518373 0.675857 0)
(0.518228 0.754723 0)
(0.531152 0.855921 0)
(0.587124 0.990631 0)
(0.657198 1.1853 0)
(2.61361 5.93704e-05 0)
(1.67649 0.00194263 0)
(0.53678 0.00776479 0)
(0.559572 0.00992527 0)
(0.66478 0.0125065 0)
(0.738191 0.0166814 0)
(0.75619 0.0222119 0)
(0.752747 0.0280516 0)
(0.74649 0.0343827 0)
(0.741419 0.0407708 0)
(0.739112 0.0471476 0)
(0.737766 0.0535891 0)
(0.736111 0.0601603 0)
(0.733869 0.0668876 0)
(0.731179 0.0737819 0)
(0.728187 0.080858 0)
(0.724954 0.0881394 0)
(0.721488 0.0956545 0)
(0.71779 0.103434 0)
(0.713864 0.111509 0)
(0.709718 0.119913 0)
(0.705363 0.128683 0)
(0.700807 0.137857 0)
(0.696059 0.147478 0)
(0.69113 0.15759 0)
(0.686031 0.168244 0)
(0.680775 0.179494 0)
(0.675377 0.191402 0)
(0.669856 0.204031 0)
(0.66423 0.217462 0)
(0.65852 0.2318 0)
(0.652791 0.24706 0)
(0.647022 0.26336 0)
(0.641136 0.280918 0)
(0.635374 0.299863 0)
(0.629948 0.320331 0)
(0.624749 0.342666 0)
(0.619847 0.367067 0)
(0.615468 0.393723 0)
(0.611769 0.423088 0)
(0.609025 0.455682 0)
(0.607711 0.492161 0)
(0.608496 0.533438 0)
(0.612472 0.580665 0)
(0.621463 0.635504 0)
(0.638788 0.700115 0)
(0.670455 0.777412 0)
(0.725473 0.87083 0)
(0.836622 0.980396 0)
(0.984475 1.09496 0)
(2.61506 7.02052e-05 0)
(1.68005 0.00130472 0)
(0.539636 0.00545847 0)
(0.56132 0.00791013 0)
(0.668131 0.011103 0)
(0.743955 0.0164655 0)
(0.7634 0.0232632 0)
(0.760687 0.0301976 0)
(0.7549 0.0372581 0)
(0.749824 0.0440639 0)
(0.747526 0.0507382 0)
(0.746317 0.0574582 0)
(0.744867 0.064304 0)
(0.742849 0.0712961 0)
(0.740394 0.0784408 0)
(0.737665 0.0857615 0)
(0.734733 0.0932913 0)
(0.731612 0.101065 0)
(0.728308 0.109116 0)
(0.724826 0.117478 0)
(0.721181 0.126184 0)
(0.717388 0.135271 0)
(0.713461 0.144774 0)
(0.709416 0.154736 0)
(0.705271 0.165199 0)
(0.701047 0.17621 0)
(0.696766 0.187821 0)
(0.692451 0.2001 0)
(0.688141 0.213098 0)
(0.683906 0.226846 0)
(0.679652 0.241457 0)
(0.675414 0.257077 0)
(0.671526 0.273765 0)
(0.668027 0.291686 0)
(0.664832 0.311036 0)
(0.6621 0.331896 0)
(0.660005 0.354439 0)
(0.658722 0.378929 0)
(0.658532 0.405658 0)
(0.659802 0.434968 0)
(0.662999 0.467318 0)
(0.668869 0.503224 0)
(0.678475 0.543348 0)
(0.6933 0.588453 0)
(0.715727 0.639396 0)
(0.749211 0.69702 0)
(0.799341 0.761596 0)
(0.871716 0.832171 0)
(0.984642 0.903786 0)
(1.12028 0.956614 0)
(2.61627 3.69185e-05 0)
(1.68312 -0.00152799 0)
(0.544998 -0.00484954 0)
(0.56729 -0.0030523 0)
(0.675899 0.000995833 0)
(0.75409 0.00905056 0)
(0.774412 0.0185847 0)
(0.771475 0.0278687 0)
(0.765091 0.0364546 0)
(0.759423 0.0442555 0)
(0.756947 0.0517471 0)
(0.755823 0.059225 0)
(0.75454 0.0667669 0)
(0.752707 0.0743924 0)
(0.750465 0.0820965 0)
(0.748004 0.0899154 0)
(0.745403 0.0978942 0)
(0.742672 0.106074 0)
(0.73981 0.114494 0)
(0.736823 0.123189 0)
(0.733726 0.1322 0)
(0.730535 0.141565 0)
(0.727267 0.151325 0)
(0.723945 0.16152 0)
(0.720591 0.172197 0)
(0.717233 0.183416 0)
(0.713917 0.195197 0)
(0.710664 0.207584 0)
(0.707433 0.220679 0)
(0.704349 0.23456 0)
(0.701626 0.249277 0)
(0.69923 0.264998 0)
(0.697174 0.281809 0)
(0.695627 0.29973 0)
(0.694691 0.318913 0)
(0.694531 0.339514 0)
(0.695364 0.361704 0)
(0.697447 0.385681 0)
(0.701138 0.411672 0)
(0.706865 0.439929 0)
(0.715236 0.470736 0)
(0.727062 0.504423 0)
(0.743478 0.541269 0)
(0.765978 0.581554 0)
(0.796619 0.625359 0)
(0.838091 0.672405 0)
(0.894027 0.721636 0)
(0.967124 0.770461 0)
(1.0683 0.814664 0)
(1.18132 0.840218 0)
(2.61195 0.00228835 0)
(1.6731 -0.00676342 0)
(0.549525 -0.0137849 0)
(0.583063 -0.00801587 0)
(0.696126 -0.000387593 0)
(0.777882 0.00988875 0)
(0.798485 0.0200824 0)
(0.794062 0.0297285 0)
(0.785729 0.0382409 0)
(0.778687 0.0461005 0)
(0.775572 0.0537805 0)
(0.774093 0.0614371 0)
(0.772509 0.0691048 0)
(0.77037 0.0768156 0)
(0.767836 0.084622 0)
(0.765148 0.0925769 0)
(0.762389 0.100725 0)
(0.759563 0.109103 0)
(0.756669 0.117745 0)
(0.753719 0.126684 0)
(0.750732 0.135953 0)
(0.747727 0.145583 0)
(0.744724 0.15561 0)
(0.741751 0.166064 0)
(0.738861 0.176957 0)
(0.736033 0.188348 0)
(0.733267 0.200317 0)
(0.730725 0.212881 0)
(0.7285 0.226107 0)
(0.726576 0.240102 0)
(0.725015 0.254897 0)
(0.723923 0.270518 0)
(0.723388 0.287077 0)
(0.723556 0.304666 0)
(0.724588 0.323389 0)
(0.726666 0.343379 0)
(0.730042 0.364753 0)
(0.734993 0.387666 0)
(0.741895 0.412248 0)
(0.751215 0.438651 0)
(0.76355 0.467005 0)
(0.779674 0.497414 0)
(0.80056 0.529897 0)
(0.827458 0.564339 0)
(0.861891 0.600394 0)
(0.905693 0.637302 0)
(0.961146 0.673727 0)
(1.02986 0.707336 0)
(1.11621 0.735202 0)
(1.20904 0.74895 0)
(2.60368 0.00790344 0)
(1.6429 -0.0735104 0)
(0.584829 -0.0725437 0)
(0.623924 -0.0457582 0)
(0.731372 -0.0057588 0)
(0.808991 0.0165323 0)
(0.826987 0.0266316 0)
(0.821025 0.0352886 0)
(0.81151 0.0426518 0)
(0.80415 0.0507656 0)
(0.800777 0.0592947 0)
(0.798919 0.067726 0)
(0.796938 0.0759357 0)
(0.794497 0.084004 0)
(0.791773 0.0920677 0)
(0.788942 0.100206 0)
(0.786063 0.108466 0)
(0.783135 0.11689 0)
(0.780158 0.12552 0)
(0.777145 0.134403 0)
(0.774117 0.143587 0)
(0.7711 0.153098 0)
(0.768116 0.162952 0)
(0.765158 0.173201 0)
(0.762303 0.183912 0)
(0.759694 0.195094 0)
(0.757316 0.206802 0)
(0.755169 0.219096 0)
(0.753372 0.231995 0)
(0.752 0.245555 0)
(0.751126 0.259847 0)
(0.750862 0.274937 0)
(0.751335 0.290883 0)
(0.7527 0.307768 0)
(0.755132 0.32565 0)
(0.758829 0.344617 0)
(0.764041 0.364736 0)
(0.771068 0.386091 0)
(0.780261 0.408748 0)