/*--------------------------------*- C++ -*----------------------------------*\
| =========                 |                                                 |
| \\      /  F ield         | OpenFOAM: The Open Source CFD Toolbox           |
|  \\    /   O peration     | Version:  2412                                  |
|   \\  /    A nd           | Website:  www.openfoam.com                      |
|    \\/     M anipulation  |                                                 |
\*---------------------------------------------------------------------------*/
FoamFile
{
    version     2.0;
    format      ascii;
    arch        "LSB;label=32;scalar=64";
    class       volScalarField;
    location    "13";
    object      Ma;
}
// * * * * * * * * * * * * * * * * * * * * * * * * * * * * * * * * * * * * * //

dimensions      [0 0 0 0 0 0 0];

internalField   nonuniform List<scalar> 
7000
(
2.25434
0.989829
0.297127
0.339141
0.401876
0.442882
0.451006
0.446553
0.440321
0.435516
0.432668
0.430339
0.427667
0.424543
0.421043
0.417277
0.4132
0.408803
0.404046
0.398923
0.393455
0.387588
0.381378
0.374747
0.36772
0.360252
0.352345
0.343956
0.335069
0.325678
0.315745
0.305284
0.294194
0.282564
0.270292
0.257373
0.243802
0.22954
0.214662
0.199077
0.182803
0.165862
0.148318
0.130216
0.111522
0.0923207
0.0727138
0.0528805
0.0318746
0.0156814
2.2544
0.9899
0.296941
0.338985
0.401731
0.442745
0.450869
0.446419
0.440194
0.435387
0.432531
0.430199
0.427531
0.424414
0.420924
0.417165
0.413094
0.4087
0.403947
0.398829
0.393368
0.387511
0.381309
0.374685
0.36767
0.360217
0.352318
0.343938
0.335066
0.325694
0.315776
0.305328
0.294261
0.282658
0.270407
0.257512
0.243977
0.229756
0.214918
0.199379
0.183167
0.166303
0.148847
0.130848
0.11229
0.0932849
0.0739806
0.0547206
0.0351402
0.022217
2.25454
0.99012
0.297081
0.339011
0.401754
0.442776
0.4509
0.446461
0.440254
0.435464
0.432621
0.430296
0.427635
0.424526
0.421045
0.417296
0.413235
0.408853
0.404112
0.399009
0.393564
0.387725
0.381545
0.374944
0.367954
0.360525
0.352658
0.344312
0.335477
0.326144
0.316271
0.305873
0.294861
0.28332
0.271137
0.258316
0.244871
0.230751
0.216025
0.200612
0.184559
0.167887
0.150659
0.132947
0.11477
0.0963063
0.0778188
0.0599368
0.0430819
0.0337657
2.25474
0.990464
0.29736
0.339065
0.401809
0.44286
0.450984
0.446554
0.44037
0.4356
0.432771
0.43046
0.427818
0.424729
0.421271
0.417544
0.413504
0.409143
0.404423
0.399346
0.39393
0.388124
0.381978
0.375418
0.368467
0.361088
0.353269
0.34498
0.336204
0.326939
0.317141
0.306827
0.295903
0.284462
0.272391
0.259702
0.246389
0.232435
0.217887
0.202691
0.186879
0.170503
0.153635
0.136368
0.118776
0.101107
0.083761
0.0675934
0.053412
0.0464239
2.25502
0.990952
0.297735
0.339103
0.401851
0.442951
0.451081
0.446659
0.440499
0.435758
0.432953
0.430667
0.428053
0.424993
0.421568
0.417872
0.413865
0.409531
0.404848
0.399808
0.394437
0.388674
0.382585
0.37608
0.369195
0.361877
0.354135
0.345926
0.337238
0.328074
0.318381
0.308187
0.297395
0.2861
0.274192
0.261678
0.24858
0.234836
0.220562
0.205649
0.190193
0.174208
0.157832
0.141163
0.124319
0.107645
0.0916117
0.0772124
0.0652848
0.0597936
2.25539
0.991603
0.298228
0.339154
0.401899
0.443052
0.451199
0.446783
0.440644
0.435916
0.433134
0.430887
0.428324
0.425316
0.421942
0.418292
0.414324
0.410029
0.405388
0.400401
0.395087
0.389393
0.383368
0.376944
0.370138
0.362912
0.355263
0.347164
0.3386
0.329551
0.320015
0.309974
0.299361
0.288251
0.276569
0.264288
0.25146
0.238024
0.224071
0.209567
0.194537
0.179089
0.163306
0.147385
0.131445
0.115882
0.101259
0.0885295
0.0784323
0.0739762
2.25584
0.992451
0.298906
0.339338
0.402094
0.44331
0.451492
0.447093
0.440977
0.436255
0.433485
0.431266
0.428743
0.425771
0.42244
0.418831
0.414907
0.410653
0.406072
0.401146
0.395909
0.390289
0.38436
0.378021
0.371326
0.364208
0.356684
0.348717
0.340298
0.331429
0.322052
0.312233
0.301824
0.290969
0.279547
0.26759
0.255078
0.242031
0.228506
0.214469
0.20001
0.185168
0.170138
0.155056
0.140148
0.125791
0.112553
0.101365
0.0927557
0.0890412
2.25628
0.993547
0.300004
0.339572
0.40234
0.443683
0.451907
0.447511
0.441353
0.436605
0.433874
0.431712
0.429242
0.426324
0.42305
0.419481
0.415577
0.411384
0.406873
0.402044
0.396892
0.391387
0.385553
0.379351
0.372763
0.365796
0.358413
0.350615
0.342377
0.333706
0.324562
0.314968
0.304849
0.294279
0.283194
0.271602
0.259514
0.246905
0.233911
0.220448
0.206631
0.192549
0.178337
0.16424
0.150416
0.137317
0.125442
0.115607
0.108221
0.105098
2.2554
0.992736
0.299843
0.339051
0.40188
0.443405
0.451745
0.447447
0.441414
0.436834
0.434231
0.432189
0.429787
0.426934
0.423676
0.420153
0.416344
0.412242
0.407851
0.403114
0.398096
0.392692
0.387004
0.380922
0.374505
0.367678
0.36049
0.35288
0.344864
0.33643
0.32755
0.318252
0.308446
0.298241
0.28755
0.276389
0.264801
0.252731
0.240331
0.227564
0.214489
0.201252
0.187999
0.174936
0.162304
0.150439
0.139874
0.131292
0.124936
0.122253
2.2561
0.994262
0.300968
0.339271
0.402099
0.443686
0.452052
0.447789
0.44186
0.437363
0.434852
0.432845
0.430486
0.427677
0.424482
0.421044
0.417316
0.413328
0.409027
0.404423
0.399511
0.394264
0.388702
0.382793
0.376538
0.369913
0.362916
0.355555
0.34778
0.339631
0.33106
0.322108
0.312673
0.302884
0.292659
0.282007
0.270991
0.259557
0.247844
0.235857
0.223654
0.211343
0.199157
0.187236
0.175793
0.165253
0.155919
0.148452
0.142999
0.140743
2.25697
0.995855
0.302096
0.339374
0.402223
0.443961
0.452375
0.448162
0.442273
0.437859
0.435395
0.433482
0.431206
0.428504
0.42542
0.422086
0.418482
0.414596
0.41043
0.405941
0.401185
0.39608
0.390696
0.384956
0.378905
0.372498
0.365741
0.358644
0.351174
0.343337
0.335123
0.326574
0.317572
0.308256
0.298573
0.288508
0.278139
0.267434
0.256517
0.245395
0.234175
0.222926
0.211856
0.201183
0.191035
0.181748
0.173701
0.16733
0.162707
0.160759
2.258
0.997641
0.303374
0.339533
0.402434
0.444338
0.452829
0.448661
0.442868
0.438524
0.436148
0.434317
0.432133
0.42954
0.426557
0.423342
0.419845
0.416088
0.41205
0.407711
0.40311
0.398182
0.392986
0.387449
0.381622
0.375467
0.368985
0.362184
0.355056
0.34759
0.339773
0.331679
0.323171
0.314395
0.305318
0.295936
0.286297
0.276417
0.266393
0.256263
0.246115
0.236046
0.226234
0.216869
0.208102
0.200186
0.19336
0.188071
0.184267
0.182746
2.25916
0.999668
0.304806
0.339699
0.402689
0.44481
0.453406
0.449312
0.443619
0.43937
0.437093
0.435346
0.43327
0.430768
0.427907
0.424796
0.42143
0.417802
0.413918
0.409736
0.405317
0.400576
0.395594
0.390287
0.384707
0.378838
0.372668
0.366205
0.359454
0.352407
0.345042
0.337453
0.329519
0.321341
0.312947
0.304321
0.295524
0.286539
0.277548
0.268496
0.259566
0.250782
0.242347
0.234447
0.227153
0.220707
0.215301
0.211186
0.208268
0.207049
2.26047
1.00195
0.306405
0.339866
0.402969
0.445353
0.454079
0.450083
0.444494
0.440372
0.438181
0.436552
0.434573
0.432192
0.429447
0.426461
0.423236
0.419751
0.416041
0.412038
0.407813
0.403292
0.398529
0.393496
0.388186
0.382635
0.376812
0.370732
0.364394
0.35782
0.350948
0.343933
0.336614
0.329139
0.321484
0.313704
0.30585
0.297868
0.290003
0.282189
0.274565
0.267264
0.26035
0.254043
0.248449
0.24363
0.239735
0.236986
0.235123
0.234557
2.26193
1.00451
0.308181
0.340046
0.403277
0.445965
0.45485
0.450965
0.445513
0.441515
0.43944
0.437925
0.436068
0.433814
0.431189
0.428354
0.42527
0.421972
0.418429
0.414641
0.410618
0.406333
0.401826
0.397073
0.392092
0.386872
0.381444
0.375775
0.369897
0.36384
0.357526
0.351123
0.344508
0.337778
0.33098
0.324104
0.317298
0.310451
0.303797
0.297384
0.291228
0.285521
0.280367
0.27591
0.272223
0.269434
0.267468
0.266478
0.266018
0.266059
2.26354
1.00732
0.310138
0.340248
0.403636
0.446645
0.455732
0.451975
0.446693
0.442832
0.440885
0.439493
0.437764
0.435638
0.433168
0.430481
0.427588
0.424452
0.421131
0.417527
0.413762
0.409714
0.405505
0.401053
0.396423
0.391577
0.386558
0.38136
0.375974
0.37048
0.364791
0.359047
0.35321
0.347292
0.341424
0.335563
0.329869
0.324307
0.318984
0.314096
0.309617
0.305725
0.302532
0.300226
0.298845
0.298393
0.298915
0.300312
0.302008
0.303636
2.26527
1.01037
0.312267
0.340456
0.404075
0.447409
0.45674
0.453139
0.448047
0.444339
0.442533
0.441263
0.439689
0.437697
0.435411
0.432877
0.43018
0.427235
0.424124
0.420754
0.417234
0.413477
0.409563
0.405461
0.401193
0.396771
0.392189
0.387495
0.382653
0.377761
0.372741
0.367725
0.362707
0.357704
0.352819
0.348068
0.343594
0.339399
0.335598
0.332344
0.329764
0.327918
0.327037
0.327228
0.328751
0.331541
0.335427
0.340491
0.345657
0.349734
2.26713
1.01365
0.31455
0.340693
0.404552
0.448295
0.457905
0.454504
0.449622
0.446089
0.444418
0.443297
0.441862
0.440048
0.437912
0.43558
0.433057
0.43033
0.427433
0.424323
0.421058
0.417618
0.414019
0.410295
0.406415
0.402447
0.398341
0.394181
0.389922
0.385679
0.381376
0.377147
0.373
0.368969
0.365173
0.3616
0.358438
0.35575
0.35358
0.352185
0.351624
0.352114
0.353854
0.357146
0.362121
0.36898
0.377877
0.388554
0.400314
0.411027
2.26909
1.01713
0.316982
0.340985
0.405112
0.449335
0.459277
0.456099
0.451465
0.448101
0.446572
0.445596
0.444322
0.442682
0.44073
0.438582
0.436268
0.433754
0.431099
0.428258
0.42528
0.422169
0.418924
0.415586
0.412136
0.408625
0.405039
0.401441
0.397797
0.394242
0.390713
0.387303
0.384106
0.381092
0.37844
0.376153
0.374372
0.373275
0.372905
0.373441
0.375158
0.378348
0.383319
0.390266
0.399817
0.412136
0.427971
0.448113
0.471971
0.499674
2.27112
1.02074
0.31951
0.34132
0.40579
0.450598
0.460942
0.458028
0.453671
0.450473
0.449083
0.44824
0.447138
0.445638
0.443882
0.441897
0.439804
0.437505
0.435115
0.432539
0.429892
0.427102
0.424245
0.421305
0.418308
0.415282
0.412227
0.409233
0.406234
0.4034
0.400665
0.39815
0.395901
0.393982
0.392498
0.391559
0.391246
0.391715
0.39315
0.395905
0.400166
0.406297
0.414562
0.425741
0.440466
0.46015
0.4861
0.521627
0.572972
0.666055
2.27359
1.02515
0.322573
0.341765
0.406717
0.45237
0.463308
0.460773
0.456792
0.453791
0.452567
0.451915
0.451041
0.449782
0.44829
0.446588
0.444784
0.442829
0.440782
0.438626
0.436393
0.434101
0.431749
0.429391
0.427006
0.424682
0.422375
0.420219
0.418152
0.416313
0.414704
0.413409
0.412505
0.412076
0.412235
0.413027
0.41466
0.417483
0.42171
0.427446
0.435188
0.445206
0.458521
0.475552
0.498347
0.528544
0.570752
0.632221
0.730887
0.882541
2.27614
1.02974
0.326006
0.342628
0.408431
0.455292
0.466992
0.464862
0.461207
0.458268
0.457098
0.456544
0.455833
0.454765
0.453474
0.452006
0.450467
0.448826
0.447124
0.445358
0.443559
0.441726
0.439902
0.438095
0.436351
0.434692
0.433166
0.431807
0.430675
0.429799
0.429286
0.429169
0.429524
0.430411
0.432093
0.434709
0.438441
0.443378
0.449969
0.458323
0.469174
0.482943
0.500514
0.523383
0.5526
0.592137
0.645008
0.719291
0.830459
0.968676
2.2778
1.03273
0.328255
0.343557
0.410517
0.459004
0.471708
0.470088
0.46677
0.463857
0.462733
0.462309
0.46177
0.460894
0.459791
0.458542
0.457241
0.455888
0.454498
0.453078
0.451656
0.450247
0.448893
0.447612
0.446453
0.445436
0.444619
0.444035
0.443754
0.443829
0.444272
0.445202
0.446824
0.449251
0.452471
0.456758
0.462202
0.469199
0.477821
0.488805
0.502153
0.519178
0.539937
0.566522
0.599921
0.64252
0.698319
0.768891
0.865695
0.969377
2.2792
1.03527
0.331825
0.347202
0.415351
0.465437
0.478756
0.477015
0.473343
0.47008
0.468875
0.468559
0.468194
0.467514
0.466602
0.465598
0.464588
0.46356
0.46254
0.461517
0.460537
0.459589
0.458728
0.457955
0.457354
0.456922
0.45675
0.456824
0.457219
0.458045
0.459424
0.46141
0.464066
0.467574
0.471963
0.477596
0.484433
0.493052
0.503402
0.516208
0.531723
0.550537
0.573739
0.601551
0.636308
0.678055
0.72996
0.792052
0.870171
0.951642
2.27596
1.02946
0.334224
0.357106
0.427679
0.480023
0.49357
0.490844
0.485962
0.481813
0.480219
0.47971
0.479194
0.478376
0.47734
0.476275
0.47524
0.474241
0.473289
0.472394
0.471581
0.47088
0.470306
0.469911
0.469719
0.469756
0.470014
0.470696
0.471784
0.473386
0.475473
0.47825
0.481694
0.486065
0.491401
0.497939
0.505906
0.515412
0.527015
0.540639
0.55731
0.576803
0.600476
0.628353
0.661644
0.7012
0.747489
0.802009
0.865504
0.930269
2.28224
1.02297
0.359017
0.38241
0.448855
0.499027
0.511015
0.507271
0.501563
0.497216
0.495526
0.494844
0.494149
0.493207
0.49214
0.491071
0.490046
0.489064
0.488139
0.48728
0.48652
0.485871
0.485374
0.485014
0.484922
0.485111
0.485684
0.486575
0.487994
0.489855
0.492423
0.495575
0.499674
0.504534
0.510648
0.517755
0.526514
0.536587
0.548829
0.562898
0.579708
0.599232
0.622093
0.648873
0.679709
0.715753
0.756732
0.803722
0.85698
0.910647
1.87675
0.772576
0.273958
0.344373
0.418064
0.442074
0.442389
0.438699
0.435295
0.43543
0.437801
0.440824
0.443973
0.447064
0.450268
0.453488
0.456801
0.460068
0.463348
0.466555
0.469734
0.472788
0.475839
0.478873
0.481992
0.485081
0.4883
0.491562
0.49514
0.498908
0.503189
0.50785
0.513277
0.519348
0.526469
0.534571
0.544025
0.554921
0.567456
0.58206
0.598609
0.617966
0.639702
0.665019
0.693278
0.725766
0.761772
0.802294
0.847167
0.891954
1.86931
0.772211
0.283325
0.355615
0.42836
0.448199
0.444038
0.436918
0.431375
0.4296
0.429673
0.430248
0.431022
0.432089
0.433586
0.435495
0.437858
0.440541
0.443672
0.447124
0.451004
0.455046
0.459472
0.464065
0.469012
0.474101
0.479558
0.485199
0.491216
0.497462
0.50414
0.511138
0.518683
0.526758
0.535562
0.545258
0.555868
0.567843
0.581035
0.596065
0.612699
0.631636
0.652647
0.676373
0.702676
0.731965
0.764262
0.799384
0.837801
0.875506
1.86849
0.771026
0.285834
0.365601
0.443756
0.464083
0.458177
0.449003
0.442044
0.439336
0.438494
0.437976
0.437475
0.437169
0.437176
0.437553
0.43826
0.439383
0.440975
0.443075
0.445565
0.448593
0.452068
0.456155
0.460735
0.465903
0.471577
0.477814
0.484559
0.491877
0.499723
0.508237
0.517299
0.527171
0.53758
0.548968
0.561029
0.574261
0.588427
0.604086
0.621
0.639726
0.660103
0.682589
0.70709
0.73387
0.762884
0.794071
0.827639
0.860125
1.86998
0.774501
0.291975
0.367926
0.443791
0.46469
0.459792
0.4515
0.44497
0.442629
0.442205
0.442088
0.441939
0.441887
0.442035
0.442395
0.443032
0.443992
0.445217
0.446742
0.448566
0.45083
0.453481
0.456703
0.460394
0.464755
0.469678
0.47535
0.481642
0.488768
0.496545
0.505232
0.51457
0.524882
0.535904
0.547981
0.560874
0.574922
0.589899
0.606118
0.623463
0.642194
0.662264
0.683895
0.707067
0.731906
0.758334
0.786392
0.816159
0.844784
1.873
0.781175
0.299823
0.361828
0.428967
0.450534
0.448657
0.44279
0.437291
0.435477
0.435615
0.436248
0.43694
0.437754
0.438736
0.439976
0.4415
0.443232
0.445135
0.447256
0.449602
0.452254
0.455187
0.458527
0.462221
0.466446
0.471114
0.476454
0.482341
0.489031
0.496381
0.50464
0.513657
0.523666
0.534523
0.546421
0.559237
0.573152
0.58807
0.604156
0.62134
0.639774
0.659385
0.680285
0.702364
0.725797
0.750358
0.776039
0.803006
0.8288
1.88155
0.787916
0.302467
0.349539
0.411831
0.441338
0.444689
0.440182
0.435147
0.432932
0.432769
0.433409
0.434231
0.435262
0.436473
0.437902
0.439588
0.441517
0.443689
0.446127
0.448828
0.451843
0.455138
0.458811
0.462799
0.467256
0.472093
0.477503
0.483388
0.489952
0.497114
0.505076
0.51376
0.523341
0.533767
0.545186
0.557531
0.57093
0.585316
0.600799
0.617315
0.63496
0.653657
0.67349
0.694372
0.716314
0.739204
0.762964
0.787736
0.811309
2.2655
1.11065
0.410815
0.400306
0.460065
0.508834
0.520182
0.51526
0.508237
0.502077
0.498416
0.495853
0.493623
0.491535
0.489436
0.487437
0.485679
0.484195
0.483061
0.482252
0.481875
0.481891
0.482412
0.483425
0.48497
0.487107
0.489843
0.493262
0.497322
0.502163
0.507707
0.514125
0.521333
0.529504
0.538552
0.548627
0.559679
0.571793
0.584941
0.599181
0.614463
0.630833
0.64822
0.666611
0.68596
0.706225
0.727332
0.749178
0.77186
0.793423
2.27547
1.13368
0.395722
0.378113
0.450833
0.511873
0.530505
0.529692
0.525432
0.521558
0.520034
0.519572
0.519446
0.519293
0.518764
0.518013
0.517231
0.516484
0.515819
0.515247
0.514797
0.514537
0.514479
0.514717
0.515277
0.516239
0.517641
0.519587
0.522082
0.525247
0.529087
0.533705
0.539118
0.545407
0.552587
0.560732
0.569826
0.579978
0.591135
0.603392
0.616701
0.631092
0.646538
0.662996
0.680377
0.69865
0.717716
0.737475
0.757985
0.777501
2.3002
1.18281
0.438513
0.385003
0.447951
0.504543
0.523271
0.524413
0.52263
0.521456
0.521898
0.523147
0.524929
0.526718
0.528102
0.529266
0.530339
0.531425
0.532501
0.533601
0.534697
0.535845
0.537042
0.53834
0.53976
0.541358
0.543166
0.545257
0.547672
0.550484
0.553749
0.557538
0.561925
0.56697
0.572754
0.579328
0.586781
0.595117
0.604442
0.614694
0.625972
0.638167
0.651336
0.665426
0.680477
0.696405
0.71318
0.730621
0.74879
0.766106
1.90148
0.806126
0.30803
0.316822
0.373979
0.415116
0.429733
0.433912
0.437062
0.441022
0.446261
0.452301
0.458984
0.465732
0.472116
0.478306
0.484404
0.490486
0.496478
0.502406
0.508192
0.513904
0.519467
0.524966
0.53033
0.535666
0.540908
0.546171
0.551432
0.556758
0.562194
0.567806
0.573645
0.579789
0.58629
0.593244
0.600691
0.608732
0.617385
0.626751
0.636811
0.647685
0.659314
0.671791
0.685011
0.698979
0.713586
0.728833
0.744807
0.760042
2.30911
1.20051
0.454475
0.387939
0.441444
0.493092
0.510204
0.510298
0.5071
0.504571
0.503269
0.503045
0.50348
0.503901
0.504269
0.504862
0.505791
0.507214
0.509053
0.511383
0.51411
0.517328
0.52094
0.525011
0.52945
0.53429
0.539457
0.544958
0.550733
0.556827
0.563164
0.569811
0.576691
0.583893
0.591351
0.599172
0.607308
0.615861
0.624807
0.634238
0.64414
0.65459
0.665582
0.677149
0.689289
0.701993
0.715274
0.729045
0.743353
0.757021
2.31476
1.21136
0.437953
0.370632
0.439147
0.501828
0.523593
0.525111
0.522881
0.521375
0.521468
0.52253
0.524187
0.525645
0.526614
0.527409
0.52819
0.529098
0.530153
0.531438
0.532978
0.534821
0.536995
0.53954
0.542477
0.545834
0.549626
0.553869
0.55857
0.563729
0.56934
0.575392
0.581888
0.588809
0.596178
0.603935
0.612134
0.620707
0.629719
0.639105
0.648932
0.659147
0.669809
0.680877
0.692381
0.704307
0.716632
0.729369
0.742539
0.755068
2.31751
1.21725
0.442105
0.372622
0.442308
0.506684
0.52945
0.53128
0.529138
0.527789
0.528269
0.529754
0.532001
0.534179
0.535887
0.537379
0.538876
0.540459
0.542159
0.543973
0.54593
0.548035
0.550332
0.552835
0.555596
0.558625
0.561978
0.565658
0.569722
0.574164
0.579041
0.584333
0.590098
0.596297
0.602986
0.61012
0.617737
0.625796
0.634326
0.643292
0.652709
0.662545
0.672804
0.683452
0.694489
0.705879
0.717607
0.729614
0.741976
0.753702
2.32051
1.22509
0.468957
0.38926
0.448173
0.507623
0.530514
0.533902
0.533078
0.532734
0.533663
0.535588
0.538132
0.540455
0.542505
0.544419
0.546382
0.548422
0.550593
0.552862
0.555271
0.557797
0.560486
0.563323
0.566358
0.569581
0.573043
0.576735
0.580716
0.584978
0.589577
0.59451
0.599817
0.605508
0.611597
0.618107
0.625044
0.632422
0.64023
0.648488
0.657175
0.666301
0.675841
0.68579
0.696117
0.7068
0.717813
0.72912
0.74077
0.751854
1.90571
0.814343
0.32693
0.32362
0.376146
0.414171
0.427337
0.430676
0.433247
0.436889
0.441975
0.448176
0.455208
0.462372
0.46941
0.476369
0.483373
0.490404
0.497469
0.504513
0.511529
0.518487
0.525397
0.532246
0.539054
0.54582
0.552569
0.559305
0.566059
0.572837
0.579678
0.586595
0.593628
0.600794
0.608131
0.615659
0.623408
0.631408
0.639668
0.648204
0.657027
0.666142
0.675561
0.685283
0.695298
0.705607
0.716191
0.727034
0.738184
0.748774
2.31559
1.21632
0.470549
0.405262
0.467629
0.529138
0.551348
0.552335
0.548074
0.544068
0.541683
0.540139
0.539365
0.538809
0.537963
0.537139
0.53652
0.536341
0.536554
0.537299
0.538518
0.540243
0.542473
0.545205
0.548432
0.552137
0.556324
0.560956
0.566024
0.571494
0.577355
0.583564
0.590125
0.596996
0.604186
0.61166
0.619429
0.627457
0.635777
0.644352
0.65321
0.662331
0.671719
0.681368
0.691262
0.701389
0.71174
0.722298
0.733118
0.743386
2.29739
1.17637
0.465472
0.42505
0.487783
0.548524
0.568742
0.568914
0.56518
0.561859
0.561039
0.561396
0.562382
0.563532
0.564292
0.564803
0.565255
0.56576
0.566339
0.566999
0.567769
0.568698
0.569846
0.571245
0.572948
0.574976
0.577356
0.580111
0.583268
0.586829
0.590815
0.595228
0.600078
0.605361
0.611073
0.617208
0.623752
0.630697
0.638023
0.645716
0.653753
0.662124
0.670803
0.679786
0.689051
0.698578
0.708367
0.718383
0.728677
0.738457
1.88858
0.805944
0.343563
0.356033
0.40661
0.443388
0.453229
0.453268
0.452524
0.453611
0.457223
0.462177
0.468012
0.474384
0.480809
0.487246
0.493752
0.500308
0.506874
0.51339
0.519836
0.526191
0.532458
0.538628
0.544712
0.550719
0.556685
0.562623
0.568578
0.574575
0.580641
0.586813
0.593107
0.599565
0.606192
0.613027
0.620071
0.627352
0.634862
0.642631
0.650648
0.658925
0.667458
0.676227
0.685246
0.694491
0.703954
0.713615
0.723524
0.732939
1.87432
0.796751
0.341699
0.357138
0.398099
0.426329
0.434138
0.434149
0.433178
0.432669
0.433446
0.435173
0.437805
0.441163
0.444893
0.44904
0.453658
0.458767
0.46433
0.470315
0.476681
0.48338
0.490366
0.497594
0.505015
0.512605
0.520313
0.528136
0.536025
0.543983
0.551997
0.560064
0.568191
0.576374
0.584635
0.59297
0.601406
0.60994
0.618583
0.627333
0.636203
0.645207
0.65434
0.663621
0.673043
0.682621
0.692341
0.702199
0.712234
0.72174
1.88916
0.806985
0.348162
0.374763
0.431053
0.467217
0.474081
0.469949
0.464685
0.461372
0.4603
0.460184
0.460589
0.46142
0.462403
0.463561
0.464999
0.466808
0.469017
0.471655
0.474727
0.478268
0.482268
0.486738
0.491658
0.497031
0.502831
0.50905
0.515651
0.522623
0.529919
0.537543
0.545427
0.553592
0.561971
0.570579
0.579355
0.588312
0.597422
0.606692
0.616106
0.625655
0.635328
0.645119
0.655019
0.665023
0.675118
0.685314
0.69564
0.705406
2.34423
1.13047
0.474622
0.45049
0.515646
0.577653
0.598499
0.597944
0.592553
0.587049
0.58383
0.581746
0.579871
0.578194
0.576406
0.574416
0.57235
0.570323
0.568392
0.566603
0.564975
0.563554
0.562375
0.56151
0.560944
0.560818
0.561034
0.561778
0.562963
0.564664
0.566881
0.569638
0.57292
0.57674
0.58108
0.585941
0.591301
0.597146
0.603442
0.610174
0.617296
0.624801
0.632663
0.640857
0.649349
0.658115
0.667128
0.676364
0.685843
0.694869
1.88903
0.807529
0.348751
0.364205
0.416172
0.456406
0.468958
0.470053
0.469598
0.469656
0.472147
0.475904
0.480273
0.485172
0.490311
0.495396
0.500483
0.505598
0.510735
0.515862
0.520935
0.525936
0.530853
0.535687
0.540429
0.54511
0.54973
0.554324
0.558895
0.563493
0.56813
0.572843
0.577654
0.582603
0.587704
0.592997
0.598493
0.604222
0.610196
0.616427
0.622921
0.629689
0.636705
0.643994
0.651534
0.659332
0.667369
0.675628
0.684137
0.692256
1.88832
0.807227
0.349801
0.365324
0.416447
0.45476
0.465122
0.46389
0.460869
0.458091
0.457536
0.458396
0.45992
0.462127
0.464732
0.467526
0.470593
0.474042
0.47789
0.482127
0.486702
0.491585
0.496736
0.502129
0.507729
0.513519
0.519465
0.525543
0.531754
0.53807
0.544493
0.551015
0.557621
0.564321
0.571103
0.577979
0.584953
0.592027
0.599207
0.606501
0.613903
0.621435
0.62909
0.636884
0.64482
0.65289
0.661113
0.669456
0.677983
0.686072
2.34603
1.13361
0.478141
0.452846
0.519357
0.583847
0.606419
0.606351
0.601093
0.595819
0.59284
0.591179
0.589815
0.588683
0.587532
0.586224
0.584811
0.583455
0.582189
0.581086
0.580131
0.5794
0.578912
0.578649
0.578714
0.579027
0.579696
0.580676
0.582029
0.583752
0.585856
0.588345
0.591211
0.594459
0.598079
0.602062
0.606409
0.611097
0.616131
0.621483
0.62715
0.633111
0.639355
0.645867
0.652636
0.659644
0.666878
0.674323
0.681991
0.689314
1.88991
0.808616
0.355322
0.382581
0.440412
0.480394
0.490328
0.48863
0.48553
0.484042
0.485527
0.488366
0.491784
0.495674
0.499784
0.50399
0.508323
0.51279
0.517406
0.522087
0.526847
0.531613
0.536432
0.541224
0.546055
0.550852
0.555667
0.560465
0.565289
0.570146
0.575048
0.580024
0.58506
0.590199
0.595435
0.600791
0.606282
0.611901
0.617693
0.623629
0.629758
0.636039
0.642514
0.649149
0.655965
0.662952
0.670109
0.677429
0.684935
0.692087
1.87667
0.799657
0.351398
0.378665
0.428065
0.459213
0.466275
0.465088
0.463372
0.462575
0.463116
0.46435
0.46613
0.468269
0.470613
0.473193
0.4761
0.479339
0.482905
0.486718
0.490839
0.495191
0.499856
0.504743
0.509907
0.515254
0.520809
0.526515
0.532375
0.538379
0.5445
0.550776
0.557138
0.563645
0.57022
0.576936
0.583721
0.590645
0.597649
0.604776
0.611997
0.619322
0.626759
0.634281
0.641921
0.649644
0.657492
0.665417
0.67351
0.681155
1.87618
0.799189
0.350782
0.37523
0.422411
0.453076
0.460758
0.460531
0.459548
0.458963
0.459189
0.459878
0.461047
0.462556
0.464238
0.466109
0.468278
0.470723
0.473358
0.47617
0.479189
0.482452
0.486002
0.489867
0.494018
0.498432
0.503076
0.507963
0.513058
0.518445
0.524039
0.529937
0.536017
0.542355
0.548818
0.555514
0.562294
0.569326
0.576447
0.583802
0.591266
0.5989
0.60664
0.614499
0.622454
0.630516
0.638682
0.64697
0.655399
0.663394
1.89079
0.809141
0.355797
0.363406
0.413238
0.451247
0.461843
0.46152
0.459917
0.458741
0.458676
0.459325
0.460548
0.462111
0.463754
0.465566
0.467568
0.469737
0.472065
0.474557
0.477249
0.480175
0.483337
0.486744
0.490351
0.494176
0.498189
0.502437
0.506892
0.511621
0.516557
0.521784
0.527185
0.532862
0.538683
0.544769
0.551001
0.557512
0.564165
0.571098
0.578141
0.585421
0.592794
0.600356
0.608034
0.615877
0.623845
0.631965
0.640223
0.648068
2.31454
1.20928
0.489563
0.433968
0.494783
0.559358
0.585624
0.589139
0.586154
0.583079
0.581461
0.580931
0.581167
0.581797
0.582193
0.58242
0.582599
0.582823
0.583132
0.583512
0.583973
0.584521
0.58517
0.585941
0.586851
0.587901
0.589106
0.590459
0.591983
0.5937
0.595597
0.597743
0.600077
0.602689
0.605505
0.608613
0.611935
0.615585
0.619436
0.623653
0.628051
0.632798
0.637742
0.642973
0.648438
0.654144
0.660088
0.666253
0.672657
0.67881
2.32598
1.2362
0.471267
0.407053
0.483226
0.559976
0.591672
0.596502
0.593791
0.590866
0.589775
0.590235
0.591443
0.593187
0.594929
0.596372
0.597743
0.599129
0.600676
0.602299
0.604086
0.605932
0.607943
0.610013
0.61225
0.614544
0.616992
0.619508
0.622156
0.624908
0.627778
0.630802
0.633934
0.637263
0.640694
0.644344
0.648095
0.652079
0.656171
0.660505
0.664972
0.669667
0.674533
0.679593
0.684852
0.690277
0.695907
0.701686
0.707685
0.713402
2.31593
1.21323
0.491978
0.434578
0.496025
0.561767
0.589355
0.593839
0.591856
0.589711
0.589058
0.58966
0.591095
0.59299
0.594834
0.596433
0.598058
0.599727
0.601607
0.60358
0.605754
0.608012
0.610443
0.612975
0.615665
0.618468
0.62142
0.624495
0.627707
0.631075
0.634556
0.638234
0.641999
0.645989
0.650056
0.654353
0.658732
0.663333
0.66803
0.672938
0.67796
0.683179
0.688531
0.694062
0.699738
0.705571
0.711561
0.717682
0.723992
0.730005
1.89094
0.811497
0.360272
0.36526
0.416993
0.457499
0.469311
0.469034
0.467158
0.466005
0.466627
0.468282
0.470791
0.473754
0.476708
0.479681
0.482839
0.486246
0.489957
0.493921
0.498134
0.502538
0.507134
0.511914
0.51688
0.522044
0.527396
0.532922
0.538607
0.544441
0.550388
0.556493
0.562672
0.569027
0.575441
0.582029
0.588671
0.595473
0.602305
0.609294
0.616286
0.623443
0.630603
0.637922
0.645271
0.652748
0.66028
0.667911
0.675639
0.68298
1.87659
0.802808
0.360186
0.382152
0.428647
0.460288
0.467657
0.466106
0.463959
0.462826
0.462852
0.463524
0.464945
0.466711
0.468404
0.470104
0.471919
0.473931
0.476164
0.478671
0.481386
0.484317
0.487418
0.490713
0.494194
0.497923
0.501871
0.50608
0.510509
0.515151
0.520006
0.525063
0.530315
0.535807
0.541464
0.547386
0.553463
0.559766
0.566208
0.572839
0.579565
0.58651
0.593505
0.600763
0.608054
0.61557
0.623138
0.630844
0.638648
0.646054
1.87931
0.8057
0.363458
0.396652
0.451807
0.48507
0.491217
0.487603
0.483134
0.480913
0.480703
0.481296
0.482549
0.484092
0.485583
0.487081
0.488694
0.490469
0.49243
0.494585
0.496943
0.499472
0.502175
0.505039
0.508059
0.511277
0.514672
0.518277
0.52208
0.526078
0.530263
0.534658
0.539212
0.544008
0.548955
0.554156
0.559515
0.565129
0.570867
0.576883
0.58295
0.589331
0.595728
0.602438
0.609193
0.616212
0.623304
0.630604
0.637982
0.645054
1.1937
1.05479
0.503347
0.189585
0.00342486
0.103171
0.151406
0.200288
0.22296
0.22845
0.218395
0.206824
0.196706
0.187261
0.175472
0.161382
0.144472
0.124952
0.103501
0.080686
0.0571321
0.033807
0.0151833
0.0244407
0.0482069
0.0724414
0.0965852
0.120289
0.143636
0.166545
0.189112
0.211238
0.232933
0.254128
0.274219
0.29333
0.312884
0.333212
0.353224
0.372435
0.391007
0.409046
0.42664
0.443745
0.460396
0.476565
0.492266
0.507503
0.522245
0.536507
0.550256
0.563502
0.576226
0.588401
0.600029
0.611088
0.621545
0.6314
0.640603
0.649129
0.656972
0.664054
0.670396
0.675927
0.680646
0.684527
0.687548
0.689722
0.691068
0.691631
0.691567
0.691099
0.690348
0.688959
0.686531
0.683304
0.679842
0.676389
0.672894
0.669524
0.66629
0.663315
0.660655
0.658368
0.656499
0.655045
0.654039
0.653448
0.653276
0.653455
0.653868
0.654393
0.655243
0.656505
0.658119
0.659789
0.66147
0.663201
0.664879
0.669745
1.1241
1.03957
0.810613
0.554655
0.505679
0.43527
0.384493
0.343806
0.313418
0.295201
0.266533
0.237199
0.217136
0.214592
0.221236
0.231496
0.243757
0.257509
0.272489
0.288213
0.304458
0.320819
0.337004
0.353152
0.369809
0.386806
0.403959
0.421108
0.438274
0.455259
0.472228
0.488936
0.505545
0.521882
0.537603
0.552573
0.567568
0.583309
0.599162
0.614463
0.629144
0.64357
0.657612
0.671449
0.684946
0.698162
0.711013
0.723528
0.735692
0.747509
0.759
0.770087
0.78082
0.791081
0.800954
0.810318
0.819184
0.827598
0.835402
0.842739
0.849452
0.855569
0.86111
0.865911
0.870114
0.873551
0.876265
0.878282
0.879504
0.880016
0.87996
0.879479
0.878677
0.877307
0.874979
0.871852
0.868436
0.864909
0.861408
0.857944
0.854567
0.851446
0.848575
0.846016
0.843863
0.84208
0.840677
0.839699
0.839142
0.838886
0.838834
0.838979
0.839435
0.84026
0.841378
0.842659
0.843877
0.845249
0.846324
0.850304
1.0767
1.07831
1.01085
0.903958
0.833608
0.784051
0.748057
0.718099
0.693614
0.675827
0.662102
0.648386
0.638662
0.633938
0.632863
0.633537
0.635372
0.63802
0.641547
0.645868
0.650971
0.656687
0.663011
0.669752
0.677294
0.685375
0.6941
0.703196
0.712655
0.722386
0.732387
0.742497
0.752854
0.763251
0.773513
0.783285
0.79313
0.803692
0.814873
0.825823
0.836471
0.846926
0.857327
0.867637
0.87784
0.887925
0.897824
0.907557
0.917156
0.926479
0.935649
0.944529
0.953145
0.961503
0.969509
0.97726
0.984581
0.991618
0.998165
1.00436
1.01003
1.01525
1.01995
1.02408
1.02768
1.03062
1.03301
1.03473
1.03586
1.03632
1.03625
1.03594
1.03536
1.03422
1.0324
1.02969
1.02689
1.02383
1.02099
1.01808