/*--------------------------------*- C++ -*----------------------------------*\
| =========                 |                                                 |
| \\      /  F ield         | OpenFOAM: The Open Source CFD Toolbox           |
|  \\    /   O peration     | Version:  2412                                  |
|   \\  /    A nd           | Website:  www.openfoam.com                      |
|    \\/     M anipulation  |                                                 |
\*---------------------------------------------------------------------------*/
FoamFile
{
    version     2.0;
    format      ascii;
    arch        "LSB;label=32;scalar=64";
    class       volScalarField;
    location    "13";
    object      p;
}
// * * * * * * * * * * * * * * * * * * * * * * * * * * * * * * * * * * * * * //

dimensions      [1 -1 -2 0 0 0 0];

internalField   nonuniform List<scalar> 
7000
(
1.63492
3.78407
11.521
11.5371
11.1044
10.6958
10.5766
10.5904
10.6296
10.6674
10.6878
10.7006
10.7142
10.7311
10.7507
10.7721
10.7951
10.8198
10.8463
10.8745
10.9047
10.9367
10.9705
11.0063
11.0438
11.0833
11.1245
11.1676
11.2124
11.2588
11.3069
11.3565
11.4074
11.4595
11.5126
11.5663
11.6204
11.6745
11.7284
11.7813
11.8329
11.8825
11.9296
11.9734
12.0133
12.0486
12.0785
12.1027
12.1203
12.1332
1.63521
3.78279
11.5204
11.5365
11.104
10.6954
10.5763
10.5901
10.6293
10.667
10.6873
10.7001
10.7137
10.7306
10.7501
10.7715
10.7945
10.8192
10.8456
10.8739
10.904
10.9359
10.9698
11.0055
11.043
11.0824
11.1236
11.1666
11.2114
11.2578
11.3059
11.3554
11.4063
11.4584
11.5114
11.5651
11.6192
11.6734
11.7272
11.7802
11.8318
11.8815
11.9286
11.9726
12.0126
12.048
12.0781
12.1023
12.12
12.1329
1.63508
3.78181
11.5182
11.5356
11.1032
10.6947
10.5756
10.5893
10.6284
10.6661
10.6864
10.699
10.7127
10.7295
10.7489
10.7702
10.7932
10.8178
10.8442
10.8723
10.9024
10.9342
10.968
11.0036
11.041
11.0803
11.1214
11.1643
11.2089
11.2552
11.3031
11.3526
11.4033
11.4552
11.5081
11.5616
11.6156
11.6696
11.7233
11.7762
11.8277
11.8774
11.9245
11.9684
12.0084
12.0438
12.0739
12.0982
12.1157
12.1286
1.63491
3.78047
11.5144
11.5344
11.1023
10.6936
10.5743
10.5881
10.6271
10.6646
10.6848
10.6974
10.7109
10.7277
10.747
10.7682
10.7911
10.8156
10.8418
10.8699
10.8998
10.9315
10.9651
11.0006
11.0378
11.0769
11.1179
11.1605
11.205
11.2511
11.2988
11.3479
11.3984
11.4501
11.5027
11.556
11.6098
11.6635
11.717
11.7697
11.8211
11.8705
11.9175
11.9614
12.0013
12.0367
12.0668
12.0911
12.1085
12.1213
1.63469
3.77851
11.5091
11.533
11.101
10.6919
10.5725
10.5862
10.6251
10.6625
10.6826
10.695
10.7085
10.7251
10.7443
10.7654
10.7881
10.8125
10.8385
10.8664
10.8962
10.9277
10.9611
10.9963
11.0333
11.0722
11.1128
11.1552
11.1993
11.2451
11.2925
11.3413
11.3914
11.4427
11.495
11.5479
11.6013
11.6547
11.7079
11.7602
11.8113
11.8606
11.9074
11.9512
11.991
12.0263
12.0564
12.0807
12.098
12.1109
1.63444
3.77582
11.5023
11.5312
11.0993
10.6896
10.57
10.5837
10.6226
10.6598
10.6796
10.692
10.7052
10.7217
10.7408
10.7616
10.7842
10.8083
10.8342
10.8619
10.8913
10.9226
10.9557
10.9906
11.0274
11.0659
11.1061
11.1481
11.1919
11.2372
11.2841
11.3324
11.3821
11.4329
11.4846
11.537
11.5899
11.6428
11.6955
11.7474
11.7982
11.8471
11.8936
11.9371
11.9768
12.0121
12.0422
12.0665
12.0838
12.0968
1.6343
3.77201
11.4942
11.5291
11.0971
10.6868
10.5668
10.5805
10.6193
10.6563
10.6759
10.688
10.7011
10.7174
10.7362
10.7569
10.7792
10.8031
10.8287
10.856
10.8852
10.9162
10.9489
10.9835
11.0198
11.0578
11.0976
11.1392
11.1823
11.2271
11.2734
11.3212
11.3701
11.4203
11.4714
11.5231
11.5753
11.6276
11.6796
11.7309
11.7811
11.8295
11.8757
11.9189
11.9583
11.9935
12.0235
12.0478
12.0651
12.0783
1.63487
3.76489
11.483
11.5272
11.0944
10.6834
10.5631
10.5767
10.6153
10.652
10.6714
10.6832
10.6961
10.7121
10.7307
10.7511
10.773
10.7966
10.8219
10.8489
10.8777
10.9082
10.9406
10.9746
11.0104
11.0479
11.0872
11.1281
11.1706
11.2147
11.2602
11.3072
11.3554
11.4047
11.4549
11.5058
11.5571
11.6085
11.6597
11.7102
11.7596
11.8074
11.853
11.8957
11.9348
11.9697
11.9996
12.024
12.0413
12.0547
1.63854
3.76234
11.466
11.5227
11.0907
10.6792
10.5585
10.572
10.6104
10.6468
10.6658
10.6774
10.6899
10.7057
10.7239
10.744
10.7656
10.7888
10.8137
10.8403
10.8686
10.8987
10.9305
10.9639
10.9991
11.036
11.0745
11.1147
11.1564
11.1996
11.2443
11.2903
11.3375
11.3858
11.4349
11.4847
11.5349
11.5852
11.6354
11.6848
11.7332
11.7801
11.8249
11.8669
11.9055
11.9401
11.9697
11.9941
12.0113
12.0251
1.63854
3.75577
11.4504
11.5183
11.087
10.6745
10.5533
10.5666
10.6046
10.6406
10.6593
10.6705
10.6827
10.6981
10.716
10.7357
10.7568
10.7796
10.804
10.8301
10.8579
10.8874
10.9185
10.9513
10.9858
11.0219
11.0595
11.0988
11.1395
11.1818
11.2253
11.2702
11.3162
11.3632
11.411
11.4595
11.5083
11.5572
11.606
11.6541
11.7012
11.7468
11.7905
11.8316
11.8694
11.9034
11.9327
11.957
11.9742
11.9883
1.63812
3.74878
11.4337
11.5134
11.0826
10.669
10.5471
10.5602
10.5977
10.6333
10.6516
10.6624
10.6742
10.6892
10.7066
10.7258
10.7466
10.7688
10.7927
10.8182
10.8453
10.8741
10.9045
10.9365
10.9701
11.0053
11.042
11.0802
11.1198
11.1608
11.2031
11.2466
11.2911
11.3366
11.3828
11.4296
11.4768
11.524
11.571
11.6174
11.6628
11.7068
11.7489
11.7887
11.8254
11.8585
11.8872
11.9111
11.9283
11.9428
1.63754
3.74069
11.4144
11.5077
11.0775
10.6625
10.5398
10.5527
10.5897
10.6248
10.6427
10.6531
10.6644
10.6788
10.6958
10.7145
10.7347
10.7563
10.7796
10.8044
10.8308
10.8588
10.8884
10.9195
10.9521
10.9862
11.0217
11.0587
11.097
11.1365
11.1773
11.2192
11.262
11.3056
11.35
11.3948
11.4398
11.4849
11.5297
11.5738
11.6171
11.6589
11.699
11.7368
11.7718
11.8035
11.8312
11.8546
11.8715
11.8864
1.63688
3.73151
11.3926
11.5015
11.0718
10.6553
10.5315
10.5441
10.5805
10.6151
10.6324
10.6423
10.6531
10.667
10.6834
10.7015
10.721
10.742
10.7645
10.7886
10.8142
10.8413
10.8699
10.8999
10.9314
10.9642
10.9985
11.034
11.0707
11.1087
11.1476
11.1876
11.2284
11.2699
11.312
11.3544
11.3969
11.4393
11.4814
11.5227
11.5631
11.602
11.6392
11.6744
11.7069
11.7364
11.7623
11.7845
11.8009
11.8164
1.63613
3.72118
11.3682
11.4945
11.0654
10.647
10.522
10.5342
10.57
10.6039
10.6206
10.6299
10.6401
10.6535
10.6692
10.6867
10.7055
10.7257
10.7474
10.7706
10.7953
10.8213
10.8488
10.8777
10.9079
10.9393
10.972
11.0059
11.0409
11.0769
11.1139
11.1516
11.1901
11.229
11.2684
11.3079
11.3474
11.3865
11.4252
11.463
11.4996
11.5347
11.5681
11.5994
11.6282
11.6543
11.6774
11.6975
11.7125
11.7283
1.63531
3.70969
11.3409
11.4868
11.0583
10.6377
10.5112
10.523
10.5579
10.5911
10.6072
10.6159
10.6255
10.6381
10.6532
10.6699
10.6879
10.7073
10.7281
10.7504
10.7739
10.7989
10.8251
10.8526
10.8813
10.9112
10.9422
10.9742
11.0072
11.0411
11.0757
11.1109
11.1466
11.1826
11.2188
11.2549
11.2907
11.3259
11.3603
11.3936
11.4254
11.4555
11.4835
11.5093
11.5326
11.5533
11.5714
11.5876
11.6001
11.6161
1.63442
3.69704
11.3109
11.4782
11.0503
10.6276
10.4991
10.5104
10.5443
10.5767
10.592
10.6001
10.609
10.6209
10.6352
10.651
10.6682
10.6867
10.7065
10.7276
10.75
10.7737
10.7985
10.8245
10.8516
10.8798
10.9088
10.9388
10.9695
11.0009
11.0328
11.0651
11.0977
11.1303
11.1627
11.1948
11.2262
11.2567
11.2859
11.3135
11.3392
11.3626
11.3834
11.4014
11.4164
11.4287
11.4387
11.4476
11.4545
11.4692
1.63348
3.68325
11.2785
11.4686
11.0415
10.6163
10.4856
10.4962
10.5289
10.5603
10.5749
10.5823
10.5904
10.6015
10.6149
10.6299
10.6461
10.6636
10.6823
10.7022
10.7234
10.7456
10.769
10.7933
10.8186
10.8447
10.8717
10.8993
10.9274
10.9561
10.985
11.014
11.043
11.0716
11.0998
11.1272
11.1534
11.1782
11.2011
11.2217
11.2396
11.2541
11.2651
11.2722
11.2747
11.2736
11.2695
11.2646
11.2603
11.2707
1.6325
3.66846
11.2437
11.4581
11.0318
10.6038
10.4704
10.4803
10.5116
10.5419
10.5557
10.5622
10.5695
10.5798
10.5923
10.6063
10.6215
10.6379
10.6554
10.6741
10.6938
10.7145
10.7362
10.7587
10.782
10.806
10.8305
10.8556
10.8809
10.9065
10.932
10.9573
10.9823
11.0065
11.0297
11.0517
11.0719
11.0899
11.1051
11.1171
11.1253
11.1283
11.1263
11.1186
11.1028
11.0804
11.052
11.0207
10.9901
10.9861
1.63146
3.65288
11.2068
11.4469
11.0214
10.5901
10.4535
10.4624
10.4919
10.5212
10.5342
10.54
10.5464
10.5557
10.5673
10.5803
10.5944
10.6096
10.6258
10.6431
10.6613
10.6803
10.7002
10.7207
10.7418
10.7634
10.7854
10.8076
10.8298
10.852
10.8738
10.895
10.9155
10.9347
10.9524
10.9681
10.9813
10.9914
10.9978
10.999
10.9957
10.9853
10.9651
10.9353
10.894
10.8391
10.7694
10.6869
10.5958
10.54
1.6304
3.63675
11.1686
11.4352
11.0103
10.5747
10.4342
10.4419
10.4694
10.4975
10.5098
10.5148
10.5204
10.5287
10.5393
10.5513
10.5643
10.5782
10.5931
10.6089
10.6254
10.6427
10.6606
10.679
10.6977
10.7168
10.7359
10.755
10.7739
10.7923
10.8101
10.8268
10.8422
10.8559
10.8674
10.8762
10.8816
10.8822
10.879
10.8693
10.8498
10.821
10.7795
10.7225
10.645
10.5412
10.4028
10.2215
9.9871
9.73277
1.62911
3.61726
11.1223
11.4209
10.9964
10.5549
10.4085
10.4147
10.4393
10.4662
10.4778
10.4819
10.4864
10.4935
10.5028
10.5135
10.525
10.5374
10.5505
10.5644
10.5789
10.5939
10.6093
10.6249
10.6407
10.6565
10.6721
10.6873
10.7019
10.7156
10.7282
10.7392
10.7482
10.7548
10.7582
10.7577
10.754
10.7441
10.7253
10.6979
10.6595
10.6067
10.5353
10.4385
10.3069
10.1239
9.86044
9.45495
8.75698
7.23616
1.62814
3.595
11.0727
11.4032
10.9769
10.5259
10.3713
10.3755
10.3968
10.423
10.4345
10.4382
10.4418
10.4478
10.4559
10.4652
10.4752
10.4858
10.497
10.5087
10.5208
10.5331
10.5456
10.558
10.5703
10.5822
10.5935
10.604
10.6135
10.6216
10.628
10.6321
10.6332
10.6318
10.6269
10.6158
10.5982
10.573
10.5386
10.4922
10.4309
10.35
10.2428
10.0999
9.90624
9.63801
9.25388
8.68489
7.84293
6.4563
1.62759
3.58026
11.0408
11.3905
10.9604
10.4964
10.3309
10.3326
10.3503
10.3763
10.3879
10.391
10.3935
10.3983
10.405
10.4129
10.4214
10.4302
10.4394
10.4488
10.4584
10.468
10.4774
10.4865
10.4951
10.503
10.51
10.5157
10.52
10.5222
10.5219
10.5199
10.5143
10.503
10.487
10.465
10.4353
10.3964
10.346
10.2812
10.198
10.0915
9.95345
9.77404
9.5381
9.2244
8.80371
8.23586
7.50392
6.53073
1.62692
3.56868
11.0131
11.3676
10.9314
10.4496
10.2745
10.2762
10.2955
10.3251
10.3383
10.3413
10.343
10.3467
10.3526
10.3594
10.3664
10.3735
10.3807
10.3878
10.3949
10.4017
10.4081
10.4138
10.4188
10.4227
10.4253
10.4262
10.4255
10.4228
10.4167
10.4066
10.3926
10.3736
10.3487
10.3169
10.2761
10.225
10.1607
10.0805
9.98029
9.85499
9.69777
9.49986
9.25012
8.93473
8.53909
8.04738
7.46642
6.73659
1.62766
3.59965
11.0684
11.3631
10.9006
10.3823
10.1963
10.2011
10.2282
10.265
10.2808
10.2839
10.2853
10.2884
10.2938
10.2998
10.3057
10.3114
10.3168
10.3221
10.3269
10.3313
10.3349
10.3376
10.3392
10.3393
10.3384
10.3357
10.3299
10.3212
10.3093
10.2935
10.273
10.2471
10.2145
10.1741
10.1242
10.0632
9.98847
9.89736
9.78632
9.65096
9.486
9.28513
9.04105
8.74605
8.39287
7.97436
7.49298
6.94132
1.58983
3.70683
11.0666
11.272
10.8218
10.2992
10.1248
10.1346
10.1705
10.2098
10.2258
10.2292
10.2309
10.2344
10.239
10.2438
10.2481
10.252
10.2554
10.2584
10.2607
10.2623
10.2628
10.2625
10.2611
10.2578
10.2522
10.2446
10.2343
10.221
10.204
10.1828
10.1566
10.1246
10.0856
10.0384
9.98172
9.91349
9.83197
9.73441
9.61807
9.47954
9.31494
9.11998
8.89021
8.62118
8.3096
7.95285
7.55265
7.10453
1.55369
4.81267
11.212
10.945
10.3061
10.0474
10.0411
10.0673
10.1146
10.141
10.1507
10.1548
10.159
10.164
10.169
10.1736
10.1774
10.1804
10.1828
10.1843
10.1847
10.1845
10.1833
10.1805
10.1758
10.1696
10.1615
10.151
10.1375
10.1206
10.0996
10.0741
10.0433
10.0065
9.9626
9.91054
9.84905
9.77652
9.69121
9.59105
9.47377
9.33684
9.17752
8.99292
8.78037
8.5374
8.26261
7.9559
7.61884
7.244
1.55377
4.81799
11.1554
10.8729
10.2338
9.99165
10.0006
10.0413
10.0897
10.1114
10.1174
10.1197
10.1227
10.1258
10.1284
10.13
10.1307
10.1306
10.1299
10.1281
10.125
10.121
10.116
10.1096
10.1015
10.0913
10.0788
10.0638
10.0459
10.0247
9.99984
9.97069
9.93646
9.8961
9.84867
9.79326
9.72864
9.65361
9.56677
9.46649
9.35103
9.2185
9.06702
8.89466
8.69979
8.481
8.2376
7.96899
7.68168
7.36548
1.56347
4.83606
11.2146
10.889
10.1749
9.91283
9.92679
9.97964
10.0368
10.0614
10.0679
10.0706
10.074
10.0773
10.0797
10.0807
10.0806
10.0796
10.0772
10.0731
10.0679
10.0615
10.0538
10.0443
10.0329
10.0194
10.0036
9.98526
9.96399
9.93939
9.91081
9.87767
9.83932
9.79534
9.745
9.68729
9.62136
9.54581
9.45934
9.36073
9.24876
9.12203
8.97934
8.8193
8.64107
8.44397
8.22839
7.9938
7.74448
7.4738
1.55311
4.81295
11.1334
10.834
10.1495
9.8866
9.89741
9.94471
10.0008
10.0254
10.0313
10.0328
10.0349
10.0368
10.0375
10.0372
10.0357
10.0323
10.0275
10.0217
10.0146
10.0061
9.99591
9.98397
9.96999
9.95377
9.93512
9.91375
9.88936
9.86153
9.82983
9.79379
9.75295
9.7066
9.6541
9.5946
9.52731
9.45139
9.36607
9.27024
9.16299
9.04323
8.9099
8.76214
8.59962
8.42227
8.23017
8.02329
7.80483
7.57002
1.5232
4.75468
10.9211
10.7056
10.1392
9.88992
9.88905
9.9171
9.96569
9.98936
9.99537
9.99631
9.99709
9.99746
9.99704
9.99547
9.99199
9.98695
9.98079
9.97344
9.96462
9.95421
9.94199
9.92789
9.91164
9.89315
9.87214
9.84835
9.8215
9.79122
9.75721
9.71898
9.67609
9.62798
9.57416
9.51397
9.44673
9.37175
9.28833
9.19565
9.09296
8.97953
8.8549
8.71869
8.57037
8.40969
8.23681
8.05375
7.86103
7.65509
1.5065
4.70832
10.8333
10.7087
10.2223
9.92798
9.87335
9.89124
9.93026
9.95477
9.96191
9.96174
9.96077
9.95873
9.95595
9.95225
9.94731
9.94108
9.93355
9.92467
9.91421
9.90214
9.88823
9.87244
9.85448
9.83426
9.81145
9.78586
9.75722
9.72522
9.68955
9.64982
9.60569
9.55666
9.50226
9.442
9.37539
9.30189
9.22095
9.13192
9.03426
8.92745
8.81112
8.68496
8.54886
8.40292
8.24748
8.0832
7.91133
7.72888
1.66597
3.27682
10.46
10.9949
10.5835
10.0628
9.87287
9.87646
9.90119
9.93442
9.94545
9.9444
9.94067
9.93455
9.92888
9.9231
9.91633
9.90821
9.89868
9.88769
9.87518
9.86101
9.845
9.82716
9.80723
9.78501
9.76019
9.7327
9.70217
9.66844
9.63114
9.58995
9.54452
9.49451
9.43952
9.37911
9.31304
9.24087
9.16221
9.07664
8.98369
8.88296
8.77424
8.65732
8.53215
8.39889
8.25782
8.10943
7.95488
7.79171
1.67352
3.15012
10.3857
11.1489
10.7039
10.0974
9.85018
9.83628
9.8539
9.88633
9.89712
9.8954
9.88972
9.88074
9.87346
9.86727
9.86064
9.85272
9.84331
9.83239
9.81988
9.80567
9.7896
9.77147
9.7512
9.72857
9.70328
9.67522
9.64411
9.60976
9.57194
9.53041
9.4849
9.43514
9.38088
9.32182
9.2575
9.18759
9.11174
9.02956
8.94077
8.84502
8.74242
8.63333
8.51771
8.39547
8.26671
8.13185
7.9919
7.84475
1.6395
3.03324
9.85279
10.9887
10.633
10.0924
9.86754
9.84603
9.85703
9.87575
9.87782
9.87404
9.86426
9.85132
9.8405
9.83117
9.82176
9.81137
9.79975
9.78685
9.77258
9.75681
9.73936
9.72006
9.69873
9.6752
9.64921
9.62052
9.58893
9.55428
9.51635
9.4749
9.42969
9.38047
9.32697
9.26891
9.20599
9.13795
9.06457
8.98572
8.90134
8.81152
8.71598
8.61443
8.5067
8.39293
8.27386
8.15027
8.02276
7.88923
1.42924
4.53871
10.2875
10.4854
10.1963
9.903
9.7953
9.79278
9.80121
9.81226
9.81264
9.80946
9.80107
9.78962
9.77987
9.77123
9.76222
9.75206
9.74061
9.72785
9.7137
9.69801
9.68063
9.66138
9.64012
9.61666
9.59079
9.56228
9.53111
9.49701
9.45974
9.41907
9.37482
9.32677
9.27471
9.2184
9.15763
9.09224
9.02207
8.94702
8.86699
8.7819
8.69161
8.59606
8.4956
8.39064
8.28131
8.16745
8.05003
7.9276
1.63129
2.9811
9.66221
10.8723
10.5631
10.0626
9.84173
9.80661
9.81189
9.81856
9.81591
9.80704
9.79074
9.77527
9.76199
9.74976
9.73727
9.72376
9.70911
9.69344
9.67666
9.65857
9.63898
9.61772
9.59465
9.5696
9.54252
9.51327
9.48154
9.44709
9.40974
9.36929
9.3256
9.27849
9.22771
9.17306
9.11437
9.05149
8.98426
8.91262
8.8365
8.75587
8.67073
8.58114
8.48729
8.38941
8.28747
8.18202
8.07355
7.96083
1.64008
2.91036
9.65731
11.0005
10.6239
10.0298
9.76979
9.73511
9.74526
9.76135
9.76045
9.75372
9.73842
9.72169
9.7082
9.69647
9.68465
9.67205
9.65838
9.64341
9.62708
9.60932
9.59004
9.5691
9.54637
9.52167
9.49489
9.46585
9.4344
9.40036
9.3636
9.32397
9.28124
9.23521
9.18577
9.13282
9.07622
9.01585
8.95162
8.88344
8.81124
8.73498
8.65469
8.57044
8.48231
8.39039
8.29506
8.19647
8.09529
7.99044
1.63839
2.89098
9.60251
10.9792
10.5987
9.9888
9.71881
9.68224
9.69335
9.71211
9.71179
9.70595
9.69166
9.67443
9.66068
9.64905
9.63743
9.62486
9.61107
9.59599
9.57961
9.56183
9.54255
9.52165
9.499
9.47446
9.44791
9.41921
9.38822
9.3548
9.31881
9.2801
9.23852
9.19391
9.14614
9.09513
9.04079
8.98302
8.9217
8.85677
8.78819
8.71595
8.64008
8.56068
8.47783
8.39168
8.30251
8.21064
8.11639
8.01859
1.62387
2.89936
9.4321
10.8328
10.5291
9.97632
9.71824
9.66902
9.67363
9.6822
9.68004
9.67189
9.65532
9.63895
9.62496
9.61226
9.59947
9.58586
9.5712
9.55541
9.53842
9.52013
9.50044
9.47922
9.45635
9.43172
9.4052
9.37667
9.34598
9.31301
9.27764
9.23975
9.19921
9.15596
9.10988
9.06081
9.00866
8.95338
8.89488
8.8331
8.76799
8.69958
8.62789
8.55299
8.475
8.39407
8.31038
8.22413
8.13558
8.04368
1.38635
4.47136
9.98099
10.2706
9.99394
9.70785
9.60006
9.59068
9.59613
9.60315
9.60238
9.59778
9.58743
9.57523
9.56427
9.55394
9.54311
9.53116
9.51791
9.50331
9.48735
9.46998
9.45114
9.43073
9.40865
9.38481
9.3591
9.33143
9.30172
9.26986
9.23575
9.19928
9.16035
9.11887
9.07473
9.02785
8.97807
8.92536
8.86973
8.81113
8.74955
8.68494
8.61731
8.5467
8.47319
8.39692
8.31804
8.2367
8.15326
8.06676
1.62907
2.92306
9.52001
10.816
10.4781
9.88705
9.61043
9.56655
9.57685
9.59765
9.60002
9.59564
9.58387
9.56707
9.55258
9.53984
9.52696
9.51301
9.49773
9.48107
9.46315
9.44388
9.4233
9.4014
9.37808
9.35317
9.32657
9.2982
9.268
9.2359
9.20187
9.16583
9.12766
9.08725
9.04449
8.99928
8.95157
8.90121
8.84813
8.7923
8.73368
8.67226
8.60804
8.54111
8.47159
8.3996
8.32524
8.24858
8.16988
8.08823
1.6389
3.056
9.79963
10.7457
10.3689
9.75439
9.4896
9.46842
9.4859
9.51981
9.53045
9.52814
9.52059
9.50723
9.49547
9.4852
9.47468
9.46287
9.44953
9.43478
9.41878
9.4014
9.38244
9.36179
9.33943
9.31542
9.28974
9.26233
9.23316
9.20217
9.16928
9.1344
9.09745
9.05836
9.01706
8.97347
8.92753
8.87917
8.82835
8.77503
8.71923
8.66095
8.60015
8.53682
8.471
8.40287
8.33241
8.25976
8.18517
8.10779
1.39658
4.53469
10.0496
10.1221
9.82011
9.51454
9.41579
9.42125
9.44103
9.4619
9.46875
9.4677
9.46369
9.45551
9.4471
9.43884
9.42979
9.41934
9.40732
9.39375
9.37864
9.36196
9.34362
9.32362
9.30195
9.27859
9.25354
9.22676
9.19823
9.16796
9.13592
9.10204
9.06626
9.02851
8.98875
8.9469
8.90291
8.85673
8.8083
8.75758
8.70453
8.64913
8.59145
8.53149
8.46929
8.40479
8.33811
8.26935
8.19869
8.12533
1.38046
4.54499
9.94736
9.98527
9.74868
9.5208
9.44008
9.43758
9.44383
9.45393
9.4566
9.45499
9.45006
9.44121
9.4319
9.42237
9.41193
9.40024
9.38716
9.37267
9.35678
9.33944
9.3206
9.30021
9.27826
9.25471
9.22957
9.20283
9.17448
9.14447
9.11273
9.07922
9.04393
9.00681
8.96782
8.92688
8.88394
8.83906
8.79228
8.74351
8.69265
8.63964
8.58448
8.52718
8.46771
8.40611
8.34251
8.27699
8.2097
8.13989
1.41388
4.55811
10.1603
10.1399
9.76871
9.43293
9.33811
9.35016
9.38202
9.40802
9.4164
9.4156
9.41229
9.40545
9.39769
9.38961
9.38072
9.37044
9.35857
9.34506
9.32992
9.31313
9.29472
9.27467
9.25299
9.22966
9.20469
9.17809
9.14989
9.12006
9.08857
9.05546
9.02074
8.98439
8.94639
8.90674
8.8654
8.82224
8.77717
8.73015
8.68121
8.63035
8.57753
8.52274
8.46598
8.40726
8.34668
8.28424
8.22003
8.15326
1.5291
3.33184
9.82339
10.6761
10.2943
9.6493
9.36239
9.33548
9.35333
9.3901
9.40618
9.40576
9.40249
9.39507
9.3859
9.37706
9.36789
9.35754
9.34563
9.33212
9.31702
9.30034
9.282
9.262
9.24028
9.21687
9.19175
9.16487
9.13646
9.10639
9.0747
9.04144
9.00664
8.9703
8.93243
8.89303
8.85205
8.80945
8.76519
8.71928
8.67169
8.62228
8.57105
8.51806
8.46333
8.40689
8.34871
8.28887
8.22745
8.16373
1.38815
4.5245
10.0109
10.0553
9.75633
9.4332
9.3113
9.30941
9.32079
9.34294
9.35312
9.35308
9.35116
9.34626
9.33899
9.33176
9.32426
9.31566
9.30552
9.29375
9.28033
9.26526
9.24848
9.22994
9.20961
9.18749
9.16355
9.1379
9.11069
9.0819
9.05158
9.01966
8.98613
8.95103
8.91436
8.87614
8.83637
8.79502
8.75209
8.70752
8.66131
8.61353
8.56417
8.51318
8.46054
8.40624
8.35032
8.29284
8.23388
8.17288
1.38588
4.52295
9.99625
10.0429
9.7399
9.41347
9.29276
9.29274
9.30494
9.3284
9.33903
9.33875
9.33627
9.33047
9.32257
9.31471
9.3066
9.29746
9.28687
9.27475
9.26111
9.24593
9.22915
9.21075
9.19068
9.16896
9.1456
9.12056
9.09382
9.0654
9.03534
9.00371
8.9706
8.93601
8.89999
8.86252
8.82358
8.78317
8.74128
8.69791
8.65303
8.60665
8.55876
8.50932
8.45832
8.40577
8.35167
8.29606
8.23899
8.17997
1.52745
3.32241
9.79072
10.6588
10.2774
9.60712
9.29847
9.26108
9.27753
9.31257
9.32941
9.32915
9.32615
9.31927
9.31055
9.30242
9.29444
9.28562
9.27541
9.26368
9.25041
9.23557
9.21912
9.20099
9.18118
9.15956
9.13626
9.1113
9.08463
9.05631
9.0264
8.99496
8.96205
8.92768
8.89186
8.85464
8.81603
8.77604
8.73467
8.69192
8.64778
8.60223
8.55527
8.50688
8.45706
8.4058
8.35312
8.29905
8.24365
8.18648
1.40448
4.53999
10.0819
10.0571
9.67382
9.31918
9.2075
9.21642
9.24534
9.27517
9.28576
9.2852
9.28239
9.27653
9.26991
9.26332
9.25643
9.24857
9.23934
9.22866
9.21649
9.20282
9.1876
9.17077
9.15228
9.13211
9.11025
9.08671
9.06148
9.03457
9.00607
8.97602
8.94447
8.91146
8.87701
8.84115
8.80392
8.7653
8.72528
8.68384
8.64099
8.59674
8.55109
8.50402
8.45555
8.4057
8.35442
8.30179
8.24788
8.19222
1.39355
4.54768
9.98217
9.95036
9.63191
9.35301
9.26617
9.26877
9.28014
9.29099
9.29208
9.28971
9.2838
9.27567
9.26763
9.25948
9.25105
9.24166
9.23118
9.21951
9.20654
9.19226
9.17657
9.15945
9.14082
9.12065
9.09891
9.07561
9.05075
9.02435
8.99638
8.96688
8.93587
8.90338
8.86945
8.83409
8.79735
8.75925
8.71983
8.6791
8.63702
8.59359
8.5488
8.50266
8.45518
8.4063
8.35609
8.30451
8.25161
8.19691
1.38873
4.53997
9.94121
9.91992
9.62204
9.35406
9.26493
9.26277
9.26783
9.27521
9.27483
9.27228
9.26641
9.25822
9.24999
9.24156
9.23322
9.22383
9.21353
9.20221
9.18972
9.17597
9.16085
9.14432
9.1263
9.10677
9.08569
9.06305
9.03886
9.01311
8.98583
8.95702
8.92674
8.89501
8.86188
8.82736
8.79148
8.75423
8.71563
8.67567
8.63437
8.59172
8.54772
8.50237
8.45571
8.40778
8.35851
8.30784
8.25584
8.20202
1.37815
4.50105
9.89425
9.99829
9.69744
9.37087
9.25034
9.24609
9.25419
9.26607
9.26829
9.26604
9.25996
9.25042
9.24096
9.23224
9.2232
9.21347
9.20279
9.19104
9.17814
9.16404
9.14867
9.13196
9.11387
9.09437
9.07342
9.05102
9.02714
9.00179
8.97497
8.9467
8.91699
8.88586
8.85335
8.81945
8.7842
8.7476
8.70966
8.67039
8.62981
8.58791
8.54473
8.50021
8.45432
8.40709
8.35854
8.30869
8.25757
8.20483
1.62499
2.9529
9.47533
10.5901
10.2495
9.62129
9.3083
9.24028
9.24784
9.26631
9.27457
9.27252
9.26553
9.25228
9.24013
9.22978
9.22005
9.2099
9.19882
9.18664
9.17335
9.15893
9.14334
9.1265
9.10837
9.08891
9.06807
9.04583
9.02218
8.9971
8.97059
8.94266
8.91331
8.88256
8.85044
8.81694
8.78208
8.74587
8.70833
8.66946
8.62927
8.58775
8.54493
8.50079
8.45533
8.40857
8.36055
8.31135
8.26099
8.20914
1.63343
2.83045
9.4181
10.8026
10.4011
9.65584
9.28217
9.20085
9.2112
9.2372
9.25316
9.25242
9.24738
9.23581
9.22245
9.21144
9.20179
9.19191
9.18099
9.16888
9.15561
9.14123
9.12571
9.10902
9.0911
9.07191
9.05142
9.02961
9.00646
8.98196
8.95611
8.92891
8.90034
8.87043
8.83916
8.80655
8.7726
8.7373
8.70067
8.66269
8.62338
8.58271
8.5407
8.49735
8.45267
8.40668
8.35941
8.31091
8.26124
8.2101
1.62436
2.93908
9.43915
10.5838
10.245
9.612
9.29182
9.22125
9.22925
9.2495
9.26056
9.25899
9.25263
9.23932
9.22575
9.21423
9.20369
9.19284
9.18106
9.1682
9.1543
9.13935
9.12334
9.10622
9.08794
9.06846
9.04775
9.02581
9.00261
8.97813
8.95238
8.92533
8.89699
8.86734
8.83639
8.80413
8.77056
8.73566
8.69944
8.66189
8.623
8.58278
8.54121
8.49831
8.45407
8.40852
8.36165
8.31351
8.26415
8.21317
1.36273
4.49233
9.83753
9.98087
9.68296
9.34311
9.2135
9.20864
9.21831
9.23394
9.23826
9.23654
9.23101
9.22076
9.21056
9.20082
9.1908
9.17998
9.16816
9.15533
9.1415
9.12665
9.11075
9.09377
9.07567
9.05643
9.03602
9.01442
8.99163
8.96762
8.94239
8.91591
8.88819
8.85918
8.82892
8.79735
8.76448
8.73029
8.69479
8.65794
8.61975
8.5802
8.53929
8.497
8.45337
8.40839
8.36206
8.31441
8.26544
8.2147
1.36798
4.52685
9.86412
9.86402
9.58635
9.31113
9.2234
9.22662
9.23905
9.24976
9.25054
9.24813
9.24168
9.23105
9.22047
9.21006
9.19913
9.18732
9.17458
9.16089
9.14626
9.13065
9.11405
9.09642
9.07773
9.05796
9.0371
9.01512
8.99199
8.96772
8.94227
8.91563
8.8878
8.85875
8.82847
8.79693
8.76414
8.73004
8.69466
8.65794
8.6199
8.58051
8.53978
8.49769
8.45426
8.40948
8.36337
8.31593
8.2672
8.21687
1.39463
4.54827
9.99911
9.94584
9.57103
9.25799
9.17561
9.18804
9.21932
9.24117
9.2448
9.24247
9.23611
9.22603
9.21609
9.20619
9.19556
9.18388
9.17116
9.15746
9.1428
9.12716
9.11053
9.0929
9.07423
9.0545
9.0337
9.0118
8.98879
8.96465
8.93936
8.9129
8.88526
8.85642
8.82635
8.79504
8.76247
8.72861
8.69346
8.65697
8.61915
8.57997
8.53946
8.49756
8.45432
8.40972
8.36379
8.31653
8.26801
8.21798
3.02648
2.43327
2.96348
4.13992
4.09343
4.08334
4.02774
3.99101
3.97757
3.97849
4.00324
4.04484
4.08159
4.11202
4.14498
4.18607
4.23593
4.29233
4.35249
4.41416
4.47556
4.53549
4.59364
4.65008
4.70081
4.74614
4.78597
4.82067
4.85014
4.8746
4.89392
4.90834
4.91793
4.92293
4.92349
4.92193
4.91665
4.90542
4.8899
4.87204
4.8519
4.82941
4.80472
4.77813
4.74989
4.72028
4.68954
4.6579
4.6256
4.59282
4.55977
4.52665
4.49363
4.46091
4.42865
4.39706
4.36631
4.33659
4.3081
4.28103
4.25556
4.23188
4.21016
4.19058
4.17329
4.15839
4.14599
4.13614
4.1289
4.12426
4.12245
4.12259
4.1234
4.12575
4.13106
4.14098
4.15212
4.16352
4.17501
4.18645
4.19758
4.20811
4.21778
4.22638
4.23377
4.23985
4.24457
4.2479
4.25
4.25101
4.25111
4.25097
4.25041
4.24896
4.24596
4.24236
4.23871
4.23494
4.23084
4.22744
4.0735
3.52314
3.72183
4.19725
4.12485
4.06983
4.01539
3.97661
3.96314
3.9732
4.00992
4.05921
4.09204
4.11446
4.14248
4.18156
4.23087
4.28713
4.34714
4.40866
4.46995
4.53
4.58829
4.64444
4.6952
4.74043
4.7803
4.81504
4.8446
4.86914
4.88855
4.90307
4.91272
4.91775
4.91816
4.91704
4.91289
4.90307
4.88614
4.8677
4.84776
4.82563
4.80126
4.77484
4.74675
4.71724
4.6866
4.65505
4.62282
4.59011
4.55712
4.52405
4.49108
4.4584
4.4262
4.39465
4.36395
4.33428
4.30584
4.27881
4.25339
4.22975
4.20807
4.18853
4.17127
4.15642
4.14407
4.13429
4.12726
4.12282
4.12146
4.12166
4.12256
4.12493
4.13014
4.14008
4.15151
4.16329
4.17507
4.18672
4.19802
4.20869
4.21848
4.22717
4.23462
4.24074
4.24548
4.24883
4.25087
4.25185
4.25188
4.25173
4.25115
4.24968
4.2466
4.24282
4.239
4.23529
4.23139
4.22969
5.19902
4.43603
4.20209
4.23406
4.21732
4.16923
4.09244
4.04173
4.02051
4.02214
4.03254
4.05856
4.09422
4.12528
4.15745
4.19656
4.2438
4.29763
4.35545
4.41505
4.47469
4.53323
4.58985
4.64386
4.69366
4.73829
4.77759
4.81171
4.84071
4.86471
4.88369
4.89777
4.90703
4.91165
4.91162
4.91063
4.90715
4.89879
4.88192
4.86248
4.84193
4.81977
4.79558
4.76939
4.74146
4.71208
4.68153
4.65007
4.61792
4.58529
4.55237
4.51937
4.48647
4.45387
4.42173
4.39027
4.35965
4.33007
4.30172
4.27478
4.24945
4.22591
4.20433
4.18488
4.16773
4.153
4.1408
4.13125
4.12453
4.12057
4.11984
4.12009
4.12109
4.12358
4.12897
4.13895
4.15074
4.16307
4.17542
4.18756
4.19925
4.21026
4.22032
4.22922
4.23679
4.24292
4.24756
4.2509
4.2529
4.25381
4.2538
4.25355
4.25283
4.25118
4.24782
4.24361
4.23972
4.23588
4.23265
4.23224
5.80158
5.06819
4.63208
4.43586
4.39753
4.3357
4.24769
4.16981
4.11795
4.09545
4.09701
4.10628
4.12932
4.16647
4.19958
4.23362
4.27319
4.31926
4.37059
4.42509
4.48088
4.53634
4.59028
4.64205
4.68999
4.73338
4.77177
4.80499
4.83322
4.85654
4.87491
4.88844
4.89725
4.90133
4.9012
4.90017
4.89701
4.88959
4.87435
4.85431
4.83294
4.8104
4.78625
4.76031
4.73267
4.70356
4.67326
4.64202
4.61007
4.57764
4.54492
4.5121
4.47939
4.44697
4.41502
4.38374
4.35332
4.32394
4.29579
4.26907
4.24394
4.22061
4.19924
4.18
4.16306
4.14855
4.13663
4.1275
4.12124
4.11785
4.11772
4.11807
4.11924
4.12207
4.128
4.13804
4.15004
4.16289
4.17594
4.18874
4.20098
4.21241
4.22278
4.23189
4.23958
4.24575
4.25047
4.25381
4.25563
4.25616
4.25608
4.25573
4.25481
4.25279
4.24897
4.24464
4.24045
4.23673
4.23388
4.23425
6.20487
5.56978
5.09376
4.80388
4.6553
4.54476
4.43654
4.33743
4.26081
4.21248
4.19119
4.19172
4.19698
4.21162
4.24148
4.2741
4.30968
4.34961
4.39405
4.44215
4.49253
4.54367
4.5941
4.6427
4.68824
4.72981
4.76687
4.79876
4.82597
4.84841
4.86586
4.87859
4.88677
4.8901
4.88987
4.88872
4.88556
4.87851
4.86421
4.84466
4.82294
4.79989
4.77549
4.74958
4.72215
4.69333
4.66332
4.63236
4.60068
4.5685
4.53603
4.50346
4.471
4.43883
4.40715
4.37615
4.346
4.31692
4.28907
4.26266
4.23784
4.21482
4.19376
4.17484
4.15822
4.14411
4.13267
4.12401
4.11813
4.11555
4.11566
4.11623
4.11777
4.12116
4.128
4.13801
4.15009
4.16334
4.17701
4.19049
4.20334
4.21525
4.22596
4.23529
4.2431
4.24932
4.25412
4.25735
4.25892
4.25896
4.25881
4.25827
4.25699
4.25433
4.25036
4.24592
4.24146
4.23763
4.23503
4.23546
6.51226
5.97691
5.52187
5.17763
4.94487
4.77983
4.64494
4.52779
4.43094
4.35886
4.31274
4.2899
4.28735
4.2902
4.30002
4.32159
4.35279
4.38753
4.42476
4.46509
4.50828
4.55329
4.59866
4.64313
4.68546
4.72463
4.75982
4.79047
4.81647
4.83789
4.8543
4.86622
4.87379
4.87635
4.87604
4.87478
4.87155
4.86459
4.85067
4.83206
4.81058
4.78727
4.76257
4.73656
4.70927
4.68073
4.65109
4.6205
4.5892
4.55738
4.52526
4.49305
4.46096
4.42916
4.39787
4.36727
4.33755
4.30889
4.28148
4.2555
4.23115
4.20857
4.18797
4.16954
4.15348
4.1399
4.12895
4.12079
4.11536
4.11381
4.11401
4.1148
4.11676
4.12092
4.12866
4.13885
4.15099
4.16445
4.17851
4.1925
4.20586
4.21818
4.22918
4.2387
4.24665
4.25293
4.2576
4.26071
4.26192
4.26184
4.2615
4.26065
4.25884
4.25563
4.25157
4.24698
4.24231
4.23827
4.23579
4.23636
6.75718
6.30645
5.88873
5.52963
5.24923
5.0383
4.87199
4.73363
4.61772
4.52465
4.45561
4.41005
4.38552
4.37782
4.37908
4.38485
4.39886
4.42581
4.45586
4.48969
4.52636
4.565
4.60462
4.64426
4.68276
4.71901
4.75204
4.78113
4.80591
4.8262
4.8419
4.85293
4.8597
4.8615
4.86113
4.85975
4.85635
4.84918
4.83551
4.8176
4.79658
4.77334
4.74851
4.72242
4.69519
4.66689
4.63761
4.60744
4.57658
4.5452
4.51354
4.48178
4.45015
4.41883
4.38804
4.35795
4.32876
4.30064
4.2738
4.2484
4.22463
4.20267
4.18273
4.16492
4.14946
4.13645
4.12608
4.11852
4.11371
4.11313
4.11343
4.11444
4.11688
4.12191
4.13036
4.14091
4.15316
4.16667
4.18084
4.19504
4.20867
4.22124
4.23246
4.24213
4.25013
4.25641
4.26093
4.26385
4.2647
4.26457