/*--------------------------------*- C++ -*----------------------------------*\
| =========                 |                                                 |
| \\      /  F ield         | OpenFOAM: The Open Source CFD Toolbox           |
|  \\    /   O peration     | Version:  2412                                  |
|   \\  /    A nd           | Website:  www.openfoam.com                      |
|    \\/     M anipulation  |                                                 |
\*---------------------------------------------------------------------------*/
FoamFile
{
    version     2.0;
    format      ascii;
    arch        "LSB;label=32;scalar=64";
    class       surfaceScalarField;
    location    "13";
    object      phi;
}
// * * * * * * * * * * * * * * * * * * * * * * * * * * * * * * * * * * * * * //

dimensions      [1 0 -1 0 0 0 0];

oriented        oriented;

internalField   nonuniform List<scalar> 
13790
(
0.00292944
-1.82897e-07
0.00274312
9.44887e-07
0.00280722
3.58695e-06
0.0028083
5.87418e-06
0.00280216
6.80629e-06
0.00279485
7.58968e-06
0.00278695
8.49658e-06
0.00277804
9.56894e-06
0.00276807
1.07827e-05
0.00275654
1.21417e-05
0.00274329
1.3572e-05
0.00272856
1.5038e-05
0.00271265
1.65407e-05
0.00269555
1.80967e-05
0.00267721
1.97132e-05
0.00265734
2.14008e-05
0.00263557
2.31529e-05
0.00261172
2.49823e-05
0.00258561
2.68916e-05
0.0025574
2.88951e-05
0.00252691
3.10097e-05
0.00249424
3.32415e-05
0.00245925
3.56148e-05
0.00242171
3.81303e-05
0.00238156
4.08079e-05
0.00233858
4.36556e-05
0.00229257
4.66899e-05
0.00224326
4.9915e-05
0.00219054
5.33411e-05
0.00213421
5.69841e-05
0.00207415
6.08498e-05
0.00200986
6.49534e-05
0.00194133
6.92638e-05
0.00186843
7.38366e-05
0.0017905
7.86323e-05
0.00170753
8.36381e-05
0.00161923
8.88363e-05
0.00152577
9.42009e-05
0.00142686
9.97624e-05
0.00132207
0.000105372
0.00121163
0.000110979
0.00109579
0.000116521
0.000974696
0.000121968
0.000848114
0.000127166
0.000716492
0.000131867
0.00058062
0.000136045
0.000441064
0.000139702
0.00029874
0.00014272
0.000152282
0.000147048
0.000152787
0.00303808
4.29958e-08
0.00284474
8.93706e-07
0.00290985
9.26302e-06
0.00291102
1.18716e-05
0.00290505
1.34746e-05
0.00289769
1.52153e-05
0.00288956
1.72393e-05
0.00288031
1.95091e-05
0.0028699
2.2025e-05
0.00285784
2.47789e-05
0.00284404
2.76752e-05
0.00282879
3.06533e-05
0.00281236
3.37104e-05
0.00279472
3.68728e-05
0.00277577
4.01546e-05
0.0027552
4.3579e-05
0.00273261
4.7139e-05
0.00270785
5.08575e-05
0.00268075
5.47421e-05
0.00265149
5.88222e-05
0.0026199
6.31314e-05
0.00258603
6.76808e-05
0.00254976
7.25169e-05
0.00251086
7.76424e-05
0.00246927
8.31015e-05
0.00242472
8.89057e-05
0.002377
9.50845e-05
0.00232586
0.000101653
0.00227126
0.000108637
0.00221287
0.000116064
0.00215058
0.000123935
0.00208391
0.000132293
0.00201289
0.000141088
0.00193729
0.000150414
0.00185643
0.000160176
0.00177037
0.000170377
0.00167881
0.000180996
0.00158184
0.000191948
0.00147916
0.000203274
0.0013704
0.000214708
0.0012558
0.000226182
0.00113552
0.000237548
0.00100967
0.000248692
0.000878088
0.00025931
0.000741176
0.000269016
0.000599688
0.000277715
0.000454252
0.00028529
0.000305722
0.000291663
0.000154124
0.00029926
0.000307433
0.00315102
1.19147e-07
0.0029502
1.29008e-06
0.00301784
1.49664e-05
0.00301899
1.81939e-05
0.00301297
2.02858e-05
0.00300546
2.29363e-05
0.00299709
2.61917e-05
0.00298753
2.97711e-05
0.00297678
3.36578e-05
0.00296431
3.78564e-05
0.00295003
4.22626e-05
0.00293425
4.68041e-05
0.00291725
5.14754e-05
0.00289898
5.63075e-05
0.00287936
6.1316e-05
0.00285806
6.65389e-05
0.00283467
7.19723e-05
0.00280903
7.76453e-05
0.00278098
8.35739e-05
0.00275069
8.98019e-05
0.00271799
9.63798e-05
0.00268294
0.000103325
0.00264542
0.00011071
0.00260516
0.000118536
0.0025621
0.000126873
0.00251599
0.000135734
0.00246661
0.000145172
0.00241369
0.000155204
0.00235716
0.000165874
0.00229672
0.000177218
0.00223223
0.000189246
0.00216321
0.000202017
0.00208968
0.000215463
0.00201138
0.000229725
0.00192758
0.000244648
0.00183843
0.000260245
0.00174355
0.000276521
0.00164302
0.000293294
0.00153647
0.000310632
0.00142364
0.000328134
0.0013047
0.000345795
0.00117975
0.000363288
0.00104892
0.000380398
0.000912018
0.000396768
0.000769525
0.000411747
0.000622128
0.000425306
0.000470523
0.000437064
0.000315775
0.000446843
0.000158488
0.000457188
0.000466461
0.00326818
1.5453e-07
0.00305986
1.78708e-06
0.00313008
2.07398e-05
0.00313129
2.47926e-05
0.00312522
2.73171e-05
0.00311753
3.08234e-05
0.00310886
3.53794e-05
0.00309896
4.03479e-05
0.00308787
4.56612e-05
0.00307497
5.13616e-05
0.00306022
5.73274e-05
0.00304397
6.34817e-05
0.00302647
6.98219e-05
0.00300767
7.63819e-05
0.00298746
8.31769e-05
0.00296546
9.02564e-05
0.00294129
9.7629e-05
0.00291475
0.000105318
0.00288574
0.000113354
0.00285443
0.0001218
0.00282065
0.000130721
0.00278444
0.000140143
0.00274568
0.000150159
0.00270409
0.00016078
0.00265962
0.000172087
0.00261198
0.000184115
0.00256096
0.000196918
0.00250628
0.000210536
0.00244786
0.000225014
0.00238541
0.000240418
0.00231878
0.000256748
0.00224742
0.000274095
0.00217137
0.000292358
0.00209039
0.000311743
0.00200375
0.00033203
0.00191145
0.000353274
0.00181324
0.000375384
0.00170907
0.000398283
0.00159869
0.00042187
0.00148162
0.000445828
0.0013582
0.00046989
0.00122841
0.000493895
0.00109235
0.000517356
0.000949922
0.000539756
0.000801429
0.000560491
0.00064786
0.000579084
0.000489713
0.000595397
0.00032826
0.000608752
0.000164603
0.000621512
0.000631622
0.00338967
1.69787e-07
0.00317361
2.34499e-06
0.0032464
2.662e-05
0.00324765
3.16316e-05
0.00324155
3.46019e-05
0.00323373
3.90054e-05
0.00322474
4.48685e-05
0.0032145
5.12274e-05
0.00320309
5.79869e-05
0.00318978
6.52498e-05
0.00317459
7.28262e-05
0.00315789
8.06467e-05
0.00313995
8.87145e-05
0.00312065
9.70647e-05
0.00309987
0.000105708
0.00307723
0.000114703
0.00305227
0.000124078
0.00302487
0.000133838
0.00299493
0.000144048
0.00296265
0.00015478
0.0029278
0.000166118
0.00289047
0.00017809
0.00285054
0.000190826
0.00280768
0.000204325
0.00276181
0.000218706
0.00271268
0.00023399
0.00266009
0.000250275
0.0026037
0.000267589
0.00254348
0.000286007
0.00247906
0.000305604
0.00241031
0.000326381
0.00233669
0.000348467
0.00225821
0.000371726
0.0021746
0.000396423
0.00208508
0.000422294
0.00198976
0.000449379
0.00188811
0.000477672
0.00178039
0.000506839
0.00166601
0.000537148
0.00154475
0.00056773
0.00141656
0.000598758
0.00128181
0.000629465
0.00114029
0.000659827
0.00099186
0.000688768
0.000837165
0.000715444
0.000676683
0.000739783
0.000511612
0.00076066
0.000342968
0.000777863
0.000171845
0.000793324
0.000804044
0.00351573
8.3904e-08
0.00329159
3.03431e-06
0.00336722
3.24038e-05
0.00336843
3.87395e-05
0.00336211
4.22681e-05
0.00335421
4.77073e-05
0.00334498
5.47678e-05
0.00333448
6.24411e-05
0.00332256
7.06547e-05
0.00330862
7.94797e-05
0.00329295
8.86908e-05
0.00327599
9.82245e-05
0.0032578
0.000108083
0.00323818
0.000118294
0.00321695
0.000128858
0.00319369
0.000139833
0.00316793
0.000151264
0.00313964
0.000163154
0.00310877
0.000175603
0.00307553
0.000188688
0.0030397
0.000202514
0.0030013
0.000217118
0.00296023
0.00023265
0.00291616
0.000249121
0.00286898
0.00026666
0.00281841
0.00028531
0.00276428
0.000305171
0.00270631
0.000326303
0.00264426
0.000348784
0.00257798
0.000372687
0.00250724
0.000398085
0.00243143
0.000425053
0.00235053
0.000453494
0.00226441
0.000483673
0.0021721
0.000515379
0.00207374
0.000548535
0.00196884
0.000583255
0.00185737
0.000619116
0.00173917
0.000656283
0.00161343
0.000694135
0.00148061
0.000732267
0.00134043
0.000770481
0.00119334
0.000807891
0.00103863
0.000844163
0.000876909
0.000877395
0.000709375
0.000907534
0.000536281
0.000933949
0.000359563
0.000955067
0.000180376
0.000973226
0.000985014
0.00364659
-3.58989e-07
0.00341419
4.09462e-06
0.00349368
3.72318e-05
0.00349517
4.57312e-05
0.00348825
5.05432e-05
0.00348013
5.67778e-05
0.00347078
6.49582e-05
0.00346015
7.39759e-05
0.00344767
8.37198e-05
0.00343299
9.41547e-05
0.00341677
0.000105057
0.00339943
0.000116363
0.00338087
0.000128064
0.00336081
0.000140182
0.00333903
0.000152716
0.0033151
0.0001657
0.00328849
0.000179205
0.00325934
0.000193257
0.00322759
0.000207992
0.00319346
0.000223484
0.00315667
0.000239865
0.0031173
0.000257168
0.00307513
0.000275582
0.00302989
0.000295098
0.00298148
0.000315893
0.00292955
0.000337992
0.00287398
0.000361539
0.0028144
0.000386586
0.00275078
0.00041324
0.00268263
0.00044162
0.00261001
0.000471715
0.00253211
0.000503787
0.00244894
0.000537521
0.00236031
0.000573443
0.00226543
0.000611119
0.00216406
0.000650723
0.00205592
0.00069203
0.00194094
0.000734965
0.00181868
0.000779464
0.00168872
0.000824803
0.00155082
0.000870875
0.00140541
0.000916717
0.00125205
0.000962266
0.00109093
0.00100595
0.000921814
0.00104683
0.000745967
0.00108363
0.00056466
0.00111546
0.000378764
0.00114146
0.000189868
0.00116286
0.0011755
0.00378149
-1.23493e-06
0.00354602
1.90581e-06
0.00362658
4.24347e-05
0.00362635
5.41235e-05
0.00361913
5.912e-05
0.00361131
6.6191e-05
0.00360173
7.55128e-05
0.00359043
8.60432e-05
0.00357681
9.74941e-05
0.00356161
0.00010962
0.00354552
0.000122252
0.00352829
0.000135331
0.00350963
0.000148829
0.00348927
0.000162778
0.00346687
0.000177215
0.00344182
0.000192193
0.00341406
0.000207704
0.00338402
0.000223981
0.00335152
0.000241059
0.00331659
0.000259037
0.00327899
0.000278048
0.0032387
0.000298144
0.00319561
0.000319508
0.00314928
0.00034218
0.00309968
0.00036629
0.00304653
0.000391951
0.00298958
0.000419261
0.00292858
0.000448338
0.00286338
0.000479276
0.00279366
0.000512228
0.00271916
0.000547217
0.00263935
0.000584446
0.00255404
0.000623754
0.00246308
0.000665515
0.00236565
0.000709477
0.00226156
0.000755668
0.00215017
0.000804037
0.00203179
0.000854211
0.00190566
0.000906588
0.00177121
0.000959934
0.00162853
0.00101426
0.00147728
0.00106881
0.00131789
0.00112266
0.0011494
0.00117524
0.000972609
0.00122394
0.000787997
0.00126848
0.000596589
0.00130708
0.000400576
0.00133799
0.000201205
0.00136299
0.00137734
0.00391441
-1.60031e-07
0.00367374
4.04167e-06
0.00375474
4.7453e-05
0.00375822
5.95882e-05
0.0037521
6.63764e-05
0.00374481
7.50234e-05
0.00373569
8.57782e-05
0.00372475
9.78481e-05
0.00371191
0.000110993
0.00369736
0.000124885
0.00368149
0.000139284
0.00366395
0.000154136
0.00364447
0.000169454
0.00362284
0.000185317
0.00359897
0.000201736
0.00357301
0.000218805
0.00354467
0.000236568
0.00351413
0.000255164
0.00348102
0.000274701
0.00344548
0.00029525
0.00340715
0.000317
0.00336604
0.00033995
0.00332205
0.000364371
0.00327479
0.000390236
0.00322409
0.000417788
0.00316977
0.00044704
0.00311163
0.000478236
0.00304931
0.000511413
0.00298274
0.000546747
0.0029115
0.000584377
0.00283541
0.000624366
0.00275378
0.000666949
0.00266656
0.000711902
0.0025735
0.000759775
0.00247365
0.000810196
0.00236698
0.00086324
0.00225269
0.000918995
0.00213084
0.000976856
0.00200109
0.00103738
0.00186226
0.00109949
0.00171456
0.00116263
0.00155774
0.00122643
0.00139155
0.00128996
0.0012159
0.00135172
0.00103006
0.00141009
0.000835902
0.00146292
0.000634088
0.00150912
0.000426104
0.0015465
0.000213844
0.00157603
0.00159185
0.00405986
2.13957e-07
0.0038119
4.83406e-06
0.00389598
5.32691e-05
0.00389957
6.63628e-05
0.0038932
7.39909e-05
0.00388485
8.3541e-05
0.00387542
9.59325e-05
0.00386452
0.000109627
0.00385215
0.000124538
0.00383795
0.000140253
0.00382194
0.000156463
0.00380377
0.000173133
0.00378357
0.000190327
0.00376122
0.000208147
0.00373682
0.000226619
0.00371033
0.000245858
0.00368157
0.000265904
0.00365047
0.000286899
0.0036168
0.000308936
0.00358061
0.000332134
0.00354165
0.000356649
0.00349979
0.000382549
0.00345496
0.000410042
0.00340684
0.0004392
0.00335522
0.000470208
0.00329982
0.000503174
0.00324066
0.000538262
0.00317725
0.000575676
0.00310941
0.000615453
0.00303689
0.000657877
0.00295943
0.00070296
0.00287622
0.000751041
0.00278723
0.00080179
0.00269233
0.000855915
0.00259038
0.000913044
0.00248136
0.000973202
0.00236445
0.00103662
0.00223943
0.00110263
0.00210608
0.00117177
0.00196322
0.0012431
0.00181041
0.00131605
0.00164798
0.00138973
0.00147512
0.00146398
0.00129111
0.00153647
0.00109664
0.00160497
0.000891234
0.00166862
0.000676917
0.00172364
0.000455664
0.00176828
0.000229361
0.00180313
0.0018219
0.00421107
2.92676e-07
0.00395424
5.45202e-06
0.00404135
5.95813e-05
0.00404481
7.35863e-05
0.00403855
8.17429e-05
0.00403043
9.23619e-05
0.00402094
0.000106209
0.00400976
0.000121549
0.00399702
0.000138131
0.00398243
0.000155606
0.00396609
0.000173605
0.00394779
0.000192147
0.00392747
0.000211269
0.00390512
0.000231138
0.00388057
0.000251745
0.00385391
0.000273231
0.00382479
0.000295632
0.00379329
0.000319074
0.0037591
0.000343691
0.00372238
0.000369563
0.00368285
0.000396926
0.00364037
0.000425785
0.00359483
0.00045644
0.00354591
0.000488891
0.00349354
0.000523434
0.0034373
0.000560139
0.00337722
0.000599211
0.00331297
0.000640867
0.00324415
0.000685218
0.00317049
0.000732469
0.00309196
0.00078274
0.00300755
0.00083643
0.00291706
0.00089311
0.00282064
0.00095361
0.00271697
0.00101766
0.00260588
0.00108522
0.00248667
0.00115655
0.00235894
0.00123117
0.0022222
0.00130945
0.00207553
0.00139057
0.00191812
0.00147414
0.00174967
0.00155898
0.00157009
0.00164465
0.00137792
0.00172963
0.00117284
0.00181044
0.000956324
0.00188532
0.000728232
0.0019519
0.000491054
0.00200597
0.00024694
0.00204805
0.00206954
0.00436774
3.2749e-07
0.00410135
6.00036e-06
0.0041924
6.56799e-05
0.00419615
8.08458e-05
0.00418985
8.95837e-05
0.00418182
0.000101225
0.00417232
0.000116502
0.0041612
0.00013338
0.00414844
0.000151671
0.00413371
0.000170915
0.0041173
0.000190756
0.00409883
0.000211202
0.00407846
0.000232333
0.00405598
0.000254307
0.00403128
0.000277114
0.00400436
0.000300904
0.00397488
0.000325696
0.00394299
0.000351642
0.00390838
0.000378864
0.00387123
0.000407466
0.00383124
0.00043769
0.00378828
0.000469553
0.00374217
0.000503382
0.00369261
0.000539174
0.00363965
0.000577262
0.00358281
0.00061775
0.00352205
0.000660847
0.00345715
0.000706775
0.0033877
0.000755732
0.0033132
0.000807891
0.00323385
0.000863384
0.00314856
0.000922752
0.00305695
0.000985491
0.00295933
0.00105245
0.00285449
0.00112357
0.00274184
0.0011988
0.0026208
0.00127834
0.00249081
0.00136191
0.00235132
0.00144992
0.00220114
0.00154152
0.00203947
0.00163651
0.00186563
0.00173363
0.00167898
0.0018324
0.00147843
0.00193113
0.00126281
0.00202657
0.00103232
0.00211607
0.000788559
0.00219582
0.00053328
0.00226177
0.00026941
0.00231274
0.00233968
0.00453023
3.53681e-07
0.00425381
6.50531e-06
0.00434909
7.13907e-05
0.00435345
8.78478e-05
0.00434739
9.72365e-05
0.00433956
0.00010987
0.00433025
0.000126574
0.0043193
0.000145022
0.00430666
0.000165054
0.00429205
0.000186148
0.00427562
0.000207891
0.00425715
0.000230309
0.00423668
0.00025351
0.00421409
0.000277636
0.00418918
0.000302698
0.00416198
0.000328808
0.00413222
0.000356037
0.00410004
0.000384492
0.00406515
0.000414361
0.00402769
0.0004457
0.00398734
0.000478809
0.003944
0.000513684
0.00389752
0.000550691
0.0038475
0.000589856
0.00379414
0.000631479
0.003737
0.000675771
0.00367586
0.000722905
0.00361056
0.000773129
0.00354077
0.000826678
0.00346584
0.000883785
0.003386
0.000944495
0.00330038
0.00100957
0.00320816
0.00107845
0.00310979
0.00115197
0.00300423
0.00123023
0.00289078
0.00131328
0.00276841
0.00140144
0.00263696
0.0014941
0.00249531
0.00159258
0.00234241
0.00169518
0.00217699
0.0018026
0.00199812
0.00191326
0.00180506
0.00202662
0.00159576
0.00214145
0.00136909
0.00225367
0.00112491
0.00236047
0.00086299
0.00245783
0.000585751
0.00253951
0.000295807
0.00260352
0.00263623
0.00469877
3.76662e-07
0.00441189
6.96458e-06
0.00451161
7.66113e-05
0.00451679
9.43985e-05
0.00451117
0.000104522
0.00450369
0.000118129
0.00449477
0.000136253
0.00448412
0.000156334
0.00447176
0.000178184
0.00445734
0.000201209
0.00444102
0.000224919
0.00442265
0.000249387
0.00440217
0.000274703
0.00437957
0.000301039
0.00435449
0.00032837
0.00432713
0.000356847
0.00429717
0.000386516
0.00426486
0.000417516
0.00422988
0.000450026
0.00419222
0.000484127
0.00415172
0.000520102
0.0041081
0.000558001
0.00406147
0.00059816
0.00401129
0.000640704
0.00395773
0.000685863
0.00390058
0.000733931
0.00383941
0.000785093
0.00377405
0.000839589
0.00370432
0.000897686
0.00362932
0.000959734
0.00354946
0.00102561
0.0034639
0.00109638
0.00337181
0.00117135
0.00327334
0.00125153
0.00316766
0.00133695
0.00305426
0.00142789
0.00293149
0.00152488
0.00279928
0.00162704
0.0026567
0.00173615
0.00250181
0.00185084
0.00233396
0.00197115
0.00215106
0.00209698
0.0019519
0.00222672
0.0017347
0.00235971
0.0014964
0.00249276
0.00123608
0.00262105
0.000953942
0.00274004
0.000651216
0.00284272
0.000331516
0.00292403
0.0029685
0.0048736
3.93966e-07
0.00457584
7.36461e-06
0.00468029
8.11624e-05
0.00468645
0.000100319
0.00468141
0.00011132
0.00467453
0.000125773
0.00466615
0.000145391
0.004656
0.000167148
0.00464405
0.000190912
0.00462997
0.000215958
0.00461392
0.000241735
0.00459577
0.000268316
0.00457542
0.000295799
0.00455276
0.000324378
0.00452767
0.000354016
0.00450026
0.000384884
0.00447038
0.000417012
0.00443811
0.000450565
0.00440315
0.000485712
0.0043655
0.000522555
0.00432487
0.000561394
0.00428124
0.000602276
0.00423459
0.000645596
0.00418463
0.000691446
0.00413124
0.000740161
0.00407434
0.000791913
0.00401352
0.00084706
0.00394842
0.000905758
0.00387916
0.00096832
0.00380467
0.00103521
0.00372524
0.00110623
0.00364043
0.0011825
0.00354904
0.00126361
0.00345141
0.00135021
0.00334645
0.00144293
0.00323391
0.00154164
0.00311215
0.00164757
0.00298018
0.00175958
0.00283799
0.00187933
0.00268282
0.00200688
0.0025134
0.00214112
0.00232823
0.00228284
0.00212489
0.00243113
0.00190056
0.00258522
0.0016523
0.00274172
0.00137639
0.00289728
0.0010713
0.00304517
0.000737168
0.00317734
0.000376446
0.00328564
0.00334573
0.00505495
3.97284e-07
0.00474586
7.71112e-06
0.00485543
8.47765e-05
0.0048629
0.000105425
0.00485847
0.000117354
0.00485246
0.000132596
0.00484485
0.000153788
0.00483539
0.000177293
0.0048241
0.000203062
0.00481051
0.000230258
0.00479485
0.000258209
0.00477695
0.000286975
0.00475671
0.00031667
0.00473422
0.000347519
0.00470928
0.00037952
0.0046822
0.000412768
0.00465246
0.000447396
0.00462039
0.000483454
0.00458549
0.000521258
0.00454795
0.000560771
0.00450753
0.000602483
0.00446409
0.000646293
0.00441781
0.000692743
0.00436825
0.000741846
0.00431541
0.000794019
0.00425898
0.000849413
0.00419894
0.000908381
0.00413463
0.000971216
0.00406623
0.00103808
0.00399295
0.00110965
0.0039146
0.00118568
0.00383125
0.00126723
0.00374144
0.00135432
0.00364543
0.00144722
0.00354242
0.00154697
0.00343175
0.00165343
0.0033124
0.00176797
0.00318246
0.0018901
0.00304201
0.00202066
0.00288879
0.00216095
0.00272036
0.00231027
0.00253479
0.00246898
0.00232958
0.00263737
0.00210065
0.00281522
0.00184259
0.00300061
0.00155153
0.00318882
0.00122235
0.00337452
0.000852524
0.00354749
0.000442596
0.00369626
0.00378907
0.00524308
4.0154e-07
0.0049222
7.9505e-06
0.00503703
8.74921e-05
0.00504624
0.000109332
0.00504313
0.000122006
0.00503805
0.000138395
0.00503144
0.000161173
0.00502293
0.000186537
0.00501235
0.000214502
0.00499942
0.000243977
0.0049842
0.000274191
0.00496674
0.000305202
0.00494684
0.000337199
0.00492477
0.000370351
0.00490022
0.000404722
0.0048734
0.000440369
0.00484404
0.000477462
0.00481216
0.000516033
0.00477757
0.000556422
0.00474029
0.000598627
0.00470035
0.000643095
0.00465741
0.000689847
0.00461176
0.000739287
0.00456297
0.000791613
0.00451105
0.000847077
0.00445562
0.00090604
0.00439666
0.00096865
0.0043337
0.00103543
0.00426676
0.00110641
0.0041952
0.0011824
0.00411872
0.00126317
0.00403753
0.00134979
0.00395041
0.00144243
0.00385714
0.00154146
0.00375717
0.00164788
0.00364995
0.00176176
0.00353439
0.00188461
0.00340873
0.00201647
0.00327216
0.002158
0.00312334
0.00231078
0.00295914
0.00247515
0.00277684
0.00265171
0.00257357
0.00284154
0.0023455
0.00304427
0.00208492
0.0032622
0.00178204
0.00349211
0.00142874
0.00372801
0.00101584
0.00396092
0.000536078
0.00417685
0.00432589
0.00543823
4.09448e-07
0.00510506
8.04523e-06
0.00522568
8.90982e-05
0.00523666
0.000111597
0.00523546
0.000124984
0.00523196
0.000142608
0.00522675
0.000167177
0.00521941
0.000194645
0.00520975
0.000225023
0.0051976
0.00025695
0.00518301
0.000289539
0.00516604
0.000322892
0.00514668
0.000357207
0.00512507
0.000392736
0.00510098
0.000429467
0.00507463
0.00046754
0.00504561
0.000507054
0.00501415
0.000548121
0.00498006
0.000591041
0.00494331
0.000635897
0.00490406
0.000683042
0.00486196
0.000732654
0.00481727
0.000784986
0.0047696
0.000840391
0.00471897
0.000899001
0.00466506
0.000961304
0.00460768
0.00102737
0.00454655
0.0010978
0.00448169
0.0011726
0.00441259
0.0012527
0.00433883
0.00133788
0.00426072
0.00142913
0.00417721
0.00152693
0.00408822
0.00163152
0.00399283
0.00174422
0.00389053
0.00186498
0.003781
0.00199541
0.0036619
0.00213641
0.00353239
0.00228818
0.00339051
0.00245352
0.00323501
0.00263135
0.00306315
0.00282422
0.00286831
0.00303711
0.00264397
0.00326978
0.00238508
0.00352226
0.00208064
0.00379706
0.0017124
0.00409634
0.00126083
0.00441281
0.000698497
0.00473993
0.00502512
0.00564062
4.04752e-07
0.00529474
8.00261e-06
0.00542197
8.8891e-05
0.00543535
0.000111743
0.00543641
0.000125783
0.00543499
0.000144786
0.00543147
0.00017151
0.00542555
0.000201349
0.00541695
0.000234461
0.00540563
0.00026905
0.00539177
0.000304146
0.00537548
0.000339908
0.00535679
0.000376597
0.00533585
0.000414494
0.00531229
0.000453631
0.00528648
0.000494069
0.005258
0.000536015
0.00522708
0.000579502
0.00519377
0.000624933
0.00515785
0.000672327
0.00511965
0.000722115
0.00507881
0.000774412
0.00503545
0.00082954
0.00498932
0.000887791
0.0049403
0.000949372
0.00488824
0.0010147
0.00483303
0.00108393
0.00477422
0.00115769
0.00471207
0.00123592
0.00464634
0.0013197
0.00457616
0.00140883
0.00450227
0.00150423
0.00442362
0.0016066
0.00434001
0.00171615
0.00425105
0.00183423
0.00415565
0.00196126
0.00405394
0.00209821
0.00394405
0.00224732
0.00382582
0.00240723
0.00369912
0.00258101
0.00355674
0.00277443
0.0033957
0.00298596
0.00321636
0.00321712
0.00301287
0.00347415
0.0027733
0.00376301
0.00248311
0.00408802
0.00212156
0.00445809
0.00164759
0.00488701
0.000995067
0.00539309
0.00602089
0.00585052
3.84308e-07
0.00549151
7.7403e-06
0.00562604
8.64344e-05
0.0056429
0.000108688
0.0056472
0.000123504
0.00564857
0.000144183
0.0056472
0.000173669
0.00564285
0.000206446
0.00563546
0.000242698
0.00562515
0.000280206
0.00561206
0.000317946
0.00559656
0.000356187
0.0055784
0.000395342
0.00555796
0.000435614
0.00553491
0.000477169
0.0055096
0.000519945
0.00548186
0.00056427
0.0054518
0.00061012
0.00541946
0.000657958
0.00538483
0.000707777
0.005348
0.000760059
0.00530864
0.000814845
0.005267
0.000872543
0.00522271
0.000933377
0.00517579
0.000997606
0.00512594
0.00106565
0.00507347
0.00113764
0.00501777
0.00121434
0.00495909
0.00129556
0.00489745
0.00138247
0.00483215
0.00147496
0.00476354
0.00157397
0.00469108
0.00168001
0.00461448
0.00179377
0.00453355
0.00191626
0.00444729
0.00204844
0.0043567
0.0021898
0.00426212
0.00234293
0.00415738
0.00251301
0.00404093
0.00269825
0.00391655
0.00289951
0.00378091
0.00312221
0.0036292
0.0033695
0.00345753
0.00364657
0.00325946
0.00396226
0.00301974
0.00432872
0.00271252
0.00476556
0.00228957
0.00531008
0.00163861
0.00604475
0.00766033
0.00845876
2.04891e-07
0.00793914
7.20639e-06
0.00814046
7.66456e-05
0.00817125
9.74533e-05
0.00818369
0.000114044
0.00819071
0.000138341
0.00819309
0.000172437
0.00819053
0.000210178
0.0081829
0.000251456
0.0081706
0.000293457
0.00815423
0.000335109
0.00813451
0.000376901
0.00811116
0.000419462
0.00808478
0.000463068
0.00805509
0.000507854
0.00802218
0.000553782
0.00798627
0.000601168
0.00794727
0.00065009
0.0079056
0.000700904
0.00786098
0.000753773
0.00781368
0.000808993
0.00776328
0.000866786
0.00771001
0.000927409
0.00765356
0.000991198
0.00759422
0.00105836
0.00753161
0.00112938
0.00746615
0.0012044
0.00739762
0.00128408
0.00732579
0.00136852
0.00725121
0.00145844
0.00717321
0.00155426
0.00709203
0.0016565
0.00700729
0.00176606
0.00691972
0.00188271
0.00682985
0.00200753
0.00673702
0.00214263
0.00663746
0.00229066
0.0065315
0.00245018
0.00642331
0.00262251
0.00631264
0.00281021
0.00619558
0.00301763
0.00607409
0.00324465
0.00594647
0.00349786
0.00581431
0.00377962
0.00568208
0.00409588
0.00555714
0.00445567
0.00546716
0.00485659
0.00548794
0.00528908
0.0058894
0.00564337
0.00547189
0.00807888
0.00846057
1.18672e-07
0.00793866
5.02297e-06
0.00815342
5.39505e-05
0.00819539
7.51619e-05
0.00821802
9.46627e-05
0.00823254
0.000125015
0.00823927
0.000166785
0.00823909
0.000211427
0.00823244
0.000259103
0.00822128
0.000305701
0.0082064
0.000350973
0.00818827
0.000396062
0.00816692
0.000441803
0.00814247
0.000488412
0.00811509
0.000536071
0.00808496
0.000584711
0.00805245
0.000634683
0.0080174
0.000686152
0.00798012
0.000739428
0.00794054
0.000794704
0.00789853
0.000852266
0.00785407
0.000912311
0.00780728
0.000975179
0.0077582
0.00104109
0.007707
0.00111042
0.00765375
0.00118344
0.00759855
0.00126055
0.00754158
0.00134207
0.00748262
0.00142849
0.00742201
0.00152014
0.0073597
0.00161769
0.00729667
0.00172066
0.00723359
0.00183027
0.00716802
0.00194939
0.00709943
0.00207725
0.00702968
0.00221352
0.00696189
0.00235963
0.0068958
0.00251743
0.00683142
0.00268804
0.0067698
0.00287298
0.00671522
0.0030733
0.00666799
0.00329287
0.0066381
0.00352864
0.00662854
0.00378968
0.00665973
0.00406537
0.00675782
0.00435879
0.00696792
0.00464843
0.00736785
0.00489021
0.00798183
0.00502978
0.00467662
0.00877724
0.00846171
1.42114e-07
0.00793767
1.87131e-06
0.00816671
1.79572e-05
0.00822698
3.45571e-05
0.00826533
5.95941e-05
0.00828966
0.000101742
0.00830155
0.000155833
0.00830247
0.000211425
0.00829688
0.000265584
0.00828734
0.000316251
0.00827434
0.000364929
0.00825796
0.000413323
0.00823842
0.000462148
0.00821577
0.000511747
0.00819056
0.00056193
0.00816297
0.000612924
0.0081335
0.000665119
0.00810198
0.000718723
0.00806844
0.000774021
0.00803289
0.000831201
0.00799536
0.000890558
0.00795604
0.000952294
0.00791513
0.00101672
0.00787284
0.00108404
0.00782929
0.00115466
0.00778465
0.00122878
0.00773911
0.00130687
0.00769279
0.00138918
0.00764631
0.00147581
0.00760034
0.00156699
0.00755506
0.00166388
0.00750849
0.00176819
0.00746095
0.00187878
0.00741584
0.00199555
0.00737402
0.00212002
0.00733488
0.00225366
0.00729992
0.00239554
0.00726963
0.00254873
0.00724767
0.00271103
0.00723474
0.00288696
0.0072361
0.00307304
0.00725659
0.00327334
0.00730268
0.00348374
0.00739048
0.00370289
0.00752768
0.00392877
0.00774545
0.00414158
0.00805915
0.00433595
0.00848735
0.00446358
0.00900901
0.00450955
0.0042511
0.00943561
0.00846063
1.2785e-06
0.00794317
-8.70961e-06
0.00822081
-6.65624e-05
0.00830872
-3.39257e-05
0.00835711
1.44369e-05
0.00837798
8.18428e-05
0.00838284
0.000151782
0.00837895
0.000216055
0.00837141
0.000273884
0.00836209
0.000326426
0.00835006
0.000377801
0.00833491
0.000429235
0.00831697
0.000480755
0.00829666
0.000532589
0.00827435
0.000584731
0.0082503
0.000637594
0.00822469
0.000691539
0.0081976
0.000746791
0.00816902
0.00080365
0.00813894
0.000862295
0.00810732
0.000923038
0.008074
0.000986028
0.00803923
0.0010516
0.0080034
0.00111992
0.00796679
0.00119133
0.00792955
0.00126617
0.00789258
0.00134412
0.00785643
0.00142575
0.00782038
0.00151243
0.00778363
0.00160433
0.00774757
0.00170057
0.00771458
0.00180187
0.00768523
0.00190883
0.00765908
0.00202246
0.0076377
0.00214216
0.00762244
0.00226968
0.0076146
0.00240412
0.007617
0.00254703
0.00763079
0.00269801
0.00766175
0.00285681
0.0077103
0.00302527
0.00778641
0.00319805
0.00789165
0.00337923
0.00803888
0.00355671
0.00823604
0.00373246
0.00848969
0.00388869
0.00881232
0.00401407
0.00918838
0.00408854
0.00964328
0.00405609
0.00393252
0.00996324
0.00845136
9.98388e-06
0.00798151
-6.49054e-05
0.0083663
-0.000259875
0.00855027
-0.000198536
0.00858657
-1.90673e-05
0.0085796
8.96394e-05
0.00856333
0.000168761
0.00854766
0.000232446
0.00853506
0.000287195
0.00852196
0.000340123
0.00850573
0.000394563
0.00848657
0.000448881
0.00846524
0.000502519
0.0084427
0.000555468
0.00841881
0.000608939
0.00839359
0.00066308
0.00836716
0.000718129
0.00833982
0.000774346
0.00831167
0.000832015
0.00828283
0.000891374
0.00825344
0.000952686
0.00822352
0.00101618
0.00819328
0.00108209
0.00816309
0.00115043
0.0081335
0.00122135
0.00810474
0.00129539
0.00807561
0.00137371
0.00804621
0.00145561
0.00801824
0.00154086
0.00799294
0.00163013
0.00796996
0.00172404
0.00794984
0.00182249
0.00793317
0.00192602
0.00792175
0.00203437
0.00791587
0.00214866
0.00791846
0.00226763
0.00792971
0.00239358
0.00795392
0.00252339
0.00799158
0.00266093
0.00804848
0.00280053
0.00812741
0.00294717
0.0082328
0.00309334
0.00837186
0.00324099
0.00854592
0.00338333
0.00876539
0.00351394
0.00902672
0.00362809
0.00933422
0.00370745
0.00967756
0.00374589
0.0100222
0.00371253
0.00360191
0.0103541
0.00851923
1.59275e-05
0.00824845
-0.000393771
0.00879488
-0.000593449
0.00889504
-0.000277642
0.00888223
-2.74245e-06
0.00881164
0.000160918
0.00877956
0.000201323
0.00875934
0.000253146
0.008749
0.000298032
0.00873364
0.000355884
0.00871385
0.00041468
0.008692
0.000470992
0.00866919
0.000525526
0.00864529
0.000579455
0.00862049
0.000633807
0.00859471
0.000688854
0.00856779
0.000744926
0.00853993
0.000802035
0.00851119
0.000860534
0.00848184
0.000920529
0.00845184
0.000982483
0.0084217
0.00104619
0.0083919
0.00111188
0.00836242
0.00118003
0.00833259
0.00125145
0.00830327
0.00132501
0.00827607
0.00140122
0.00825175
0.00148023
0.00822975
0.00156311
0.00821122
0.0016489
0.0081963
0.0017392
0.00818641
0.00183262
0.00818161
0.00193114
0.00818359
0.00203273
0.0081928
0.00213984
0.00821104
0.00224981
0.00823977
0.00236532
0.00828063
0.00248304
0.00833694
0.00260508
0.00840949
0.00272845
0.00850474
0.00285245
0.00862252
0.00297621
0.00877047
0.00309374
0.00894811
0.00320638
0.00916073
0.00330207
0.0094072
0.00338238
0.00968458
0.00343088
0.00998894
0.00344234
0.0102908
0.0034114
0.0033118
0.0105819