/*--------------------------------*- C++ -*----------------------------------*\
| =========                 |                                                 |
| \\      /  F ield         | OpenFOAM: The Open Source CFD Toolbox           |
|  \\    /   O peration     | Version:  2412                                  |
|   \\  /    A nd           | Website:  www.openfoam.com                      |
|    \\/     M anipulation  |                                                 |
\*---------------------------------------------------------------------------*/
FoamFile
{
    version     2.0;
    format      ascii;
    arch        "LSB;label=32;scalar=64";
    class       volVectorField;
    location    "13";
    object      U;
}
// * * * * * * * * * * * * * * * * * * * * * * * * * * * * * * * * * * * * * //

dimensions      [0 1 -1 0 0 0 0];

internalField   nonuniform List<vector> 
7000
(
(2.58785 -6.83737e-05 0)
(1.61041 0.000179311 0)
(0.490309 0.00023303 0)
(0.554452 0.000371583 0)
(0.656415 0.000470952 0)
(0.721268 0.000557051 0)
(0.73402 0.000633335 0)
(0.727154 0.000712212 0)
(0.717255 0.000799214 0)
(0.709685 0.000897266 0)
(0.705239 0.00100297 0)
(0.701622 0.00111281 0)
(0.697455 0.00122585 0)
(0.692505 0.00134264 0)
(0.686934 0.00146379 0)
(0.680868 0.0015897 0)
(0.67433 0.00172011 0)
(0.667295 0.00185589 0)
(0.659729 0.00199732 0)
(0.651613 0.00214555 0)
(0.642929 0.00230168 0)
(0.633653 0.0024667 0)
(0.623763 0.00264167 0)
(0.613229 0.00282763 0)
(0.60202 0.00302553 0)
(0.590104 0.00323625 0)
(0.577448 0.00346076 0)
(0.564014 0.00370011 0)
(0.549765 0.00395525 0)
(0.534664 0.00422698 0)
(0.518672 0.00451623 0)
(0.501755 0.00482393 0)
(0.483865 0.00515072 0)
(0.464972 0.00549721 0)
(0.445048 0.00586422 0)
(0.424041 0.00625186 0)
(0.401929 0.00665967 0)
(0.378677 0.00708747 0)
(0.354287 0.00753474 0)
(0.328748 0.00799867 0)
(0.302031 0.00847543 0)
(0.274165 0.0089616 0)
(0.245215 0.00945336 0)
(0.215286 0.00994347 0)
(0.184389 0.0104236 0)
(0.152589 0.0108887 0)
(0.120031 0.0113423 0)
(0.0869446 0.0117772 0)
(0.0514176 0.0123747 0)
(0.0223835 0.0132717 0)
(2.58798 -4.11288e-05 0)
(1.61059 0.000355625 0)
(0.490024 0.000894938 0)
(0.554205 0.00119927 0)
(0.656192 0.00144652 0)
(0.721059 0.00169202 0)
(0.733813 0.00192833 0)
(0.726951 0.00217254 0)
(0.717057 0.00243932 0)
(0.709488 0.00273499 0)
(0.705038 0.00305106 0)
(0.701413 0.00337767 0)
(0.69724 0.0037117 0)
(0.692286 0.00405454 0)
(0.686716 0.00440822 0)
(0.680654 0.00477467 0)
(0.674124 0.00515415 0)
(0.667098 0.00554899 0)
(0.659543 0.00596031 0)
(0.651437 0.00639096 0)
(0.642764 0.00684339 0)
(0.633498 0.0073199 0)
(0.623616 0.00782273 0)
(0.613091 0.00835412 0)
(0.60189 0.00891623 0)
(0.589982 0.00951108 0)
(0.577332 0.0101407 0)
(0.563906 0.0108069 0)
(0.549663 0.0115112 0)
(0.534568 0.012255 0)
(0.518582 0.0130393 0)
(0.501669 0.0138649 0)
(0.483782 0.0147318 0)
(0.464892 0.0156391 0)
(0.444969 0.0165857 0)
(0.423959 0.0175689 0)
(0.401844 0.0185841 0)
(0.378586 0.0196255 0)
(0.354185 0.0206859 0)
(0.32863 0.0217536 0)
(0.301891 0.0228144 0)
(0.273999 0.0238523 0)
(0.245009 0.0248496 0)
(0.21502 0.0257836 0)
(0.184039 0.0266319 0)
(0.15213 0.0273755 0)
(0.119424 0.0280103 0)
(0.0861911 0.0285229 0)
(0.0504675 0.029189 0)
(0.0214266 0.029999 0)
(2.58811 5.77386e-05 0)
(1.61091 0.000412247 0)
(0.490246 0.00171969 0)
(0.554239 0.00208021 0)
(0.656212 0.00242312 0)
(0.721086 0.00282506 0)
(0.733851 0.00324669 0)
(0.727008 0.00367909 0)
(0.71714 0.00414143 0)
(0.709594 0.0046437 0)
(0.705159 0.0051775 0)
(0.701545 0.00573004 0)
(0.69738 0.00629679 0)
(0.692436 0.00687936 0)
(0.686877 0.00748058 0)
(0.680827 0.00810392 0)
(0.674307 0.00875056 0)
(0.667293 0.00942378 0)
(0.659751 0.0101258 0)
(0.651661 0.0108614 0)
(0.643004 0.0116346 0)
(0.633756 0.0124495 0)
(0.623894 0.0133101 0)
(0.613391 0.0142201 0)
(0.602212 0.0151835 0)
(0.590329 0.0162041 0)
(0.577705 0.0172852 0)
(0.564304 0.0184301 0)
(0.550089 0.0196419 0)
(0.535022 0.020923 0)
(0.519064 0.0222758 0)
(0.502179 0.0237014 0)
(0.484319 0.0252005 0)
(0.465456 0.0267723 0)
(0.445556 0.0284149 0)
(0.424567 0.030124 0)
(0.402467 0.0318933 0)
(0.37922 0.0337138 0)
(0.354821 0.0355713 0)
(0.329255 0.0374484 0)
(0.302495 0.0393233 0)
(0.274567 0.0411698 0)
(0.245521 0.0429539 0)
(0.21545 0.044641 0)
(0.184359 0.0461977 0)
(0.152314 0.0475899 0)
(0.119438 0.0488022 0)
(0.0860645 0.0498091 0)
(0.0501914 0.0508843 0)
(0.0209716 0.0519529 0)
(2.5883 7.18836e-05 0)
(1.6114 0.000567762 0)
(0.490692 0.00253184 0)
(0.554317 0.00296149 0)
(0.656278 0.00340036 0)
(0.721178 0.00396354 0)
(0.733961 0.00458645 0)
(0.72714 0.005222 0)
(0.717303 0.00589021 0)
(0.709789 0.00660824 0)
(0.705376 0.00736853 0)
(0.701778 0.00815617 0)
(0.69763 0.00896489 0)
(0.692705 0.00979572 0)
(0.687168 0.0106517 0)
(0.681142 0.011538 0)
(0.674649 0.0124579 0)
(0.667663 0.0134147 0)
(0.66015 0.0144126 0)
(0.652092 0.0154585 0)
(0.643468 0.0165579 0)
(0.634256 0.0177166 0)
(0.624433 0.0189402 0)
(0.613969 0.0202343 0)
(0.602832 0.0216044 0)
(0.590992 0.0230556 0)
(0.578414 0.024593 0)
(0.565061 0.0262214 0)
(0.550895 0.0279452 0)
(0.535879 0.0297683 0)
(0.519973 0.0316932 0)
(0.50314 0.0337227 0)
(0.485333 0.0358583 0)
(0.46652 0.0380986 0)
(0.446668 0.0404407 0)
(0.425723 0.0428807 0)
(0.403661 0.0454087 0)
(0.380442 0.0480143 0)
(0.35606 0.0506758 0)
(0.330496 0.0533711 0)
(0.30372 0.0560704 0)
(0.275752 0.058738 0)
(0.246639 0.0613271 0)
(0.216469 0.0637852 0)
(0.185246 0.0660732 0)
(0.153036 0.068137 0)
(0.11996 0.0699481 0)
(0.0864088 0.0714612 0)
(0.05034 0.0729142 0)
(0.0208145 0.0741552 0)
(2.58856 8.78176e-05 0)
(1.61209 0.000768546 0)
(0.49129 0.00336849 0)
(0.554373 0.00389313 0)
(0.656324 0.00443926 0)
(0.721268 0.00517146 0)
(0.734073 0.00600237 0)
(0.727272 0.0068453 0)
(0.717476 0.00771998 0)
(0.710007 0.0086558 0)
(0.705633 0.00964388 0)
(0.702066 0.0106689 0)
(0.697947 0.0117242 0)
(0.693054 0.01281 0)
(0.687551 0.013929 0)
(0.681563 0.0150873 0)
(0.67511 0.0162909 0)
(0.668164 0.0175417 0)
(0.660695 0.0188464 0)
(0.652684 0.0202141 0)
(0.644111 0.021652 0)
(0.634953 0.0231677 0)
(0.625185 0.0247685 0)
(0.61478 0.0264618 0)
(0.603706 0.0282546 0)
(0.591932 0.030154 0)
(0.579422 0.0321664 0)
(0.566141 0.0342982 0)
(0.55205 0.0365551 0)
(0.537111 0.0389423 0)
(0.521284 0.0414638 0)
(0.504532 0.0441226 0)
(0.486806 0.0469215 0)
(0.468072 0.0498588 0)
(0.448296 0.0529307 0)
(0.427421 0.0561329 0)
(0.405422 0.0594535 0)
(0.382253 0.0628764 0)
(0.357904 0.0663775 0)
(0.332353 0.0699264 0)
(0.305565 0.0734862 0)
(0.277553 0.0770076 0)
(0.248355 0.080433 0)
(0.21806 0.083692 0)
(0.18667 0.0867294 0)
(0.154249 0.0894772 0)
(0.120913 0.0918821 0)
(0.0871205 0.0938719 0)
(0.0507689 0.0956405 0)
(0.0208228 0.0969815 0)
(2.58893 7.73209e-05 0)
(1.61303 0.000996025 0)
(0.492077 0.00418188 0)
(0.55445 0.00480988 0)
(0.656387 0.0054553 0)
(0.721378 0.00635434 0)
(0.734184 0.00739281 0)
(0.727381 0.00845248 0)
(0.717621 0.00955246 0)
(0.71021 0.0107277 0)
(0.705891 0.0119633 0)
(0.702375 0.0132423 0)
(0.698306 0.0145574 0)
(0.693462 0.0159092 0)
(0.688011 0.0173004 0)
(0.682078 0.0187383 0)
(0.675681 0.0202333 0)
(0.668793 0.0217863 0)
(0.661386 0.0234079 0)
(0.653441 0.0251081 0)
(0.644937 0.0268955 0)
(0.635851 0.0287798 0)
(0.62616 0.03077 0)
(0.615835 0.0328752 0)
(0.604845 0.0351045 0)
(0.593159 0.0374663 0)
(0.580741 0.039969 0)
(0.567557 0.0426206 0)
(0.553566 0.0454286 0)
(0.538733 0.0483994 0)
(0.523014 0.051539 0)
(0.506372 0.0548506 0)
(0.488758 0.0583387 0)
(0.470134 0.0620018 0)
(0.450465 0.0658366 0)
(0.429693 0.0698362 0)
(0.407785 0.0739898 0)
(0.384693 0.0782758 0)
(0.360399 0.0826657 0)
(0.334879 0.0871238 0)
(0.308086 0.0916026 0)
(0.280029 0.096043 0)
(0.250733 0.100369 0)
(0.220286 0.1045 0)
(0.188684 0.108353 0)
(0.155992 0.111841 0)
(0.122322 0.114889 0)
(0.0881793 0.117386 0)
(0.0514276 0.11947 0)
(0.020965 0.120887 0)
(2.58941 -3.95237e-05 0)
(1.61428 0.00142679 0)
(0.493151 0.00512175 0)
(0.554732 0.00599424 0)
(0.656681 0.00672147 0)
(0.721767 0.00775246 0)
(0.734598 0.00895154 0)
(0.727798 0.0101831 0)
(0.71807 0.0114777 0)
(0.710702 0.0128686 0)
(0.706414 0.0143388 0)
(0.702922 0.0158697 0)
(0.698878 0.0174508 0)
(0.694063 0.0190804 0)
(0.688649 0.0207582 0)
(0.682765 0.0224906 0)
(0.676424 0.0242892 0)
(0.669599 0.0261536 0)
(0.662265 0.0281018 0)
(0.654398 0.030144 0)
(0.645978 0.0322911 0)
(0.636982 0.0345548 0)
(0.627386 0.0369462 0)
(0.617161 0.039476 0)
(0.606276 0.0421552 0)
(0.594701 0.044994 0)
(0.5824 0.0480027 0)
(0.569338 0.0511909 0)
(0.555477 0.0545681 0)
(0.540777 0.0581423 0)
(0.525197 0.0619209 0)
(0.508699 0.0659093 0)
(0.49123 0.0701126 0)
(0.47275 0.0745306 0)
(0.453223 0.0791602 0)
(0.432588 0.0839946 0)
(0.410805 0.0890209 0)
(0.387821 0.0942184 0)
(0.363611 0.0995495 0)
(0.338141 0.104975 0)
(0.31136 0.110441 0)
(0.283259 0.115871 0)
(0.253858 0.121179 0)
(0.223227 0.126261 0)
(0.191371 0.131016 0)
(0.158343 0.13533 0)
(0.124243 0.13909 0)
(0.0896417 0.142151 0)
(0.052331 0.144595 0)
(0.0212048 0.146119 0)
(2.59016 -0.000447411 0)
(1.61605 0.00104219 0)
(0.49472 0.00554138 0)
(0.555199 0.00683874 0)
(0.657147 0.00781729 0)
(0.722398 0.00907271 0)
(0.73527 0.0104742 0)
(0.728452 0.0119324 0)
(0.718709 0.0134788 0)
(0.711316 0.0151243 0)
(0.706996 0.0168532 0)
(0.703481 0.0186471 0)
(0.699437 0.0204945 0)
(0.694652 0.0223937 0)
(0.689296 0.0243484 0)
(0.683491 0.0263662 0)
(0.677242 0.0284583 0)
(0.670518 0.0306377 0)
(0.663293 0.0329176 0)
(0.655538 0.0353095 0)
(0.647233 0.0378261 0)
(0.638355 0.0404805 0)
(0.628879 0.0432853 0)
(0.61878 0.0462527 0)
(0.608026 0.0493954 0)
(0.596587 0.0527258 0)
(0.584431 0.0562557 0)
(0.57152 0.0599972 0)
(0.557818 0.0639615 0)
(0.543284 0.0681587 0)
(0.527878 0.072598 0)
(0.511558 0.0772872 0)
(0.494271 0.0822329 0)
(0.475975 0.0874363 0)
(0.456629 0.092895 0)
(0.436169 0.0986044 0)
(0.414552 0.104548 0)
(0.391712 0.110708 0)
(0.367618 0.117041 0)
(0.342229 0.123501 0)
(0.315477 0.130029 0)
(0.287344 0.136539 0)
(0.257828 0.142919 0)
(0.226994 0.149056 0)
(0.19483 0.154816 0)
(0.161394 0.160052 0)
(0.126762 0.164626 0)
(0.0915483 0.168338 0)
(0.053524 0.171202 0)
(0.0215857 0.172866 0)
(2.59026 -0.00037242 0)
(1.61821 0.00100814 0)
(0.494435 0.00626605 0)
(0.553844 0.00775452 0)
(0.655902 0.00896969 0)
(0.721402 0.0104457 0)
(0.734436 0.01205 0)
(0.72778 0.0137312 0)
(0.718224 0.0155233 0)
(0.711032 0.0174158 0)
(0.706917 0.0193951 0)
(0.703603 0.0214438 0)
(0.699752 0.0235535 0)
(0.695151 0.025724 0)
(0.689965 0.0279645 0)
(0.684317 0.0302815 0)
(0.678218 0.0326852 0)
(0.671639 0.0351966 0)
(0.664549 0.0378242 0)
(0.656927 0.040582 0)
(0.648756 0.0434836 0)
(0.640014 0.0465435 0)
(0.630679 0.0497757 0)
(0.620727 0.0531946 0)
(0.610128 0.0568146 0)
(0.598853 0.0606506 0)
(0.586868 0.0647171 0)
(0.574141 0.0690274 0)
(0.56063 0.0735961 0)
(0.546299 0.0784354 0)
(0.531103 0.0835568 0)
(0.515002 0.0889703 0)
(0.497941 0.0946856 0)
(0.479872 0.100705 0)
(0.460753 0.107029 0)
(0.440514 0.113655 0)
(0.419108 0.120566 0)
(0.396459 0.127743 0)
(0.372522 0.135146 0)
(0.347249 0.142719 0)
(0.320559 0.150398 0)
(0.292406 0.158089 0)
(0.26278 0.16566 0)
(0.231717 0.172971 0)
(0.199197 0.179871 0)
(0.165266 0.186168 0)
(0.129991 0.191674 0)
(0.0940147 0.196143 0)
(0.0550489 0.199519 0)
(0.0220849 0.201377 0)
(2.59108 6.4136e-05 0)
(1.62049 0.00173408 0)
(0.496239 0.00733107 0)
(0.554138 0.00878258 0)
(0.656135 0.0101045 0)
(0.721776 0.0117514 0)
(0.734896 0.0135851 0)
(0.728314 0.0154915 0)
(0.718841 0.0175229 0)
(0.711723 0.0196651 0)
(0.707675 0.0219004 0)
(0.704428 0.0242126 0)
(0.700653 0.0265981 0)
(0.69614 0.0290592 0)
(0.691052 0.0316049 0)
(0.685509 0.0342421 0)
(0.679523 0.0369818 0)
(0.673064 0.039839 0)
(0.666102 0.042828 0)
(0.658614 0.045964 0)
(0.650584 0.0492622 0)
(0.641993 0.0527387 0)
(0.632817 0.0564094 0)
(0.623034 0.060291 0)
(0.612616 0.0644004 0)
(0.601532 0.0687547 0)
(0.589751 0.0733711 0)
(0.57724 0.0782653 0)
(0.563959 0.0834544 0)
(0.549869 0.0889541 0)
(0.534926 0.0947783 0)
(0.519089 0.100939 0)
(0.5023 0.107451 0)
(0.484509 0.11432 0)
(0.465671 0.121545 0)
(0.445708 0.129131 0)
(0.424567 0.137062 0)
(0.402166 0.145319 0)
(0.37844 0.153864 0)
(0.353331 0.162641 0)
(0.326744 0.171575 0)
(0.298604 0.180566 0)
(0.268873 0.189467 0)
(0.237572 0.198108 0)
(0.204649 0.206315 0)
(0.170137 0.213853 0)
(0.134063 0.220471 0)
(0.0971286 0.225854 0)
(0.0570053 0.229856 0)
(0.0227801 0.231967 0)
(2.59198 0.000137919 0)
(1.62284 0.00192286 0)
(0.498022 0.00804515 0)
(0.55431 0.00959853 0)
(0.656301 0.0110784 0)
(0.722078 0.0129406 0)
(0.735252 0.0150474 0)
(0.728724 0.0172253 0)
(0.719359 0.0195315 0)
(0.71236 0.0219523 0)
(0.708436 0.0244646 0)
(0.705316 0.0270559 0)
(0.701671 0.029726 0)
(0.69729 0.0324815 0)
(0.692335 0.0353323 0)
(0.686925 0.0382888 0)
(0.681074 0.0413636 0)
(0.674754 0.0445717 0)
(0.667937 0.0479286 0)
(0.660601 0.0514505 0)
(0.652733 0.0551535 0)
(0.644313 0.0590553 0)
(0.63532 0.0631738 0)
(0.625732 0.0675281 0)
(0.615522 0.0721373 0)
(0.604661 0.0770209 0)
(0.593118 0.0821992 0)
(0.58086 0.0876909 0)
(0.567848 0.0935151 0)
(0.554043 0.0996915 0)
(0.5394 0.106238 0)
(0.523878 0.113168 0)
(0.507417 0.120503 0)
(0.489962 0.128251 0)
(0.471465 0.136417 0)
(0.451846 0.145006 0)
(0.431037 0.154013 0)
(0.408952 0.163418 0)
(0.385509 0.173187 0)
(0.360628 0.183268 0)
(0.334201 0.193578 0)
(0.306124 0.204012 0)
(0.276316 0.214414 0)
(0.244775 0.224583 0)
(0.211415 0.234311 0)
(0.176226 0.243313 0)
(0.139221 0.251269 0)
(0.101098 0.257782 0)
(0.0594785 0.262595 0)
(0.0236593 0.265059 0)
(2.59305 0.000165088 0)
(1.62549 0.00214644 0)
(0.500036 0.00897422 0)
(0.554564 0.0106822 0)
(0.656604 0.0122865 0)
(0.72259 0.0143274 0)
(0.735861 0.0166495 0)
(0.729406 0.0190485 0)
(0.720158 0.0215874 0)
(0.713284 0.0242533 0)
(0.709481 0.0270245 0)
(0.706485 0.0298897 0)
(0.702968 0.0328496 0)
(0.698718 0.0359107 0)
(0.693897 0.039082 0)
(0.688624 0.0423741 0)
(0.682915 0.0457993 0)
(0.676744 0.0493723 0)
(0.670084 0.0531086 0)
(0.662917 0.057026 0)
(0.655229 0.0611424 0)
(0.647002 0.0654776 0)
(0.638218 0.0700519 0)
(0.628853 0.074887 0)
(0.618881 0.080005 0)
(0.608277 0.0854274 0)
(0.597009 0.0911776 0)
(0.585043 0.0972779 0)
(0.572345 0.10375 0)
(0.558873 0.110618 0)
(0.544582 0.117903 0)
(0.529431 0.125624 0)
(0.513362 0.133805 0)
(0.496311 0.142462 0)
(0.478227 0.151605 0)
(0.459029 0.161245 0)
(0.438638 0.171383 0)
(0.416954 0.18201 0)
(0.393883 0.193092 0)
(0.36932 0.204586 0)
(0.343135 0.216411 0)
(0.315198 0.228456 0)
(0.285374 0.240563 0)
(0.253609 0.252502 0)
(0.219791 0.264025 0)
(0.183842 0.274812 0)
(0.145711 0.284438 0)
(0.106142 0.292386 0)
(0.0626827 0.298249 0)
(0.0248609 0.301198 0)
(2.59426 0.000180367 0)
(1.6285 0.00234576 0)
(0.502293 0.00983524 0)
(0.554832 0.0116747 0)
(0.656978 0.0133939 0)
(0.723259 0.0156128 0)
(0.736682 0.0181613 0)
(0.730332 0.0207953 0)
(0.721229 0.0235903 0)
(0.714491 0.0265266 0)
(0.710814 0.0295794 0)
(0.707939 0.0327378 0)
(0.704547 0.0360036 0)
(0.700428 0.0393824 0)
(0.695743 0.0428836 0)
(0.690613 0.0465184 0)
(0.685056 0.0502994 0)
(0.679047 0.0542419 0)
(0.672562 0.0583626 0)
(0.665583 0.0626804 0)
(0.658097 0.0672155 0)
(0.650089 0.0719897 0)
(0.64154 0.077026 0)
(0.632428 0.0823481 0)
(0.622728 0.0879814 0)
(0.612416 0.0939498 0)
(0.601462 0.10028 0)
(0.589834 0.106997 0)
(0.577497 0.114127 0)
(0.564412 0.121697 0)
(0.550532 0.129735 0)
(0.535817 0.138264 0)
(0.520209 0.147312 0)
(0.50364 0.156905 0)
(0.486056 0.16706 0)
(0.46737 0.177795 0)
(0.447498 0.18912 0)
(0.426322 0.201043 0)
(0.403736 0.213535 0)
(0.379613 0.226562 0)
(0.353788 0.240061 0)
(0.3261 0.253914 0)
(0.296359 0.267965 0)
(0.264441 0.281974 0)
(0.230181 0.295644 0)
(0.193424 0.308609 0)
(0.15401 0.320345 0)
(0.112653 0.330178 0)
(0.066822 0.337493 0)
(0.0264142 0.341151 0)
(2.59563 0.000193435 0)
(1.63189 0.00253174 0)
(0.504812 0.010639 0)
(0.555105 0.0126209 0)
(0.657391 0.0144736 0)
(0.724033 0.016877 0)
(0.737648 0.019658 0)
(0.73143 0.0225343 0)
(0.722498 0.025594 0)
(0.715914 0.0288075 0)
(0.712376 0.0321472 0)
(0.709636 0.0356032 0)
(0.706382 0.0391799 0)
(0.702406 0.0428821 0)
(0.697871 0.0467189 0)
(0.6929 0.0507017 0)
(0.687512 0.0548435 0)
(0.681684 0.0591601 0)
(0.675394 0.0636692 0)
(0.668626 0.0683916 0)
(0.661367 0.0733493 0)
(0.653604 0.0785666 0)
(0.645318 0.084069 0)
(0.636491 0.0898825 0)
(0.627098 0.0960351 0)
(0.617117 0.102554 0)
(0.60652 0.109468 0)
(0.595276 0.116808 0)
(0.583352 0.124602 0)
(0.570712 0.132882 0)
(0.557308 0.141682 0)
(0.5431 0.151031 0)
(0.528034 0.160964 0)
(0.512038 0.171515 0)
(0.495053 0.182711 0)
(0.476989 0.194583 0)
(0.457757 0.207151 0)
(0.437228 0.220443 0)
(0.415268 0.234444 0)
(0.391743 0.249133 0)
(0.366445 0.264473 0)
(0.339171 0.28036 0)
(0.309674 0.296645 0)
(0.277731 0.31309 0)
(0.243102 0.329375 0)
(0.205514 0.345068 0)
(0.164652 0.359543 0)
(0.121171 0.371916 0)
(0.0723802 0.381267 0)
(0.0285989 0.385991 0)
(2.59715 0.000204631 0)
(1.63567 0.00269946 0)
(0.507611 0.0113652 0)
(0.555401 0.0134991 0)
(0.657848 0.0154976 0)
(0.724911 0.0180722 0)
(0.738759 0.0210868 0)
(0.732702 0.024211 0)
(0.723971 0.0275476 0)
(0.717562 0.0310529 0)
(0.714178 0.0346937 0)
(0.711589 0.0384607 0)
(0.708489 0.0423595 0)
(0.704672 0.0463949 0)
(0.700304 0.0505759 0)
(0.695509 0.0549138 0)
(0.690308 0.0594216 0)
(0.684681 0.0641164 0)
(0.678608 0.0690174 0)
(0.672074 0.0741474 0)
(0.665067 0.0795304 0)
(0.657576 0.0851933 0)
(0.649584 0.0911634 0)
(0.641074 0.0974696 0)
(0.632026 0.104142 0)
(0.622416 0.111212 0)
(0.612221 0.118711 0)
(0.601412 0.126672 0)
(0.589958 0.135132 0)
(0.577825 0.144123 0)
(0.56497 0.153688 0)
(0.55135 0.163864 0)
(0.536916 0.174689 0)
(0.521596 0.186213 0)
(0.505325 0.198473 0)
(0.488012 0.211515 0)
(0.469567 0.225377 0)
(0.44985 0.240098 0)
(0.4287 0.255706 0)
(0.405974 0.272193 0)
(0.381433 0.289553 0)
(0.354812 0.307722 0)
(0.32581 0.326569 0)
(0.294094 0.345882 0)
(0.25929 0.365349 0)
(0.220981 0.384492 0)
(0.178596 0.402578 0)
(0.132578 0.418509 0)
(0.0799516 0.430901 0)
(0.0316144 0.437365 0)
(2.59882 0.00020998 0)
(1.63984 0.00284679 0)
(0.510696 0.011981 0)
(0.555748 0.0142788 0)
(0.65836 0.0164347 0)
(0.7259 0.0191661 0)
(0.740038 0.0224264 0)
(0.734177 0.0258079 0)
(0.725682 0.0294353 0)
(0.719468 0.0332495 0)
(0.716252 0.0372067 0)
(0.713828 0.0412967 0)
(0.710898 0.0455242 0)
(0.707256 0.0498984 0)
(0.703072 0.0544275 0)
(0.698471 0.0591227 0)
(0.693477 0.0639977 0)
(0.688072 0.0690716 0)
(0.682237 0.0743652 0)
(0.675959 0.0799036 0)
(0.66923 0.0857127 0)
(0.662038 0.0918212 0)
(0.65437 0.098259 0)
(0.646211 0.105057 0)
(0.637543 0.112248 0)
(0.628348 0.119867 0)
(0.618602 0.127948 0)
(0.608283 0.136528 0)
(0.59736 0.145648 0)
(0.585804 0.155348 0)
(0.573577 0.165674 0)
(0.560634 0.176672 0)
(0.546933 0.188392 0)
(0.532403 0.200894 0)
(0.516979 0.214229 0)
(0.500572 0.228463 0)
(0.483079 0.243655 0)
(0.464372 0.259862 0)
(0.444272 0.277159 0)
(0.422603 0.29557 0)
(0.39912 0.315129 0)
(0.373497 0.335841 0)
(0.345353 0.357616 0)
(0.314256 0.38031 0)
(0.279662 0.4037 0)
(0.240894 0.427271 0)
(0.197091 0.450208 0)
(0.148273 0.471237 0)
(0.090851 0.488318 0)
(0.0362239 0.497837 0)
(2.60063 0.00021123 0)
(1.64437 0.002965 0)
(0.51404 0.0124697 0)
(0.556159 0.014921 0)
(0.658939 0.0172194 0)
(0.727012 0.02013 0)
(0.741511 0.0236417 0)
(0.73588 0.0272963 0)
(0.727663 0.0312387 0)
(0.721667 0.0353842 0)
(0.718633 0.0396771 0)
(0.716384 0.0441058 0)
(0.713636 0.0486772 0)
(0.710187 0.0534021 0)
(0.706205 0.0582886 0)
(0.701815 0.063348 0)
(0.697046 0.0685956 0)
(0.691882 0.0740516 0)
(0.686306 0.0797391 0)
(0.680308 0.0856847 0)
(0.673881 0.0919169 0)
(0.667018 0.098466 0)
(0.659705 0.105365 0)
(0.651933 0.112646 0)
(0.643686 0.120346 0)
(0.63495 0.128501 0)
(0.625705 0.137151 0)
(0.615932 0.146336 0)
(0.605606 0.156101 0)
(0.594702 0.166493 0)
(0.583186 0.177563 0)
(0.571019 0.18937 0)
(0.558161 0.201972 0)
(0.544549 0.21544 0)
(0.53012 0.229847 0)
(0.514789 0.245274 0)
(0.498452 0.261809 0)
(0.480988 0.279543 0)
(0.462218 0.298586 0)
(0.441939 0.319025 0)
(0.419908 0.340931 0)
(0.395752 0.364443 0)
(0.369016 0.389536 0)
(0.339203 0.416117 0)
(0.30553 0.444243 0)
(0.266972 0.473498 0)
(0.222246 0.503132 0)
(0.170595 0.531716 0)
(0.107183 0.556603 0)
(0.043514 0.571891 0)
(2.60258 0.00021521 0)
(1.64923 0.0030379 0)
(0.517627 0.0128193 0)
(0.556621 0.0153824 0)
(0.659611 0.0177936 0)
(0.728304 0.0209069 0)
(0.743219 0.024682 0)
(0.737875 0.0286302 0)
(0.729983 0.0329128 0)
(0.724223 0.0374052 0)
(0.721382 0.0420404 0)
(0.71932 0.0468096 0)
(0.71677 0.0517261 0)
(0.713527 0.0568003 0)
(0.709759 0.0620424 0)
(0.705595 0.0674647 0)
(0.701065 0.0730838 0)
(0.696158 0.0789216 0)
(0.690858 0.0850032 0)
(0.68516 0.0913565 0)
(0.679057 0.098012 0)
(0.672547 0.105001 0)
(0.66562 0.112358 0)
(0.65827 0.120118 0)
(0.650485 0.12832 0)
(0.642254 0.137002 0)
(0.633563 0.146207 0)
(0.624398 0.15598 0)
(0.614739 0.166371 0)
(0.604566 0.177433 0)
(0.593853 0.189225 0)
(0.582566 0.201814 0)
(0.570671 0.21527 0)
(0.558116 0.229678 0)
(0.544843 0.24513 0)
(0.530779 0.261729 0)
(0.515828 0.279593 0)
(0.499879 0.298854 0)
(0.48277 0.319654 0)
(0.464278 0.34221 0)
(0.444205 0.366551 0)
(0.422158 0.392928 0)
(0.397535 0.421706 0)
(0.369943 0.452913 0)
(0.338428 0.486686 0)
(0.301456 0.523084 0)
(0.257169 0.561801 0)
(0.203678 0.601702 0)
(0.133604 0.640101 0)
(0.0565526 0.66825 0)
(2.60463 0.000216588 0)
(1.65437 0.00305833 0)
(0.521456 0.0129621 0)
(0.557167 0.0155898 0)
(0.660419 0.0180972 0)
(0.729842 0.0214258 0)
(0.745244 0.0255242 0)
(0.740239 0.0298259 0)
(0.732708 0.0345131 0)
(0.727187 0.0394068 0)
(0.724534 0.0444273 0)
(0.722663 0.0495719 0)
(0.720318 0.0548574 0)
(0.717292 0.0602998 0)
(0.713753 0.0659092 0)
(0.709828 0.071699 0)
(0.705553 0.0776875 0)
(0.700919 0.0838997 0)
(0.695916 0.0903631 0)
(0.690539 0.097108 0)
(0.684787 0.104167 0)
(0.678659 0.111573 0)
(0.672151 0.119363 0)
(0.66526 0.127575 0)
(0.657978 0.136249 0)
(0.650302 0.145426 0)
(0.642221 0.155154 0)
(0.633727 0.165481 0)
(0.624807 0.176462 0)
(0.615447 0.188155 0)
(0.60563 0.200627 0)
(0.59533 0.213954 0)
(0.584523 0.228218 0)
(0.573169 0.243518 0)
(0.561224 0.259965 0)
(0.548631 0.277681 0)
(0.535316 0.296811 0)
(0.521176 0.317583 0)
(0.506139 0.340049 0)
(0.48989 0.364512 0)
(0.472228 0.391401 0)
(0.453156 0.4209 0)
(0.431978 0.453539 0)
(0.407917 0.489775 0)
(0.380202 0.530032 0)
(0.347278 0.57513 0)
(0.306545 0.625874 0)
(0.25474 0.682706 0)
(0.180143 0.744918 0)
(0.0831494 0.805146 0)
(2.60675 0.000213259 0)
(1.65971 0.00301256 0)
(0.525441 0.0128139 0)
(0.557798 0.0154499 0)
(0.661412 0.0180116 0)
(0.731731 0.0215277 0)
(0.747732 0.0259549 0)
(0.743135 0.0306182 0)
(0.736011 0.0357154 0)
(0.730725 0.041004 0)
(0.728247 0.0463958 0)
(0.726558 0.0519024 0)
(0.724414 0.0575516 0)
(0.721603 0.0633641 0)
(0.718287 0.0693484 0)
(0.714597 0.075517 0)
(0.710575 0.0818889 0)
(0.706219 0.0884896 0)
(0.70152 0.0953479 0)
(0.696478 0.102495 0)
(0.691096 0.109962 0)
(0.685376 0.117787 0)
(0.67932 0.126004 0)
(0.672927 0.134654 0)
(0.666196 0.14378 0)
(0.659126 0.153426 0)
(0.651714 0.163642 0)
(0.643958 0.174479 0)
(0.635853 0.185999 0)
(0.627391 0.198265 0)
(0.618566 0.211351 0)
(0.609364 0.225342 0)
(0.599772 0.240332 0)
(0.589769 0.256427 0)
(0.579324 0.273774 0)
(0.568398 0.29252 0)
(0.557018 0.312729 0)
(0.544965 0.334699 0)
(0.532176 0.358775 0)
(0.518869 0.38516 0)
(0.504679 0.41443 0)
(0.489332 0.446962 0)
(0.47261 0.483265 0)
(0.453979 0.524331 0)
(0.432811 0.5713 0)
(0.407959 0.626026 0)
(0.37703 0.691449 0)
(0.336186 0.772726 0)
(0.270608 0.880156 0)
(0.146212 1.04548 0)
(2.60932 0.000154991 0)
(1.6662 0.0028986 0)
(0.530277 0.0120834 0)
(0.558634 0.014798 0)
(0.662793 0.017601 0)
(0.734401 0.0215836 0)
(0.751278 0.0266405 0)
(0.747252 0.031948 0)
(0.740664 0.0376991 0)
(0.735653 0.0435679 0)
(0.733391 0.0494647 0)
(0.731954 0.0554283 0)
(0.730105 0.0615097 0)
(0.72761 0.0677397 0)
(0.724621 0.0741295 0)
(0.721279 0.0806959 0)
(0.717635 0.0874636 0)
(0.713692 0.0944624 0)
(0.70945 0.101725 0)
(0.704913 0.109284 0)
(0.700088 0.117176 0)
(0.694985 0.125438 0)
(0.68961 0.134107 0)
(0.683969 0.143227 0)
(0.678069 0.152841 0)
(0.671916 0.162997 0)
(0.665515 0.173746 0)
(0.658875 0.185144 0)
(0.652001 0.197253 0)
(0.6449 0.210146 0)
(0.637581 0.223898 0)
(0.630049 0.238603 0)
(0.622308 0.254388 0)
(0.61439 0.271313 0)
(0.606314 0.289498 0)
(0.597898 0.309205 0)
(0.589261 0.330631 0)
(0.580783 0.353974 0)
(0.572265 0.379688 0)
(0.563569 0.408098 0)
(0.55483 0.439565 0)
(0.54611 0.474827 0)
(0.537607 0.51471 0)
(0.529537 0.56049 0)
(0.522428 0.61394 0)
(0.517466 0.677808 0)
(0.517392 0.756595 0)
(0.530466 0.857846 0)
(0.58663 0.992744 0)
(0.656989 1.18778 0)
(2.6122 7.36102e-05 0)
(1.67327 0.00234985 0)
(0.535453 0.00954025 0)
(0.560208 0.0120058 0)
(0.665446 0.0148478 0)
(0.738902 0.0192964 0)
(0.756919 0.0251095 0)
(0.753525 0.0312161 0)
(0.747411 0.0377943 0)
(0.742467 0.0443989 0)
(0.740216 0.0509604 0)
(0.738877 0.0575562 0)
(0.737206 0.0642522 0)
(0.734928 0.0710778 0)
(0.73218 0.0780397 0)
(0.729113 0.0851548 0)
(0.725789 0.0924509 0)
(0.722219 0.0999605 0)
(0.718404 0.107718 0)
(0.714351 0.115758 0)
(0.710072 0.124118 0)
(0.705578 0.132838 0)
(0.700881 0.141958 0)
(0.695993 0.151523 0)
(0.690928 0.161579 0)
(0.685697 0.172176 0)
(0.680316 0.183367 0)
(0.674803 0.195214 0)
(0.669175 0.207779 0)
(0.663452 0.221145 0)
(0.657661 0.2354 0)
(0.651869 0.250568 0)
(0.64601 0.266783 0)
(0.640051 0.284267 0)
(0.63429 0.303107 0)
(0.628839 0.32348 0)
(0.623591 0.345701 0)
(0.61867 0.36996 0)
(0.614269 0.39648 0)
(0.610552 0.425729 0)
(0.607809 0.458214 0)
(0.60651 0.494599 0)
(0.607322 0.535799 0)
(0.611334 0.582969 0)
(0.620379 0.637758 0)
(0.637754 0.702316 0)
(0.669438 0.779554 0)
(0.72455 0.872973 0)
(0.835988 0.982673 0)
(0.984308 1.09752 0)
(2.61412 6.98805e-05 0)
(1.67792 0.0016826 0)
(0.538847 0.00699907 0)
(0.561781 0.00982224 0)
(0.668658 0.0133159 0)
(0.744589 0.0189974 0)
(0.76409 0.0261162 0)
(0.761444 0.0333569 0)
(0.755809 0.0407012 0)
(0.750864 0.0477598 0)
(0.748632 0.054654 0)
(0.74744 0.0615615 0)
(0.745986 0.0685634 0)
(0.743942 0.0756949 0)
(0.741435 0.0829441 0)
(0.738636 0.0903368 0)
(0.735622 0.0979128 0)
(0.732408 0.105711 0)
(0.728996 0.113767 0)
(0.725398 0.122115 0)
(0.721631 0.130794 0)
(0.717712 0.139843 0)
(0.713657 0.149298 0)
(0.709486 0.159204 0)
(0.705218 0.169604 0)
(0.700875 0.180549 0)
(0.696479 0.192088 0)
(0.692054 0.204295 0)
(0.687644 0.217203 0)
(0.683301 0.230861 0)
(0.678937 0.245397 0)
(0.674639 0.260927 0)
(0.670734 0.277515 0)
(0.667164 0.29535 0)
(0.663869 0.314594 0)
(0.661074 0.335315 0)
(0.658924 0.357726 0)
(0.657597 0.382078 0)
(0.65737 0.408672 0)
(0.658609 0.437858 0)
(0.661783 0.470092 0)
(0.667643 0.505898 0)
(0.677264 0.545939 0)
(0.692116 0.590986 0)
(0.714575 0.641892 0)
(0.748132 0.699495 0)
(0.798324 0.764072 0)
(0.870791 0.834684 0)
(0.983944 0.906413 0)
(1.12001 0.959379 0)
(2.61564 2.56695e-05 0)
(1.68171 -0.00116008 0)
(0.544592 -0.00340709 0)
(0.567715 -0.00118923 0)
(0.676396 0.00333396 0)
(0.754754 0.0117441 0)
(0.775153 0.0216011 0)
(0.772284 0.0311999 0)
(0.766043 0.0400887 0)
(0.760492 0.0481653 0)
(0.75807 0.0558987 0)
(0.756956 0.0635827 0)
(0.755688 0.0712955 0)
(0.753844 0.0790724 0)
(0.75154 0.0868921 0)
(0.749012 0.0947923 0)
(0.74634 0.102824 0)
(0.74353 0.111034 0)
(0.740575 0.119461 0)
(0.737486 0.128145 0)
(0.734284 0.137128 0)
(0.730983 0.146453 0)
(0.727603 0.156163 0)
(0.72417 0.1663 0)
(0.720712 0.176915 0)
(0.717251 0.188071 0)
(0.713842 0.199772 0)
(0.710477 0.212076 0)
(0.707141 0.225098 0)
(0.704012 0.238896 0)
(0.701224 0.253536 0)
(0.698737 0.269173 0)
(0.696611 0.285878 0)
(0.694987 0.303672 0)
(0.693959 0.322736 0)
(0.693716 0.343219 0)
(0.694476 0.365282 0)
(0.696493 0.389127 0)
(0.700124 0.414983 0)
(0.705795 0.44311 0)
(0.714116 0.473792 0)
(0.725907 0.507368 0)
(0.742305 0.544122 0)
(0.764813 0.584333 0)
(0.795476 0.628093 0)
(0.837019 0.675118 0)
(0.893066 0.724356 0)
(0.966317 0.773215 0)
(1.06775 0.817491 0)
(1.18106 0.843117 0)
(2.61176 0.00228382 0)
(1.67269 -0.00633362 0)
(0.549455 -0.0120347 0)
(0.583465 -0.00594384 0)
(0.696413 0.0019083 0)
(0.778099 0.0125334 0)
(0.798716 0.0230959 0)
(0.794352 0.0330981 0)
(0.786149 0.0419348 0)
(0.779203 0.0500821 0)
(0.77613 0.0580171 0)
(0.774662 0.0659008 0)
(0.773109 0.0737697 0)
(0.77099 0.081642 0)
(0.768435 0.0895878 0)
(0.765729 0.0976566 0)
(0.762959 0.105891 0)
(0.760118 0.114327 0)
(0.757199 0.123001 0)
(0.754213 0.131947 0)
(0.751182 0.141202 0)
(0.748128 0.150798 0)
(0.745068 0.160777 0)
(0.742037 0.171163 0)
(0.739094 0.18198 0)
(0.736187 0.193298 0)
(0.733339 0.205184 0)
(0.730756 0.21766 0)
(0.72848 0.230814 0)
(0.726485 0.244729 0)
(0.724855 0.259424 0)
(0.723689 0.27495 0)
(0.723092 0.29141 0)
(0.723192 0.308894 0)
(0.724151 0.327508 0)
(0.726155 0.34739 0)
(0.729443 0.368646 0)
(0.73431 0.391436 0)
(0.741132 0.415886 0)
(0.750375 0.442161 0)
(0.762634 0.47039 0)
(0.778697 0.500681 0)
(0.799532 0.533061 0)
(0.826404 0.567412 0)
(0.860833 0.6034 0)
(0.904669 0.640261 0)
(0.960205 0.676658 0)
(1.02904 0.710247 0)
(1.11562 0.738106 0)
(1.2087 0.751832 0)
(2.60392 0.00800275 0)
(1.64356 -0.0731466 0)
(0.585417 -0.070978 0)
(0.624131 -0.043687 0)
(0.731902 -0.0034663 0)
(0.809866 0.019175 0)
(0.827911 0.0297218 0)
(0.821906 0.0388136 0)
(0.812388 0.0465441 0)
(0.805013 0.0549507 0)
(0.801595 0.0637115 0)
(0.799679 0.072338 0)
(0.797644 0.0807146 0)
(0.795153 0.0889069 0)
(0.792374 0.0970755 0)
(0.789496 0.105301 0)
(0.786581 0.11363 0)
(0.783628 0.122102 0)
(0.780631 0.130762 0)
(0.7776 0.13966 0)
(0.774556 0.148845 0)
(0.771524 0.158337 0)
(0.768512 0.168159 0)
(0.765524 0.178372 0)
(0.762666 0.189035 0)
(0.760041 0.200158 0)
(0.757622 0.211814 0)
(0.755444 0.22405 0)
(0.753615 0.236876 0)
(0.752198 0.250365 0)
(0.751275 0.264581 0)
(0.750958 0.279592 0)
(0.751375 0.295459 0)
(0.752674 0.312253 0)
(0.755033 0.330041 0)
(0.758648 0.348905 0)
(0.763773 0.368918 0)
(0.770708 0.390161 0)
(0.779807 0.412701 0)
(0.791533 0.436591 0)
(0.806394 0.461854 0)