/*--------------------------------*- C++ -*----------------------------------*\
| =========                 |                                                 |
| \\      /  F ield         | OpenFOAM: The Open Source CFD Toolbox           |
|  \\    /   O peration     | Version:  2412                                  |
|   \\  /    A nd           | Website:  www.openfoam.com                      |
|    \\/     M anipulation  |                                                 |
\*---------------------------------------------------------------------------*/
FoamFile
{
    version     2.0;
    format      ascii;
    arch        "LSB;label=32;scalar=64";
    class       volScalarField;
    location    "14.5";
    object      Ma;
}
// * * * * * * * * * * * * * * * * * * * * * * * * * * * * * * * * * * * * * //

dimensions      [0 0 0 0 0 0 0];

internalField   nonuniform List<scalar> 
7000
(
2.2567
0.995424
0.301478
0.33871
0.401392
0.442861
0.451128
0.446678
0.440368
0.435466
0.432638
0.430364
0.427773
0.424684
0.421209
0.417434
0.413351
0.40897
0.404242
0.399174
0.39373
0.387926
0.381714
0.375119
0.368074
0.360615
0.352688
0.344282
0.335384
0.325963
0.31602
0.305508
0.294402
0.282734
0.270422
0.257481
0.243879
0.229626
0.214733
0.199123
0.182858
0.165951
0.148447
0.13037
0.111676
0.0924412
0.0728394
0.0530561
0.0319996
0.0155567
2.25675
0.995486
0.301276
0.338545
0.401238
0.442713
0.450981
0.446534
0.440231
0.435336
0.432512
0.430243
0.427655
0.42457
0.421099
0.41733
0.413253
0.408878
0.404154
0.399093
0.393658
0.387861
0.381656
0.375072
0.36804
0.36059
0.352672
0.344283
0.335402
0.325994
0.316067
0.305579
0.294496
0.282846
0.270559
0.257651
0.244081
0.229854
0.214997
0.19943
0.183206
0.16634
0.148891
0.130896
0.11232
0.0932741
0.0739834
0.0547991
0.0352057
0.0221074
2.25688
0.995684
0.301409
0.33858
0.401268
0.442746
0.451014
0.446574
0.440288
0.435405
0.432595
0.430329
0.427753
0.424674
0.421217
0.417455
0.413394
0.409029
0.404322
0.399273
0.393859
0.388077
0.381895
0.375331
0.368327
0.3609
0.353016
0.344659
0.335818
0.326446
0.316566
0.306129
0.295103
0.283511
0.271294
0.258467
0.244982
0.230848
0.2161
0.200666
0.184588
0.167894
0.150653
0.132939
0.114737
0.0962289
0.0777536
0.0599488
0.0430883
0.0336469
2.25705
0.995992
0.301681
0.338658
0.401349
0.442845
0.451117
0.446691
0.440417
0.435564
0.432762
0.430518
0.427947
0.424893
0.421444
0.41771
0.41366
0.409326
0.404634
0.39962
0.394224
0.388485
0.382325
0.375808
0.368836
0.361465
0.353617
0.345328
0.336537
0.327241
0.317425
0.307082
0.296137
0.284654
0.27254
0.259851
0.2465
0.232526
0.217955
0.202737
0.1869
0.170486
0.153598
0.136319
0.118706
0.100987
0.0836508
0.0675506
0.0533594
0.0462729
2.2573
0.996425
0.302033
0.338727
0.401433
0.442965
0.451247
0.446836
0.440585
0.435761
0.432982
0.43076
0.428207
0.425178
0.421753
0.418049
0.414026
0.409727
0.405066
0.400093
0.394737
0.389042
0.382935
0.376468
0.369559
0.362253
0.354481
0.346259
0.337574
0.32836
0.318661
0.308426
0.297629
0.286271
0.274336
0.261812
0.248681
0.234915
0.220615
0.20568
0.190198
0.174173
0.157764
0.141085
0.124216
0.107494
0.0914652
0.0771188
0.065175
0.0595989
2.25764
0.997001
0.302478
0.338798
0.401529
0.44311
0.451414
0.44701
0.440809
0.436001
0.433273
0.431056
0.428554
0.425532
0.422164
0.418473
0.414513
0.410232
0.405641
0.400694
0.395415
0.389759
0.383737
0.377324
0.370512
0.363274
0.355617
0.347487
0.338923
0.329843
0.32028
0.310203
0.299583
0.288422
0.276688
0.264419
0.251542
0.238087
0.224107
0.209578
0.194522
0.179031
0.163214
0.147274
0.131314
0.115701
0.101079
0.0883884
0.078264
0.0737323
2.25806
0.997732
0.303024
0.338873
0.401635
0.443288
0.451617
0.447244
0.441066
0.436314
0.433608
0.431443
0.428959
0.425993
0.422651
0.419022
0.415094
0.410882
0.406335
0.401463
0.39624
0.390676
0.384717
0.378412
0.371687
0.364572
0.357017
0.349046
0.340606
0.331704
0.322315
0.312439
0.302035
0.291131
0.279654
0.267695
0.255157
0.242077
0.228519
0.214464
0.199972
0.185087
0.170017
0.15492
0.139979
0.125583
0.112338
0.101172
0.0925301
0.0887449
2.25857
0.998629
0.30368
0.338954
0.401754
0.443496
0.451864
0.447519
0.441389
0.436684
0.434026
0.431902
0.429465
0.426544
0.423255
0.419683
0.415812
0.411669
0.407188
0.4024
0.39725
0.391788
0.385928
0.379732
0.373127
0.366155
0.358741
0.35093
0.342685
0.333965
0.324804
0.315175
0.30503
0.294435
0.283287
0.271684
0.259578
0.246938
0.233899
0.220421
0.206575
0.192444
0.178186
0.164063
0.150225
0.13707
0.125192
0.115367
0.107938
0.104749
2.25919
0.999705
0.304454
0.339041
0.401889
0.443741
0.452158
0.447848
0.441775
0.437125
0.434524
0.432447
0.430067
0.427201
0.423977
0.420466
0.416678
0.4126
0.408215
0.403509
0.398471
0.393104
0.38738
0.381307
0.374851
0.368039
0.360812
0.353177
0.345164
0.336681
0.327775
0.318442
0.308626
0.298364
0.287642
0.276452
0.26484
0.252754
0.240297
0.227504
0.214418
0.201119
0.187816
0.174723
0.162072
0.150163
0.139574
0.131
0.124597
0.121849
2.25992
1.00097
0.305355
0.339138
0.402042
0.444027
0.452505
0.448244
0.442228
0.437652
0.435105
0.433098
0.430771
0.427985
0.424821
0.421401
0.417684
0.413711
0.409411
0.404827
0.399897
0.394668
0.389076
0.383175
0.376875
0.370258
0.363241
0.355837
0.348062
0.339881
0.331266
0.322277
0.312846
0.302998
0.292727
0.282069
0.271004
0.259558
0.247802
0.235767
0.223556
0.211202
0.198937
0.18699
0.17553
0.164938
0.15559
0.148114
0.142605
0.140287
2.26076
1.00244
0.306394
0.339246
0.402215
0.444358
0.452912
0.448704
0.442767
0.438264
0.43579
0.433853
0.431601
0.428892
0.425815
0.422483
0.418867
0.414997
0.410815
0.406351
0.401563
0.39648
0.391054
0.385329
0.37924
0.372824
0.366063
0.35892
0.351432
0.343577
0.335327
0.326714
0.317729
0.308369
0.298612
0.288562
0.27814
0.267415
0.256453
0.245299
0.234039
0.222753
0.211619
0.200897
0.190725
0.181394
0.173323
0.166943
0.16226
0.160252
2.26173
1.00413
0.307577
0.339368
0.402413
0.444741
0.453386
0.449248
0.443393
0.438983
0.436584
0.434735
0.432561
0.429947
0.426965
0.423735
0.420232
0.416481
0.41243
0.408112
0.403473
0.398573
0.393321
0.387813
0.381944
0.37578
0.36929
0.362458
0.3553
0.347807
0.339981
0.331803
0.323314
0.314516
0.30535
0.295969
0.286297
0.276369
0.266319
0.256135
0.245974
0.235835
0.22596
0.216561
0.207761
0.199801
0.19295
0.187639
0.18377
0.182188
2.26282
1.00604
0.308914
0.339509
0.402644
0.445175
0.453936
0.449869
0.444135
0.439808
0.437513
0.435742
0.433678
0.431153
0.428292
0.425169
0.421798
0.418178
0.41428
0.410115
0.405665
0.400942
0.395924
0.390625
0.385035
0.379138
0.372962
0.366472
0.359693
0.352605
0.345246
0.33758
0.329627
0.32147
0.312983
0.304331
0.295527
0.28649
0.27745
0.268365
0.259393
0.250565
0.242046
0.234094
0.22676
0.220271
0.214844
0.210713
0.207722
0.206443
2.26403
1.00816
0.310409
0.339659
0.402929
0.445665
0.454568
0.450599
0.444978
0.440771
0.438571
0.436909
0.434946
0.432542
0.429796
0.426813
0.423572
0.420113
0.416373
0.412394
0.408137
0.403631
0.398848
0.393813
0.388501
0.38293
0.377088
0.370988
0.364627
0.358006
0.351147
0.344069
0.336715
0.329255
0.321544
0.3137
0.305834
0.297826
0.28988
0.282044
0.274386
0.267011
0.260035
0.25368
0.24804
0.243163
0.239244
0.236472
0.234535
0.233905
2.26537
1.01052
0.312056
0.339817
0.403251
0.446221
0.455295
0.451443
0.445952
0.441884
0.439782
0.438244
0.436391
0.434121
0.431504
0.428666
0.425582
0.422289
0.418733
0.414955
0.410912
0.406653
0.402121
0.397385
0.39238
0.387162
0.381706
0.376019
0.370135
0.36402
0.357722
0.351275
0.344612
0.337887
0.331062
0.324114
0.317274
0.310418
0.303685
0.297212
0.291052
0.28526
0.28002
0.2755
0.271773
0.268923
0.266925
0.265928
0.265381
0.265368
2.26683
1.01311
0.313867
0.340012
0.403604
0.446859
0.456129
0.452405
0.447097
0.443146
0.441184
0.439755
0.438042
0.435903
0.433441
0.430754
0.427846
0.424727
0.421381
0.417813
0.414015
0.410015
0.405773
0.40135
0.396696
0.391854
0.386824
0.381595
0.376219
0.370678
0.364985
0.359233
0.353333
0.347417
0.341523
0.335609
0.329841
0.324283
0.318901
0.313916
0.309439
0.305487
0.302193
0.299814
0.298387
0.297871
0.298342
0.299735
0.301356
0.302905
2.26842
1.01592
0.315838
0.340238
0.404018
0.447607
0.457104
0.453537
0.448422
0.444614
0.442786
0.441484
0.439915
0.437924
0.435618
0.433103
0.430378
0.42746
0.42433
0.421
0.417463
0.413747
0.409822
0.405737
0.401466
0.397033
0.392463
0.387735
0.382904
0.377976
0.37295
0.367923
0.362865
0.357836
0.35294
0.348152
0.343588
0.339378
0.335538
0.332183
0.329549
0.327692
0.326698
0.326801
0.328235
0.330996
0.334815
0.339873
0.344976
0.348978
2.27012
1.01893
0.317952
0.340497
0.404501
0.448486
0.458248
0.454875
0.449961
0.44633
0.444621
0.443476
0.442039
0.440221
0.438073
0.435747
0.433207
0.43051
0.427601
0.424537
0.421265
0.417864
0.414268
0.410553
0.406692
0.402693
0.398622
0.394427
0.390196
0.385921
0.381622
0.377379
0.373205
0.369143
0.365312
0.361729
0.358485
0.355728
0.353558
0.352064
0.351446
0.351895
0.353571
0.356753
0.361648
0.368415
0.377264
0.387916
0.399607
0.410253
2.27189
1.02211
0.320183
0.340804
0.405076
0.449524
0.459599
0.456444
0.451762
0.448307
0.446729
0.445732
0.44445
0.442802
0.440835
0.438699
0.436373
0.433899
0.43124
0.428448
0.425474
0.422398
0.419168
0.415834
0.412421
0.408883
0.405338
0.401712
0.3981
0.394526
0.390988
0.387585
0.384345
0.381318
0.378606
0.376313
0.374468
0.373299
0.372878
0.373359
0.374995
0.378104
0.383014
0.389866
0.399317
0.411605
0.427345
0.447463
0.471288
0.498915
2.27372
1.02537
0.322477
0.341153
0.405772
0.450777
0.461234
0.458326
0.453928
0.45062
0.449189
0.448315
0.4472
0.445704
0.443934
0.441973
0.439873
0.437618
0.435229
0.432707
0.430061
0.427308
0.424473
0.421533
0.418581
0.415544
0.412531
0.409531
0.406553
0.40372
0.40097
0.398453
0.396173
0.394241
0.392706
0.391742
0.391383
0.391804
0.393183
0.395867
0.400057
0.40614
0.414333
0.425452
0.440016
0.459584
0.485517
0.521003
0.572233
0.665284
2.27579
1.0291
0.325
0.341404
0.406565
0.452375
0.463393
0.460866
0.456823
0.453747
0.452484
0.451827
0.450939
0.449713
0.448194
0.446549
0.444733
0.442845
0.440804
0.438705
0.436491
0.43423
0.431919
0.429576
0.427235
0.424931
0.422647
0.420514
0.418448
0.41662
0.414988
0.413684
0.412749
0.412299
0.412431
0.413197
0.414757
0.417521
0.421706
0.427391
0.435082
0.445045
0.458326
0.475299
0.498065
0.528049
0.570141
0.631708
0.730344
0.881889
2.278
1.03309
0.327999
0.342333
0.408272
0.455221
0.466962
0.464816
0.461095
0.458082
0.456861
0.456301
0.455576
0.45453
0.453237
0.451816
0.45029
0.448697
0.447024
0.445295
0.443536
0.441734
0.439965
0.438187
0.436491
0.43486
0.433361
0.432017
0.430894
0.430019
0.429504
0.429367
0.429723
0.430601
0.432235
0.434822
0.438529
0.443444
0.450003
0.458324
0.469114
0.482831
0.50032
0.523153
0.552317
0.591867
0.644442
0.718712
0.829786
0.968085
2.2793
1.03543
0.329882
0.343381
0.41042
0.45895
0.471666
0.47002
0.466621
0.463632
0.462446
0.462004
0.461445
0.460578
0.459475
0.458264
0.456975
0.455651
0.454281
0.452894
0.451508
0.450138
0.448827
0.447581
0.446449
0.44546
0.444654
0.444083
0.443801
0.443878
0.444325
0.445217
0.446798
0.4492
0.452423
0.456707
0.462145
0.469133
0.477753
0.488725
0.502061
0.519064
0.539788
0.566333
0.599659
0.642307
0.698015
0.768458
0.865092
0.968694
2.28045
1.03754
0.333193
0.34708
0.41528
0.465358
0.478672
0.476897
0.47315
0.469805
0.468544
0.468199
0.467805
0.46711
0.466214
0.465228
0.464229
0.463212
0.462204
0.461194
0.460233
0.459309
0.458486
0.457757
0.457186
0.45679
0.456636
0.456738
0.457145
0.457952
0.459317
0.461289
0.463931
0.467416
0.471805
0.47741
0.484245
0.492843
0.503186
0.515987
0.531478
0.550314
0.573464
0.60133
0.635974
0.677808
0.729636
0.791814
0.869782
0.951211
2.27693
1.03119
0.335386
0.357052
0.427722
0.480183
0.49375
0.490985
0.48602
0.481785
0.480131
0.479579
0.479016
0.478157
0.477103
0.476016
0.474962
0.473947
0.472981
0.472077
0.47126
0.470555
0.469982
0.469587
0.469393
0.469431
0.469699
0.470366
0.471443
0.473044
0.475133
0.477918
0.481361
0.485756
0.491068
0.497654
0.505577
0.515137
0.526699
0.540387
0.556987
0.576543
0.600132
0.628062
0.661279
0.70084
0.747113
0.801621
0.865191
0.929939
2.28284
1.02396
0.359864
0.382648
0.448796
0.498793
0.510779
0.507059
0.501343
0.496963
0.495255
0.494563
0.493861
0.492911
0.491841
0.490762
0.489728
0.488732
0.487795
0.486918
0.486143
0.485474
0.484963
0.484585
0.484461
0.484624
0.485173
0.486043
0.487437
0.489286
0.491841
0.494984
0.499075
0.503938
0.510058
0.517184
0.525958
0.536077
0.548321
0.562481
0.579274
0.598878
0.621719
0.648546
0.67937
0.715419
0.756395
0.803371
0.856652
0.910322
1.87675
0.772734
0.274313
0.344338
0.417687
0.441467
0.441578
0.437675
0.434094
0.434047
0.436278
0.439208
0.442266
0.445339
0.44852
0.451781
0.455125
0.458467
0.461816
0.46512
0.46839
0.471549
0.474678
0.477798
0.48097
0.484129
0.487394
0.490695
0.494294
0.498089
0.502366
0.507055
0.512461
0.518568
0.525661
0.533819
0.54324
0.554216
0.566728
0.581417
0.597975
0.617416
0.639188
0.664558
0.692871
0.725379
0.761437
0.801951
0.846847
0.89167
1.86924
0.772041
0.283147
0.355586
0.42828
0.447936
0.443642
0.4364
0.430748
0.428866
0.42881
0.429263
0.429915
0.430872
0.432273
0.434105
0.436412
0.439065
0.442179
0.44565
0.449546
0.453647
0.458117
0.462783
0.467797
0.472961
0.478475
0.484205
0.490258
0.496579
0.503266
0.510327
0.517844
0.525975
0.534733
0.544482
0.555052
0.567082
0.580255
0.59534
0.611985
0.630987
0.65204
0.67583
0.702192
0.73155
0.763897
0.799098
0.837553
0.875309
1.86829
0.770748
0.285312
0.36534
0.443592
0.463845
0.457829
0.448565
0.441551
0.438806
0.437915
0.43734
0.436778
0.436406
0.436349
0.436659
0.437318
0.438376
0.439945
0.441982
0.444498
0.44747
0.45101
0.455065
0.45971
0.464892
0.47062
0.476896
0.483679
0.491061
0.498921
0.507513
0.516575
0.526523
0.536908
0.548346
0.56037
0.57364
0.587782
0.603463
0.620373
0.63912
0.659534
0.682058
0.706608
0.733447
0.762526
0.793773
0.827457
0.860033
1.86974
0.773996
0.291082
0.367553
0.443659
0.464423
0.459367
0.450958
0.444376
0.441999
0.441532
0.44137
0.441177
0.441086
0.441195
0.441524
0.442139
0.443078
0.444291
0.445807
0.447639
0.449908
0.45258
0.455826
0.459544
0.463957
0.468898
0.474647
0.480942
0.488162
0.495921
0.504699
0.514003
0.524388
0.535391
0.547531
0.560422
0.574521
0.589497
0.605749
0.623097
0.641836
0.661919
0.683573
0.706768
0.731632
0.758112
0.786228
0.816056
0.844749
1.87277
0.780592
0.298707
0.361465
0.428973
0.450351
0.448239
0.442272
0.436675
0.434798
0.434852
0.435411
0.43603
0.436774
0.437698
0.438899
0.440391
0.442105
0.444004
0.446137
0.448508
0.451195
0.454178
0.457572
0.461333
0.465633
0.47037
0.475803
0.481748
0.488545
0.495935
0.504286
0.513333
0.523403
0.534278
0.546208
0.559038
0.572966
0.587908
0.604011
0.621238
0.639714
0.659362
0.680297
0.702425
0.725897
0.750517
0.776253
0.803288
0.829146
1.88134
0.787181
0.300985
0.349195
0.41202
0.441262
0.444378
0.439755
0.434635
0.432355
0.432122
0.432671
0.433419
0.43437
0.435502
0.436868
0.4385
0.440389
0.442537
0.444965
0.447672
0.450708
0.454045
0.45777
0.46183
0.466369
0.471293
0.476812
0.482789
0.489478
0.496738
0.50481
0.513591
0.523261
0.533764
0.545241
0.557635
0.571062
0.585474
0.600971
0.617503
0.635157
0.653869
0.673724
0.694635
0.716625
0.739556
0.763386
0.788215
0.811872
2.26397
1.10772
0.408508
0.399582
0.459649
0.508419
0.519767
0.514888
0.507958
0.501878
0.498327
0.495828
0.493691
0.491651
0.489605
0.487618
0.485884
0.484391
0.483245
0.482403
0.481988
0.481955
0.482433
0.48339
0.484901
0.486998
0.489716
0.493112
0.497188
0.502034
0.507627
0.514074
0.521353
0.529575
0.538704
0.548856
0.559975
0.572166
0.585367
0.59967
0.614986
0.631399
0.648798
0.66722
0.686595
0.706895
0.728039
0.749927
0.772656
0.794271
2.27347
1.12978
0.392977
0.377434
0.450261
0.511097
0.529587
0.528735
0.524508
0.520691
0.519231
0.518835
0.518796
0.518733
0.518293
0.51764
0.516939
0.516284
0.515689
0.515191
0.514802
0.514591
0.514573
0.514838
0.515417
0.516388
0.517792
0.519735
0.522222
0.525388
0.529217
0.533847
0.539254
0.545563
0.552754
0.560913
0.57006
0.580246
0.591492
0.603795
0.617207
0.631659
0.64719
0.663695
0.681148
0.699483
0.718605
0.73842
0.758993
0.778573
2.29828
1.17848
0.435545
0.384293
0.447332
0.503715
0.522274
0.523337
0.521524
0.520345
0.520769
0.522004
0.523797
0.525596
0.526999
0.528192
0.529306
0.530441
0.531575
0.532736
0.533904
0.535125
0.536397
0.537774
0.539266
0.540939
0.542817
0.54497
0.547447
0.550318
0.55364
0.557481
0.56192
0.567011
0.572847
0.579466
0.586957
0.595336
0.604672
0.614967
0.626241
0.638476
0.65169
0.665875
0.681
0.697034
0.713882
0.731383
0.749632
0.767035
1.90099
0.805381
0.30647
0.316852
0.373948
0.414871
0.42922
0.433117
0.436003
0.43972
0.444714
0.450529
0.45702
0.463584
0.469812
0.475869
0.481873
0.487884
0.493854
0.499774
0.505605
0.511363
0.517028
0.522619
0.52813
0.533583
0.539001
0.5444
0.549833
0.555327
0.560924
0.566699
0.572693
0.578992
0.585638
0.592738
0.600315
0.608489
0.617254
0.626737
0.636905
0.647884
0.659601
0.672143
0.685414
0.699407
0.714076
0.729425
0.745475
0.760809
2.3068
1.19561
0.450903
0.386952
0.440863
0.492488
0.509538
0.509622
0.506468
0.503983
0.502716
0.502523
0.502969
0.503369
0.503693
0.504212
0.505048
0.50635
0.508072
0.510267
0.512875
0.515958
0.51946
0.523426
0.527779
0.532569
0.537687
0.543206
0.548987
0.555126
0.561519
0.568246
0.575221
0.582535
0.590112
0.598063
0.60633
0.615024
0.624105
0.633673
0.643711
0.65429
0.665408
0.677087
0.689342
0.702155
0.715533
0.729389
0.743797
0.757539
2.31208
1.20565
0.434155
0.36994
0.438559
0.500931
0.522466
0.523906
0.521685
0.520207
0.520327
0.521444
0.523156
0.524655
0.525668
0.526506
0.527328
0.52827
0.529336
0.530624
0.532134
0.533956
0.536075
0.538578
0.541447
0.544748
0.548471
0.552658
0.557301
0.56242
0.568002
0.574048
0.580544
0.587489
0.594889
0.602707
0.610971
0.619633
0.62874
0.638236
0.648182
0.65852
0.66932
0.680515
0.692168
0.704214
0.716691
0.729521
0.742784
0.755385
2.31478
1.21143
0.438291
0.371963
0.441676
0.505649
0.528115
0.529831
0.527671
0.526322
0.526796
0.528302
0.530568
0.532759
0.534478
0.536001
0.537521
0.539144
0.540868
0.54272
0.5447
0.546839
0.549155
0.551681
0.554448
0.557485
0.560831
0.564505
0.568552
0.57298
0.577838
0.583119
0.588871
0.595072
0.601762
0.608915
0.616559
0.62466
0.633243
0.64227
0.651759
0.661674
0.672021
0.682767
0.693905
0.705403
0.717238
0.729382
0.741881
0.753738
2.31771
1.21904
0.464703
0.388152
0.447303
0.506485
0.529123
0.532397
0.531533
0.531168
0.532068
0.533991
0.536526
0.538831
0.540864
0.54277
0.54473
0.546772
0.548949
0.55123
0.553658
0.556207
0.558927
0.561797
0.564868
0.568126
0.571621
0.575348
0.579355
0.583644
0.588261
0.593216
0.598541
0.604251
0.610365
0.616894
0.623857
0.63126
0.639113
0.64741
0.656153
0.665332
0.674938
0.684954
0.695358
0.706127
0.717231
0.72863
0.740375
0.751546
1.90573
0.81378
0.325205
0.323633
0.376379
0.414263
0.427166
0.430236
0.432559
0.43594
0.440758
0.446713
0.453489
0.460375
0.467151
0.47388
0.480678
0.487538
0.494463
0.501399
0.508347
0.515273
0.522186
0.529068
0.535935
0.542783
0.549629
0.556481
0.563356
0.57027
0.57724
0.584296
0.591455
0.598752
0.606205
0.613854
0.62171
0.629812
0.638167
0.646802
0.655718
0.664935
0.674442
0.684261
0.694364
0.70477
0.715442
0.726381
0.737619
0.748297
2.31275
1.21023
0.466131
0.403848
0.466482
0.527739
0.549737
0.5507
0.546553
0.542697
0.540469
0.539072
0.538443
0.538014
0.53725
0.536502
0.535912
0.535745
0.535918
0.536606
0.537724
0.539354
0.541459
0.544078
0.547175
0.550769
0.554831
0.559368
0.56434
0.569748
0.575558
0.581748
0.588296
0.595184
0.602396
0.609917
0.617737
0.625843
0.634226
0.64289
0.651825
0.661033
0.670509
0.680249
0.690238
0.700466
0.710919
0.721574
0.732493
0.742849
2.2947
1.17091
0.461122
0.423129
0.486138
0.546588
0.566539
0.56661
0.562891
0.559644
0.558884
0.559288
0.560364
0.561606
0.562466
0.563081
0.563655
0.564282
0.564995
0.565785
0.566683
0.567712
0.568943
0.570399
0.572136
0.57418
0.576565
0.579306
0.582438
0.585963
0.589901
0.594263
0.599059
0.60429
0.609957
0.616051
0.622567
0.62949
0.636812
0.644511
0.652572
0.660973
0.669697
0.678727
0.688055
0.697653
0.707518
0.717612
0.727987
0.737844
1.8879
0.805179
0.341263
0.355432
0.406329
0.44307
0.452781
0.452603
0.451664
0.452525
0.455873
0.460539
0.466126
0.472238
0.478393
0.484578
0.490867
0.49725
0.503691
0.510132
0.516545
0.522909
0.52922
0.535471
0.541665
0.547806
0.55391
0.559998
0.566094
0.572231
0.578432
0.584724
0.591134
0.597689
0.604412
0.611324
0.618445
0.625788
0.633368
0.641189
0.649272
0.657605
0.666208
0.675048
0.684139
0.693457
0.702994
0.71274
0.722732
0.73223
1.87396
0.796319
0.33986
0.356702
0.398223
0.426761
0.434642
0.434595
0.433575
0.43304
0.433752
0.435374
0.437916
0.441121
0.444627
0.44849
0.452792
0.457569
0.462801
0.468464
0.474517
0.480933
0.487666
0.49469
0.501958
0.509441
0.517101
0.524908
0.532838
0.540858
0.54897
0.557152
0.565411
0.573736
0.58214
0.590619
0.59919
0.607861
0.616639
0.625524
0.634517
0.643644
0.652895
0.662294
0.671826
0.681515
0.691345
0.701311
0.711457
0.721062
1.88887
0.806134
0.345468
0.373798
0.430939
0.466923
0.473667
0.469582
0.464447
0.461296
0.46031
0.460251
0.460797
0.461721
0.46272
0.463867
0.465268
0.467013
0.469122
0.471629
0.474537
0.477879
0.481661
0.4859
0.490589
0.495736
0.501321
0.507343
0.513767
0.520591
0.527775
0.535311
0.543157
0.551301
0.559697
0.56834
0.577186
0.586226
0.595431
0.604812
0.614344
0.624019
0.633823
0.643743
0.653778
0.663912
0.674148
0.68447
0.694939
0.704825
2.34126
1.12521
0.469865
0.447984
0.5135
0.575313
0.59601
0.595442
0.590147
0.584826
0.581794
0.579871
0.578265
0.57685
0.575256
0.573477
0.571645
0.569869
0.56818
0.566634
0.565223
0.564021
0.563016
0.562307
0.561869
0.561812
0.5621
0.562839
0.564002
0.56563
0.567758
0.570385
0.573541
0.577204
0.581401
0.586096
0.59131
0.596999
0.603175
0.609782
0.616827
0.624251
0.632059
0.640222
0.6487
0.657477
0.666514
0.675798
0.685338
0.694432
1.8894
0.807307
0.346504
0.363546
0.415798
0.456
0.468441
0.469435
0.46888
0.468847
0.471143
0.474673
0.478892
0.483639
0.488507
0.49336
0.498248
0.503214
0.508233
0.513276
0.518302
0.523298
0.528247
0.533151
0.538004
0.542817
0.547596
0.552353
0.557116
0.56189
0.566711
0.571591
0.57655
0.581629
0.586837
0.592216
0.597771
0.603543
0.609528
0.615769
0.622246
0.629006
0.636012
0.643283
0.650808
0.658594
0.666623
0.674889
0.683411
0.691553
1.88914
0.807448
0.34777
0.364583
0.416064
0.454504
0.464923
0.463833
0.460927
0.458325
0.457829
0.458638
0.460182
0.462353
0.464764
0.467354
0.47023
0.473471
0.477087
0.481062
0.485372
0.489993
0.494907
0.50009
0.50552
0.511169
0.517017
0.523032
0.529204
0.535522
0.54197
0.548539
0.555225
0.562006
0.568892
0.575865
0.582941
0.590111
0.597388
0.604769
0.612265
0.619872
0.627606
0.635464
0.643458
0.651585
0.659852
0.668253
0.676826
0.684971
2.34317
1.12871
0.473375
0.449975
0.516694
0.580987
0.603525
0.603683
0.598622
0.593553
0.590765
0.589205
0.588054
0.587172
0.586143
0.584947
0.58368
0.582507
0.581414
0.580498
0.579697
0.579123
0.578717
0.578595
0.5787
0.579126
0.579853
0.580901
0.582301
0.584049
0.586164
0.588634
0.591475
0.59467
0.598228
0.602139
0.606403
0.611004
0.615939
0.621195
0.626759
0.632621
0.638767
0.645188
0.651865
0.658792
0.66595
0.67333
0.680938
0.688214
1.88986
0.808859
0.353765
0.381514
0.439645
0.47958
0.489524
0.487809
0.484722
0.483305
0.484716
0.487391
0.490735
0.494577
0.498497
0.50248
0.506575
0.510843
0.515244
0.519773
0.524376
0.529053
0.533774
0.53854
0.54334
0.548169
0.553032
0.557923
0.56286
0.567837
0.572875
0.577974
0.58315
0.588412
0.593775
0.599246
0.604834
0.61055
0.616396
0.622387
0.628528
0.634829
0.641291
0.647918
0.654712
0.661675
0.668803
0.67609
0.683561
0.690678
1.87531
0.799833
0.351458
0.378167
0.427428
0.459308
0.46694
0.46577
0.464042
0.463283
0.463763
0.464922
0.466785
0.469029
0.471352
0.473808
0.476503
0.479482
0.482757
0.486327
0.490179
0.494305
0.498695
0.503343
0.508236
0.513362
0.518709
0.524256
0.529996
0.535904
0.541975
0.548186
0.554545
0.561028
0.567644
0.574371
0.581222
0.588181
0.595255
0.602433
0.609718
0.617103
0.624592
0.632182
0.639876
0.647672
0.65557
0.663569
0.671703
0.679414
1.87434
0.799487
0.351973
0.375408
0.422334
0.453965
0.462142
0.461631
0.46046
0.459793
0.46001
0.460785
0.462221
0.463994
0.465793
0.467633
0.469653
0.471859
0.474318
0.476978
0.479897
0.483024
0.486425
0.49005
0.493964
0.498113
0.502547
0.507212
0.51215
0.517316
0.522747
0.528404
0.534314
0.540436
0.546785
0.553324
0.560067
0.566978
0.574079
0.581338
0.588771
0.596353
0.604091
0.611961
0.619959
0.628079
0.636322
0.64469
0.653204
0.661292
1.88919
0.809238
0.35512
0.362674
0.413254
0.45198
0.462871
0.462408
0.460571
0.459283
0.459268
0.460029
0.461526
0.463358
0.465145
0.466889
0.468781
0.470817
0.473085
0.475509
0.478167
0.480985
0.484045
0.487274
0.490753
0.494408
0.498318
0.502408
0.506755
0.511286
0.516079
0.52106
0.526305
0.531736
0.537424
0.543295
0.54941
0.555711
0.562243
0.56896
0.57589
0.582997
0.590295
0.597763
0.605407
0.613221
0.621185
0.629307
0.637588
0.645473
2.31254
1.20517
0.48579
0.431596
0.492682
0.556945
0.582973
0.586496
0.583847
0.581108
0.579807
0.579476
0.579948
0.58074
0.58127
0.581522
0.581745
0.581981
0.582341
0.582756
0.583302
0.583906
0.584662
0.585492
0.586504
0.587605
0.588911
0.590328
0.591966
0.593737
0.595746
0.597907
0.600321
0.602909
0.605756
0.6088
0.612104
0.615628
0.619413
0.623428
0.627709
0.632222
0.637001
0.642011
0.647281
0.652778
0.658516
0.664464
0.67066
0.676614
2.3228
1.22933
0.466464
0.405416
0.481505
0.557631
0.588859
0.593586
0.590981
0.588126
0.587142
0.587601
0.588887
0.590705
0.592402
0.593812
0.595157
0.596576
0.598142
0.599821
0.601638
0.60354
0.605582
0.607706
0.609978
0.612336
0.614846
0.617447
0.620201
0.623052
0.626057
0.629167
0.632433
0.635816
0.639356
0.643025
0.646856
0.650827
0.654966
0.659251
0.663712
0.668322
0.673118
0.67807
0.683207
0.688504
0.69398
0.69961
0.70543
0.710987
2.31293
1.20665
0.487005
0.43263
0.494396
0.559864
0.586961
0.591159
0.58914
0.587043
0.58648
0.587151
0.58865
0.590657
0.592467
0.594086
0.595668
0.59737
0.599209
0.601202
0.603328
0.60559
0.607988
0.610521
0.613199
0.616015
0.618979
0.622084
0.625338
0.628735
0.632282
0.63597
0.639808
0.643789
0.64792
0.652197
0.656624
0.661198
0.665924
0.670795
0.675821
0.68099
0.686314
0.691781
0.697401
0.703166
0.709078
0.715134
0.721355
0.727301
1.88887
0.809169
0.356266
0.364273
0.416309
0.456875
0.468915
0.468863
0.467192
0.466115
0.466699
0.468286
0.47072
0.473656
0.476553
0.479514
0.482597
0.485941
0.489484
0.49329
0.497267
0.501483
0.505855
0.510457
0.51521
0.520184
0.525299
0.530621
0.53607
0.541709
0.547466
0.553399
0.559445
0.565656
0.571974
0.578443
0.585015
0.591722
0.59853
0.605462
0.612496
0.619645
0.626895
0.63425
0.641706
0.649257
0.656911
0.664659
0.672548
0.68004
1.87405
0.799992
0.355564
0.380523
0.428462
0.459968
0.467462
0.466244
0.464423
0.463497
0.46366
0.464462
0.46594
0.467785
0.46955
0.471367
0.473249
0.475355
0.477593
0.480081
0.482692
0.485554
0.488532
0.491769
0.495133
0.498772
0.502547
0.506602
0.510786
0.515243
0.519831
0.524684
0.529681
0.534937
0.540342
0.545991
0.551788
0.557806
0.563979
0.570348
0.576887
0.583602
0.59049
0.597534
0.604746
0.612094
0.619605
0.627233
0.635052
0.642461
1.87694
0.803117
0.359593
0.395179
0.45145
0.484435
0.490376
0.486834
0.482611
0.480625
0.480574
0.481334
0.482693
0.484338
0.485883
0.487497
0.489177
0.491077
0.49308
0.495314
0.497637
0.500206
0.502857
0.50576
0.50874
0.511983
0.515311
0.518908
0.5226
0.52655
0.530606
0.534905
0.539326
0.543981
0.548775
0.553789
0.55896
0.564326
0.569868
0.575579
0.58148
0.587539
0.593792
0.600195
0.606791
0.613523
0.620445
0.627485
0.634724
0.641586
1.19284
1.05328
0.50142
0.190747
0.0063778
0.10746
0.15716
0.205738
0.227663
0.232456
0.221404
0.209993
0.199747
0.190146
0.178072
0.163633
0.146328
0.126463
0.104667
0.0816081
0.0577773
0.0342343
0.015271
0.024243
0.0481634
0.0724576
0.0966261
0.120403
0.143759
0.166715
0.189282
0.211419
0.233125
0.254346
0.274412
0.293599
0.313191
0.333658
0.353699
0.372984
0.391586
0.409712
0.427337
0.444531
0.461237
0.477486
0.493266
0.508561
0.523393
0.537717
0.551572
0.564897
0.577736
0.590018
0.60178
0.612949
0.623558
0.633525
0.642883
0.651543
0.659532
0.666766
0.673257
0.678933
0.683802
0.6878
0.690954
0.693213
0.694639
0.695207
0.695278
0.695035
0.694348
0.692749
0.690068
0.6866
0.682988
0.679267
0.675584
0.671895
0.668404
0.665085
0.662137
0.659492
0.657314
0.655502
0.654182
0.653222
0.652734
0.652583
0.652759
0.65308
0.653573
0.654362
0.655588
0.657091
0.658692
0.660325
0.661938
0.666614
1.12345
1.03889
0.809507
0.552631
0.50459
0.433198
0.382592
0.341519
0.311
0.29251
0.262125
0.232347
0.212932
0.211173
0.218195
0.228781
0.24122
0.255237
0.27035
0.286314
0.30268
0.31922
0.335563
0.351825
0.36862
0.385658
0.402878
0.420055
0.437209
0.454211
0.471148
0.487862
0.504449
0.520764
0.536507
0.551504
0.566573
0.582368
0.598317
0.613614
0.628424
0.642872
0.657039
0.670905
0.684458
0.697694
0.710579
0.723146
0.735325
0.747194
0.758645
0.769767
0.780447
0.790758
0.800607
0.810028
0.818969
0.827405
0.835343
0.842689
0.849505
0.855654
0.861209
0.866056
0.870215
0.873656
0.876336
0.878289
0.879479
0.87996
0.879985
0.879729
0.879061
0.877626
0.875187
0.872001
0.868617
0.865157
0.861703
0.858294
0.855037
0.851962
0.849236
0.846768
0.844785
0.843088
0.8419
0.841016
0.840624
0.840471
0.840651
0.840901
0.841329
0.842005
0.843014
0.844311
0.845636
0.847031
0.848189
0.85195
1.07619
1.07793
1.0105
0.902837
0.83313
0.78315
0.746925
0.716721
0.691865
0.67389
0.659234
0.6452
0.635131
0.630221
0.628841
0.629308
0.631093
0.633744
0.637367
0.64183
0.647098
0.65302
0.659455
0.666401
0.674002
0.682245
0.691035
0.700243
0.709818
0.719653
0.729762
0.740038
0.750516
0.76108
0.771448
0.781398
0.79143
0.8022
0.813531
0.824638
0.835426
0.846048
0.856557
0.866966
0.877263
0.887397
0.897386
0.907163
0.916771
0.926137
0.935295
0.944188
0.95282
0.961165
0.969189
0.976901
0.984225
0.991202
0.997717
1.00385
1.00944
1.01461
1.01916
1.02324
1.02663
1.02951
1.03165
1.03324
1.03406
1.03437
1.03421
1.03384
1.03311
1.0317
1.02945
1.02653
1.0234
1.02016
1.01697
1.01383
1.01089
1.00814
1.0057
1.00358
1.00184
1.00047