/*--------------------------------*- C++ -*----------------------------------*\
| =========                 |                                                 |
| \\      /  F ield         | OpenFOAM: The Open Source CFD Toolbox           |
|  \\    /   O peration     | Version:  2412                                  |
|   \\  /    A nd           | Website:  www.openfoam.com                      |
|    \\/     M anipulation  |                                                 |
\*---------------------------------------------------------------------------*/
FoamFile
{
    version     2.0;
    format      ascii;
    arch        "LSB;label=32;scalar=64";
    class       volScalarField;
    location    "14.5";
    object      p;
}
// * * * * * * * * * * * * * * * * * * * * * * * * * * * * * * * * * * * * * //

dimensions      [1 -1 -2 0 0 0 0];

internalField   nonuniform List<scalar> 
7000
(
1.63835
3.7512
11.4409
11.5216
11.0914
10.6806
10.561
10.5753
10.6158
10.6552
10.6768
10.6904
10.7047
10.7222
10.7424
10.7645
10.7881
10.8135
10.8406
10.8695
10.9002
10.9328
10.9673
11.0036
11.0418
11.0818
11.1237
11.1673
11.2127
11.2598
11.3084
11.3586
11.41
11.4626
11.5161
11.5704
11.625
11.6796
11.7339
11.7872
11.8392
11.8893
11.9368
11.981
12.0212
12.0568
12.0872
12.1116
12.1293
12.1423
1.63865
3.74991
11.4405
11.521
11.0909
10.6802
10.5606
10.575
10.6155
10.6548
10.6763
10.6899
10.7042
10.7217
10.7418
10.7639
10.7875
10.8129
10.8399
10.8688
10.8995
10.9321
10.9665
11.0028
11.041
11.081
11.1228
11.1664
11.2118
11.2588
11.3074
11.3575
11.4089
11.4615
11.515
11.5692
11.6238
11.6784
11.7327
11.7861
11.8382
11.8883
11.9359
11.9802
12.0205
12.0562
12.0868
12.1113
12.129
12.1421
1.63854
3.74897
11.4386
11.5201
11.0902
10.6795
10.5599
10.5742
10.6147
10.6539
10.6754
10.6889
10.7031
10.7206
10.7407
10.7627
10.7862
10.8115
10.8385
10.8673
10.8979
10.9304
10.9648
11.001
11.039
11.0789
11.1206
11.1641
11.2093
11.2562
11.3047
11.3546
11.4059
11.4583
11.5117
11.5657
11.6202
11.6747
11.7289
11.7822
11.8341
11.8842
11.9317
11.9761
12.0164
12.0521
12.0827
12.1072
12.1248
12.1378
1.63842
3.74768
11.4352
11.519
11.0892
10.6784
10.5587
10.573
10.6134
10.6525
10.6738
10.6872
10.7014
10.7188
10.7388
10.7607
10.7842
10.8093
10.8362
10.8649
10.8954
10.9278
10.962
10.998
11.0359
11.0756
11.1171
11.1604
11.2054
11.2521
11.3003
11.35
11.401
11.4532
11.5063
11.5602
11.6144
11.6686
11.7226
11.7757
11.8275
11.8774
11.9249
11.9691
12.0094
12.0451
12.0756
12.1001
12.1176
12.1306
1.63824
3.7458
11.4305
11.5176
11.088
10.6768
10.557
10.5713
10.6115
10.6505
10.6716
10.6849
10.699
10.7163
10.7362
10.7579
10.7813
10.8062
10.833
10.8615
10.8918
10.924
10.958
10.9938
11.0314
11.0709
11.1121
11.1551
11.1998
11.2461
11.294
11.3434
11.3941
11.4459
11.4986
11.5521
11.6059
11.6599
11.7135
11.7663
11.8179
11.8676
11.9148
11.959
11.9992
12.0348
12.0653
12.0899
12.1073
12.1202
1.63802
3.74326
11.4242
11.5158
11.0863
10.6747
10.5548
10.569
10.6091
10.6478
10.6688
10.6819
10.6959
10.713
10.7327
10.7543
10.7774
10.8022
10.8287
10.857
10.8871
10.919
10.9527
10.9882
11.0255
11.0646
11.1055
11.1481
11.1924
11.2383
11.2857
11.3346
11.3848
11.4361
11.4883
11.5413
11.5946
11.6481
11.7013
11.7536
11.8048
11.8542
11.9011
11.9451
11.9852
12.0207
12.0512
12.0758
12.0931
12.1062
1.63776
3.74001
11.4162
11.5136
11.0843
10.6721
10.5519
10.566
10.6059
10.6444
10.6652
10.6781
10.6919
10.7088
10.7283
10.7496
10.7725
10.797
10.8233
10.8513
10.881
10.9126
10.9459
10.9811
11.018
11.0566
11.097
11.1391
11.1829
11.2282
11.2751
11.3234
11.3729
11.4236
11.4751
11.5274
11.5801
11.6329
11.6854
11.7373
11.7879
11.8367
11.8833
11.927
11.9668
12.0023
12.0326
12.0572
12.0746
12.0879
1.63744
3.736
11.4065
11.5108
11.0818
10.6689
10.5483
10.5623
10.602
10.6402
10.6607
10.6734
10.6869
10.7036
10.7228
10.7439
10.7665
10.7907
10.8166
10.8442
10.8736
10.9048
10.9377
10.9723
11.0087
11.0468
11.0866
11.1281
11.1712
11.2159
11.262
11.3095
11.3582
11.4081
11.4588
11.5102
11.562
11.6139
11.6657
11.7167
11.7666
11.8148
11.8608
11.904
11.9435
11.9787
12.009
12.0336
12.051
12.0645
1.63707
3.73118
11.3949
11.5075
11.0788
10.665
10.544
10.5579
10.5973
10.6352
10.6553
10.6678
10.681
10.6973
10.7163
10.737
10.7592
10.783
10.8085
10.8357
10.8647
10.8953
10.9277
10.9617
10.9975
11.035
11.0741
11.1148
11.1571
11.2009
11.2461
11.2927
11.3404
11.3892
11.4389
11.4892
11.54
11.5908
11.6414
11.6914
11.7404
11.7877
11.8329
11.8754
11.9144
11.9493
11.9794
12.004
12.0214
12.0352
1.63664
3.72548
11.3812
11.5037
11.0753
10.6605
10.5389
10.5526
10.5917
10.6292
10.649
10.661
10.6739
10.6899
10.7085
10.7288
10.7506
10.774
10.799
10.8257
10.854
10.8841
10.9158
10.9492
10.9842
11.0209
11.0592
11.099
11.1403
11.1831
11.2273
11.2727
11.3192
11.3668
11.4151
11.4641
11.5135
11.563
11.6122
11.6609
11.7085
11.7546
11.7987
11.8403
11.8786
11.9129
11.9426
11.9672
11.9846
11.9987
1.63615
3.71887
11.3654
11.4992
11.0712
10.6553
10.5329
10.5465
10.5851
10.6221
10.6415
10.6532
10.6656
10.6812
10.6993
10.7192
10.7405
10.7634
10.7878
10.8139
10.8416
10.871
10.902
10.9346
10.9687
11.0045
11.0417
11.0805
11.1207
11.1623
11.2051
11.2492
11.2943
11.3403
11.3871
11.4345
11.4821
11.5299
11.5774
11.6243
11.6703
11.7148
11.7574
11.7977
11.8349
11.8683
11.8974
11.9216
11.9389
11.9536
1.6356
3.7113
11.3474
11.494
11.0665
10.6493
10.526
10.5393
10.5774
10.6139
10.6328
10.644
10.656
10.6711
10.6887
10.7081
10.7288
10.7511
10.7749
10.8003
10.8273
10.8558
10.8859
10.9176
10.9508
10.9854
11.0215
11.0591
11.0979
11.1381
11.1794
11.2219
11.2653
11.3095
11.3544
11.3997
11.4454
11.491
11.5363
11.581
11.6248
11.6672
11.7077
11.7461
11.7816
11.8137
11.8418
11.8655
11.8826
11.8976
1.63499
3.70273
11.327
11.4881
11.061
10.6424
10.5181
10.531
10.5685
10.6044
10.6228
10.6335
10.645
10.6595
10.6766
10.6953
10.7154
10.737
10.76
10.7847
10.8108
10.8385
10.8676
10.8982
10.9302
10.9636
10.9984
11.0345
11.0718
11.1103
11.1499
11.1904
11.2318
11.2739
11.3165
11.3595
11.4026
11.4456
11.4882
11.5301
11.5711
11.6106
11.6483
11.684
11.717
11.7469
11.7733
11.7958
11.8124
11.8281
1.63431
3.69312
11.3042
11.4814
11.0549
10.6348
10.5091
10.5216
10.5583
10.5936
10.6114
10.6215
10.6324
10.6463
10.6627
10.6807
10.7001
10.7209
10.7432
10.7669
10.7921
10.8187
10.8467
10.8761
10.9068
10.9388
10.9721
11.0066
11.0421
11.0787
11.1162
11.1546
11.1936
11.2332
11.2731
11.3132
11.3533
11.3931
11.4323
11.4707
11.5079
11.5436
11.5775
11.6093
11.6387
11.6652
11.6888
11.7093
11.7245
11.7405
1.63359
3.68244
11.2791
11.4737
11.0479
10.6262
10.4989
10.5109
10.5468
10.5812
10.5983
10.6078
10.6181
10.6313
10.647
10.6642
10.6828
10.7028
10.7241
10.7469
10.771
10.7964
10.8232
10.8512
10.8805
10.9109
10.9424
10.975
11.0086
11.043
11.0782
11.114
11.1503
11.1869
11.2237
11.2604
11.2968
11.3327
11.3677
11.4016
11.434
11.4647
11.4933
11.5196
11.5435
11.5646
11.5832
11.5999
11.6126
11.6288
1.6328
3.67078
11.2515
11.4654
11.0403
10.6165
10.4874
10.4989
10.5336
10.5672
10.5836
10.5924
10.6019
10.6144
10.6293
10.6457
10.6634
10.6824
10.7027
10.7244
10.7473
10.7714
10.7968
10.8233
10.8509
10.8796
10.9092
10.9397
10.971
11.0029
11.0354
11.0684
11.1015
11.1348
11.1678
11.2005
11.2326
11.2637
11.2935
11.3217
11.3481
11.3721
11.3935
11.412
11.4277
11.4405
11.451
11.4603
11.4675
11.4825
1.63195
3.65818
11.2216
11.4563
11.0319
10.6058
10.4744
10.4852
10.5187
10.5513
10.567
10.575
10.5838
10.5954
10.6094
10.6249
10.6417
10.6596
10.6788
10.6993
10.7209
10.7436
10.7674
10.7923
10.8181
10.8447
10.8722
10.9004
10.9291
10.9583
10.9878
11.0174
11.047
11.0763
11.1051
11.1331
11.16
11.1854
11.209
11.2302
11.2487
11.264
11.2755
11.2832
11.2864
11.2857
11.2823
11.2779
11.2738
11.2846
1.63104
3.64474
11.1896
11.4465
11.0228
10.5939
10.4599
10.4699
10.5018
10.5334
10.5482
10.5555
10.5634
10.5741
10.5872
10.6017
10.6175
10.6343
10.6523
10.6714
10.6916
10.7128
10.7349
10.7579
10.7817
10.8062
10.8313
10.8568
10.8828
10.9089
10.935
10.961
10.9865
11.0114
11.0353
11.0578
11.0787
11.0974
11.1133
11.1259
11.1347
11.1386
11.1369
11.1299
11.1149
11.0931
11.0652
11.0344
11.0041
11.0005
1.63011
3.63065
11.156
11.4361
11.013
10.5807
10.4435
10.4526
10.4828
10.5133
10.5273
10.5337
10.5407
10.5506
10.5627
10.5762
10.5907
10.6064
10.6231
10.6407
10.6594
10.6789
10.6992
10.7202
10.7418
10.7639
10.7863
10.8091
10.8319
10.8546
10.877
10.8989
10.9199
10.9398
10.9581
10.9745
10.9884
10.9992
11.0063
11.0082
11.0053
10.9958
10.9763
10.9471
10.9064
10.852
10.7828
10.7009
10.6102
10.5549
1.62919
3.61607
11.1216
11.4252
11.0023
10.5659
10.4249
10.4329
10.461
10.4903
10.5035
10.5091
10.5153
10.5241
10.5352
10.5476
10.5611
10.5754
10.5907
10.6069
10.6239
10.6416
10.6599
10.6787
10.6979
10.7174
10.7371
10.7567
10.7761
10.7951
10.8134
10.8308
10.8468
10.8612
10.8733
10.8827
10.8889
10.8903
10.8875
10.8785
10.8599
10.8317
10.7909
10.7344
10.6576
10.5545
10.4165
10.2356
10.0015
9.74765
1.62844
3.59747
11.0808
11.4121
10.9886
10.5466
10.4001
10.4065
10.4319
10.4598
10.4723
10.477
10.482
10.4896
10.4994
10.5104
10.5224
10.5351
10.5487
10.5629
10.5778
10.5932
10.6089
10.625
10.6413
10.6575
10.6736
10.6893
10.7044
10.7186
10.7318
10.7434
10.753
10.7603
10.7644
10.7643
10.7614
10.7525
10.7344
10.7076
10.6698
10.6176
10.5469
10.4506
10.3197
10.1372
9.87417
9.46897
8.77089
7.24918
1.62766
3.57791
11.0377
11.3949
10.9696
10.5184
10.364
10.3684
10.3905
10.4177
10.43
10.4343
10.4384
10.4448
10.4533
10.4629
10.4733
10.4843
10.4958
10.5078
10.5202
10.5329
10.5457
10.5585
10.5711
10.5835
10.5952
10.6062
10.6162
10.6248
10.6317
10.6365
10.6383
10.6372
10.633
10.623
10.6059
10.5814
10.5476
10.5019
10.4413
10.361
10.2544
10.1121
9.91893
9.65119
9.26731
8.69839
7.85618
6.46907
1.62722
3.56649
11.0126
11.3834
10.9541
10.4902
10.325
10.3269
10.3453
10.3723
10.3846
10.3882
10.3912
10.3963
10.4034
10.4116
10.4203
10.4294
10.4389
10.4486
10.4584
10.4683
10.478
10.4875
10.4964
10.5047
10.5121
10.5182
10.5229
10.5257
10.5258
10.5243
10.5194
10.5091
10.4936
10.4721
10.4431
10.4049
10.3552
10.2911
10.2085
10.1026
9.96518
9.78633
9.55087
9.23754
8.81713
8.24931
7.51719
6.54361
1.6266
3.5573
10.9894
11.362
10.9262
10.4448
10.2701
10.272
10.292
10.3224
10.3362
10.3396
10.3417
10.3458
10.3519
10.3589
10.3661
10.3734
10.3808
10.3882
10.3955
10.4025
10.4092
10.4152
10.4205
10.4247
10.4277
10.429
10.4285
10.4264
10.421
10.4115
10.398
10.3797
10.3553
10.324
10.284
10.2336
10.17
10.0904
9.99087
9.86618
9.70954
9.51215
9.26287
8.94784
8.55246
8.06091
7.47985
6.74971
1.62719
3.59194
11.0508
11.3591
10.8988
10.3794
10.1933
10.1983
10.226
10.2636
10.2799
10.2834
10.285
10.2885
10.2941
10.3002
10.3062
10.312
10.3177
10.3231
10.3281
10.3326
10.3364
10.3394
10.3413
10.3417
10.341
10.3386
10.3334
10.3251
10.3137
10.2983
10.2784
10.2531
10.2211
10.1813
10.1322
10.0717
9.99773
9.90729
9.79689
9.66214
9.49774
9.29735
9.0537
8.759
8.40603
7.98757
7.50612
6.95416
1.58941
3.70275
11.0559
11.2678
10.8181
10.298
10.1242
10.1339
10.1701
10.2098
10.2262
10.2299
10.2318
10.2354
10.2402
10.245
10.2495
10.2535
10.257
10.2601
10.2625
10.2642
10.2649
10.2647
10.2635
10.2606
10.2553
10.248
10.2381
10.2251
10.2086
10.1879
10.1622
10.1307
10.0923
10.0457
9.98961
9.92205
9.84107
9.74419
9.6285
9.49057
9.32654
9.13205
8.90269
8.63396
8.32253
7.96573
7.56549
7.11716
1.55326
4.81172
11.2084
10.9437
10.3075
10.049
10.0429
10.0692
10.1164
10.1429
10.1527
10.1568
10.161
10.1661
10.1712
10.1757
10.1795
10.1826
10.185
10.1866
10.1871
10.1869
10.1858
10.1833
10.1788
10.1728
10.165
10.1548
10.1417
10.1251
10.1045
10.0794
10.0491
10.0127
9.9694
9.91788
9.85693
9.78498
9.70023
9.60066
9.48397
9.34758
9.18877
9.00462
8.79244
8.54976
8.27516
7.96857
7.63138
7.25627
1.55416
4.81895
11.1585
10.8744
10.2346
9.99392
10.0033
10.0446
10.093
10.1148
10.1209
10.1234
10.1263
10.1295
10.1321
10.1336
10.1343
10.1342
10.1335
10.1317
10.1285
10.1246
10.1197
10.1134
10.1054
10.0954
10.0831
10.0684
10.0508
10.0299
10.0055
9.97676
9.94291
9.90291
9.85583
9.80082
9.73666
9.66209
9.57574
9.47595
9.36098
9.22892
9.07787
8.90588
8.71132
8.49279
8.24954
7.98109
7.69376
7.37716
1.56434
4.838
11.2212
10.8942
10.1784
9.91666
9.93097
9.98444
10.0417
10.0663
10.0728
10.0755
10.0788
10.0821
10.0844
10.0854
10.0853
10.0843
10.0818
10.0777
10.0725
10.0662
10.0585
10.0491
10.0379
10.0246
10.009
9.99081
9.96978
9.94545
9.91715
9.88425
9.8462
9.8026
9.75269
9.69543
9.62988
9.55464
9.46851
9.37022
9.25861
9.13218
8.98978
8.83005
8.65206
8.45509
8.2395
8.0049
7.75536
7.48449
1.55466
4.81634
11.1454
10.8425
10.1542
9.89195
9.90327
9.95136
10.0075
10.0319
10.0376
10.0391
10.0411
10.0429
10.0436
10.0432
10.0416
10.0382
10.0333
10.0274
10.0203
10.0118
10.0017
9.98985
9.97599
9.95994
9.94144
9.92029
9.89609
9.86853
9.83705
9.80128
9.76071
9.71461
9.66238
9.6031
9.53605
9.46042
9.37539
9.27987
9.17294
9.05337
8.92014
8.77245
8.60999
8.43268
8.24072
8.03362
7.81488
7.57977
1.52542
4.759
10.9378
10.7175
10.1454
9.89658
9.89682
9.9252
9.97379
9.99726
10.0031
10.0039
10.0045
10.0048
10.0043
10.0026
9.99899
9.99387
9.98764
9.98024
9.9714
9.961
9.94882
9.93479
9.91864
9.9003
9.87942
9.85585
9.82915
9.79911
9.7653
9.7273
9.68464
9.63676
9.58315
9.52314
9.4561
9.3813
9.29803
9.20547
9.10281
8.98948
8.86497
8.72881
8.58052
8.41978
8.24669
8.06345
7.87046
7.66415
1.50933
4.71355
10.8545
10.7229
10.229
9.93553
9.8825
9.90057
9.9397
9.96392
9.97078
9.97052
9.96938
9.96709
9.96421
9.96039
9.95532
9.94897
9.94133
9.93235
9.92186
9.90976
9.89587
9.88011
9.86223
9.84212
9.81943
9.79404
9.76557
9.73377
9.69832
9.6588
9.61491
9.56611
9.51193
9.45187
9.38546
9.31211
9.23126
9.14228
9.04462
8.93781
8.82144
8.6952
8.55896
8.41283
8.25714
8.09256
7.92034
7.73748
1.6673
3.2869
10.49
11.0064
10.5921
10.0716
9.88261
9.88636
9.91131
9.94439
9.95519
9.95405
9.95013
9.9438
9.93798
9.93208
9.92519
9.91695
9.9073
9.89623
9.88366
9.86944
9.8534
9.83557
9.81565
9.79347
9.76875
9.74137
9.71097
9.67737
9.64024
9.59925
9.55403
9.50422
9.44941
9.38928
9.32347
9.25154
9.17303
9.08753
8.99455
8.89377
8.78496
8.66785
8.54246
8.4089
8.2675
8.11874
7.96381
7.8002
1.67519
3.16294
10.4234
11.1593
10.7117
10.1069
9.86115
9.84786
9.86552
9.8977
9.90818
9.90634
9.90039
9.89109
9.88349
9.87699
9.87009
9.86193
9.8523
9.84118
9.82852
9.81419
9.79803
9.77986
9.75958
9.73697
9.71177
9.68384
9.65288
9.61871
9.58108
9.53977
9.49449
9.44497
9.39098
9.33208
9.26787
9.19802
9.12222
9.04005
8.95125
8.85569
8.75333
8.64435
8.52855
8.40597
8.27684
8.1416
8.00122
7.85358
1.64063
3.04824
9.89459
11.0025
10.6438
10.1043
9.88055
9.85936
9.8703
9.88862
9.89031
9.88638
9.87628
9.86297
9.85185
9.8422
9.83245
9.82174
9.80981
9.79662
9.78209
9.76608
9.74842
9.72895
9.70748
9.68383
9.65782
9.62917
9.59764
9.56306
9.52525
9.48396
9.43894
9.38993
9.33666
9.27882
9.21614
9.14836
9.07524
8.99668
8.91261
8.82279
8.72702
8.62513
8.51702
8.40306
8.28408
8.16043
8.03257
7.89854
1.43409
4.546
10.3224
10.5044
10.2129
9.91873
9.8108
9.80812
9.8164
9.82698
9.82692
9.82345
9.81451
9.80262
9.79243
9.78338
9.77397
9.76343
9.7516
9.73846
9.72396
9.70795
9.69027
9.67075
9.64925
9.62559
9.5996
9.57103
9.53973
9.50559
9.46835
9.42776
9.38363
9.33574
9.28388
9.2278
9.1673
9.10218
9.0323
8.95751
8.8777
8.79273
8.70254
8.60713
8.50691
8.40202
8.29231
8.17801
8.06013
7.93721
1.63292
2.99706
9.70981
10.8902
10.5768
10.0763
9.85632
9.82176
9.82708
9.83358
9.83084
9.82173
9.8051
9.78936
9.77581
9.76331
9.75054
9.73678
9.72181
9.70577
9.68863
9.67019
9.65026
9.62867
9.60526
9.57991
9.55245
9.52282
9.49085
9.45623
9.41874
9.37819
9.33444
9.28733
9.23662
9.18209
9.12357
9.0609
8.99394
8.92256
8.8467
8.7663
8.68137
8.59196
8.49822
8.40029
8.29825
8.19254
8.08376
7.97066
1.6418
2.92884
9.71111
11.0162
10.636
10.0442
9.78621
9.7524
9.76256
9.77833
9.77729
9.77027
9.75448
9.73747
9.7237
9.71166
9.6995
9.68649
9.67245
9.65716
9.64046
9.62232
9.60263
9.58127
9.55813
9.53303
9.50582
9.47639
9.44458
9.41021
9.37314
9.33325
9.29033
9.24416
9.19463
9.14163
9.08504
9.02472
8.96057
8.89251
8.82047
8.7444
8.6643
8.58023
8.49227
8.40055
8.30531
8.20697
8.10594
8.00093
1.64012
2.90974
9.65711
10.9949
10.6111
10.0043
9.73693
9.70151
9.71266
9.73113
9.73068
9.72456
9.70978
9.69227
9.67824
9.66628
9.6543
9.64135
9.62719
9.61174
9.59496
9.57675
9.55702
9.53565
9.51252
9.48749
9.46043
9.43121
9.39972
9.36581
9.32935
9.2902
9.24822
9.20327
9.15521
9.10395
9.04941
8.9915
8.93014
8.86524
8.79676
8.72467
8.64899
8.56978
8.48715
8.40122
8.31223
8.22035
8.12608
8.02833
1.62576
2.91868
9.48976
10.8532
10.5449
9.99379
9.73768
9.68947
9.69417
9.70256
9.7003
9.69189
9.6749
9.65829
9.64407
9.6311
9.618
9.60408
9.58909
9.57296
9.55561
9.53694
9.51682
9.49515
9.47179
9.44663
9.41955
9.39044
9.35918
9.32563
9.28967
9.25119
9.21006
9.16623
9.1196
9.07008
9.01754
8.96191
8.90313
8.84117
8.77599
8.70757
8.63594
8.56116
8.48333
8.40257
8.31909
8.23301
8.14463
8.05292
1.39258
4.47942
10.0239
10.2977
10.0178
9.73058
9.62281
9.61372
9.61916
9.62588
9.62489
9.61985
9.60879
9.59623
9.58492
9.57422
9.56303
9.55073
9.53716
9.52223
9.50595
9.48824
9.46901
9.44819
9.42567
9.40136
9.37513
9.3469
9.31658
9.28409
9.2493
9.21212
9.17247
9.13027
9.08543
9.03787
8.98751
8.93428
8.87815
8.81913
8.7572
8.69237
8.62463
8.55402
8.48058
8.40443
8.32571
8.24455
8.16132
8.07503
1.63104
2.94265
9.57826
10.8374
10.4947
9.9055
9.63154
9.58891
9.59921
9.61983
9.62163
9.61705
9.60483
9.5877
9.57292
9.55994
9.54685
9.53274
9.5173
9.50051
9.48251
9.46309
9.4423
9.42012
9.3965
9.3713
9.34436
9.31559
9.28487
9.25213
9.21735
9.18051
9.14149
9.10021
9.05657
9.01048
8.9619
8.91077
8.857
8.80054
8.74139
8.67954
8.61501
8.54788
8.47824
8.4062
8.33186
8.25531
8.17677
8.09534
1.64121
3.0733
9.85363
10.7692
10.3879
9.77572
9.51332
9.49302
9.51039
9.54346
9.55318
9.55059
9.54242
9.52841
9.51613
9.50542
9.49452
9.48239
9.46879
9.4538
9.43758
9.42008
9.40108
9.38045
9.35807
9.33395
9.30807
9.28037
9.25081
9.21936
9.18592
9.1504
9.11274
9.07285
9.03069
8.98621
8.93935
8.89009
8.83838
8.78423
8.72765
8.66868
8.60731
8.54352
8.47738
8.40897
8.33837
8.26571
8.19118
8.11393
1.40296
4.54378
10.0944
10.1529
9.84801
9.54096
9.44169
9.44708
9.4666
9.48675
9.49266
9.49123
9.48638
9.47717
9.46804
9.45916
9.44957
9.43864
9.42623
9.41237
9.39709
9.38033
9.36201
9.34206
9.32044
9.29713
9.2721
9.2453
9.21665
9.18612
9.15369
9.11932
9.08293
9.04447
9.0039
8.96116
8.91621
8.86903
8.81961
8.76791
8.71392
8.65765
8.59915
8.53849
8.47567
8.41079
8.34384
8.27491
8.20417
8.13082
1.38696
4.55378
9.99158
10.0188
9.77801
9.54684
9.46489
9.46222
9.46837
9.47787
9.47973
9.47774
9.47198
9.46217
9.45206
9.44182
9.43077
9.41854
9.40502
9.39022
9.37412
9.3567
9.3379
9.31766
9.29591
9.2726
9.2477
9.22114
9.19291
9.16293
9.13112
9.09743
9.06181
9.0242
8.98459
8.94292
8.89914
8.85327
8.80538
8.75552
8.70361
8.6496
8.5935
8.53534
8.47514
8.41292
8.3488
8.28289
8.21534
8.14537
1.42034
4.56728
10.2046
10.1759
9.79392
9.45842
9.36515
9.37723
9.40872
9.4335
9.44067
9.43939
9.43497
9.42661
9.41786
9.40891
9.39912
9.38802
9.37545
9.36143
9.34597
9.32902
9.3106
9.2907
9.26929
9.24633
9.22178
9.1956
9.16779
9.1383
9.10707
9.07405
9.03923
9.00261
8.96416
8.92387
8.88174
8.83775
8.79177
8.74377
8.69379
8.64186
8.58802
8.53227
8.47463
8.41514
8.35387
8.29087
8.22622
8.15911
1.53179
3.34921
9.87927
10.7027
10.3162
9.67373
9.38923
9.3632
9.38092
9.41702
9.43153
9.43059
9.42614
9.41669
9.40638
9.39652
9.38623
9.37478
9.36187
9.34753
9.3318
9.31472
9.29622
9.27627
9.25481
9.23182
9.20722
9.18094
9.15314
9.12367
9.09251
9.05965
9.02509
8.98882
8.95082
8.91109
8.86962
8.82636
8.78132
8.73448
8.68589
8.63552
8.58328
8.52927
8.47359
8.41625
8.3573
8.29678
8.23478
8.17061
1.39566
4.53273
10.0589
10.0904
9.78764
9.4631
9.34143
9.34
9.35144
9.37304
9.38206
9.38144
9.37811
9.37076
9.36196
9.35334
9.3443
9.33414
9.32254
9.30948
9.29501
9.27913
9.26181
9.24301
9.22268
9.2008
9.17733
9.15227
9.12568
9.09751
9.06774
9.03638
9.00335
8.9686
8.9321
8.89387
8.85389
8.81218
8.76872
8.72351
8.67654
8.62785
8.57756
8.52564
8.47209
8.41694
8.36025
8.30206
8.2425
8.18102
1.39313
4.52994
10.042
10.0776
9.77155
9.44415
9.32437
9.32476
9.33749
9.3604
9.36996
9.36915
9.36525
9.35692
9.34735
9.33795
9.3281
9.31712
9.30477
9.29103
9.27599
9.25965
9.242
9.22301
9.20265
9.18089
9.15773
9.13316
9.10704
9.07936
9.05006
9.01913
8.98662
8.95252
8.91684
8.87956
8.84066
8.80011
8.75792
8.71409
8.66863
8.62157
8.57292
8.5227
8.47091
8.41759
8.36277
8.3065
8.24886
8.18938
1.53007
3.33785
9.84191
10.6847
10.2994
9.63506
9.33078
9.29484
9.31144
9.34641
9.36189
9.36108
9.35667
9.34708
9.33636
9.32647
9.31652
9.30561
9.29333
9.27971
9.26476
9.24852
9.23094
9.21201
9.1917
9.16989
9.14674
9.12214
9.09603
9.0684
9.03925
9.00857
8.97636
8.94263
8.90738
8.87058
8.83224
8.79235
8.75091
8.70794
8.66343
8.61741
8.56988
8.52088
8.4704
8.41851
8.36522
8.31058
8.25469
8.19713
1.40728
4.54663
10.1131
10.088
9.70418
9.3514
9.2413
9.25065
9.28013
9.3093
9.31904
9.31816
9.31435
9.30644
9.29786
9.28942
9.28044
9.27032
9.25885
9.24605
9.23196
9.21659
9.19993
9.18195
9.16263
9.14192
9.11984
9.09634
9.0714
9.04498
9.01707
8.98771
8.95689
8.92457
8.89074
8.85538
8.8185
8.78012
8.74023
8.6988
8.65584
8.61136
8.56538
8.51793
8.46904
8.41872
8.367
8.31397
8.2597
8.20378
1.39218
4.55445
10.0025
9.97781
9.66672
9.38677
9.29832
9.30137
9.31362
9.3245
9.32512
9.32264
9.31609
9.30607
9.29609
9.28619
9.2757
9.26419
9.25155
9.23776
9.22282
9.20674
9.1895
9.17108
9.15143
9.13053
9.10835
9.08488
9.06007
9.03393
9.00643
8.97751
8.94715
8.91532
8.88202
8.84723
8.81094
8.77318
8.73395
8.69328
8.65118
8.60766
8.56271
8.51634
8.46859
8.41944
8.36896
8.31713
8.26401
8.20914
1.38427
4.54678
9.95425
9.94402
9.65703
9.38565
9.29344
9.29284
9.29903
9.30683
9.30699
9.30476
9.29867
9.28884
9.27894
9.26914
9.25879
9.24749
9.23513
9.2217
9.20719
9.19156
9.17478
9.1568
9.13762
9.11719
9.09549
9.0725
9.04819
9.02254
8.99553
8.96713
8.93732
8.90609
8.87345
8.8394
8.80394
8.76704
8.72871
8.68894
8.64774
8.60512
8.56109
8.51567
8.46891
8.42087
8.37148
8.32072
8.26865
8.21478
1.37645
4.50827
9.91487
10.0291
9.72926
9.40188
9.28091
9.27704
9.28568
9.29813
9.30036
9.29803
9.29139
9.28039
9.26969
9.25952
9.249
9.23757
9.22504
9.21142
9.19671
9.1809
9.16397
9.14589
9.12664
9.1062
9.08453
9.06163
9.03745
9.01199
8.98522
8.95712
8.92767
8.89686
8.86468
8.83112
8.79617
8.75983
8.7221
8.68298
8.64249
8.60064
8.55745
8.51295
8.4671
8.4199
8.37139
8.32161
8.27061
8.218
1.62601
2.96729
9.51697
10.616
10.272
9.64634
9.33688
9.27115
9.27878
9.29714
9.3048
9.3026
9.29518
9.28086
9.26766
9.2563
9.24539
9.23381
9.22115
9.20738
9.19254
9.17664
9.15968
9.14161
9.12239
9.10201
9.08043
9.05763
9.03359
9.00827
8.98166
8.95374
8.92448
8.89389
8.86194
8.82863
8.79396
8.75792
8.72052
8.68176
8.64165
8.6002
8.55744
8.51337
8.46801
8.42138
8.37354
8.32457
8.2745
8.22303
1.63529
2.85198
9.47917
10.8204
10.4145
9.67621
9.30895
9.23103
9.24164
9.26776
9.28263
9.28147
9.27542
9.26215
9.24796
9.23628
9.22576
9.21478
9.20266
9.18933
9.17488
9.15938
9.14281
9.12515
9.10637
9.08644
9.06533
9.04302
9.01949
8.9947
8.96865
8.94132
8.91268
8.88272
8.85143
8.8188
8.78484
8.74952
8.71287
8.67487
8.63554
8.59488
8.55291
8.50963
8.46506
8.41923
8.3722
8.324
8.27472
8.22409
1.62636
2.96054
9.50192
10.6068
10.2628
9.63085
9.31353
9.24595
9.25436
9.27507
9.28542
9.28359
9.27663
9.26231
9.24835
9.23652
9.22547
9.21389
9.20125
9.18751
9.17273
9.15696
9.14017
9.12234
9.10343
9.08341
9.06226
9.03995
9.01645
8.99174
8.96579
8.93859
8.91012
8.88036
8.8493
8.81692
8.78323
8.74821
8.71187
8.67421
8.63523
8.59495
8.55337
8.51051
8.46638
8.42101
8.3744
8.3266
8.27765
8.22718
1.37328
4.50542
9.89588
10.0099
9.70615
9.36465
9.23615
9.23192
9.24152
9.25626
9.25955
9.25738
9.25096
9.24002
9.22936
9.21933
9.20904
9.19788
9.18567
9.17242
9.15816
9.14289
9.12661
9.10927
9.09087
9.07136
9.05073
9.02894
9.00598
8.98181
8.95643
8.9298
8.9019
8.87272
8.84226
8.81048
8.77739
8.74298
8.70726
8.67021
8.63186
8.59218
8.5512
8.50894
8.4654
8.42061
8.37456
8.32726
8.2787
8.2284
1.37889
4.54071
9.92021
9.90402
9.60619
9.3297
9.24212
9.24462
9.25563
9.26569
9.26601
9.26346
9.25657
9.24576
9.23507
9.22469
9.21387
9.20216
9.18946
9.17577
9.16112
9.14549
9.12887
9.11121
9.09251
9.07273
9.05186
9.02985
9.00669
8.98236
8.95682
8.93007
8.90207
8.87282
8.8423
8.8105
8.7774
8.74301
8.70733
8.67034
8.63206
8.5925
8.55165
8.50954
8.46617
8.42157
8.37574
8.32869
8.28045
8.23069
1.40334
4.56185
10.051
9.98471
9.59122
9.27576
9.1932
9.20492
9.23487
9.25548
9.25818
9.25558
9.24862
9.23826
9.22823
9.21843
9.20805
9.19667
9.18423
9.17078
9.15634
9.14094
9.12451
9.10705
9.08855
9.06897
9.04829
9.02648
9.00352
8.97938
8.95404
8.92748
8.89969
8.87063
8.84031
8.8087
8.77581
8.74161
8.70612
8.66933
8.63125
8.59188
8.55122
8.5093
8.46613
8.42171
8.37608
8.32926
8.28128
8.23194
3.03478
2.44333
2.97853
4.15885
4.10726
4.09387
4.03468
3.99782
3.98497
3.98743
4.01416
4.05707
4.09428
4.12546
4.15977
4.20259
4.25419
4.31216
4.37371
4.43653
4.49896
4.55967
4.61843
4.67534
4.72635
4.77179
4.81161
4.84613
4.87542
4.8996
4.91869
4.93289
4.94231
4.94714
4.94761
4.94599
4.94065
4.92931
4.91378
4.89585
4.87566
4.85309
4.82832
4.80156
4.77313
4.74326
4.71223
4.68026
4.64759
4.61445
4.58103
4.54756
4.51421
4.48119
4.44869
4.4169
4.38601
4.35621
4.3277
4.30066
4.27528
4.25177
4.23029
4.21102
4.19414
4.17979
4.16808
4.15912
4.15291
4.14943
4.14866
4.14901
4.15045
4.15416
4.16207
4.17426
4.18754
4.2011
4.21481
4.22849
4.24184
4.25451
4.2662
4.27666
4.2857
4.29322
4.29918
4.30358
4.3065
4.30814
4.3086
4.30852
4.30814
4.30707
4.30471
4.30065
4.29622
4.29172
4.28698
4.28292
4.08429
3.53555
3.73583
4.21331
4.13547
4.07962
4.02218
3.98298
3.97105
3.98259
4.02231
4.07212
4.10432
4.12718
4.15667
4.19761
4.24879
4.30661
4.36806
4.43073
4.49309
4.55396
4.61295
4.66961
4.72069
4.76614
4.80606
4.84071
4.87012
4.89443
4.91363
4.92794
4.93741
4.94228
4.94254
4.94137
4.93711
4.92711
4.91002
4.89147
4.87143
4.84921
4.82469
4.79811
4.7698
4.74005
4.70913
4.67728
4.64472
4.61167
4.57835
4.54496
4.51169
4.47874
4.4463
4.41457
4.38373
4.35398
4.32551
4.2985
4.27316
4.24967
4.22821
4.20897
4.19211
4.17778
4.16612
4.15723
4.15113
4.14789
4.14764
4.14805
4.14952
4.15318
4.16096
4.17332
4.18692
4.20082
4.21479
4.22866
4.24216
4.25497
4.26678
4.27732
4.28642
4.29397
4.29993
4.30432
4.30722
4.30883
4.30914
4.30904
4.30862
4.30754
4.30516
4.30105
4.29652
4.29205
4.28749
4.28513
5.2109
4.44751
4.21572
4.2479
4.22993
4.17969
4.10004
4.04837
4.02812
4.03032
4.04215
4.07046
4.10624
4.13782
4.17138
4.21216
4.26108
4.31651
4.37579
4.43663
4.49738
4.55685
4.61422
4.6688
4.71905
4.76396
4.80343
4.8376
4.86655
4.89041
4.90923
4.92314
4.93224
4.93665
4.93658
4.9355
4.93186
4.92322
4.9059
4.88634
4.86568
4.84335
4.81896
4.79255
4.76437
4.73474
4.70393
4.6722
4.63977
4.60685
4.57366
4.54038
4.50723
4.47438
4.44204
4.41041
4.37966
4.35
4.32161
4.2947
4.26944
4.24603
4.22465
4.2055
4.18873
4.17452
4.163
4.15428
4.14848
4.14578
4.14586
4.14644
4.14812
4.152
4.16004
4.17223
4.18602
4.20039
4.21486
4.22916
4.24299
4.25605
4.26805
4.27873
4.2879
4.29547
4.30138
4.30574
4.30867
4.31012
4.31021
4.31006
4.30954
4.30827
4.3056
4.30148
4.29696
4.29254
4.28815
4.28741
5.81375
5.07952
4.64424
4.44779
4.40956
4.34599
4.2559
4.17676
4.12508
4.1041
4.10617
4.11665
4.14187
4.17942
4.21351
4.24872
4.28965
4.33726
4.39015
4.44607
4.50305
4.55957
4.61436
4.66675
4.71522
4.75902
4.79769
4.83108
4.85934
4.8826
4.90087
4.91425
4.92288
4.92672
4.92655
4.92543
4.92208
4.91431
4.89843
4.87819
4.85665
4.83388
4.80949
4.78329
4.7554
4.72605
4.69551
4.66405
4.63188
4.59922
4.56627
4.53324
4.50031
4.4677
4.43558
4.40417
4.37363
4.34418
4.316
4.28928
4.26422
4.24101
4.21983
4.20087
4.18431
4.17031
4.15903
4.15062
4.14523
4.14333
4.14352
4.14432
4.14635
4.15072
4.15943
4.17121
4.185
4.19981
4.2149
4.22976
4.24403
4.25741
4.26962
4.28043
4.28967
4.29726
4.3032
4.30754
4.31033
4.31148
4.31143
4.31116
4.31043
4.30884
4.30573
4.30172
4.29728
4.29294
4.28877
4.28892
6.21705
5.58122
5.10512
4.81531
4.66674
4.55523
4.44555
4.34532
4.26837
4.22078
4.20058
4.20143
4.2075
4.22361
4.25596
4.28921
4.32572
4.36699
4.41298
4.46256
4.51426
4.56651
4.61786
4.66715
4.71332
4.75539
4.7928
4.82501
4.8523
4.87475
4.8922
4.90483
4.91281
4.91587
4.91561
4.91437
4.91101
4.90357
4.88853
4.86867
4.84671
4.82339
4.7987
4.77251
4.74482
4.71577
4.68556
4.65441
4.62256
4.59021
4.55757
4.52484
4.49222
4.45991
4.4281
4.39698
4.36676
4.33761
4.30973
4.28332
4.25857
4.23566
4.2148
4.19615
4.17992
4.16627
4.15536
4.14743
4.14254
4.14145
4.14173
4.14274
4.14516
4.15023
4.15933
4.17108
4.18484
4.19988
4.2154
4.23076
4.24545
4.25913
4.27153
4.28242
4.29169
4.29931
4.30523
4.30941
4.31199
4.31278
4.31266
4.31224
4.31124
4.30918
4.30584
4.3018
4.29738
4.29312
4.28927
4.28959
6.52438
5.98849
5.53306
5.18865
4.95566
4.79005
4.65425
4.53623
4.43895
4.36712
4.32169
4.29959
4.29884
4.30201
4.31268
4.33585
4.36836
4.4044
4.44309
4.48486
4.52938
4.57556
4.62192
4.66719
4.71021
4.74995
4.78559
4.81659
4.8428
4.86428
4.88081
4.89266
4.89999
4.90226
4.90193
4.90058
4.89713
4.88973
4.87512
4.85614
4.83434
4.81072
4.78571
4.75942
4.73188
4.70314
4.67333
4.64261
4.61119
4.57926
4.54704
4.51473
4.48253
4.45064
4.41926
4.38857
4.35878
4.33008
4.30265
4.27669
4.2524
4.22996
4.20956
4.19138
4.17563
4.16249
4.15214
4.14476
4.14045
4.1401
4.14046
4.14168
4.14453
4.15043
4.15992
4.17177
4.18547
4.2005
4.21616
4.23175
4.24669
4.26056
4.27307
4.28405
4.29336
4.30092
4.30671
4.31072
4.31305
4.31351
4.31335
4.31283
4.31161
4.30913
4.30556
4.30142
4.29699
4.2928
4.28923
4.28965
6.76898
6.3178
5.89965
5.54012
5.25943
5.04814
4.88128
4.74234
4.62607
4.53306
4.46449
4.41964
4.39605
4.38977
4.39136
4.39797
4.41359
4.44207
4.47379
4.50896
4.54688
4.58663
4.62724
4.66772
4.70699
4.74389
4.77744
4.80693
4.83197
4.85241
4.86819
4.87927
4.88588
4.88736
4.88696
4.88549
4.88188
4.87425
4.86011
4.84182
4.82043
4.79684
4.7717
4.74534
4.71791
4.68945
4.66004
4.62978
4.59885
4.56741
4.53569
4.50388
4.47219
4.44082
4.40997
4.37982
4.3506
4.32245
4.29561
4.27024
4.24655
4.22472
4.20495
4.18742
4.17231
4.1598
4.15007
4.14329
4.13975
4.13981
4.14033
4.14185
4.14524
4.1521
4.16185
4.17373
4.18728
4.2021
4.21759
4.23312
4.24808
4.26197
4.27448
4.2854
4.2946
4.30203