/*--------------------------------*- C++ -*----------------------------------*\
| =========                 |                                                 |
| \\      /  F ield         | OpenFOAM: The Open Source CFD Toolbox           |
|  \\    /   O peration     | Version:  2412                                  |
|   \\  /    A nd           | Website:  www.openfoam.com                      |
|    \\/     M anipulation  |                                                 |
\*---------------------------------------------------------------------------*/
FoamFile
{
    version     2.0;
    format      ascii;
    arch        "LSB;label=32;scalar=64";
    class       surfaceScalarField;
    location    "14.5";
    object      phi;
}
// * * * * * * * * * * * * * * * * * * * * * * * * * * * * * * * * * * * * * //

dimensions      [1 0 -1 0 0 0 0];

oriented        oriented;

internalField   nonuniform List<scalar> 
13790
(
0.00292386
-1.97496e-07
0.00274501
9.33866e-07
0.00280515
3.28222e-06
0.00280662
5.63523e-06
0.00280073
6.53312e-06
0.00279368
7.23424e-06
0.00278582
8.03454e-06
0.00277698
8.99329e-06
0.00276704
1.00902e-05
0.00275582
1.13438e-05
0.00274327
1.26856e-05
0.00272929
1.4075e-05
0.0027139
1.55158e-05
0.00269694
1.70234e-05
0.00267845
1.86112e-05
0.00265823
2.02852e-05
0.00263625
2.20463e-05
0.00261242
2.39026e-05
0.00258663
2.58566e-05
0.00255877
2.79185e-05
0.00252874
3.00935e-05
0.0024964
3.23956e-05
0.00246166
3.48274e-05
0.0024243
3.74063e-05
0.0023842
4.01335e-05
0.00234129
4.3033e-05
0.00229523
4.61045e-05
0.00224592
4.9361e-05
0.00219313
5.28186e-05
0.00213673
5.64851e-05
0.00207646
6.03687e-05
0.00201192
6.4469e-05
0.0019432
6.87974e-05
0.00186995
7.33751e-05
0.00179179
7.815e-05
0.00170864
8.31389e-05
0.00162029
8.83323e-05
0.0015268
9.37043e-05
0.00142763
9.91903e-05
0.00132278
0.000104702
0.00121252
0.00011029
0.00109689
0.000115852
0.000975895
0.000121268
0.000849378
0.0001264
0.000717879
0.000131149
0.000582218
0.000135535
0.000442583
0.000139556
0.000299682
0.000142816
0.000152612
0.000147107
0.000152696
0.00303229
2.04596e-08
0.0028467
8.45868e-07
0.00290767
8.67618e-06
0.00290922
1.13847e-05
0.00290349
1.29286e-05
0.00289641
1.45132e-05
0.00288831
1.63033e-05
0.00287915
1.83224e-05
0.00286881
2.05825e-05
0.00285717
2.3117e-05
0.00284416
2.5829e-05
0.00282969
2.86507e-05
0.00281374
3.15861e-05
0.00279618
3.46599e-05
0.00277701
3.78948e-05
0.00275606
4.13043e-05
0.00273329
4.4891e-05
0.0027086
4.86712e-05
0.00268187
5.26498e-05
0.002653
5.68496e-05
0.00262189
6.12791e-05
0.00258836
6.59668e-05
0.00255235
7.09179e-05
0.00251366
7.61714e-05
0.0024721
8.17261e-05
0.00242761
8.76291e-05
0.00237987
9.38836e-05
0.0023288
0.000100521
0.00227408
0.000107564
0.00221559
0.000115027
0.00215314
0.000122942
0.00208626
0.000131303
0.00201499
0.000140128
0.00193901
0.000149447
0.00185799
0.000159195
0.00177175
0.000169384
0.00168005
0.000179989
0.001583
0.000190941
0.00148006
0.000202184
0.00137114
0.000213494
0.00125648
0.000224948
0.00113621
0.000236305
0.00101033
0.000247441
0.000878651
0.000257984
0.000741712
0.000267742
0.00060042
0.000276702
0.000455066
0.000284826
0.000306238
0.000291558
0.000154305
0.000299079
0.000307088
0.003145
9.22968e-08
0.00295223
1.21765e-06
0.00301566
1.3981e-05
0.00301717
1.74214e-05
0.00301133
1.94727e-05
0.00300412
2.19273e-05
0.0029958
2.48016e-05
0.00298633
2.79613e-05
0.00297563
3.1447e-05
0.00296358
3.53078e-05
0.00295011
3.94288e-05
0.00293514
4.37254e-05
0.00291865
4.82104e-05
0.00290048
5.2906e-05
0.00288064
5.78507e-05
0.00285896
6.30547e-05
0.0028354
6.85347e-05
0.00280984
7.43028e-05
0.00278217
8.03814e-05
0.00275231
8.67892e-05
0.0027201
9.35574e-05
0.0026854
0.000100707
0.00264813
0.000108273
0.0026081
0.000116287
0.00256509
0.000124775
0.00251903
0.000133778
0.00246963
0.000143336
0.00241679
0.000153465
0.00236014
0.000164231
0.00229958
0.000175619
0.00223495
0.000187719
0.00216573
0.000200496
0.0020919
0.000213986
0.00201321
0.000228223
0.00192932
0.000243145
0.00183998
0.000258757
0.0017449
0.000274984
0.00164424
0.000291766
0.0015375
0.000309028
0.00142444
0.000326455
0.00130533
0.000344033
0.00118025
0.000361536
0.00104939
0.000378606
0.000912321
0.000395021
0.000769728
0.000410017
0.000622437
0.000423867
0.000470957
0.00043621
0.000316042
0.000446383
0.000158554
0.000456604
0.000465733
0.00326194
1.16361e-07
0.003062
1.67714e-06
0.00312802
1.92167e-05
0.00312959
2.36642e-05
0.00312356
2.6226e-05
0.00311619
2.95148e-05
0.00310767
3.35052e-05
0.00309791
3.78907e-05
0.00308686
4.26681e-05
0.00307441
4.79028e-05
0.00306051
5.3469e-05
0.00304505
5.9291e-05
0.00302802
6.53725e-05
0.00300925
7.17539e-05
0.00298877
7.8461e-05
0.00296636
8.55297e-05
0.00294203
9.29577e-05
0.00291562
0.000100792
0.00288703
0.000109029
0.00285616
0.000117731
0.00282291
0.000126902
0.00278704
0.000136614
0.00274853
0.000146859
0.00270717
0.000157746
0.00266274
0.000169244
0.00261513
0.000181475
0.0025641
0.000194417
0.0025095
0.000208186
0.00245097
0.000222768
0.00238836
0.000238251
0.0023216
0.000254645
0.00225005
0.000272036
0.00217373
0.000290321
0.0020923
0.000309707
0.00200558
0.000329956
0.00191313
0.000351261
0.00181468
0.00037331
0.00171037
0.000396218
0.00159981
0.000419756
0.00148254
0.000443648
0.00135882
0.000467669
0.00122888
0.000491601
0.00109272
0.000515136
0.000950204
0.000537543
0.000801491
0.000558412
0.000648012
0.000577206
0.000489975
0.000594139
0.000328389
0.000607866
0.00016462
0.000620411
0.000630447
0.00338318
1.39846e-07
0.00317584
2.1685e-06
0.00324447
2.44806e-05
0.00324617
3.00408e-05
0.00324
3.31585e-05
0.00323245
3.72833e-05
0.00322374
4.2413e-05
0.00321373
4.80811e-05
0.00320236
5.42153e-05
0.00318953
6.08724e-05
0.00317522
6.79316e-05
0.00315929
7.53235e-05
0.00314175
8.30566e-05
0.00312241
9.11772e-05
0.00310129
9.97091e-05
0.00307818
0.0001087
0.0030531
0.000118143
0.00302586
0.000128105
0.00299638
0.000138574
0.00296455
0.000149638
0.00293024
0.000161292
0.00289327
0.000173636
0.00285355
0.000186661
0.00281088
0.000200492
0.00276508
0.000215109
0.00271601
0.000230653
0.00266332
0.000247112
0.00260706
0.000264599
0.00254669
0.000283171
0.0024821
0.000302828
0.00241319
0.000323718
0.00233943
0.000345816
0.0022606
0.000369154
0.00217658
0.000393777
0.00208696
0.000419679
0.00199152
0.000446778
0.00188963
0.000475049
0.00178177
0.000504214
0.00166721
0.000534502
0.00154577
0.000565039
0.00141727
0.000596048
0.00128226
0.000626697
0.0011407
0.00065711
0.000992134
0.000686203
0.000837264
0.000712935
0.000676801
0.000737505
0.000511819
0.000758989
0.000343074
0.000776511
0.000171837
0.000791689
0.00080238
0.00350894
1.6358e-07
0.00329392
2.66636e-06
0.00336527
2.97887e-05
0.00336714
3.65215e-05
0.00336085
4.02499e-05
0.00335314
4.52172e-05
0.00334421
5.15464e-05
0.00333399
5.84855e-05
0.00332235
6.60396e-05
0.00330919
7.41812e-05
0.00329448
8.27948e-05
0.00327812
9.17963e-05
0.00326007
0.000101244
0.00324019
0.000111147
0.00321845
0.000121577
0.00319469
0.000132534
0.00316885
0.000144073
0.00314083
0.000156205
0.00311048
0.000168997
0.00307772
0.000182466
0.00304241
0.000196703
0.00300436
0.00021173
0.00296347
0.000227635
0.00291957
0.000244474
0.00287241
0.000262327
0.00282192
0.000281248
0.00276771
0.000301352
0.00270976
0.000322655
0.00264768
0.000345329
0.00258118
0.000369318
0.0025102
0.000394814
0.00243427
0.000421807
0.00235311
0.000450339
0.00226643
0.000480462
0.00217409
0.000512124
0.00207558
0.000545414
0.00197044
0.000580013
0.00185883
0.000615942
0.00174045
0.000653083
0.00161453
0.000690919
0.00148142
0.000729034
0.00134098
0.0007672
0.00119376
0.000804734
0.00103902
0.00084114
0.000877071
0.000874515
0.000709566
0.000904824
0.000536569
0.000931843
0.000359673
0.000953279
0.000180384
0.000971016
0.000982862
0.00363939
1.87652e-07
0.00341639
3.166e-06
0.00349057
3.51366e-05
0.00349265
4.30807e-05
0.00348629
4.74522e-05
0.00347845
5.32923e-05
0.00346938
6.08201e-05
0.00345894
6.91171e-05
0.00344703
7.81309e-05
0.00343355
8.78124e-05
0.00341849
9.80173e-05
0.00340171
0.000108695
0.0033832
0.000119894
0.00336279
0.000131654
0.00334048
0.000144018
0.00331607
0.000157026
0.00328954
0.000170692
0.00326077
0.000185088
0.00322958
0.000200232
0.00319591
0.000216209
0.00315968
0.000233058
0.00312055
0.000250881
0.00307856
0.000269698
0.0030335
0.000289667
0.00298508
0.000310792
0.00293316
0.000333234
0.00287757
0.000357017
0.00281804
0.000382308
0.00275426
0.000409136
0.002686
0.000437621
0.00261308
0.000467838
0.00253503
0.000499901
0.00245167
0.000533764
0.00236249
0.000569629
0.00226745
0.000607241
0.00216607
0.000646961
0.00205768
0.000688253
0.00194249
0.000731181
0.0018201
0.000775677
0.00168996
0.000821094
0.00155174
0.000867108
0.00140605
0.000912922
0.00125265
0.00095856
0.00109134
0.00100255
0.000922151
0.00104344
0.000746269
0.00108054
0.000564995
0.00111296
0.000378966
0.00113919
0.000189901
0.00116012
0.00117286
0.00377469
2.11883e-07
0.0035434
3.6647e-06
0.00362056
4.05073e-05
0.00362288
4.96899e-05
0.00361648
5.47311e-05
0.00360855
6.14699e-05
0.00359935
7.02334e-05
0.00358875
7.99098e-05
0.00357664
9.04394e-05
0.0035629
0.000101711
0.00354751
0.000113568
0.00353036
0.000125966
0.00351143
0.000138978
0.00349052
0.00015264
0.00346769
0.000167005
0.00344267
0.000182108
0.00341549
0.000197973
0.003386
0.000214679
0.00335406
0.000232248
0.00331953
0.000250785
0.00328239
0.000270318
0.00324235
0.000290993
0.00319928
0.00031281
0.00315308
0.000335962
0.00310354
0.000360452
0.00305035
0.000386487
0.00299331
0.000414058
0.00293244
0.000443384
0.00286704
0.000474544
0.00279707
0.000507571
0.00272241
0.000542687
0.00264235
0.000579948
0.0025569
0.000619318
0.00246544
0.00066109
0.00236775
0.000704943
0.00226369
0.000751246
0.00215214
0.000799658
0.00203347
0.000849851
0.00190722
0.000902167
0.00177268
0.000955677
0.00162966
0.00101002
0.00147807
0.00106448
0.00131854
0.00111843
0.00115009
0.00117124
0.00097301
0.00122029
0.00078854
0.00126477
0.000597122
0.00130418
0.000400844
0.00133532
0.000201291
0.0013597
0.00137425
0.00391503
2.3612e-07
0.00367512
4.15919e-06
0.00375543
4.58705e-05
0.00375803
5.63107e-05
0.00375164
6.20442e-05
0.00374366
6.9704e-05
0.00373437
7.97404e-05
0.00372366
9.08203e-05
0.00371139
0.00010291
0.00369744
0.00011583
0.00368177
0.000129394
0.0036643
0.000143567
0.00364499
0.000158443
0.00362365
0.000174064
0.00360032
0.000190481
0.00357479
0.000207735
0.00354698
0.000225858
0.00351684
0.000244922
0.0034842
0.000264981
0.00344892
0.000286123
0.00341091
0.000308415
0.00337001
0.00033198
0.00332602
0.000356877
0.00327876
0.000383266
0.00322814
0.000411193
0.00317389
0.000440881
0.00311553
0.000472346
0.00305334
0.000505763
0.00298665
0.000541355
0.00291507
0.000579062
0.00283877
0.00061915
0.00275704
0.000661769
0.0026695
0.000706843
0.00257604
0.000754615
0.00247597
0.000805051
0.00236922
0.000858133
0.00225491
0.000913942
0.00213277
0.000971926
0.00200279
0.00103234
0.00186401
0.00109458
0.00171593
0.00115798
0.00155872
0.00122158
0.00139236
0.00128515
0.00121669
0.00134721
0.00103076
0.00140595
0.000836449
0.00145891
0.000634792
0.00150565
0.000426536
0.00154342
0.000213986
0.00157228
0.00158834
0.00406061
2.60035e-07
0.00381173
4.64531e-06
0.00389536
5.11791e-05
0.0038983
6.28925e-05
0.00389199
6.9336e-05
0.00388401
7.79405e-05
0.00387472
8.92597e-05
0.00386394
0.0001018
0.00385156
0.000115494
0.00383745
0.000130115
0.00382158
0.000145435
0.00380381
0.000161443
0.0037842
0.000178231
0.00376248
0.00019587
0.00373871
0.000214384
0.0037127
0.00023385
0.00368438
0.000254267
0.00365365
0.000275758
0.00362038
0.000298336
0.00358443
0.000322153
0.00354569
0.000347234
0.00350398
0.000373763
0.00345922
0.000401764
0.00341105
0.000431474
0.00335943
0.000462875
0.00330423
0.000496282
0.00324483
0.000531697
0.00318138
0.000569313
0.00311357
0.000609348
0.00304068
0.000651892
0.00296287
0.000697025
0.00287969
0.000745115
0.00279049
0.000796048
0.00269503
0.000850065
0.00259301
0.000907129
0.00248385
0.000967496
0.00236684
0.00103083
0.00224172
0.00109707
0.00210804
0.00116618
0.00196521
0.00123757
0.00181228
0.00131081
0.00164921
0.00138453
0.00147618
0.00145854
0.00129219
0.00153148
0.00109758
0.00160035
0.000892216
0.00166409
0.000677768
0.00171993
0.000456213
0.0017648
0.000229586
0.00179892
0.00181803
0.00421161
2.83297e-07
0.00395341
5.11713e-06
0.00404056
5.63688e-05
0.00404393
6.93706e-05
0.00403774
7.65578e-05
0.00402984
8.61056e-05
0.00402058
9.87432e-05
0.00400983
0.000112755
0.00399743
0.000128111
0.00398322
0.00014449
0.00396721
0.000161628
0.00394925
0.000179522
0.00392938
0.000198279
0.00390736
0.000217981
0.00388324
0.00023865
0.00385683
0.000260366
0.00382806
0.000283135
0.00379683
0.000307083
0.00376302
0.000332238
0.0037265
0.000358758
0.00368714
0.000386678
0.00364476
0.000416206
0.00359927
0.000447355
0.00355044
0.000480411
0.00349796
0.000515358
0.00344194
0.000552492
0.00338175
0.000591933
0.00331728
0.000633786
0.00324847
0.00067835
0.00317463
0.000725745
0.00309556
0.000776102
0.00301111
0.000829678
0.00292068
0.000886627
0.00282356
0.000947083
0.00271984
0.00101093
0.00260877
0.00107883
0.00248938
0.00115008
0.00236154
0.00122489
0.00222466
0.00130324
0.00207781
0.00138452
0.00192028
0.00146828
0.00175142
0.00155322
0.00157144
0.00163882
0.0013792
0.00172406
0.00117405
0.00180539
0.000957449
0.0018805
0.000729393
0.00194775
0.000491778
0.00200223
0.000247241
0.00204347
0.00206537
0.00436824
3.03784e-07
0.00410035
5.57056e-06
0.00419128
6.13373e-05
0.00419514
7.56702e-05
0.00418914
8.36601e-05
0.00418142
9.40902e-05
0.00417233
0.000108067
0.00416168
0.000123619
0.00414931
0.000140687
0.0041351
0.000158876
0.00411903
0.000177891
0.00410095
0.000197728
0.00408089
0.000218506
0.00405867
0.000240319
0.00403425
0.000263191
0.00400754
0.000287198
0.00397842
0.00031236
0.00394679
0.000338801
0.00391257
0.000366567
0.00387555
0.000395821
0.00383576
0.00042661
0.00379283
0.000459165
0.00374678
0.000493489
0.00369742
0.000529917
0.00364433
0.000568426
0.00358767
0.000609338
0.00352687
0.000652792
0.00346175
0.000698946
0.00339214
0.000748071
0.00331767
0.000800334
0.0032378
0.000856
0.00315233
0.000915156
0.00306106
0.000978149
0.0029628
0.00104524
0.00285767
0.00111605
0.0027452
0.00119159
0.00262389
0.00127127
0.00249383
0.00135487
0.00235415
0.00144313
0.00220402
0.00153482
0.00204203
0.00163026
0.00186771
0.00172727
0.00168087
0.00182602
0.00148018
0.00192516
0.00126448
0.00202093
0.0010339
0.00211086
0.000789954
0.00219146
0.000534195
0.00225778
0.000269822
0.00230785
0.00233528
0.00453071
3.16421e-07
0.00425273
6.00942e-06
0.00434772
6.59424e-05
0.0043522
8.17106e-05
0.00434642
9.05694e-05
0.00433904
0.000101763
0.00433017
0.000117172
0.00431974
0.000134262
0.00430757
0.000153087
0.00429345
0.000173169
0.00427741
0.000194136
0.00425929
0.000215965
0.00423915
0.000238826
0.00421678
0.000262789
0.0041922
0.000287912
0.00416525
0.000314244
0.00413589
0.000341832
0.00410399
0.000370795
0.00406945
0.000401196
0.00403216
0.000433197
0.00399199
0.000466887
0.00394878
0.00050245
0.00390235
0.000540002
0.00385263
0.000579759
0.00379923
0.000621876
0.00374213
0.000666544
0.00368101
0.000714024
0.00361555
0.00076447
0.00354547
0.000818179
0.0034706
0.000875317
0.00339045
0.000936263
0.00330436
0.00100114
0.00321263
0.00107012
0.00311394
0.00114398
0.00300784
0.00122196
0.00289465
0.00130516
0.00277223
0.00139366
0.0026405
0.00148644
0.00249879
0.00158499
0.00234581
0.00168802
0.00218028
0.00179571
0.00200078
0.00190654
0.00180728
0.00201981
0.00159777
0.00213501
0.001371
0.00224758
0.0011268
0.0023548
0.000864787
0.00245321
0.00058689
0.00253545
0.000296317
0.00259842
0.0026317
0.00469926
3.26652e-07
0.00441077
6.41426e-06
0.00451
7.01633e-05
0.00451535
8.73178e-05
0.00451008
9.6966e-05
0.00450306
0.000109066
0.00449457
0.000125875
0.00448448
0.000144577
0.00447254
0.000165233
0.00445861
0.000187284
0.0044427
0.00021025
0.00442466
0.000234145
0.00440454
0.000259124
0.00438214
0.000285298
0.00435752
0.000312693
0.00433046
0.000341398
0.00430099
0.000371421
0.00426897
0.000402938
0.00423425
0.000435972
0.00419682
0.000470743
0.00415648
0.000507307
0.00411311
0.000545909
0.00406655
0.000586625
0.00401667
0.000629756
0.00396321
0.000675393
0.003906
0.000723845
0.00384481
0.000775292
0.00377939
0.000830003
0.00370934
0.000888268
0.00363442
0.000950276
0.00355448
0.00101642
0.00346843
0.00108705
0.00337667
0.00116203
0.00327827
0.00124257
0.00317197
0.00132797
0.00305853
0.00141886
0.00293601
0.00151627
0.00280345
0.0016188
0.00266074
0.00172779
0.00250599
0.00184303
0.0023378
0.00196389
0.00215446
0.00208961
0.00195499
0.0022195
0.0017375
0.00235289
0.00149889
0.00248636
0.00123841
0.00261498
0.000956098
0.00273513
0.000652665
0.00283862
0.000332177
0.00291889
0.00296397
0.0048741
3.47386e-07
0.00457467
6.73556e-06
0.00467831
7.40671e-05
0.00468462
9.22394e-05
0.00468025
0.000102591
0.00467381
0.000115794
0.00466591
0.000134003
0.00465629
0.000154399
0.00464473
0.000177021
0.0046311
0.000201093
0.0046154
0.000226125
0.00459756
0.000252145
0.00457755
0.000279299
0.00455525
0.000307722
0.00453065
0.000337428
0.00450364
0.000368517
0.00447418
0.000401004
0.00444217
0.000435061
0.0044075
0.000470743
0.00437007
0.000508258
0.00432981
0.000547685
0.00428647
0.000589299
0.00424003
0.00063314
0.00419031
0.000679605
0.00413701
0.000728714
0.00408014
0.000780876
0.00401919
0.00083626
0.00395421
0.000895121
0.00388468
0.00095789
0.00381021
0.00102469
0.00373094
0.00109595
0.00364569
0.00117222
0.00355446
0.00125327
0.00345717
0.00134024
0.00335178
0.00143315
0.00323897
0.00153183
0.00311748
0.001638
0.00298538
0.00175074
0.00284269
0.0018705
0.00268782
0.00199823
0.0025182
0.00213356
0.00233225
0.00227526
0.00212841
0.00242347
0.00190383
0.00257793
0.00165528
0.00273503
0.00137906
0.00289087
0.00107389
0.00303992
0.00073888
0.00317337
0.000377288
0.00328049
0.00334136
0.00505545
3.61598e-07
0.00474465
7.00115e-06
0.00485326
7.72478e-05
0.00486066
9.63508e-05
0.0048572
0.000107394
0.00485164
0.000121665
0.00484446
0.000141424
0.0048355
0.000163568
0.00482454
0.000188229
0.00481137
0.000214436
0.00479607
0.000241648
0.00477849
0.000269841
0.00475875
0.000299235
0.00473666
0.000329933
0.00471225
0.000361983
0.00468542
0.000395463
0.0046561
0.000430421
0.00462428
0.000467003
0.00458982
0.000505319
0.00455259
0.000545538
0.00451262
0.000587802
0.0044696
0.000632356
0.00442354
0.00067929
0.00437429
0.000728984
0.0043215
0.000781516
0.00426529
0.000837259
0.0042051
0.000896486
0.00414091
0.000959394
0.00407251
0.00102648
0.00399915
0.00109798
0.00392117
0.00117418
0.00383759
0.00125589
0.0037478
0.00134291
0.00365218
0.00143617
0.00354902
0.00153625
0.00343782
0.00164292
0.00331863
0.00175747
0.00318891
0.00188049
0.00304781
0.00201139
0.00289468
0.00215163
0.00272646
0.00230201
0.00254013
0.00246134
0.00233422
0.00262945
0.00210488
0.00280765
0.00184655
0.00299356
0.00155488
0.00318237
0.00122553
0.00336897
0.000854897
0.00354362
0.000443583
0.00369172
0.00378506
0.00524354
3.69481e-07
0.00492098
7.17725e-06
0.005035
7.94246e-05
0.00504388
9.9311e-05
0.00504167
0.000111034
0.00503723
0.000126423
0.00503102
0.000147871
0.00502292
0.000171896
0.00501267
0.000198715
0.00500009
0.000227202
0.00498528
0.000256681
0.00496809
0.000287134
0.00494875
0.0003188
0.00492696
0.000351818
0.00490287
0.000386212
0.00487637
0.000422099
0.00484738
0.000459496
0.00481592
0.000498597
0.00478186
0.000539481
0.00474511
0.000582378
0.00470566
0.000627386
0.00466327
0.00067482
0.00461789
0.000724743
0.00456945
0.000777558
0.00451758
0.000833399
0.00446241
0.00089257
0.0044035
0.000955492
0.00434063
0.00102227
0.00427379
0.0010935
0.00420224
0.00116945
0.00412611
0.00125042
0.00404496
0.00133721
0.00395779
0.00142996
0.00386488
0.00152927
0.00376513
0.00163613
0.00365738
0.00175051
0.00354166
0.0018734
0.00341634
0.00200592
0.00327927
0.00214828
0.00312997
0.00230105
0.00296611
0.00246615
0.00278345
0.00264382
0.0025791
0.00283371
0.00235015
0.00303673
0.0020894
0.00325477
0.00178617
0.0034854
0.0014325
0.00372238
0.00101876
0.00395707
0.000537467
0.00417286
0.00432263
0.00543862
3.69313e-07
0.00510388
7.23436e-06
0.00522385
8.02494e-05
0.00523466
0.000100652
0.00523417
0.000113069
0.00523121
0.000129703
0.00522632
0.000153009
0.00521929
0.000179142
0.00520994
0.000208326
0.00519804
0.000239261
0.00518385
0.000271103
0.00516721
0.0003039
0.00514832
0.000337884
0.00512702
0.000373252
0.00510337
0.000409995
0.00507733
0.000448279
0.00504885
0.000488086
0.00501791
0.000529659
0.00498447
0.000573043
0.00494837
0.000618546
0.00490966
0.000666192
0.00486819
0.000716404
0.00482376
0.000769182
0.00477655
0.000824969
0.00472595
0.000883968
0.00467229
0.000946362
0.00461515
0.00101277
0.00455428
0.00108317
0.00448977
0.00115828
0.00442084
0.00123838
0.00434755
0.0013238
0.00426963
0.00141533
0.00418617
0.00151333
0.00409727
0.00161833
0.00400223
0.00173135
0.00389977
0.00185292
0.00378957
0.00198361
0.00367077
0.00212503
0.00354118
0.00227778
0.00339884
0.00244334
0.00324311
0.00262205
0.00307115
0.00281577
0.00287593
0.00302895
0.00265082
0.00326197
0.00239086
0.00351502
0.00208577
0.00379049
0.00171698
0.00409085
0.00126452
0.0044092
0.000700508
0.00473672
0.00502324
0.00564098
3.35299e-07
0.00529358
7.18011e-06
0.00542022
7.91851e-05
0.00543364
9.9688e-05
0.0054354
0.000112973
0.00543435
0.000131085
0.00543107
0.000156543
0.00542535
0.000185055
0.00541701
0.000216941
0.00540595
0.000250503
0.00539241
0.000284834
0.00537647
0.000320028
0.00535818
0.000356352
0.00533751
0.000394072
0.00531443
0.000433183
0.00528905
0.000473805
0.00526127
0.000515997
0.00523105
0.000559943
0.00519848
0.000605773
0.00516334
0.000653741
0.00512569
0.000703946
0.00508552
0.000756744
0.00504242
0.000812262
0.00499685
0.000870789
0.00494805
0.00093275
0.00489634
0.000998141
0.00484152
0.00106773
0.00478309
0.0011415
0.00472151
0.00122005
0.00465598
0.00130397
0.0045864
0.00139334
0.00451278
0.00148917
0.00443428
0.00159179
0.00435067
0.00170193
0.00426187
0.00182035
0.00416656
0.00194826
0.00406434
0.00208579
0.00395415
0.00223541
0.00383567
0.00239631
0.00370827
0.00257075
0.00356601
0.0027644
0.00340497
0.00297691
0.00322485
0.00320909
0.00302023
0.00346663
0.00278028
0.00375537
0.00248946
0.00408135
0.00212734
0.0044527
0.0016525
0.0048837
0.000997937
0.00539109
0.00602125
0.00585107
1.80329e-07
0.0054901
7.24639e-06
0.00562446
7.5144e-05
0.00564147
9.55728e-05
0.00564623
0.000110094
0.00564784
0.000129885
0.00564662
0.000158037
0.00564248
0.000189437
0.00563527
0.000224408
0.00562508
0.000260861
0.00561233
0.000297815
0.00559705
0.000335451
0.00557938
0.000374194
0.00555939
0.000414252
0.00553696
0.000455702
0.00551227
0.000498614
0.00548528
0.000543091
0.00545598
0.000589324
0.00542443
0.000637461
0.0053905
0.000687756
0.00535414
0.000740357
0.00531549
0.000795549
0.00527411
0.000853587
0.00523038
0.000914642
0.00518394
0.000979229
0.00513465
0.0010474
0.00508287
0.00111972
0.0050277
0.00119657
0.00496976
0.00127811
0.00490852
0.00136532
0.00484371
0.00145807
0.00477548
0.00155755
0.00470332
0.00166398
0.00462683
0.00177838
0.00454593
0.00190131
0.00445972
0.00203452
0.00436888
0.00217664
0.00427392
0.00233039
0.0041694
0.00250086
0.00405312
0.00268706
0.00392815
0.0028894
0.00379212
0.00311304
0.00364005
0.00336124
0.00346716
0.00363945
0.00326735
0.00395529
0.00302748
0.00432152
0.00271999
0.00475996
0.00229579
0.00530755
0.00164304
0.00604366
0.00766443
0.00846063
1.32232e-07
0.00793588
6.25822e-06
0.0081363
6.53102e-05
0.0081665
8.39757e-05
0.00817948
9.96946e-05
0.00818678
0.000123034
0.00818937
0.000155776
0.00818696
0.0001921
0.00817964
0.000232037
0.00816786
0.00027292
0.00815225
0.000313687
0.00813312
0.000354812
0.00811071
0.000396836
0.00808507
0.000440127
0.00805634
0.000484656
0.00802453
0.000530631
0.00798977
0.000578039
0.00795208
0.000627228
0.00791144
0.000678237
0.00786803
0.000731441
0.00782146
0.000786942
0.0077722
0.000845041
0.00771983
0.000906025
0.00766444
0.000970072
0.00760633
0.00103761
0.00754475
0.00110892
0.00748048
0.00118426
0.00741294
0.0012643
0.00734201
0.00134906
0.00726809
0.00143943
0.00719053
0.00153564
0.00710977
0.00163842
0.00702534
0.0017485
0.0069377
0.00186606
0.00684754
0.00199154
0.00675517
0.00212697
0.00665595
0.0022759
0.00654973
0.00243664
0.00644068
0.00260991
0.00632942
0.00279833
0.00621233
0.00300651
0.00609098
0.00323444
0.00596364
0.00348866
0.00583156
0.00377159
0.0056973
0.00408934
0.00556964
0.00444961
0.00548036
0.00484953
0.00550225
0.00528529
0.00590414
0.00564134
0.00547398
0.00809454
0.00846244
1.01916e-07
0.00793511
3.91055e-06
0.00815005
4.28678e-05
0.00819105
6.17406e-05
0.00821336
7.99763e-05
0.00822768
0.000109152
0.00823434
0.000149407
0.00823422
0.000192459
0.00822789
0.000238681
0.00821699
0.000284045
0.00820261
0.000328291
0.00818507
0.000372581
0.00816445
0.000417673
0.00814091
0.000463849
0.00811463
0.000511146
0.00808574
0.000559693
0.00805435
0.000609619
0.00802059
0.000661208
0.0079843
0.000714628
0.00794587
0.000770137
0.00790491
0.000827983
0.00786184
0.000888333
0.00781643
0.000951594
0.00776873
0.00101785
0.007719
0.0010876
0.00766699
0.00116101
0.00761295
0.00123852
0.00755696
0.00132046
0.00749885
0.00140731
0.00743904
0.00149943
0.00737721
0.00159766
0.00731458
0.00170121
0.0072518
0.00181145
0.0071872
0.00193079
0.00711931
0.00205954
0.00704933
0.00219705
0.00698128
0.00234404
0.00691512
0.00250287
0.00685056
0.00267452
0.00678845
0.00286047
0.00673332
0.00306169
0.00668549
0.00328224
0.00665535
0.0035188
0.00664601
0.00378095
0.00667774
0.00405756
0.00677384
0.00435343
0.00698133
0.00464239
0.00738149
0.00488532
0.00799706
0.00502569
0.00467578
0.008795
0.00846316
1.55803e-07
0.00793472
7.50511e-07
0.00816492
6.05757e-06
0.00822418
2.12769e-05
0.00826161
4.51376e-05
0.00828557
8.56054e-05
0.00829728
0.000137964
0.00829811
0.000191848
0.00829262
0.00024444
0.00828316
0.000293732
0.00827042
0.000341249
0.00825448
0.000388716
0.00823554
0.000436805
0.00821384
0.000485716
0.00818969
0.000535485
0.00816326
0.000586279
0.00813469
0.000638349
0.00810413
0.00069196
0.00807154
0.000747336
0.00803719
0.000804696
0.00800096
0.000864318
0.0079631
0.000926371
0.00792364
0.00099121
0.00788262
0.00105899
0.00784031
0.00113008
0.00779672
0.00120472
0.00775209
0.00128329
0.00770657
0.00136614
0.00766053
0.00145345
0.00761487
0.00154519
0.00757026
0.00164236
0.00752442
0.00174718
0.00747741
0.00185858
0.00743204
0.00197629
0.00739029
0.00210143
0.0073516
0.00223584
0.00731701
0.00237872
0.00728712
0.00253284
0.00726552
0.0026962
0.00725289
0.00287317
0.00725445
0.0030602
0.00727501
0.00326171
0.007321
0.00347284
0.00740848
0.00369349
0.00754645
0.00391962
0.00776486
0.00413495
0.00807728
0.00432997
0.00850351
0.00445928
0.00902402
0.00450535
0.00424843
0.00945143
0.00846174
1.32562e-06
0.00794094
-9.904e-06
0.00821848
-7.80325e-05
0.00830707
-4.85806e-05
0.00835321
1.48616e-06
0.00837405
6.51588e-05
0.00837868
0.000133564
0.00837472
0.000196027
0.00836725
0.000252142
0.00835803
0.000303166
0.00834621
0.000353257
0.00833147
0.000403633
0.00831415
0.00045429
0.00829454
0.000505474
0.0082731
0.000557088
0.00824994
0.000609594
0.0082251
0.000663338
0.0081987
0.000718526
0.00817072
0.00077543
0.00814134
0.000834227
0.00811058
0.000895217
0.00807854
0.000958561
0.00804538
0.00102456
0.00801116
0.00109338
0.00797612
0.00116531
0.00794033
0.00124068
0.00790449
0.00131931
0.00786924
0.0014016
0.0078343
0.00148861
0.00779855
0.00158115
0.00776282
0.00167828
0.00772992
0.00178026
0.00770066
0.00188802
0.00767466
0.00200245
0.00765332
0.00212292
0.00763792
0.00225136
0.00763021
0.00238654
0.00763255
0.0025306
0.00764646
0.00268233
0.00767729
0.00284244
0.00772614
0.00301137
0.00780229
0.00318565
0.00790808
0.00336705
0.00805534
0.00354625
0.00825291
0.00372207
0.00850778
0.00388005
0.00883142
0.00400631
0.00920814
0.00408254
0.00966189
0.00405171
0.00392878
0.00998163
0.00845159
9.99552e-06
0.00798052
-6.57034e-05
0.00836418
-0.00027096
0.00854634
-0.00021218
0.00858925
-3.8783e-05
0.00858048
7.43413e-05
0.00856399
0.000150314
0.0085483
0.000211967
0.00853567
0.000265023
0.00852261
0.00031644
0.00850646
0.000369611
0.00848741
0.000422874
0.00846626
0.000475624
0.00844392
0.00052797
0.00842026
0.0005809
0.00839538
0.00063462
0.00836944
0.00068941
0.00834259
0.000745509
0.00831495
0.000803184
0.00828663
0.000862654
0.00825776
0.000924182
0.00822845
0.000987981
0.00819884
0.00105427
0.00816922
0.00112311
0.00814009
0.00119453
0.00811185
0.00126903
0.00808352
0.00134776
0.00805505
0.0014302
0.00802767
0.00151612
0.00800303
0.00160596
0.00798101
0.00170047
0.00796184
0.00179961
0.0079462
0.00190385
0.00793566
0.00201316
0.00793059
0.00212817
0.00793379
0.00224831
0.00794547
0.00237499
0.00797008
0.00250612
0.0080081
0.00264438
0.00806496
0.00278567
0.00814367
0.00293272
0.00824886
0.00308051
0.00838751
0.00322848
0.00856156
0.00337221
0.00878042
0.00350328
0.00904207
0.00361838
0.00934978
0.00369862
0.00969436
0.00373794
0.0100403
0.0037058
0.0035964
0.0103728
0.00851946
1.58958e-05
0.00824843
-0.000395007
0.00879506
-0.000605371
0.00889331
-0.000289849
0.00887552
-1.77824e-05
0.00880777
0.000142524
0.00877591
0.000182413
0.00875592
0.000232176
0.00874612
0.000275061
0.00873145
0.000331321
0.00871233
0.000388932
0.0086911
0.000444281
0.0086689
0.000497994
0.00864568
0.000551349
0.00862149
0.000605233
0.00859626
0.000659983
0.00856994
0.000715848
0.00854264
0.000772917
0.00851445
0.00083147
0.00848555
0.00089164
0.00845597
0.000953828
0.00842612
0.0010179
0.00839647
0.00108397
0.00836721
0.00115242
0.0083376
0.00122421
0.00830834
0.00129833
0.0082812
0.00137496
0.00825702
0.00145443
0.00823541
0.00153779
0.00821729
0.00162414
0.00820289
0.00171494
0.00819356
0.00180902
0.00818946
0.00190805
0.00819228
0.00201045
0.00820242
0.00211815
0.0082217
0.00222916
0.00825152
0.0023453
0.00829342
0.00246437
0.00835093
0.002587
0.00842466
0.00271203
0.00852069
0.0028368
0.00863911
0.00296213
0.00878717
0.00308051
0.00896507
0.00319436
0.0091774
0.003291
0.00942372
0.00337212
0.00970079
0.00342155
0.0100051
0.00343372
0.0103073
0.00340355
0.00330483