/*--------------------------------*- C++ -*----------------------------------*\
| =========                 |                                                 |
| \\      /  F ield         | OpenFOAM: The Open Source CFD Toolbox           |
|  \\    /   O peration     | Version:  2412                                  |
|   \\  /    A nd           | Website:  www.openfoam.com                      |
|    \\/     M anipulation  |                                                 |
\*---------------------------------------------------------------------------*/
FoamFile
{
    version     2.0;
    format      ascii;
    arch        "LSB;label=32;scalar=64";
    class       volScalarField;
    location    "14.5";
    object      T;
}
// * * * * * * * * * * * * * * * * * * * * * * * * * * * * * * * * * * * * * //

dimensions      [0 0 0 1 0 0 0];

internalField   nonuniform List<scalar> 
7000
(
1.31899
2.65606
2.71896
2.66942
2.66404
2.64714
2.64364
2.64645
2.64836
2.65067
2.65183
2.65293
2.65403
2.65543
2.65697
2.65855
2.66042
2.66222
2.6643
2.66635
2.66871
2.67098
2.67361
2.67604
2.67899
2.68169
2.68467
2.68778
2.69094
2.69431
2.69753
2.70102
2.70484
2.70807
2.71185
2.71549
2.71936
2.72293
2.72596
2.73006
2.73354
2.73661
2.73881
2.74111
2.74504
2.74833
2.75015
2.75277
2.75392
2.75299
1.31905
2.65628
2.71921
2.66952
2.66417
2.64726
2.64377
2.64657
2.64848
2.65079
2.65195
2.65305
2.65414
2.65553
2.65708
2.65866
2.66052
2.66231
2.66441
2.66645
2.66879
2.67106
2.67371
2.67612
2.67904
2.68176
2.68477
2.68783
2.69096
2.69438
2.69761
2.70104
2.70483
2.70814
2.71191
2.71546
2.71931
2.723
2.726
2.72998
2.73345
2.73668
2.73888
2.74105
2.7449
2.74815
2.75001
2.75256
2.75362
2.75254
1.31903
2.65619
2.7191
2.6695
2.66413
2.6472
2.64371
2.64652
2.6484
2.65073
2.65185
2.65299
2.65403
2.65546
2.65697
2.65859
2.6604
2.66223
2.66428
2.66637
2.66864
2.67097
2.67357
2.67601
2.67887
2.68165
2.6846
2.68768
2.69076
2.69423
2.69744
2.70084
2.70461
2.70798
2.71173
2.71519
2.71908
2.72283
2.72583
2.72965
2.7332
2.73647
2.7388
2.74072
2.74454
2.7477
2.74968
2.75234
2.75334
2.75229
1.31901
2.65601
2.71892
2.6695
2.66408
2.6471
2.64361
2.64637
2.64834
2.65056
2.65177
2.6528
2.65395
2.65527
2.65687
2.65838
2.6603
2.66199
2.66416
2.66612
2.66852
2.67067
2.67343
2.67572
2.67869
2.68131
2.68445
2.68731
2.69053
2.69385
2.69722
2.70039
2.70431
2.70754
2.71144
2.71465
2.71867
2.7224
2.72545
2.72904
2.73265
2.73614
2.73831
2.74033
2.74376
2.74718
2.74906
2.75174
2.75292
2.75168
1.31897
2.65578
2.71869
2.66953
2.66404
2.64698
2.64349
2.64623
2.64819
2.6504
2.65162
2.65262
2.65379
2.65506
2.65669
2.65815
2.6601
2.66174
2.66394
2.66585
2.66826
2.6704
2.6731
2.67544
2.67836
2.68096
2.68403
2.68706
2.68999
2.69353
2.6967
2.70004
2.70365
2.70721
2.71074
2.71425
2.71787
2.72198
2.72463
2.7285
2.73173
2.73554
2.73768
2.73938
2.74311
2.74611
2.7484
2.75106
2.75195
2.75108
1.31893
2.65549
2.71839
2.66957
2.66399
2.64684
2.64331
2.64617
2.6479
2.65032
2.65128
2.65253
2.65341
2.65496
2.65629
2.65803
2.65966
2.6616
2.66346
2.66567
2.66775
2.67017
2.67257
2.67514
2.67777
2.68064
2.68339
2.68661
2.68944
2.69288
2.69612
2.69941
2.70294
2.70642
2.71018
2.71331
2.71719
2.72101
2.72405
2.72736
2.73108
2.73435
2.73695
2.73836
2.74166
2.7453
2.74708
2.75001
2.75121
2.7498
1.31888
2.65513
2.71803
2.66963
2.66393
2.64664
2.64312
2.64588
2.64776
2.64999
2.65112
2.65217
2.65324
2.65457
2.65608
2.6576
2.65943
2.66114
2.66317
2.6652
2.66744
2.6696
2.67225
2.67455
2.67734
2.67998
2.68299
2.68578
2.68895
2.6921
2.69539
2.69861
2.70217
2.70539
2.70936
2.7123
2.7161
2.71993
2.72296
2.72632
2.72958
2.73349
2.73555
2.73724
2.74031
2.74356
2.74607
2.74858
2.74948
2.7488
1.31882
2.6547
2.71759
2.6697
2.66385
2.64641
2.64286
2.64563
2.64746
2.6497
2.65078
2.65184
2.65285
2.6542
2.65568
2.65717
2.65901
2.66065
2.66272
2.66462
2.66697
2.66898
2.67163
2.67393
2.67671
2.67919
2.68228
2.68507
2.68797
2.69135
2.69445
2.69757
2.70126
2.70422
2.70819
2.71129
2.71458
2.71876
2.72156
2.72484
2.72817
2.73162
2.73446
2.73568
2.73852
2.7418
2.74377
2.7471
2.74829
2.74668
1.31875
2.65418
2.71707
2.66979
2.66377
2.64613
2.64255
2.64533
2.6471
2.64936
2.65038
2.65146
2.65241
2.65377
2.65519
2.65672
2.65841
2.66019
2.66206
2.66407
2.66625
2.66842
2.67082
2.67322
2.67592
2.67837
2.68126
2.6843
2.68688
2.69023
2.69341
2.69635
2.69986
2.70317
2.70649
2.71002
2.71308
2.71691
2.72013
2.72303
2.72619
2.72991
2.73241
2.73415
2.73613
2.73988
2.74223
2.74451
2.74552
2.74511
1.31866
2.65357
2.71645
2.6699
2.66367
2.6458
2.6422
2.6449
2.64675
2.64888
2.64998
2.65092
2.65199
2.65317
2.65472
2.65607
2.65788
2.65945
2.66148
2.66328
2.66554
2.66755
2.67006
2.67219
2.67506
2.67736
2.68017
2.68312
2.68586
2.68878
2.69218
2.69499
2.69828
2.70157
2.70499
2.70803
2.71142
2.71494
2.71799
2.72116
2.72381
2.72756
2.7301
2.73146
2.73417
2.73635
2.73911
2.74254
2.74369
2.74181
1.31857
2.65286
2.71575
2.67002
2.66356
2.64542
2.64178
2.64448
2.64627
2.6484
2.64944
2.65037
2.6514
2.65256
2.65405
2.6554
2.65714
2.65871
2.66065
2.66246
2.66462
2.66664
2.66906
2.6712
2.67383
2.67633
2.67884
2.68178
2.68453
2.68732
2.69049
2.69351
2.69651
2.69959
2.70323
2.70581
2.70924
2.71262
2.71559
2.71852
2.72137
2.72465
2.72744
2.72861
2.73099
2.7341
2.73559
2.73825
2.73943
2.7394
1.31846
2.65205
2.71494
2.67016
2.66343
2.64497
2.64129
2.64392
2.64576
2.64777
2.64887
2.64968
2.65075
2.65182
2.65329
2.65461
2.65629
2.65783
2.65973
2.66146
2.66365
2.66546
2.66801
2.66993
2.67259
2.67497
2.67747
2.68021
2.68293
2.6857
2.6885
2.69165
2.69453
2.69725
2.70102
2.70346
2.70653
2.71012
2.71265
2.71574
2.71793
2.72154
2.72401
2.72502
2.72689
2.72942
2.73222
2.73532
2.73657
2.73429
1.31834
2.65113
2.71401
2.67036
2.6632
2.6445
2.64072
2.64343
2.64503
2.64719
2.64807
2.64901
2.64987
2.65108
2.65235
2.65376
2.6553
2.65687
2.65864
2.66041
2.66239
2.66435
2.66652
2.6687
2.67097
2.67346
2.67581
2.67844
2.68102
2.68384
2.68639
2.68932
2.69242
2.69462
2.69827
2.70097
2.70319
2.70703
2.70927
2.71216
2.71432
2.71733
2.72014
2.72098
2.72295
2.72511
2.72617
2.72869
2.72997
2.7305
1.31821
2.65013
2.71291
2.67087
2.66262
2.64395
2.6401
2.64271
2.64438
2.64639
2.64732
2.64813
2.64903
2.6501
2.65143
2.65266
2.65427
2.65566
2.65747
2.65911
2.66106
2.66293
2.66506
2.6671
2.66937
2.67163
2.67404
2.67643
2.67892
2.68158
2.68416
2.68657
2.6899
2.69179
2.695
2.69803
2.69982
2.70324
2.70573
2.70787
2.71016
2.71257
2.71497
2.71589
2.71678
2.7195
2.7216
2.72411
2.72525
2.72239
1.31808
2.64905
2.71162
2.67161
2.66193
2.64331
2.63935
2.64184
2.64362
2.6454
2.64647
2.64709
2.64806
2.649
2.65033
2.65149
2.65304
2.65439
2.6561
2.65766
2.65959
2.66127
2.66346
2.66526
2.66756
2.66963
2.67188
2.67429
2.67646
2.67906
2.68154
2.68369
2.68679
2.6889
2.69115
2.69449
2.69595
2.69869
2.70139
2.70316
2.70483
2.7074
2.70938
2.71002
2.71054
2.71126
2.71247
2.71398
2.71538
2.71597
1.31793
2.64782
2.71028
2.67213
2.66136
2.64263
2.63851
2.64108
2.64256
2.6445
2.6453
2.64605
2.64683
2.64782
2.649
2.65019
2.65158
2.65297
2.6545
2.65608
2.65785
2.65949
2.66154
2.66327
2.66541
2.66743
2.66946
2.67179
2.67384
2.67607
2.67858
2.68036
2.6831
2.68535
2.68716
2.68995
2.69198
2.69341
2.69609
2.69783
2.69863
2.70029
2.70237
2.70241
2.70239
2.70403
2.70449
2.70596
2.70568
2.70224
1.31776
2.64648
2.70882
2.6727
2.66069
2.64183
2.63757
2.64012
2.64147
2.6434
2.64409
2.64484
2.64553
2.64645
2.6476
2.6487
2.65003
2.65133
2.65279
2.65428
2.65594
2.65748
2.65937
2.66106
2.66298
2.66494
2.66676
2.66891
2.67088
2.67287
2.67521
2.67698
2.67911
2.68134
2.68288
2.68501
2.68702
2.68821
2.68984
2.69178
2.69218
2.69266
2.69393
2.6939
2.6924
2.69012
2.69054
2.69
2.68994
2.68923
1.31758
2.64502
2.70726
2.6733
2.65996
2.64092
2.63652
2.63893
2.64034
2.64202
2.64286
2.64334
2.64416
2.64486
2.64606
2.64698
2.64834
2.64944
2.65094
2.65218
2.65391
2.65522
2.65707
2.65862
2.66033
2.66228
2.66381
2.66586
2.66753
2.6693
2.67131
2.67296
2.67471
2.67665
2.67798
2.6795
2.68112
2.68215
2.6828
2.68389
2.68433
2.68401
2.68372
2.68286
2.68168
2.67947
2.67516
2.67355
2.66918
2.66208
1.31739
2.64347
2.70561
2.67391
2.65914
2.63992
2.63534
2.63762
2.63903
2.64053
2.64141
2.64177
2.64254
2.64315
2.64427
2.64515
2.64636
2.64743
2.64881
2.64995
2.65154
2.65276
2.65437
2.65591
2.65724
2.65918
2.66045
2.66233
2.66391
2.66533
2.66711
2.66851
2.66989
2.67141
2.67269
2.67346
2.67477
2.6752
2.67569
2.67566
2.67499
2.67418
2.67176
2.6696
2.66435
2.65936
2.65371
2.6453
2.63749
2.62406
1.3172
2.64194
2.70359
2.67467
2.6583
2.63884
2.63397
2.63628
2.63736
2.63901
2.63963
2.6401
2.64066
2.64138
2.64222
2.64324
2.6442
2.64535
2.64647
2.64767
2.64896
2.65028
2.65152
2.65315
2.65423
2.65594
2.65718
2.65849
2.66016
2.66108
2.66268
2.66364
2.66479
2.66559
2.66659
2.66682
2.6674
2.66726
2.66687
2.66592
2.66488
2.66222
2.66005
2.65509
2.65021
2.63971
2.6268
2.61095
2.58416
2.51242
1.31722
2.64117
2.69882
2.6752
2.65694
2.63719
2.63204
2.63416
2.63528
2.63665
2.63736
2.63763
2.63823
2.63868
2.63964
2.64022
2.64137
2.64205
2.64331
2.64413
2.64537
2.64644
2.64758
2.6488
2.64998
2.651
2.65244
2.65313
2.65458
2.65523
2.65635
2.657
2.65767
2.65801
2.6583
2.658
2.65741
2.65651
2.65461
2.65253
2.64831
2.64468
2.63683
2.6308
2.61791
2.60578
2.58195
2.5462
2.48979
2.36577
1.31721
2.6402
2.69407
2.67538
2.65504
2.63481
2.62918
2.63126
2.63213
2.63353
2.6342
2.63446
2.6349
2.63539
2.63611
2.63677
2.63761
2.63836
2.63923
2.64013
2.64093
2.64199
2.6427
2.6438
2.64453
2.64546
2.64622
2.64698
2.64755
2.64822
2.64844
2.64893
2.64889
2.64872
2.64827
2.64772
2.64625
2.64501
2.64196
2.63956
2.63456
2.62854
2.62102
2.60735
2.59441
2.56811
2.54118
2.49025
2.4159
2.31721
1.31719
2.63957
2.69155
2.67524
2.65346
2.63252
2.62627
2.62807
2.62889
2.63027
2.63089
2.6311
2.63144
2.63184
2.63247
2.63303
2.63377
2.6344
2.63516
2.63589
2.63661
2.63742
2.63808
2.63885
2.63949
2.6401
2.64063
2.64104
2.64129
2.64147
2.6413
2.64092
2.64037
2.63919
2.63789
2.63559
2.63347
2.62961
2.6265
2.62022
2.61562
2.60562
2.59817
2.58315
2.56608
2.5425
2.5059
2.46328
2.39074
2.31683
1.31708
2.63844
2.69072
2.67405
2.65153
2.62972
2.623
2.62492
2.62577
2.62728
2.62781
2.62789
2.628
2.62827
2.62855
2.62899
2.62934
2.62982
2.63018
2.63073
2.63109
2.63166
2.63202
2.63255
2.63291
2.63335
2.63365
2.63402
2.6341
2.63412
2.634
2.63363
2.63302
2.63172
2.63045
2.62763
2.62533
2.62035
2.61615
2.60883
2.60067
2.59074
2.57667
2.56275
2.54061
2.51756
2.48403
2.44302
2.39034
2.32727
1.31677
2.63935
2.70307
2.67063
2.65149
2.62808
2.62081
2.62352
2.62445
2.62629
2.62676
2.6267
2.62666
2.6267
2.62678
2.6269
2.62696
2.62701
2.62701
2.62698
2.62692
2.62677
2.62662
2.62629
2.62603
2.62556
2.6252
2.62438
2.62389
2.62276
2.62209
2.62056
2.61967
2.61759
2.61624
2.6135
2.61071
2.60711
2.60169
2.59636
2.58715
2.57798
2.56394
2.5479
2.52785
2.50162
2.4729
2.43374
2.39127
2.34381
1.30168
2.58586
2.69757
2.67711
2.65903
2.63547
2.6285
2.63138
2.63242
2.63392
2.63378
2.63333
2.63266
2.63211
2.63153
2.63099
2.63038
2.62982
2.62918
2.62864
2.62799
2.62749
2.62679
2.62631
2.62546
2.62492
2.62369
2.62278
2.62092
2.6196
2.6169
2.61511
2.61152
2.60926
2.60469
2.60189
2.59614
2.59249
2.58548
2.57964
2.57107
2.56129
2.54987
2.53404
2.51725
2.49346
2.46807
2.4349
2.39731
2.35706
1.7208
2.46775
2.72789
2.70577
2.68373
2.67333
2.67382
2.67536
2.67673
2.67704
2.67577
2.67441
2.67265
2.67098
2.66887
2.66677
2.66422
2.6617
2.65875
2.65586
2.65255
2.64935
2.64578
2.64235
2.63836
2.63446
2.63012
2.62706
2.6233
2.62073
2.61717
2.61432
2.6102
2.60632
2.60131
2.59595
2.59005
2.58268
2.57599
2.56619
2.55823
2.54558
2.53518
2.51899
2.50422
2.48323
2.46187
2.43445
2.40469
2.37195
1.7328
2.46085
2.72237
2.70106
2.67677
2.66771
2.67161
2.67323
2.67596
2.67678
2.67702
2.67688
2.67662
2.67633
2.67565
2.67505
2.67372
2.67274
2.67077
2.66933
2.66674
2.66479
2.66156
2.65906
2.65532
2.65251
2.64824
2.64387
2.63844
2.63281
2.62645
2.62017
2.61422
2.60805
2.60253
2.59531
2.58944
2.58047
2.57304
2.56204
2.55241
2.53916
2.52658
2.5108
2.49447
2.47551
2.45469
2.43163
2.40628
2.38015
1.72953
2.46641
2.72436
2.70137
2.67322
2.66366
2.66848
2.67086
2.67405
2.67519
2.67556
2.67571
2.6759
2.67589
2.67581
2.67551
2.67505
2.67456
2.67376
2.67291
2.6715
2.67022
2.66818
2.66622
2.66352
2.66066
2.65739
2.65355
2.64953
2.64445
2.63984
2.63315
2.62722
2.61809
2.61102
2.6008
2.59299
2.58259
2.57409
2.56271
2.55241
2.53941
2.52639
2.51104
2.49489
2.4765
2.45666
2.43483
2.41117
2.38821
1.73228
2.4597
2.71981
2.69588
2.67013
2.66041
2.66495
2.66715
2.67034
2.67163
2.67205
2.67237
2.6727
2.67305
2.67332
2.67337
2.6733
2.67303
2.67267
2.67194
2.67129
2.66996
2.66899
2.66697
2.66565
2.66291
2.66109
2.65734
2.65491
2.64993
2.6468
2.64043
2.6362
2.62854
2.62246
2.61315
2.60469
2.59326
2.58253
2.5697
2.55718
2.54338
2.52943
2.51408
2.49791
2.48024
2.46194
2.44185
2.42071
2.39991
1.74156
2.44152
2.70819
2.68352
2.66632
2.65694
2.65974
2.66154
2.66462
2.66574
2.66641
2.66652
2.66676
2.66693
2.66707
2.66712
2.66708
2.66693
2.66676
2.66632
2.66598
2.66521
2.66463
2.66336
2.66241
2.66033
2.65893
2.65591
2.65394
2.64983
2.64696
2.64187
2.63779
2.63166
2.62599
2.61856
2.61112
2.602
2.59228
2.58102
2.56883
2.55495
2.54029
2.52426
2.5079
2.4902
2.47194
2.45262
2.43255
2.41301
1.73652
2.43507
2.70479
2.67585
2.66849
2.65517
2.65528
2.65727
2.6603
2.66142
2.66255
2.66267
2.66296
2.66321
2.66338
2.66352
2.66351
2.66345
2.66332
2.66301
2.66272
2.66208
2.66157
2.66047
2.65968
2.65795
2.65676
2.65422
2.65244
2.64909
2.64632
2.64209
2.63803
2.63285
2.62758
2.62114
2.6144
2.60647
2.59806
2.58843
2.57809
2.56635
2.55374
2.53959
2.52446
2.50799
2.49073
2.47239
2.45326
2.43463
1.35677
2.46592
2.67865
2.66807
2.64612
2.62344
2.61631
2.62033
2.6223
2.62515
2.62659
2.62762
2.62842
2.62944
2.63015
2.63127
2.63194
2.63295
2.63347
2.63434
2.63468
2.63546
2.63559
2.63581
2.63584
2.63573
2.6355
2.63491
2.63431
2.63307
2.63186
2.6299
2.62782
2.62479
2.62143
2.61679
2.61164
2.60521
2.59819
2.58989
2.58109
2.57095
2.56022
2.54835
2.53554
2.52162
2.50673
2.49086
2.47401
2.45755
1.36014
2.47534
2.68588
2.67678
2.65222
2.62317
2.61348
2.61428
2.61626
2.61822
2.61904
2.61913
2.61934
2.61938
2.61965
2.61998
2.62037
2.62069
2.62106
2.62129
2.6216
2.6217
2.6219
2.62183
2.62168
2.62132
2.62093
2.62009
2.61936
2.61795
2.61661
2.61449
2.61237
2.60946
2.60643
2.6029
2.59902
2.59453
2.58939
2.5837
2.5769
2.5693
2.56021
2.55022
2.53933
2.52762
2.51521
2.50197
2.48785
2.47402
1.34948
2.4113
2.66848
2.66922
2.64976
2.62334
2.61353
2.61358
2.61427
2.61483
2.6145
2.61363
2.61289
2.61185
2.61119
2.61051
2.61002
2.60939
2.60891
2.6083
2.60784
2.60724
2.60676
2.60614
2.6056
2.60487
2.60419
2.60341
2.60257
2.60149
2.60017
2.59859
2.59662
2.59437
2.5916
2.58852
2.58482
2.58079
2.57607
2.57078
2.56487
2.55858
2.55174
2.5443
2.53612
2.52668
2.51608
2.50494
2.49309
2.48169
1.74209
2.39567
2.67367
2.66073
2.65157
2.63769
2.63255
2.63281
2.63259
2.63231
2.63158
2.6303
2.629
2.62728
2.62577
2.62412
2.62256
2.62077
2.61902
2.61709
2.61521
2.61317
2.61115
2.60901
2.60686
2.60467
2.60244
2.60028
2.59792
2.59548
2.59303
2.5904
2.58768
2.58465
2.58152
2.57791
2.57417
2.56979
2.56527
2.55997
2.55449
2.54813
2.54161
2.53419
2.5264
2.51823
2.50989
2.50075
2.49083
2.48116
1.34684
2.39423
2.65926
2.66545
2.64912
2.62375
2.61516
2.61375
2.61502
2.61528
2.615
2.61464
2.61378
2.61279
2.6122
2.61129
2.61061
2.60951
2.6086
2.60724
2.60616
2.60479
2.60366
2.60218
2.60092
2.59908
2.59745
2.59501
2.59297
2.59033
2.58794
2.58495
2.58211
2.57864
2.5754
2.57157
2.56786
2.56354
2.5592
2.55426
2.54908
2.5433
2.53712
2.53043
2.52316
2.51547
2.50721
2.49863
2.48956
2.48074
1.34814
2.40507
2.66651
2.67099
2.65064
2.62184
2.61054
2.61034
2.6113
2.61202
2.6119
2.61119
2.61048
2.60947
2.6089
2.60815
2.60758
2.60667
2.60589
2.60474
2.60359
2.6019
2.60022
2.59803
2.59586
2.59335
2.59084
2.58803
2.58513
2.58201
2.57875
2.57533
2.57184
2.56825
2.56437
2.56041
2.5561
2.55178
2.54702
2.54229
2.5371
2.53192
2.52621
2.52045
2.51414
2.50768
2.50061
2.49325
2.48547
2.47804
1.34756
2.40075
2.66376
2.66905
2.64805
2.61857
2.60651
2.60636
2.60716
2.60809
2.6078
2.60697
2.60615
2.60507
2.60435
2.60362
2.603
2.60222
2.60147
2.60055
2.5996
2.59845
2.59718
2.59569
2.59398
2.59205
2.58984
2.58744
2.58469
2.58177
2.57848
2.57504
2.57122
2.56732
2.56303
2.55861
2.55377
2.54878
2.54342
2.53792
2.53209
2.52611
2.51983
2.51338
2.50667
2.49977
2.49267
2.48531
2.47768
2.47044
1.34474
2.37781
2.64655
2.66122
2.64205
2.6142
2.60234
2.60089
2.60118
2.60144
2.60078
2.60002
2.5987
2.59762
2.59654
2.59569
2.59466
2.59375
2.59262
2.5916
2.59037
2.58926
2.58792
2.58669
2.58522
2.58379
2.58211
2.58038
2.57836
2.57625
2.57383
2.5712
2.56822
2.56493
2.5613
2.55738
2.55313
2.54857
2.54363
2.53838
2.53279
2.52688
2.52065
2.5141
2.50729
2.50019
2.49287
2.48541
2.47775
2.47043
1.75178
2.37224
2.64445
2.64081
2.6273
2.6132
2.60831
2.60856
2.60854
2.60844
2.60788
2.60722
2.60604
2.60491
2.60367
2.60257
2.60123
2.59994
2.5984
2.59687
2.59513
2.59338
2.59144
2.58947
2.58734
2.58514
2.58281
2.58037
2.57779
2.57511
2.57236
2.56944
2.56642
2.56315
2.55971
2.55597
2.55203
2.54773
2.54315
2.53818
2.53293
2.52732
2.52151
2.51535
2.50902
2.50232
2.49544
2.4882
2.4807
2.47349
1.34686
2.38755
2.65178
2.65954
2.63898
2.60859
2.59723
2.59585
2.59748
2.59881
2.59865
2.59814
2.59755
2.59627
2.5956
2.59436
2.59361
2.59208
2.59115
2.58937
2.58782
2.58593
2.58409
2.58194
2.57983
2.57764
2.57553
2.57329
2.57111
2.56869
2.56609
2.56325
2.56024
2.55705
2.55367
2.55013
2.54639
2.54248
2.53844
2.53418
2.52969
2.52493
2.51986
2.51443
2.50869
2.50263
2.49631
2.48977
2.48292
2.47635
1.35054
2.41081
2.65438
2.64852
2.62663
2.59604
2.58525
2.58552
2.58733
2.58925
2.58963
2.5894
2.58894
2.58823
2.5877
2.58725
2.58677
2.58622
2.58553
2.58481
2.58388
2.58293
2.58173
2.58048
2.57893
2.5771
2.57494
2.57255
2.56984
2.56696
2.56392
2.56073
2.55736
2.55384
2.55013
2.54628
2.54223
2.53804
2.53365
2.52911
2.52438
2.5195
2.51451
2.5094
2.50408
2.4986
2.49284
2.48689
2.48065
2.47468
1.77164
2.3715
2.63729
2.61676
2.61033
2.59494
2.59219
2.59293
2.59404
2.59532
2.59505
2.59461
2.59424
2.59364
2.59306
2.59257
2.59199
2.5914
2.5907
2.58996
2.58911
2.58819
2.58715
2.586
2.58471
2.58326
2.58162
2.57978
2.57771
2.57529
2.57255
2.56949
2.56615
2.56252
2.55862
2.55449
2.55011
2.54554
2.54075
2.53579
2.53058
2.5252
2.51949
2.51369
2.50767
2.50156
2.49539
2.4891
2.48269
2.47658
1.79833
2.35437
2.62535
2.60504
2.60183
2.59189
2.58845
2.58864
2.58887
2.58938
2.58911
2.58847
2.58781
2.58675
2.5857
2.58455
2.58335
2.582
2.58059
2.57905
2.57746
2.57577
2.5741
2.57237
2.57065
2.56889
2.56711
2.5653
2.56343
2.56165
2.55979
2.55795
2.55599
2.55399
2.55177
2.54943
2.54683
2.54389
2.54052
2.53684
2.53295
2.52875
2.52435
2.51961
2.51467
2.50938
2.50379
2.49792
2.49178
2.48584
1.76307
2.38093
2.64922
2.61854
2.61274
2.59855
2.59535
2.59744
2.59893
2.59973
2.59945
2.59893
2.59788
2.5966
2.59534
2.59393
2.59251
2.5909
2.58929
2.58748
2.58571
2.58376
2.58169
2.57939
2.57697
2.57434
2.57163
2.56871
2.56575
2.56259
2.55944
2.55611
2.55275
2.54917
2.54559
2.5418
2.53802
2.53418
2.53045
2.52658
2.52263
2.51849
2.51423
2.50988
2.50538
2.50076
2.49596
2.49102
2.48584
2.48091
1.28602
2.49366
2.64436
2.64174
2.61654
2.58377
2.57169
2.57211
2.57478
2.57715
2.57844
2.57866
2.57892
2.57889
2.57884
2.57876
2.57861
2.57827
2.57786
2.57712
2.57635
2.57519
2.57412
2.57261
2.57124
2.56936
2.56769
2.56546
2.56316
2.56073
2.55804
2.5552
2.55206
2.54882
2.54528
2.54168
2.53778
2.53386
2.52966
2.52547
2.52102
2.51668
2.51218
2.50746
2.50261
2.49755
2.49239
2.48702
2.48155
2.47631
1.77218
2.36666
2.63868
2.61634
2.60998
2.59454
2.58957
2.59046
2.59087
2.59245
2.59203
2.5915
2.59098
2.59025
2.58946
2.58865
2.58784
2.58693
2.58597
2.58489
2.58376
2.58249
2.58115
2.57967
2.57809
2.57638
2.57452
2.57246
2.57006
2.56748
2.5646
2.56154
2.55843
2.55513
2.55176
2.54817
2.54449
2.54055
2.53653
2.53221
2.52785
2.52307
2.51819
2.51313
2.50796
2.50263
2.49718
2.49158
2.48587
2.48042
1.77353
2.36492
2.63665
2.61447
2.60816
2.59284
2.58783
2.58896
2.58995
2.59103
2.59148
2.59098
2.59051
2.5897
2.58879
2.58782
2.58678
2.58561
2.58434
2.58295
2.58145
2.57985
2.57815
2.57637
2.57449
2.57254
2.57048
2.56845
2.56643
2.56434
2.5622
2.55993
2.55741
2.55476
2.55184
2.54882
2.54558
2.54223
2.53866
2.53497
2.53107
2.52704
2.52281
2.51843
2.51385
2.50913
2.50423
2.49918
2.49392
2.48881
1.28546
2.49021
2.64177
2.63917
2.61346
2.57882
2.56587
2.56537
2.56791
2.56994
2.5709
2.57084
2.57071
2.57034
2.57004
2.56957
2.56927
2.56862
2.56816
2.56723
2.56657
2.5654
2.56448
2.56304
2.56186
2.56025
2.55852
2.55673
2.55477
2.55276
2.55059
2.5484
2.54605
2.54366
2.54111
2.53846
2.53564
2.5327
2.5296
2.52633
2.52291
2.51932
2.51559
2.51167
2.50762
2.50339
2.49903
2.49449
2.48982
2.48529
1.76701
2.3724
2.64005
2.60937
2.60292
2.5869
2.58378
2.58594
2.58684
2.58893
2.58868
2.58809
2.58762
2.58673
2.58594
2.58501
2.58416
2.58309
2.58205
2.5808
2.57957
2.57816
2.57674
2.57518
2.57353
2.5718
2.56991
2.56795
2.56581
2.56362
2.56119
2.55861
2.55582
2.55287
2.54974
2.54645
2.54301
2.53942
2.53574
2.53196
2.52808
2.52406
2.51993
2.51567
2.51128
2.50676
2.50212
2.49734
2.49243
2.48773
1.79487
2.35545
2.62355
2.59544
2.59144
2.57969
2.57625
2.57741
2.5777
2.57835
2.57817
2.57772
2.57716
2.57634
2.57551
2.57473
2.57388
2.57294
2.57189
2.57073
2.56951
2.56821
2.56685
2.56541
2.56388
2.56226
2.56053
2.55875
2.55686
2.55492
2.55291
2.55094
2.54885
2.54678
2.54455
2.54229
2.53985
2.53729
2.53452
2.53158
2.52843
2.52516
2.52172
2.51813
2.51438
2.51048
2.50643
2.50224
2.49787
2.49368
1.79935
2.35031
2.61861
2.59239
2.58869
2.57731
2.57337
2.57402
2.57425
2.57455
2.57439
2.57392
2.57324
2.57243
2.57149
2.57079
2.56979
2.56893
2.56763
2.56652
2.56505
2.56383
2.56225
2.56086
2.55905
2.55736
2.5553
2.55339
2.5512
2.54913
2.54677
2.54446
2.54184
2.53926
2.53644
2.53367
2.53072
2.52787
2.52483
2.52182
2.51861
2.51536
2.51193
2.50843
2.50481
2.50108
2.49724
2.49326
2.48915
2.4852
1.77983
2.35562
2.61611
2.60283
2.59307
2.57665
2.57157
2.57206
2.57268
2.57312
2.57306
2.57255
2.57182
2.57107
2.57005
2.56935
2.56823
2.5674
2.56609
2.56513
2.56367
2.56254
2.56091
2.55958
2.55775
2.55621
2.55418
2.55244
2.55023
2.5483
2.54587
2.54369
2.54101
2.53856
2.53566
2.53297
2.5299
2.52696
2.52369
2.52046
2.51696
2.51346
2.50975
2.50601
2.50214
2.49815
2.49409
2.48984
2.48553
2.48134
1.34474
2.37951
2.63771
2.63729
2.61507
2.58157
2.56737
2.565
2.56631
2.56742
2.56737
2.5671
2.56634
2.56544
2.56439
2.56372
2.56272
2.56195
2.56076
2.5598
2.55841
2.55729
2.55568
2.55438
2.55254
2.55104
2.54897
2.54723
2.54494
2.54295
2.54042
2.53817
2.53541
2.53288
2.52991
2.52708
2.52391
2.52078
2.51738
2.51399
2.51032
2.50667
2.50275
2.49884
2.49471
2.49056
2.48622
2.48184
2.47727
2.47295
1.34596
2.38704
2.65265
2.65704
2.63097
2.59243
2.57491
2.57259
2.57425
2.57553
2.57597
2.57561
2.57478
2.57378
2.57271
2.57186
2.57095
2.57007
2.56897
2.56793
2.56662
2.56544
2.56395
2.56265
2.56099
2.55951
2.55766
2.55596
2.55392
2.552
2.54977
2.54763
2.5452
2.54282
2.54019
2.53755
2.53468
2.53178
2.52866
2.52552
2.52213
2.51874
2.51511
2.51145
2.50757
2.50364
2.49952
2.49534
2.49096
2.48679
1.34509
2.37896
2.63611
2.63629
2.61338
2.58002
2.56486
2.56288
2.56425
2.56516
2.56557
2.56506
2.56443
2.56331
2.56242
2.56152
2.56076
2.55984
2.55891
2.55782
2.5567
2.55548
2.55419
2.55285
2.55141
2.54991
2.54829
2.5466
2.54479
2.54291
2.5409
2.53883
2.53662
2.53435
2.53195
2.52945
2.52683
2.52411
2.52124
2.51829
2.51518
2.512
2.50867
2.50525
2.50169
2.49803
2.49423
2.49032
2.48627
2.48236
1.78148
2.35364
2.61363
2.59976
2.58977
2.57169
2.56652
2.56683
2.56754
2.56844
2.56827
2.56757
2.56704
2.56592
2.56521
2.56419
2.56353
2.56239
2.56153
2.56017
2.55915
2.55769
2.55658
2.55502
2.55375
2.552
2.55052
2.54859
2.54693
2.54487
2.54304
2.54084
2.5388
2.5364
2.53411
2.53151
2.52898
2.5262
2.52344
2.52048
2.51748
2.51431
2.51105
2.50765
2.50414
2.50052
2.49675
2.4929
2.48886
2.48505
1.80188
2.34639
2.61427
2.58724
2.58371
2.57237
2.56861
2.56948
2.56993
2.57032
2.57018
2.56954
2.56898
2.56776
2.56698
2.56575
2.56509
2.56378
2.56295
2.56131
2.56025
2.55843
2.55731
2.55543
2.55419
2.5521
2.5506
2.54823
2.54652
2.54404
2.54218
2.53961
2.53751
2.53472
2.5323
2.5293
2.52661
2.52351
2.52057
2.51739
2.51415
2.51077
2.50722
2.50362
2.49981
2.49603
2.49199
2.48806
2.48376
2.47991
1.7887
2.36022
2.62668
2.59513
2.58854
2.57449
2.57183
2.57373
2.5752
2.57607
2.57603
2.57543
2.57494
2.57384
2.57319
2.57198
2.57132
2.56999
2.56924
2.5677
2.56682
2.565
2.56397
2.56198
2.56087
2.55875
2.55744
2.55512
2.55353
2.55107
2.54923
2.5467
2.54463
2.54197
2.53961
2.53679
2.53407
2.53113
2.5281
2.52505
2.52178
2.51855
2.51503
2.51157
2.50777
2.50409
2.50005
2.49618
2.49192
2.48812
2.17343
2.34307
2.76851
2.85809
2.92627
2.86553
2.85998
2.85787
2.8498
2.84809
2.84967
2.85117
2.85173
2.85203
2.85294
2.85373
2.85495
2.85604
2.85669
2.85691
2.85659
2.85547
2.85363
2.85224
2.84858
2.84518
2.84112
2.83636
2.83087
2.8253
2.81897
2.81265
2.80581
2.7986
2.79171
2.7841
2.77691
2.76847
2.76028
2.75158
2.74337
2.73467
2.72637
2.71774
2.70939
2.70098
2.69258
2.68436
2.67606
2.66811
2.66007
2.65246
2.64479
2.63759
2.63041
2.62375
2.61716
2.61115
2.60525
2.59996
2.59488
2.59044
2.58632
2.58286
2.5798
2.57746
2.57555
2.5744
2.57365
2.5737
2.57389
2.57437
2.57507
2.57661
2.57843
2.58112
2.5836
2.58648
2.58894
2.59178
2.59406
2.59662
2.59847
2.60059
2.60197
2.60356
2.60442
2.60551
2.60586
2.60642
2.60645
2.60649
2.60643
2.60623
2.60574
2.60526
2.60453
2.60396
2.60331
2.60106
2.18058
2.25947
2.45054
2.6294
2.69597
2.74741
2.78278
2.81236
2.8301
2.84426
2.85303
2.86383
2.87109
2.87071
2.86704
2.85952
2.85154
2.84137
2.8314
2.8197
2.80842
2.79652
2.78453
2.77286
2.76045
2.74873
2.73612
2.72401
2.71141
2.69946
2.68683
2.67495
2.66257
2.65101
2.63925
2.62826
2.61711
2.60596
2.59453
2.58364
2.57289
2.56255
2.55233
2.54236
2.53257
2.52292
2.51359
2.50429
2.49547
2.48653
2.47815
2.46965
2.46171
2.45377
2.44632
2.43904
2.43212
2.4256
2.4193
2.41363
2.40809
2.40332
2.39875
2.39488
2.39147
2.38858
2.38636
2.3846
2.3835
2.38292
2.38267
2.3828
2.38323
2.38429
2.38598
2.38846
2.39109
2.39389
2.39669
2.39958
2.40232
2.40514
2.40744
2.41001
2.41173
2.41382
2.41501
2.41649
2.41711
2.41808
2.41829
2.41871
2.41881
2.4187
2.41842
2.41775
2.41717
2.41627
2.41561
2.41285
2.22615
2.21101
2.27122
2.35623
2.41234
2.45902
2.49315
2.52128
2.54369
2.56014
2.57261
2.5816
2.58876
2.5906
2.5896
2.58736
2.58252
2.57732
2.57096
2.56428
2.55694
2.54935
2.54165
2.53372
2.52566
2.5174
2.50897
2.50056
2.49197
2.48356
2.47496
2.46659
2.45804
2.4498
2.44157
2.43387
2.42617
2.41821
2.40986
2.40159
2.39367
2.38584
2.37812
2.37047
2.36285
2.35542
2.34798
2.34079
2.33357
2.32663
2.31972
2.31306
2.30654
2.3002
2.29413
2.28819
2.28264
2.27718
2.27224
2.26736
2.26312
2.25891
2.25546
2.25203
2.24945
2.2469
2.24528
2.24369
2.24307
2.24245
2.24248
2.24262
2.243
2.24389
2.24531
2.24743
2.24958
2.25197
2.25417
2.2565
2.25857
2.26061
2.26234
2.26393
2.26518
2.26623
2.26698
2.26744
2.26773
2.26776
2.26763
2.26751
2.26727
2.26692
2.26638
2.2657
2.26502
2.26435
2.264
2.26211
2.25804
2.21848
2.21402
2.23888
2.27047
2.29321
2.30876
2.32062
2.3312
2.34039
2.34797
2.35389
2.35841
2.36196
2.36356
2.36369
2.36359
2.36342
2.36314
2.36289
2.36236
2.36187
2.36117
2.36004
2.35866
2.35706
2.35494
2.35267
2.34989
2.34701
2.34362
2.34013
2.33619
2.33213
2.32791
2.32388
2.31963
2.31488
2.30955
2.30394
2.29849
2.29289
2.28741
2.28169
2.2761
2.27031
2.26467
2.25889
2.25328
2.24758
2.24206
2.23652
2.23116
2.22585
2.22075
2.21575
2.21099
2.20639
2.20208
2.19797
2.19422
2.19072
2.18764
2.18487
2.18257
2.18061
2.17918
2.17812
2.17765
2.17753
2.17775
2.17813
2.17874
2.17991
2.18157
2.18376
2.18608
2.18859
2.19102
2.19345
2.19567
2.19777
2.19961
2.20123
2.20255
2.2036
2.20435
2.20484
2.2051
2.2051
2.20499
2.20475
2.2045
2.2039
2.20341
2.20243
2.20179
2.20078
2.20046
2.19817
2.27361
2.23939
2.21743
2.20984
2.21701
2.222
2.22424
2.22515
2.22613
2.22811
2.23085
2.23319
2.23522
2.23702
2.23981
2.24207
2.2444
2.24669
2.24947
2.25211
2.25514
2.25771
2.26046
2.26249
2.26455
2.26571
2.26677
2.26708
2.26679
2.26614
2.26506
2.26346
2.26144
2.25904
2.25648
2.25392
2.25107
2.2477
2.24357
2.23917
2.2346
2.23002
2.22536
2.22057
2.2158
2.21081
2.20596
2.20088
2.19601
2.19094
2.1861
2.18113
2.17637
2.17157
2.167
2.16245
2.15817
2.15396
2.15004
2.14627
2.14282
2.13959
2.13671
2.13414
2.13196
2.13015
2.12874
2.12777
2.12727
2.12715
2.12727
2.12751
2.1281
2.12895
2.13052
2.13228
2.13437
2.1365
2.13866
2.14077
2.14266
2.14446
2.14593
2.14725
2.14821
2.14898
2.14944
2.1497
2.14965
2.14952
2.14925
2.14882
2.14847
2.14775
2.14718
2.14621
2.1456
2.14467
2.14449
2.14238
2.29742
2.25328
2.22891
2.20896
2.19906
2.19234
2.18667
2.18073
2.17593
2.17216
2.17039
2.16984
2.17039
2.17074
2.17182
2.17406
2.17651
2.17972
2.18251
2.18612
2.18935
2.19318
2.19636
2.19988
2.20249
2.20522
2.20691
2.20859
2.20922
2.20984
2.2096
2.20898
2.20779
2.20635
2.2046
2.20295
2.20085
2.19834
2.19496
2.19138
2.18737
2.18346
2.17919
2.1751
2.17061
2.16634
2.16168
2.15729
2.15252
2.14809
2.1433
2.13892
2.1342
2.12994
2.12538
2.12135
2.11706
2.11334
2.10942
2.10612
2.10267
2.09988
2.09704
2.09486
2.09272
2.09124
2.08992
2.08924
2.08889
2.08898
2.08917
2.0895
2.09012
2.09124
2.09271
2.09456
2.09651
2.09871
2.10078
2.10294
2.10479
2.10661
2.10805
2.10942
2.11038
2.11124
2.11172
2.11207
2.11206
2.11196
2.11182
2.11149
2.11118
2.11049
2.11003
2.10909
2.10861
2.10771
2.10762
2.1055
2.32085
2.28089
2.24707
2.22223
2.20173
2.18672
2.17443
2.16393
2.15452
2.14699
2.14113
2.13753
2.1354
2.13491
2.13495
2.13547
2.13733
2.14004
2.14334
2.14655
2.15028
2.15386
2.15772
2.16124
2.16475
2.16771
2.17041
2.17242
2.17406
2.17503
2.17557
2.17556
2.17496
2.17401
2.17287
2.1717
2.1701
2.16805
2.16521
2.1621
2.15854
2.15498
2.15106
2.14728
2.14313
2.13918
2.13482
2.13073
2.12623
2.12208
2.11753
2.1134
2.1089
2.10487
2.10052
2.0967
2.09259
2.08908
2.08533
2.08223
2.07896
2.07635
2.07367
2.07164
2.06968
2.06834
2.06721
2.06666
2.06648
2.06664
2.06687
2.06724
2.06799
2.06914
2.07063
2.07239
2.07428
2.07635
2.07835
2.08041
2.08222
2.08397