/*--------------------------------*- C++ -*----------------------------------*\
| =========                 |                                                 |
| \\      /  F ield         | OpenFOAM: The Open Source CFD Toolbox           |
|  \\    /   O peration     | Version:  2412                                  |
|   \\  /    A nd           | Website:  www.openfoam.com                      |
|    \\/     M anipulation  |                                                 |
\*---------------------------------------------------------------------------*/
FoamFile
{
    version     2.0;
    format      ascii;
    arch        "LSB;label=32;scalar=64";
    class       volVectorField;
    location    "14.5";
    object      U;
}
// * * * * * * * * * * * * * * * * * * * * * * * * * * * * * * * * * * * * * //

dimensions      [0 1 -1 0 0 0 0];

internalField   nonuniform List<vector> 
7000
(
(2.59174 -7.26417e-05 0)
(1.62228 0.000179132 0)
(0.497114 0.000211364 0)
(0.553396 0.000354136 0)
(0.655147 0.000450865 0)
(0.720534 0.00052982 0)
(0.7335 0.000598381 0)
(0.726649 0.000669385 0)
(0.716643 0.000748563 0)
(0.708975 0.000839755 0)
(0.704524 0.000939177 0)
(0.700968 0.00104312 0)
(0.69689 0.00115078 0)
(0.69204 0.00126306 0)
(0.686576 0.00138099 0)
(0.680626 0.00150515 0)
(0.674206 0.0016358 0)
(0.667284 0.00177329 0)
(0.659826 0.00191803 0)
(0.651805 0.0020706 0)
(0.643199 0.00223158 0)
(0.633986 0.00240169 0)
(0.62414 0.00258163 0)
(0.613635 0.00277217 0)
(0.602441 0.00297413 0)
(0.590528 0.0031885 0)
(0.577866 0.00341613 0)
(0.564418 0.00365791 0)
(0.550152 0.00391493 0)
(0.535029 0.00418828 0)
(0.519015 0.00447867 0)
(0.502072 0.0047869 0)
(0.484157 0.00511424 0)
(0.465239 0.00546122 0)
(0.445283 0.00582764 0)
(0.42425 0.00621366 0)
(0.402113 0.00662017 0)
(0.378846 0.00704575 0)
(0.354455 0.00748729 0)
(0.328913 0.00794345 0)
(0.302209 0.0084152 0)
(0.274383 0.00889888 0)
(0.24549 0.00938809 0)
(0.215618 0.00987727 0)
(0.184735 0.0103673 0)
(0.152864 0.0108549 0)
(0.12026 0.0113384 0)
(0.087234 0.0117935 0)
(0.0516369 0.0123918 0)
(0.0221476 0.0132565 0)
(2.59187 -4.82042e-05 0)
(1.62245 0.000348995 0)
(0.496803 0.000835239 0)
(0.553135 0.00114981 0)
(0.654908 0.00138764 0)
(0.720309 0.00161226 0)
(0.733276 0.00182247 0)
(0.72643 0.00203986 0)
(0.716433 0.00227953 0)
(0.708775 0.00255158 0)
(0.70433 0.00284663 0)
(0.700778 0.00315503 0)
(0.696705 0.00347453 0)
(0.691859 0.00380735 0)
(0.686401 0.00415612 0)
(0.680456 0.00452219 0)
(0.674042 0.00490628 0)
(0.667126 0.00530908 0)
(0.659674 0.0057317 0)
(0.65166 0.00617538 0)
(0.643061 0.00664164 0)
(0.633855 0.0071321 0)
(0.624016 0.00764849 0)
(0.613519 0.00819238 0)
(0.602333 0.00876576 0)
(0.590429 0.00937064 0)
(0.577775 0.0100089 0)
(0.564336 0.0106818 0)
(0.550079 0.0113918 0)
(0.534966 0.0121403 0)
(0.51896 0.0129283 0)
(0.502025 0.0137558 0)
(0.484116 0.0146247 0)
(0.465203 0.0155339 0)
(0.445248 0.0164806 0)
(0.424215 0.0174615 0)
(0.402072 0.0184757 0)
(0.37879 0.0195151 0)
(0.354375 0.020568 0)
(0.3288 0.0216247 0)
(0.302047 0.0226801 0)
(0.27415 0.0237169 0)
(0.245166 0.0247124 0)
(0.215189 0.0256448 0)
(0.184192 0.0265058 0)
(0.1522 0.0272805 0)
(0.11946 0.0279574 0)
(0.0863339 0.0284992 0)
(0.0506165 0.0291703 0)
(0.021186 0.0299401 0)
(2.592 4.77196e-05 0)
(1.62274 0.000394322 0)
(0.497011 0.0016172 0)
(0.553188 0.00199755 0)
(0.65495 0.00232613 0)
(0.720351 0.002696 0)
(0.733318 0.00306911 0)
(0.726483 0.00345173 0)
(0.716508 0.00386576 0)
(0.708871 0.00432752 0)
(0.704441 0.00482598 0)
(0.700898 0.00534832 0)
(0.696834 0.0058914 0)
(0.692 0.00645803 0)
(0.686554 0.00705211 0)
(0.680623 0.00767565 0)
(0.674223 0.00833018 0)
(0.667322 0.00901688 0)
(0.659886 0.0097379 0)
(0.651888 0.0104952 0)
(0.643307 0.0112918 0)
(0.63412 0.01213 0)
(0.624302 0.0130134 0)
(0.613826 0.0139445 0)
(0.602664 0.014927 0)
(0.590784 0.0159641 0)
(0.578155 0.0170597 0)
(0.564744 0.0182161 0)
(0.550515 0.0194374 0)
(0.53543 0.0207265 0)
(0.519453 0.0220854 0)
(0.502549 0.0235147 0)
(0.48467 0.0250174 0)
(0.465784 0.0265925 0)
(0.445854 0.0282361 0)
(0.424843 0.0299439 0)
(0.402718 0.0317124 0)
(0.379443 0.033531 0)
(0.355023 0.035381 0)
(0.329433 0.0372475 0)
(0.302649 0.0391161 0)
(0.274697 0.0409626 0)
(0.245628 0.0427467 0)
(0.215548 0.0444362 0)
(0.184428 0.0460095 0)
(0.152293 0.0474374 0)
(0.119382 0.0486958 0)
(0.0861275 0.0497344 0)
(0.0502946 0.050816 0)
(0.0207246 0.0518303 0)
(2.59217 5.42125e-05 0)
(1.62319 0.000538682 0)
(0.49744 0.00236861 0)
(0.553311 0.00283865 0)
(0.655072 0.0032673 0)
(0.720493 0.00379326 0)
(0.733465 0.00434425 0)
(0.726645 0.00490623 0)
(0.716698 0.00550486 0)
(0.709093 0.00616257 0)
(0.704686 0.00686937 0)
(0.70116 0.00761149 0)
(0.697114 0.00838479 0)
(0.692299 0.00919236 0)
(0.686875 0.0100386 0)
(0.680967 0.0109264 0)
(0.674591 0.0118578 0)
(0.667716 0.012835 0)
(0.660306 0.0138606 0)
(0.652337 0.014938 0)
(0.643787 0.0160707 0)
(0.634632 0.0172628 0)
(0.624849 0.0185185 0)
(0.614411 0.0198425 0)
(0.603288 0.0212392 0)
(0.59145 0.0227137 0)
(0.578867 0.0242708 0)
(0.565502 0.0259156 0)
(0.551322 0.0276521 0)
(0.536289 0.0294856 0)
(0.520364 0.0314189 0)
(0.503513 0.0334544 0)
(0.485688 0.0355939 0)
(0.466854 0.0378388 0)
(0.446973 0.0401832 0)
(0.426008 0.042623 0)
(0.403922 0.0451509 0)
(0.380675 0.0477557 0)
(0.35627 0.0504116 0)
(0.33068 0.0530988 0)
(0.303878 0.0557939 0)
(0.275878 0.0584636 0)
(0.246728 0.0610559 0)
(0.216538 0.0635173 0)
(0.185283 0.0658231 0)
(0.152981 0.067921 0)
(0.119867 0.0697737 0)
(0.0864327 0.0713147 0)
(0.0504178 0.0727749 0)
(0.0205662 0.0739516 0)
(2.59243 6.78754e-05 0)
(1.62383 0.000720144 0)
(0.497994 0.00312693 0)
(0.553421 0.00371147 0)
(0.655199 0.00425103 0)
(0.720664 0.00493266 0)
(0.73365 0.00566296 0)
(0.726848 0.00641039 0)
(0.716938 0.00720167 0)
(0.709374 0.00806167 0)
(0.704999 0.00898251 0)
(0.7015 0.0099509 0)
(0.69748 0.0109619 0)
(0.692695 0.0120189 0)
(0.687303 0.0131262 0)
(0.681429 0.014288 0)
(0.675089 0.0155063 0)
(0.668251 0.0167848 0)
(0.660882 0.0181263 0)
(0.652955 0.0195359 0)
(0.64445 0.0210175 0)
(0.635345 0.0225772 0)
(0.625614 0.0242198 0)
(0.615231 0.0259521 0)
(0.604168 0.0277793 0)
(0.592394 0.0297089 0)
(0.579877 0.0317463 0)
(0.566582 0.0338991 0)
(0.552477 0.0361722 0)
(0.537521 0.0385725 0)
(0.521675 0.0411042 0)
(0.504904 0.0437709 0)
(0.487161 0.0465745 0)
(0.468408 0.0495166 0)
(0.448603 0.052593 0)
(0.427709 0.0557951 0)
(0.405689 0.0591161 0)
(0.382492 0.0625398 0)
(0.358119 0.0660384 0)
(0.332542 0.069581 0)
(0.30573 0.0731399 0)
(0.277682 0.0766669 0)
(0.248441 0.0801003 0)
(0.218122 0.0833658 0)
(0.186699 0.0864183 0)
(0.15419 0.0891972 0)
(0.120812 0.0916359 0)
(0.0871302 0.0936465 0)
(0.0508365 0.0954215 0)
(0.0205762 0.0966876 0)
(2.59277 8.01872e-05 0)
(1.62468 0.000905179 0)
(0.498696 0.00388447 0)
(0.553536 0.00459712 0)
(0.655342 0.00525392 0)
(0.720874 0.00609158 0)
(0.733885 0.00700711 0)
(0.727109 0.00794474 0)
(0.717243 0.00893716 0)
(0.709729 0.0100084 0)
(0.705397 0.0111517 0)
(0.701934 0.0123543 0)
(0.697949 0.0136116 0)
(0.693202 0.0149267 0)
(0.687853 0.0163044 0)
(0.682024 0.017749 0)
(0.67573 0.019264 0)
(0.668942 0.0208531 0)
(0.661626 0.0225207 0)
(0.653756 0.0242724 0)
(0.645312 0.026114 0)
(0.636271 0.028052 0)
(0.62661 0.0300936 0)
(0.616301 0.0322463 0)
(0.605318 0.0345174 0)
(0.593628 0.0369155 0)
(0.5812 0.0394489 0)
(0.568001 0.0421253 0)
(0.553995 0.044953 0)
(0.539144 0.0479392 0)
(0.523406 0.0510908 0)
(0.506746 0.0544117 0)
(0.489115 0.0579062 0)
(0.470475 0.0615742 0)
(0.450777 0.0654151 0)
(0.429986 0.0694166 0)
(0.408059 0.0735703 0)
(0.384941 0.0778589 0)
(0.360621 0.0822498 0)
(0.335075 0.0867041 0)
(0.308262 0.0911838 0)
(0.28017 0.0956328 0)
(0.250827 0.0999733 0)
(0.22035 0.104115 0)
(0.188721 0.10798 0)
(0.155946 0.111496 0)
(0.122232 0.114568 0)
(0.0881903 0.117076 0)
(0.0514932 0.119165 0)
(0.0207229 0.120497 0)
(2.5932 9.28582e-05 0)
(1.62576 0.0010924 0)
(0.499557 0.00464985 0)
(0.553656 0.00549846 0)
(0.655499 0.0062787 0)
(0.721124 0.00727636 0)
(0.734174 0.0083828 0)
(0.72743 0.00951685 0)
(0.717618 0.0107185 0)
(0.710164 0.0120095 0)
(0.705884 0.0133829 0)
(0.702467 0.0148272 0)
(0.698529 0.0163385 0)
(0.693831 0.0179198 0)
(0.688535 0.0195765 0)
(0.682762 0.0213128 0)
(0.676528 0.0231335 0)
(0.669803 0.0250427 0)
(0.662554 0.0270463 0)
(0.654756 0.0291504 0)
(0.646388 0.0313626 0)
(0.63743 0.0336902 0)
(0.627856 0.0361425 0)
(0.617642 0.0387279 0)
(0.606759 0.0414563 0)
(0.595177 0.044337 0)
(0.582864 0.0473812 0)
(0.569786 0.0505979 0)
(0.555908 0.0539972 0)
(0.54119 0.0575889 0)
(0.525592 0.0613812 0)
(0.509076 0.0653795 0)
(0.491591 0.0695907 0)
(0.473098 0.0740144 0)
(0.453544 0.0786505 0)
(0.432889 0.0834897 0)
(0.41109 0.0885171 0)
(0.388082 0.0937179 0)
(0.363844 0.0990541 0)
(0.338349 0.10448 0)
(0.31155 0.109947 0)
(0.283418 0.11539 0)
(0.253969 0.120716 0)
(0.223304 0.125814 0)
(0.191422 0.13058 0)
(0.158321 0.134919 0)
(0.124171 0.138694 0)
(0.0896611 0.141756 0)
(0.0524023 0.144203 0)
(0.0209695 0.145632 0)
(2.59373 0.000105649 0)
(1.62709 0.00128013 0)
(0.500589 0.00542113 0)
(0.553785 0.00640954 0)
(0.655674 0.00731699 0)
(0.721418 0.00847886 0)
(0.734523 0.00977946 0)
(0.727819 0.0111167 0)
(0.718073 0.0125358 0)
(0.710689 0.0140544 0)
(0.706472 0.0156657 0)
(0.703112 0.0173595 0)
(0.699231 0.0191329 0)
(0.694595 0.0209891 0)
(0.689364 0.0229334 0)
(0.68366 0.0249708 0)
(0.677499 0.0271063 0)
(0.670851 0.0293452 0)
(0.663684 0.0316943 0)
(0.655974 0.034161 0)
(0.647701 0.0367541 0)
(0.638844 0.0394824 0)
(0.629379 0.0423565 0)
(0.619281 0.0453869 0)
(0.608522 0.0485851 0)
(0.597073 0.0519624 0)
(0.584902 0.0555317 0)
(0.571973 0.0593051 0)
(0.558254 0.0632934 0)
(0.543703 0.0675097 0)
(0.528279 0.0719642 0)
(0.511942 0.076664 0)
(0.494642 0.0816176 0)
(0.476334 0.0868283 0)
(0.456965 0.0922936 0)
(0.436486 0.0980093 0)
(0.414853 0.103957 0)
(0.391992 0.11012 0)
(0.367871 0.116461 0)
(0.342455 0.122927 0)
(0.315689 0.129459 0)
(0.287528 0.135983 0)
(0.257964 0.142386 0)
(0.22709 0.148542 0)
(0.194905 0.154315 0)
(0.161401 0.159571 0)
(0.126716 0.164151 0)
(0.0915829 0.167855 0)
(0.0536025 0.170721 0)
(0.021358 0.172282 0)
(2.59437 0.000118505 0)
(1.62868 0.00146747 0)
(0.501807 0.00619564 0)
(0.553926 0.0073263 0)
(0.65587 0.00836438 0)
(0.721763 0.00969457 0)
(0.734938 0.0111954 0)
(0.728287 0.0127408 0)
(0.71862 0.014384 0)
(0.711317 0.0161385 0)
(0.707173 0.0179961 0)
(0.703882 0.0199477 0)
(0.700071 0.0219916 0)
(0.695508 0.0241311 0)
(0.690355 0.0263717 0)
(0.684734 0.0287187 0)
(0.67866 0.0311779 0)
(0.672105 0.0337555 0)
(0.665036 0.0364593 0)
(0.657432 0.0392981 0)
(0.649272 0.0422817 0)
(0.640537 0.0454209 0)
(0.631202 0.0487275 0)
(0.621245 0.052214 0)
(0.610636 0.055894 0)
(0.599347 0.0597807 0)
(0.587348 0.0638888 0)
(0.574601 0.0682338 0)
(0.561075 0.0728282 0)
(0.546728 0.0776871 0)
(0.531515 0.0828247 0)
(0.515399 0.08825 0)
(0.498327 0.0939729 0)
(0.480248 0.100001 0)
(0.461109 0.106334 0)
(0.440854 0.112965 0)
(0.419432 0.119884 0)
(0.396765 0.127067 0)
(0.372803 0.134479 0)
(0.347501 0.142063 0)
(0.320796 0.149751 0)
(0.292622 0.157458 0)
(0.262948 0.165056 0)
(0.23184 0.17239 0)
(0.199299 0.179306 0)
(0.165306 0.185619 0)
(0.129972 0.191124 0)
(0.0940677 0.195576 0)
(0.0551407 0.198952 0)
(0.0218673 0.200696 0)
(2.59513 0.000131291 0)
(1.63056 0.00165313 0)
(0.503227 0.00696821 0)
(0.554082 0.00824273 0)
(0.656093 0.00941391 0)
(0.722166 0.0109158 0)
(0.73543 0.0126211 0)
(0.728843 0.0143803 0)
(0.719269 0.0162551 0)
(0.71206 0.0182538 0)
(0.708001 0.0203662 0)
(0.704792 0.0225841 0)
(0.701063 0.0249069 0)
(0.696587 0.0273381 0)
(0.691526 0.0298835 0)
(0.686002 0.0325487 0)
(0.680031 0.0353401 0)
(0.673585 0.038265 0)
(0.666633 0.0413323 0)
(0.659153 0.0445519 0)
(0.651127 0.0479352 0)
(0.642536 0.0514946 0)
(0.633356 0.0552436 0)
(0.623564 0.0591965 0)
(0.613133 0.063369 0)
(0.602035 0.0677771 0)
(0.59024 0.0724369 0)
(0.57771 0.0773671 0)
(0.564414 0.0825835 0)
(0.550311 0.0881026 0)
(0.535355 0.0939428 0)
(0.519504 0.100117 0)
(0.502708 0.106637 0)
(0.484911 0.113513 0)
(0.466054 0.120751 0)
(0.446079 0.128343 0)
(0.424924 0.136285 0)
(0.402505 0.144552 0)
(0.378758 0.153109 0)
(0.353619 0.161899 0)
(0.327016 0.170845 0)
(0.298859 0.179857 0)
(0.269081 0.188788 0)
(0.237732 0.197457 0)
(0.204785 0.205681 0)
(0.170215 0.213231 0)
(0.13408 0.219844 0)
(0.0972001 0.225204 0)
(0.0571077 0.229205 0)
(0.0225725 0.231193 0)
(2.596 0.000143873 0)
(1.63274 0.00183532 0)
(0.504861 0.00773131 0)
(0.554257 0.00915141 0)
(0.656347 0.0104583 0)
(0.722634 0.0121335 0)
(0.736007 0.0140474 0)
(0.729499 0.0160262 0)
(0.720035 0.0181405 0)
(0.712934 0.0203918 0)
(0.708973 0.0227676 0)
(0.705858 0.0252605 0)
(0.702225 0.0278706 0)
(0.697851 0.030602 0)
(0.692897 0.0334605 0)
(0.687485 0.036452 0)
(0.681634 0.0395838 0)
(0.675314 0.042864 0)
(0.668497 0.0463028 0)
(0.661162 0.0499113 0)
(0.653292 0.0537025 0)
(0.644868 0.0576904 0)
(0.635869 0.0618903 0)
(0.626271 0.0663187 0)
(0.616049 0.0709933 0)
(0.605174 0.075933 0)
(0.593618 0.081156 0)
(0.581344 0.0866839 0)
(0.568319 0.0925364 0)
(0.554504 0.0987328 0)
(0.539853 0.105294 0)
(0.52432 0.112239 0)
(0.507855 0.119582 0)
(0.4904 0.127337 0)
(0.471888 0.135518 0)
(0.452257 0.144118 0)
(0.43144 0.153136 0)
(0.409335 0.162557 0)
(0.385871 0.17234 0)
(0.360962 0.182437 0)
(0.334517 0.192764 0)
(0.306423 0.203221 0)
(0.276572 0.213656 0)
(0.244977 0.223856 0)
(0.211588 0.233608 0)
(0.176343 0.242622 0)
(0.139273 0.250564 0)
(0.101194 0.257049 0)
(0.0595958 0.261864 0)
(0.023463 0.264194 0)
(2.597 0.00015575 0)
(1.63523 0.00201222 0)
(0.506725 0.0084733 0)
(0.554456 0.0100433 0)
(0.656637 0.0114909 0)
(0.723175 0.0133346 0)
(0.736681 0.0154613 0)
(0.730268 0.0176658 0)
(0.720934 0.0200284 0)
(0.713955 0.0225419 0)
(0.710106 0.0251905 0)
(0.707099 0.0279671 0)
(0.703578 0.030873 0)
(0.69932 0.0339129 0)
(0.694488 0.0370923 0)
(0.689205 0.040418 0)
(0.68349 0.0438975 0)
(0.677315 0.0475404 0)
(0.670654 0.0513576 0)
(0.663486 0.0553621 0)
(0.655795 0.0595681 0)
(0.647564 0.0639916 0)
(0.638772 0.0686497 0)
(0.629398 0.0735612 0)
(0.619417 0.0787457 0)
(0.608801 0.0842254 0)
(0.597523 0.0900213 0)
(0.585548 0.0961573 0)
(0.572841 0.102658 0)
(0.559363 0.109545 0)
(0.545071 0.116844 0)
(0.529915 0.12458 0)
(0.513842 0.132772 0)
(0.496797 0.141436 0)
(0.478705 0.150595 0)
(0.459494 0.160252 0)
(0.439096 0.170403 0)
(0.417395 0.18105 0)
(0.394301 0.192153 0)
(0.369711 0.203665 0)
(0.343507 0.215512 0)
(0.315549 0.227585 0)
(0.285682 0.239724 0)
(0.253868 0.251695 0)
(0.220014 0.263246 0)
(0.184001 0.274049 0)
(0.145798 0.283658 0)
(0.106262 0.291572 0)
(0.0628143 0.297441 0)
(0.0246758 0.300247 0)
(2.59814 0.000164628 0)
(1.63805 0.00218363 0)
(0.50883 0.00917671 0)
(0.554691 0.0109063 0)
(0.656967 0.012504 0)
(0.723793 0.014504 0)
(0.737465 0.0168512 0)
(0.731169 0.0192862 0)
(0.721988 0.021904 0)
(0.715147 0.0246899 0)
(0.711423 0.0276218 0)
(0.708538 0.0306919 0)
(0.705143 0.0339025 0)
(0.701017 0.037259 0)
(0.696324 0.0407675 0)
(0.691187 0.0444346 0)
(0.685625 0.0482689 0)
(0.679615 0.0522808 0)
(0.67313 0.0564827 0)
(0.666151 0.060889 0)
(0.658664 0.0655154 0)
(0.650653 0.0703798 0)
(0.642099 0.0755015 0)
(0.632981 0.0809015 0)
(0.623276 0.086602 0)
(0.612958 0.0926276 0)
(0.601999 0.0990032 0)
(0.590367 0.105755 0)
(0.578028 0.112912 0)
(0.564943 0.120503 0)
(0.551068 0.128554 0)
(0.536356 0.137096 0)
(0.520747 0.146158 0)
(0.504189 0.155761 0)
(0.486604 0.165932 0)
(0.467906 0.176692 0)
(0.448026 0.188036 0)
(0.426838 0.19998 0)
(0.404225 0.2125 0)
(0.380072 0.225551 0)
(0.354226 0.239073 0)
(0.326515 0.252959 0)
(0.296726 0.267049 0)
(0.264755 0.281094 0)
(0.230457 0.294793 0)
(0.193631 0.307778 0)
(0.154136 0.319494 0)
(0.112801 0.329286 0)
(0.0669713 0.336612 0)
(0.0262413 0.340119 0)
(2.5994 0.000169887 0)
(1.64121 0.00234655 0)
(0.511176 0.00982984 0)
(0.554973 0.0117201 0)
(0.657341 0.013467 0)
(0.724491 0.0156259 0)
(0.738373 0.0182003 0)
(0.732214 0.0208722 0)
(0.723212 0.0237546 0)
(0.716531 0.0268237 0)
(0.712947 0.0300492 0)
(0.710198 0.0334221 0)
(0.706945 0.0369461 0)
(0.702967 0.0406272 0)
(0.698429 0.0444716 0)
(0.693455 0.0484864 0)
(0.688066 0.052681 0)
(0.682241 0.0570669 0)
(0.675953 0.061658 0)
(0.669187 0.0664699 0)
(0.66193 0.0715204 0)
(0.654167 0.0768291 0)
(0.645881 0.0824177 0)
(0.637053 0.0883093 0)
(0.627661 0.0945292 0)
(0.617681 0.101104 0)
(0.607087 0.108063 0)
(0.595849 0.115437 0)
(0.583932 0.123257 0)
(0.5713 0.131557 0)
(0.557909 0.14037 0)
(0.543714 0.149732 0)
(0.528652 0.159681 0)
(0.512668 0.170247 0)
(0.495689 0.181462 0)
(0.477615 0.193364 0)
(0.458371 0.205961 0)
(0.437831 0.219274 0)
(0.415847 0.233311 0)
(0.392284 0.248033 0)
(0.366963 0.263399 0)
(0.339664 0.27932 0)
(0.310119 0.295647 0)
(0.278118 0.312134 0)
(0.243445 0.328451 0)
(0.205778 0.344171 0)
(0.164816 0.358626 0)
(0.121345 0.370951 0)
(0.0725491 0.380319 0)
(0.02844 0.384885 0)
(2.60081 0.000178325 0)
(1.6447 0.00248907 0)
(0.513756 0.0104369 0)
(0.555291 0.0124644 0)
(0.657763 0.0143397 0)
(0.725284 0.0166808 0)
(0.739417 0.0194776 0)
(0.733421 0.0223975 0)
(0.72463 0.0255631 0)
(0.718127 0.0289283 0)
(0.714698 0.0324579 0)
(0.7121 0.0361438 0)
(0.709003 0.0399906 0)
(0.70519 0.0440048 0)
(0.700824 0.0481927 0)
(0.696031 0.0525619 0)
(0.690834 0.0571224 0)
(0.685214 0.061887 0)
(0.679147 0.0668707 0)
(0.672619 0.0720911 0)
(0.665619 0.0775676 0)
(0.658134 0.0833219 0)
(0.650149 0.0893778 0)
(0.641648 0.0957609 0)
(0.632609 0.1025 0)
(0.623012 0.109624 0)
(0.612831 0.117165 0)
(0.602039 0.12516 0)
(0.590604 0.133643 0)
(0.578491 0.142654 0)
(0.565656 0.152234 0)
(0.552059 0.162423 0)
(0.537637 0.173268 0)
(0.522329 0.184813 0)
(0.506071 0.197097 0)
(0.488754 0.210174 0)
(0.470289 0.224074 0)
(0.450558 0.238829 0)
(0.429389 0.254476 0)
(0.406617 0.271006 0)
(0.382041 0.288398 0)
(0.355394 0.306601 0)
(0.326339 0.325497 0)
(0.294557 0.344858 0)
(0.259706 0.364354 0)
(0.221314 0.383531 0)
(0.178807 0.401606 0)
(0.132783 0.417485 0)
(0.0801422 0.429899 0)
(0.0314711 0.436196 0)
(2.60234 0.000188464 0)
(1.64854 0.00260695 0)
(0.5166 0.0109741 0)
(0.555651 0.0131143 0)
(0.658251 0.0151032 0)
(0.726206 0.0176336 0)
(0.740624 0.0206639 0)
(0.734833 0.0238436 0)
(0.726284 0.0273071 0)
(0.719973 0.0309825 0)
(0.716711 0.0348281 0)
(0.714278 0.0388363 0)
(0.711354 0.0430134 0)
(0.707721 0.0473665 0)
(0.703543 0.0519021 0)
(0.698949 0.0566286 0)
(0.693963 0.0615569 0)
(0.688568 0.0667012 0)
(0.682745 0.0720781 0)
(0.67648 0.0777067 0)
(0.669765 0.0836086 0)
(0.662589 0.0898072 0)
(0.65494 0.0963288 0)
(0.646802 0.103201 0)
(0.638159 0.110456 0)
(0.628989 0.118126 0)
(0.619274 0.126247 0)
(0.608985 0.134858 0)
(0.598095 0.144001 0)
(0.586572 0.153719 0)
(0.574375 0.164062 0)
(0.561463 0.175078 0)
(0.547782 0.186822 0)
(0.533267 0.199352 0)
(0.517856 0.21272 0)
(0.501448 0.226994 0)
(0.483937 0.242235 0)
(0.465209 0.258491 0)
(0.445087 0.275831 0)
(0.423371 0.294294 0)
(0.399838 0.313893 0)
(0.374184 0.334637 0)
(0.345991 0.35647 0)
(0.314813 0.379218 0)
(0.280159 0.402638 0)
(0.241314 0.426249 0)
(0.197368 0.449183 0)
(0.148516 0.470158 0)
(0.0910686 0.48726 0)
(0.0360971 0.496619 0)
(2.604 0.000194355 0)
(1.65269 0.00269808 0)
(0.519696 0.0113912 0)
(0.556066 0.0136298 0)
(0.658829 0.0157283 0)
(0.727292 0.0184438 0)
(0.742045 0.0217323 0)
(0.736495 0.0251882 0)
(0.728223 0.0289662 0)
(0.722123 0.0329726 0)
(0.719038 0.0371538 0)
(0.716781 0.0415009 0)
(0.714041 0.0460222 0)
(0.710601 0.0507254 0)
(0.706627 0.055618 0)
(0.702247 0.0607083 0)
(0.69749 0.0660086 0)
(0.692341 0.071534 0)
(0.686784 0.0773031 0)
(0.680808 0.0833367 0)
(0.674406 0.0896586 0)
(0.667571 0.0962942 0)
(0.660292 0.103273 0)
(0.652557 0.110624 0)
(0.644352 0.118383 0)
(0.635658 0.126587 0)
(0.62646 0.135274 0)
(0.616735 0.144488 0)
(0.606456 0.154277 0)
(0.595598 0.164689 0)
(0.584123 0.175781 0)
(0.571993 0.187611 0)
(0.559163 0.200243 0)
(0.545569 0.213749 0)
(0.53115 0.2282 0)
(0.51582 0.243678 0)
(0.499466 0.260273 0)
(0.481972 0.278068 0)
(0.463175 0.297164 0)
(0.442849 0.317662 0)
(0.420751 0.339623 0)
(0.396555 0.363163 0)
(0.369772 0.388324 0)
(0.339862 0.414968 0)
(0.306121 0.443128 0)
(0.267485 0.472415 0)
(0.222602 0.502056 0)
(0.170886 0.530592 0)
(0.107437 0.555501 0)
(0.0434238 0.570633 0)
(2.60576 0.000197025 0)
(1.65714 0.00275033 0)
(0.523018 0.011641 0)
(0.556544 0.01396 0)
(0.659516 0.0161617 0)
(0.72858 0.0190691 0)
(0.743729 0.0226324 0)
(0.738461 0.026384 0)
(0.730509 0.0304962 0)
(0.724639 0.0348474 0)
(0.721741 0.0393713 0)
(0.71967 0.0440591 0)
(0.717125 0.0489245 0)
(0.713892 0.0539764 0)
(0.710133 0.0592237 0)
(0.705981 0.0646758 0)
(0.701468 0.0703459 0)
(0.696583 0.0762507 0)
(0.691312 0.0824103 0)
(0.685647 0.0888473 0)
(0.679584 0.095587 0)
(0.673119 0.102657 0)
(0.666243 0.110088 0)
(0.658949 0.117913 0)
(0.651224 0.126169 0)
(0.643056 0.134895 0)
(0.63443 0.144136 0)
(0.625329 0.153938 0)
(0.615732 0.164354 0)
(0.605617 0.175439 0)
(0.594953 0.187259 0)
(0.583709 0.199879 0)
(0.571846 0.213374 0)
(0.559311 0.227832 0)
(0.546047 0.243341 0)
(0.531981 0.260004 0)
(0.517013 0.277941 0)
(0.501029 0.297276 0)
(0.483884 0.318141 0)
(0.465349 0.340756 0)
(0.445195 0.365174 0)
(0.423098 0.391597 0)
(0.398433 0.420412 0)
(0.370724 0.451683 0)
(0.33912 0.485521 0)
(0.302073 0.521951 0)
(0.257632 0.560691 0)
(0.204044 0.600564 0)
(0.133902 0.638983 0)
(0.0565039 0.666973 0)
(2.60761 0.000191225 0)
(1.66181 0.00275918 0)
(0.526531 0.0116527 0)
(0.557107 0.014025 0)
(0.660348 0.0163381 0)
(0.730118 0.0194651 0)
(0.745732 0.023353 0)
(0.740789 0.0274587 0)
(0.733192 0.0319699 0)
(0.727558 0.0367189 0)
(0.724846 0.0416261 0)
(0.722963 0.0466868 0)
(0.720624 0.0519187 0)
(0.717608 0.057335 0)
(0.71408 0.0629451 0)
(0.710173 0.0687592 0)
(0.705923 0.0747923 0)
(0.701323 0.0810639 0)
(0.696361 0.0875968 0)
(0.691034 0.0944163 0)
(0.68534 0.10155 0)
(0.679276 0.109028 0)
(0.67284 0.116884 0)
(0.666024 0.125155 0)
(0.658823 0.133878 0)
(0.651227 0.143098 0)
(0.643226 0.152861 0)
(0.63481 0.163219 0)
(0.625962 0.174229 0)
(0.616669 0.185953 0)
(0.606907 0.198461 0)
(0.596653 0.21183 0)
(0.58588 0.226146 0)
(0.574547 0.241508 0)
(0.562609 0.258028 0)
(0.550011 0.275826 0)
(0.536676 0.295041 0)
(0.522498 0.315892 0)
(0.507412 0.338459 0)
(0.49113 0.362999 0)
(0.473395 0.389943 0)
(0.454223 0.419508 0)
(0.432987 0.452182 0)
(0.40885 0.488475 0)
(0.381035 0.52882 0)
(0.348017 0.573958 0)
(0.307142 0.624733 0)
(0.255208 0.681555 0)
(0.1805 0.743798 0)
(0.0831659 0.803898 0)
(2.60952 0.000129211 0)
(1.66663 0.0027669 0)
(0.530114 0.0113222 0)
(0.557765 0.0136966 0)
(0.661384 0.0161126 0)
(0.732004 0.019443 0)
(0.748185 0.0236572 0)
(0.743633 0.0281206 0)
(0.736435 0.0330344 0)
(0.731035 0.0381738 0)
(0.728498 0.0434501 0)
(0.726796 0.0488708 0)
(0.724659 0.0544642 0)
(0.721861 0.0602466 0)
(0.718563 0.0662275 0)
(0.714902 0.0724149 0)
(0.710919 0.0788245 0)
(0.706612 0.0854768 0)
(0.701974 0.0923959 0)
(0.697003 0.0996081 0)
(0.6917 0.107142 0)
(0.686066 0.115031 0)
(0.680101 0.123307 0)
(0.673802 0.132011 0)
(0.667167 0.141184 0)
(0.660192 0.150871 0)
(0.652872 0.161124 0)
(0.645203 0.171996 0)
(0.637175 0.183552 0)
(0.628783 0.195857 0)
(0.620015 0.208988 0)
(0.610858 0.223033 0)
(0.601298 0.238086 0)
(0.591315 0.254256 0)
(0.580881 0.271684 0)
(0.569947 0.290543 0)
(0.558532 0.310858 0)
(0.546463 0.332908 0)
(0.533642 0.357076 0)
(0.520247 0.38356 0)
(0.505987 0.412891 0)
(0.490574 0.445497 0)
(0.473772 0.481863 0)
(0.45506 0.522985 0)
(0.433793 0.570033 0)
(0.408834 0.624823 0)
(0.37778 0.690279 0)
(0.336801 0.77155 0)
(0.27108 0.879031 0)
(0.146356 1.04431 0)
(2.61193 7.15303e-05 0)
(1.67246 0.00262636 0)
(0.53381 0.0104706 0)
(0.55825 0.01295 0)
(0.662521 0.0156124 0)
(0.734372 0.0194081 0)
(0.751397 0.0242483 0)
(0.747411 0.0293514 0)
(0.740761 0.0349129 0)
(0.735662 0.0406243 0)
(0.733364 0.0463953 0)
(0.731939 0.0522609 0)
(0.730119 0.0582708 0)
(0.727665 0.0644521 0)
(0.724727 0.0708185 0)
(0.721446 0.0773838 0)
(0.717874 0.0841687 0)
(0.714015 0.0911989 0)
(0.709867 0.0985029 0)
(0.70543 0.106111 0)
(0.700712 0.114055 0)
(0.695718 0.122369 0)
(0.690454 0.131091 0)
(0.684924 0.140261 0)
(0.679132 0.149923 0)
(0.673082 0.160123 0)
(0.666777 0.170917 0)
(0.660228 0.18236 0)
(0.653433 0.194518 0)
(0.646399 0.207465 0)
(0.639136 0.22128 0)
(0.631649 0.236054 0)
(0.623941 0.251915 0)
(0.616038 0.268945 0)
(0.608002 0.287238 0)
(0.599605 0.307044 0)
(0.590902 0.328586 0)
(0.582368 0.352048 0)
(0.573851 0.37786 0)
(0.565131 0.406379 0)
(0.556336 0.437955 0)
(0.547546 0.473298 0)
(0.53896 0.513244 0)
(0.530804 0.559075 0)
(0.523605 0.612583 0)
(0.51855 0.676526 0)
(0.518362 0.755372 0)
(0.531298 0.856615 0)
(0.587339 0.991508 0)
(0.657451 1.18645 0)
(2.61445 5.65057e-05 0)
(1.67863 0.00195741 0)
(0.538306 0.00784984 0)
(0.559848 0.0100588 0)
(0.665128 0.0126879 0)
(0.738725 0.0169079 0)
(0.75683 0.0224842 0)
(0.753449 0.0283717 0)
(0.747263 0.0347515 0)
(0.742238 0.0411894 0)
(0.739962 0.0476155 0)
(0.738643 0.0541042 0)
(0.737009 0.0607185 0)
(0.734784 0.0674862 0)
(0.732106 0.0744158 0)
(0.72912 0.0815231 0)
(0.725887 0.0888309 0)
(0.722418 0.0963675 0)
(0.718712 0.104163 0)
(0.714774 0.11225 0)
(0.710613 0.120662 0)
(0.706239 0.129436 0)
(0.701661 0.138611 0)
(0.69689 0.14823 0)
(0.691935 0.158339 0)
(0.686809 0.168988 0)
(0.681526 0.180234 0)
(0.6761 0.192137 0)
(0.670552 0.204761 0)
(0.664899 0.218191 0)
(0.659163 0.23253 0)
(0.653409 0.247791 0)
(0.647612 0.264096 0)
(0.641701 0.281663 0)
(0.635921 0.300618 0)
(0.630474 0.3211 0)
(0.625249 0.343448 0)
(0.620322 0.367859 0)
(0.615917 0.394524 0)
(0.612189 0.423898 0)
(0.609414 0.456501 0)
(0.608067 0.492982 0)
(0.608817 0.534261 0)
(0.612758 0.581487 0)
(0.621712 0.636321 0)
(0.639003 0.700926 0)
(0.670624 0.778219 0)
(0.725618 0.871667 0)
(0.836894 0.981354 0)
(0.98496 1.09613 0)
(2.61593 6.78746e-05 0)
(1.68223 0.00131415 0)
(0.541173 0.00551855 0)
(0.56158 0.00801612 0)
(0.668456 0.0112532 0)
(0.744459 0.016659 0)
(0.764007 0.0235036 0)
(0.761354 0.030489 0)
(0.755636 0.0376034 0)
(0.750605 0.0444644 0)
(0.748338 0.0511929 0)
(0.747153 0.0579647 0)
(0.745725 0.0648595 0)
(0.743725 0.0718984 0)
(0.741285 0.0790858 0)
(0.738564 0.0864445 0)
(0.735635 0.0940077 0)
(0.732516 0.10181 0)
(0.729207 0.109885 0)
(0.725717 0.118266 0)
(0.72206 0.126987 0)
(0.71825 0.136083 0)
(0.714304 0.145593 0)
(0.710236 0.155557 0)
(0.706067 0.166019 0)
(0.701815 0.177028 0)
(0.697505 0.188636 0)
(0.69316 0.20091 0)
(0.688819 0.213902 0)
(0.684556 0.227646 0)
(0.68027 0.242257 0)
(0.675999 0.257878 0)
(0.672088 0.274569 0)
(0.668566 0.292497 0)
(0.665346 0.311856 0)
(0.662591 0.332726 0)
(0.660472 0.355283 0)
(0.659167 0.379785 0)
(0.658957 0.406529 0)
(0.660206 0.435856 0)
(0.663379 0.468222 0)
(0.669224 0.504143 0)
(0.678813 0.544281 0)
(0.693616 0.5894 0)
(0.716015 0.640358 0)
(0.749483 0.697998 0)
(0.799609 0.762599 0)
(0.871991 0.833224 0)
(0.985013 0.90495 0)
(1.1209 0.957918 0)
(2.61713 4.99621e-05 0)
(1.68529 -0.00153872 0)
(0.546527 -0.00479218 0)
(0.567554 -0.00293887 0)
(0.676219 0.00114845 0)
(0.754585 0.00923849 0)
(0.775011 0.0188176 0)
(0.772134 0.0281547 0)
(0.765817 0.036803 0)
(0.760188 0.044667 0)
(0.757735 0.0522187 0)
(0.756629 0.0597532 0)
(0.755365 0.0673477 0)
(0.753548 0.0750258 0)
(0.751316 0.0827768 0)
(0.748862 0.0906369 0)
(0.746265 0.0986521 0)
(0.743536 0.106864 0)
(0.740671 0.115311 0)
(0.737679 0.124029 0)
(0.734572 0.133057 0)
(0.731368 0.142436 0)
(0.728084 0.152205 0)
(0.724741 0.162405 0)
(0.721365 0.173085 0)
(0.717981 0.184304 0)
(0.714638 0.196082 0)
(0.711353 0.208465 0)
(0.708088 0.221557 0)
(0.704979 0.235435 0)
(0.702226 0.250149 0)
(0.699795 0.26587 0)
(0.69771 0.282684 0)
(0.696136 0.300607 0)
(0.695174 0.319794 0)
(0.694989 0.340407 0)
(0.695796 0.36261 0)
(0.697857 0.386602 0)
(0.701534 0.41261 0)
(0.707247 0.440888 0)
(0.715602 0.471718 0)
(0.727415 0.505429 0)
(0.743822 0.542301 0)
(0.766318 0.582612 0)
(0.796956 0.626449 0)
(0.838438 0.67353 0)
(0.89441 0.722803 0)
(0.967573 0.771682 0)
(1.0689 0.815962 0)
(1.18211 0.841619 0)
(2.61279 0.00230515 0)
(1.67527 -0.00678894 0)
(0.551235 -0.0137571 0)
(0.583442 -0.00790031 0)
(0.696475 -0.000235196 0)
(0.778374 0.0100754 0)
(0.799067 0.0203191 0)
(0.794693 0.0300229 0)
(0.786412 0.0386002 0)
(0.779382 0.0465219 0)
(0.776265 0.0542604 0)
(0.774783 0.0619731 0)
(0.773204 0.0696955 0)
(0.771071 0.077458 0)
(0.768535 0.0853134 0)
(0.765847 0.0933139 0)
(0.763091 0.101504 0)
(0.760269 0.109919 0)
(0.757378 0.118595 0)
(0.754431 0.127562 0)
(0.751444 0.136855 0)
(0.748438 0.146505 0)
(0.745431 0.156548 0)
(0.742451 0.167012 0)
(0.739553 0.177912 0)
(0.736711 0.189308 0)
(0.733926 0.201278 0)
(0.731368 0.213842 0)
(0.729123 0.227067 0)
(0.727175 0.241061 0)
(0.725587 0.255851 0)
(0.724467 0.271469 0)
(0.723903 0.288028 0)
(0.724042 0.305618 0)
(0.725051 0.324343 0)
(0.727107 0.344339 0)
(0.730453 0.365723 0)
(0.735382 0.38865 0)
(0.742268 0.41325 0)
(0.751576 0.439674 0)
(0.763901 0.468052 0)
(0.78002 0.498489 0)
(0.800907 0.531004 0)
(0.827814 0.56548 0)
(0.862267 0.601573 0)
(0.906099 0.638525 0)
(0.96161 0.674994 0)
(1.0304 0.708649 0)
(1.1169 0.736557 0)
(1.20991 0.750335 0)
(2.60449 0.00800432 0)
(1.64495 -0.0735828 0)
(0.586566 -0.0726561 0)
(0.624419 -0.0456046 0)
(0.731807 -0.00563222 0)
(0.809572 0.0166898 0)
(0.827668 0.0268851 0)
(0.821753 0.0356446 0)
(0.812272 0.0430888 0)
(0.804905 0.0512684 0)
(0.801513 0.0598541 0)
(0.799638 0.0683375 0)
(0.797642 0.0765957 0)
(0.795187 0.0847046 0)
(0.792446 0.092806 0)
(0.7896 0.100979 0)
(0.786708 0.109271 0)
(0.783769 0.117724 0)
(0.780783 0.12638 0)
(0.777763 0.135287 0)
(0.77473 0.144493 0)
(0.771709 0.154022 0)
(0.768719 0.163891 0)
(0.765756 0.174155 0)
(0.762902 0.184879 0)
(0.760291 0.19607 0)
(0.757904 0.207786 0)
(0.755749 0.220088 0)
(0.753943 0.232992 0)
(0.752556 0.246558 0)
(0.751665 0.260855 0)
(0.751383 0.275948 0)
(0.751837 0.291898 0)
(0.753178 0.308787 0)
(0.755587 0.326675 0)
(0.759261 0.345646 0)
(0.764449 0.365774 0)
(0.771457 0.387141 0)
(0.780633 0.409814 0)