/*--------------------------------*- C++ -*----------------------------------*\
| =========                 |                                                 |
| \\      /  F ield         | OpenFOAM: The Open Source CFD Toolbox           |
|  \\    /   O peration     | Version:  2412                                  |
|   \\  /    A nd           | Website:  www.openfoam.com                      |
|    \\/     M anipulation  |                                                 |
\*---------------------------------------------------------------------------*/
FoamFile
{
    version     2.0;
    format      ascii;
    arch        "LSB;label=32;scalar=64";
    class       volScalarField;
    location    "18.5";
    object      Ma;
}
// * * * * * * * * * * * * * * * * * * * * * * * * * * * * * * * * * * * * * //

dimensions      [0 0 0 0 0 0 0];

internalField   nonuniform List<scalar> 
7000
(
2.25617
0.994505
0.30075
0.338448
0.401079
0.442429
0.450644
0.446175
0.43982
0.43491
0.432064
0.429792
0.427193
0.424106
0.420635
0.41686
0.412793
0.408414
0.403703
0.398642
0.39322
0.387422
0.381235
0.374642
0.367628
0.360173
0.352263
0.343875
0.334993
0.325593
0.315658
0.305164
0.294093
0.282422
0.270134
0.257208
0.243634
0.229393
0.214484
0.1989
0.182649
0.165741
0.148202
0.130065
0.111377
0.0922008
0.0725968
0.0528519
0.0319277
0.0155258
2.25623
0.994566
0.300547
0.338282
0.400924
0.442281
0.450496
0.446031
0.439682
0.434779
0.431937
0.429669
0.427073
0.42399
0.420523
0.416754
0.412692
0.40832
0.403614
0.39856
0.393145
0.387355
0.381177
0.374594
0.36759
0.360147
0.35225
0.343876
0.335009
0.325626
0.315709
0.305235
0.294186
0.282539
0.270278
0.257381
0.243839
0.229634
0.214765
0.199225
0.183025
0.166178
0.148713
0.130671
0.112111
0.0931251
0.0738247
0.0546604
0.0351617
0.022059
2.25636
0.994763
0.30068
0.338317
0.400954
0.442314
0.45053
0.44607
0.439739
0.434847
0.432019
0.429755
0.427171
0.424094
0.420641
0.416879
0.412833
0.40847
0.403782
0.39874
0.393345
0.387571
0.381416
0.374852
0.367877
0.360458
0.352594
0.34425
0.335423
0.326079
0.31621
0.305784
0.294793
0.283206
0.271015
0.258196
0.24474
0.230634
0.215877
0.200467
0.184419
0.167754
0.150512
0.132755
0.114574
0.0961242
0.0776393
0.0598444
0.0430453
0.0335748
2.25653
0.995069
0.300951
0.338395
0.401035
0.442413
0.450633
0.446188
0.43987
0.435006
0.432188
0.429944
0.427366
0.424312
0.420869
0.417133
0.4131
0.408766
0.404094
0.399086
0.393711
0.387976
0.381846
0.375328
0.368384
0.36102
0.353195
0.344917
0.33614
0.326873
0.317067
0.306734
0.295824
0.284349
0.272261
0.259577
0.246255
0.232316
0.217736
0.20254
0.186734
0.17036
0.153474
0.136158
0.118563
0.100904
0.0835561
0.0674624
0.0533075
0.0461837
2.25678
0.995499
0.3013
0.338464
0.40112
0.442534
0.450762
0.446338
0.440032
0.435209
0.432403
0.430191
0.427622
0.424602
0.421174
0.417477
0.413463
0.409171
0.404524
0.399562
0.394221
0.388537
0.382452
0.375992
0.369105
0.361808
0.354056
0.345855
0.33717
0.327993
0.318302
0.308077
0.297309
0.285965
0.274054
0.261534
0.248432
0.234703
0.220398
0.205482
0.190032
0.174051
0.157651
0.140931
0.124081
0.107417
0.0913777
0.0770345
0.0651134
0.0594984
2.25711
0.996072
0.301743
0.338536
0.401216
0.44268
0.450931
0.446509
0.440262
0.435445
0.432698
0.430484
0.427973
0.424953
0.421589
0.417896
0.413953
0.409671
0.405102
0.400157
0.394903
0.389247
0.383259
0.37684
0.370064
0.362824
0.355197
0.347075
0.338532
0.329462
0.319933
0.309849
0.299268
0.288109
0.276416
0.264135
0.251292
0.237873
0.223889
0.209377
0.194348
0.178907
0.1631
0.147127
0.131174
0.11562
0.10099
0.0883032
0.0781934
0.0736246
2.25753
0.996798
0.302287
0.338611
0.401324
0.442858
0.451136
0.44674
0.440523
0.435756
0.433038
0.430869
0.428382
0.425412
0.422077
0.418444
0.414534
0.410321
0.405791
0.400929
0.395721
0.390163
0.384232
0.377931
0.371224
0.364126
0.356586
0.348633
0.340201
0.331332
0.321946
0.3121
0.301704
0.290824
0.279373
0.267419
0.254896
0.241866
0.2283
0.214263
0.199788
0.184953
0.1699
0.154763
0.139843
0.125488
0.112241
0.101084
0.0924508
0.0886307
2.25804
0.997689
0.302938
0.338692
0.401444
0.443068
0.451383
0.447022
0.440842
0.436133
0.433451
0.431333
0.428882
0.425967
0.422677
0.419106
0.415251
0.411107
0.406644
0.401861
0.396737
0.39127
0.385442
0.379247
0.372669
0.365694
0.358315
0.350508
0.342275
0.333579
0.32444
0.314804
0.304712
0.294094
0.283013
0.271392
0.259313
0.246713
0.233685
0.220209
0.206392
0.192297
0.178061
0.163908
0.150063
0.136967
0.125082
0.11527
0.10785
0.104629
2.25865
0.998759
0.303708
0.33878
0.40158
0.443314
0.451679
0.44735
0.441233
0.436573
0.433952
0.431878
0.429488
0.426623
0.423402
0.41989
0.416113
0.412041
0.407668
0.402971
0.397952
0.392591
0.386887
0.380823
0.374392
0.367579
0.360375
0.352767
0.344743
0.336295
0.327405
0.318076
0.308282
0.298044
0.287324
0.276175
0.264544
0.252523
0.240062
0.227293
0.214205
0.200972
0.187684
0.174558
0.161907
0.150038
0.13946
0.130897
0.1245
0.121723
2.25938
1.00002
0.304605
0.338878
0.401734
0.443603
0.452028
0.447751
0.441685
0.437104
0.434533
0.432531
0.430193
0.427407
0.424247
0.420824
0.41712
0.413149
0.408865
0.404286
0.399375
0.394152
0.388582
0.382681
0.376415
0.369796
0.362795
0.355421
0.347646
0.339479
0.330897
0.321907
0.312495
0.302665
0.29242
0.281762
0.270721
0.259297
0.247565
0.235532
0.223338
0.211016
0.1988
0.186806
0.175349
0.164794
0.155448
0.148
0.142498
0.140153
2.26022
1.00148
0.305638
0.338987
0.40191
0.443935
0.452439
0.448207
0.442234
0.437711
0.435228
0.43328
0.431032
0.428308
0.425248
0.4219
0.418309
0.414428
0.410272
0.405803
0.401043
0.395956
0.390563
0.38483
0.378773
0.372362
0.365611
0.358493
0.351018
0.343167
0.334947
0.326346
0.317371
0.308022
0.298306
0.288242
0.277841
0.26715
0.256194
0.245058
0.233799
0.222562
0.211454
0.200717
0.19053
0.181234
0.173174
0.166817
0.162144
0.160108
2.26118
1.00315
0.306815
0.339111
0.402111
0.444322
0.452914
0.44876
0.442856
0.43844
0.436018
0.43417
0.431986
0.429372
0.426388
0.423163
0.419663
0.415922
0.411877
0.40757
0.402945
0.398049
0.392824
0.387315
0.381466
0.375322
0.368828
0.362028
0.354872
0.347403
0.339576
0.331435
0.322946
0.314151
0.305037
0.295641
0.285982
0.276096
0.26605
0.255878
0.245716
0.235616
0.225787
0.216342
0.207552
0.199621
0.192774
0.1875
0.183641
0.182034
2.26226
1.00505
0.308145
0.339255
0.402341
0.444762
0.453467
0.449386
0.443599
0.439268
0.436949
0.43518
0.433104
0.430579
0.427717
0.424594
0.421233
0.417612
0.41373
0.409568
0.405136
0.400415
0.395418
0.390124
0.384549
0.378668
0.372502
0.366026
0.359264
0.352191
0.34484
0.337187
0.329274
0.321079
0.31266
0.304003
0.295185
0.286205
0.277164
0.268098
0.259117
0.250334
0.241848
0.233881
0.226528
0.220078
0.214657
0.210557
0.20758
0.206277
2.26347
1.00717
0.309627
0.339407
0.402616
0.445256
0.454101
0.450115
0.444447
0.440232
0.43801
0.436347
0.434373
0.431968
0.429221
0.426235
0.423005
0.419544
0.415817
0.411845
0.407598
0.403105
0.398332
0.393311
0.388008
0.382455
0.376621
0.37054
0.364183
0.357589
0.350735
0.343659
0.336356
0.328861
0.32119
0.313381
0.305476
0.297524
0.289589
0.281753
0.274099
0.266748
0.259822
0.253439
0.247796
0.242945
0.239036
0.236302
0.234379
0.233725
2.2648
1.0095
0.311266
0.339567
0.402942
0.445815
0.45483
0.450958
0.445425
0.441341
0.439224
0.43768
0.435818
0.433545
0.430927
0.428089
0.42501
0.421719
0.418173
0.414399
0.410373
0.406114
0.401609
0.396868
0.391891
0.386674
0.381236
0.37556
0.369687
0.363584
0.357317
0.350843
0.34425
0.337494
0.330681
0.323785
0.316913
0.310081
0.30339
0.296909
0.29074
0.284991
0.279784
0.275254
0.271495
0.268684
0.26671
0.265737
0.265206
0.265171
2.26626
1.01208
0.313069
0.339766
0.403305
0.446462
0.455674
0.45193
0.446575
0.442613
0.440631
0.439195
0.437478
0.435326
0.432871
0.430172
0.427279
0.424153
0.420824
0.417249
0.413478
0.409463
0.405262
0.40082
0.396203
0.391355
0.386347
0.381126
0.375764
0.370224
0.364567
0.358787
0.352929
0.347027
0.341107
0.335253
0.329477
0.323907
0.31857
0.313609
0.309099
0.305176
0.301948
0.299543
0.2981
0.2976
0.298095
0.299524
0.301169
0.302693
2.26784
1.01487
0.31503
0.339995
0.403725
0.447215
0.456657
0.453064
0.447912
0.444083
0.442243
0.440927
0.43936
0.437347
0.435059
0.432521
0.429817
0.426884
0.423774
0.420435
0.416921
0.413194
0.409298
0.405207
0.400955
0.396534
0.391965
0.387262
0.382433
0.377518
0.372516
0.367489
0.36244
0.357443
0.352526
0.347763
0.343231
0.338987
0.335178
0.331857
0.329204
0.327337
0.326415
0.326538
0.327937
0.330678
0.334542
0.339647
0.344748
0.348745
2.26952
1.01786
0.317132
0.340261
0.404215
0.448102
0.457808
0.454411
0.449457
0.445806
0.444086
0.442925
0.441488
0.439652
0.437511
0.435173
0.432641
0.429939
0.427038
0.423973
0.420715
0.417312
0.413731
0.410024
0.406161
0.402195
0.398105
0.393944
0.389706
0.385438
0.381162
0.376915
0.372756
0.368712
0.364884
0.361301
0.358096
0.355339
0.353152
0.351716
0.35109
0.351536
0.353227
0.356436
0.361353
0.368092
0.376924
0.387656
0.399392
0.409996
2.27128
1.02101
0.319354
0.340577
0.404796
0.449148
0.459166
0.455989
0.451268
0.447791
0.446203
0.445191
0.443905
0.442241
0.440278
0.438132
0.435809
0.43333
0.430682
0.427879
0.424928
0.421838
0.418628
0.415296
0.41188
0.408368
0.404817
0.401206
0.397615
0.39402
0.39052
0.387103
0.383876
0.38086
0.378159
0.375854
0.374032
0.372877
0.372454
0.372954
0.374617
0.377734
0.382656
0.389523
0.39895
0.411277
0.426974
0.447134
0.471019
0.498626
2.27311
1.02425
0.321631
0.340959
0.405507
0.45041
0.460811
0.457876
0.453443
0.45011
0.448669
0.447774
0.44666
0.445142
0.443377
0.441403
0.43931
0.437044
0.434668
0.432132
0.429505
0.426744
0.423919
0.420993
0.418034
0.415019
0.41201
0.409006
0.406062
0.403209
0.400487
0.397971
0.395692
0.393772
0.392244
0.391281
0.390921
0.391349
0.392733
0.395418
0.399623
0.405719
0.413924
0.425084
0.43965
0.459189
0.485114
0.520627
0.571962
0.664943
2.27517
1.02797
0.324144
0.341216
0.406296
0.451997
0.462952
0.46039
0.456305
0.453201
0.451919
0.451246
0.450348
0.449107
0.447589
0.445928
0.444123
0.442224
0.440195
0.438093
0.435887
0.43364
0.431323
0.429008
0.426664
0.424374
0.42211
0.419967
0.417928
0.416098
0.414479
0.413185
0.412257
0.411814
0.411956
0.412727
0.414288
0.417053
0.421243
0.426934
0.434626
0.444596
0.457867
0.474853
0.49764
0.527647
0.569633
0.631191
0.729877
0.881549
2.27738
1.03194
0.32715
0.34217
0.408027
0.454866
0.466541
0.464358
0.460592
0.457545
0.456306
0.455723
0.454985
0.45392
0.452621
0.451186
0.449663
0.44806
0.446392
0.444664
0.442905
0.44112
0.439347
0.43759
0.4359
0.434279
0.432797
0.431457
0.430349
0.429482
0.428974
0.428843
0.429207
0.430089
0.431725
0.434313
0.438026
0.442944
0.449509
0.457833
0.468631
0.482347
0.499851
0.522666
0.551836
0.5914
0.64396
0.71809
0.829049
0.967241
2.27866
1.03425
0.329021
0.34323
0.410191
0.458612
0.471267
0.469582
0.466143
0.463118
0.461914
0.461449
0.460876
0.45999
0.458879
0.457651
0.456361
0.455024
0.453655
0.452265
0.45088
0.449516
0.448207
0.446971
0.445848
0.444867
0.444076
0.443514
0.443244
0.443333
0.443791
0.444695
0.44628
0.448686
0.451907
0.456196
0.46163
0.468622
0.477237
0.488205
0.501539
0.518538
0.539258
0.565815
0.599098
0.641766
0.697433
0.767828
0.864252
0.967607
2.27982
1.03636
0.332333
0.34693
0.415057
0.465029
0.47828
0.476467
0.472679
0.469305
0.468026
0.467665
0.467255
0.466544
0.465639
0.464641
0.463636
0.462609
0.461597
0.460585
0.459622
0.458702
0.457878
0.457155
0.45659
0.4562
0.456054
0.456167
0.456584
0.457394
0.458768
0.460749
0.463399
0.466888
0.471281
0.476884
0.483723
0.492311
0.502664
0.515448
0.530933
0.549763
0.572888
0.600753
0.635376
0.677165
0.728989
0.791043
0.868961
0.950057
2.27626
1.02997
0.33449
0.356849
0.427492
0.479868
0.493379
0.490585
0.485586
0.481337
0.479678
0.479122
0.478548
0.477678
0.476617
0.475523
0.474458
0.473433
0.472456
0.471543
0.470717
0.470006
0.469427
0.469027
0.468831
0.468868
0.469139
0.469807
0.470886
0.472489
0.474583
0.477371
0.480819
0.485215
0.490527
0.49712
0.505024
0.514601
0.526133
0.539839
0.556404
0.575966
0.59953
0.627428
0.660645
0.700128
0.746404
0.800796
0.864309
0.928911
2.28218
1.0228
0.358948
0.382404
0.448521
0.498426
0.510349
0.506602
0.500863
0.496479
0.494776
0.494085
0.493386
0.492436
0.491369
0.490291
0.489259
0.488261
0.487322
0.48644
0.485662
0.484987
0.484473
0.484088
0.483957
0.484111
0.484656
0.48552
0.48691
0.488755
0.491307
0.49445
0.498535
0.503398
0.509511
0.516636
0.525405
0.535511
0.547755
0.561882
0.578693
0.598238
0.621111
0.647856
0.678709
0.714667
0.75564
0.802527
0.855735
0.90931
1.87639
0.772129
0.273442
0.34414
0.417712
0.441225
0.441158
0.437182
0.433538
0.433443
0.435618
0.438507
0.44151
0.444555
0.447697
0.450947
0.454268
0.457612
0.460953
0.46427
0.467546
0.470727
0.473871
0.477011
0.480204
0.483385
0.486676
0.489997
0.493618
0.497429
0.501729
0.506422
0.511852
0.517955
0.525071
0.533213
0.542656
0.553605
0.566135
0.580785
0.597355
0.616753
0.63852
0.663855
0.692136
0.724615
0.760611
0.801092
0.845912
0.890671
1.86895
0.771504
0.282331
0.355379
0.428304
0.447786
0.443339
0.435993
0.430331
0.428431
0.42834
0.428744
0.429345
0.43025
0.431599
0.433382
0.435642
0.43825
0.441329
0.444757
0.448644
0.452715
0.457193
0.461841
0.466873
0.472032
0.477569
0.483303
0.489391
0.495722
0.502449
0.509527
0.517082
0.525224
0.534016
0.543771
0.554367
0.566395
0.579583
0.594659
0.611306
0.63029
0.651333
0.675096
0.701437
0.730753
0.763071
0.798207
0.836617
0.874307
1.86799
0.770194
0.284464
0.365098
0.443598
0.463697
0.457536
0.448176
0.441164
0.438426
0.437524
0.436925
0.436336
0.435934
0.435846
0.436116
0.436746
0.43775
0.439283
0.441267
0.443756
0.446676
0.450192
0.454204
0.458831
0.463984
0.469706
0.475968
0.482755
0.490134
0.498005
0.506601
0.515685
0.525645
0.53606
0.54751
0.559565
0.572842
0.587008
0.602688
0.619614
0.638351
0.658768
0.681274
0.705812
0.732627
0.761675
0.792885
0.826509
0.859048
1.86947
0.77347
0.290253
0.367313
0.44367
0.464294
0.459096
0.45059
0.444008
0.441638
0.44116
0.440981
0.440764
0.440653
0.440738
0.441043
0.441631
0.442539
0.443727
0.44521
0.447013
0.449249
0.45189
0.455102
0.458789
0.463171
0.468085
0.473807
0.480082
0.487283
0.495029
0.503793
0.513098
0.523475
0.534485
0.546624
0.559533
0.573636
0.588633
0.604891
0.622254
0.640997
0.661084
0.682738
0.705924
0.730777
0.757231
0.785332
0.815129
0.843787
1.87257
0.780137
0.297925
0.361264
0.429038
0.450295
0.448033
0.44198
0.436368
0.434489
0.434524
0.435054
0.435642
0.436357
0.43725
0.438422
0.439883
0.441568
0.443439
0.445547
0.447892
0.450556
0.453515
0.456886
0.460624
0.464902
0.469619
0.475031
0.480959
0.487734
0.495113
0.503441
0.51248
0.52253
0.5334
0.545316
0.558143
0.572064
0.587004
0.603109
0.620337
0.638824
0.658471
0.679418
0.701542
0.72502
0.749634
0.775364
0.802386
0.828231
1.88115
0.786719
0.300178
0.349045
0.412159
0.44123
0.44422
0.43954
0.43439
0.432103
0.431857
0.432379
0.433097
0.434017
0.435114
0.436447
0.438044
0.4399
0.442014
0.444411
0.447087
0.450095
0.453406
0.457107
0.461145
0.465664
0.470572
0.476074
0.482036
0.488713
0.495959
0.504019
0.512788
0.522448
0.532938
0.544407
0.556787
0.570209
0.584607
0.600101
0.61662
0.634272
0.652975
0.672829
0.693734
0.715723
0.738651
0.76248
0.787304
0.810959
2.26323
1.10628
0.407402
0.399243
0.459408
0.508116
0.519418
0.51453
0.507608
0.501555
0.498035
0.495561
0.493446
0.491426
0.489395
0.487421
0.485694
0.484202
0.483052
0.482203
0.481772
0.481721
0.482174
0.483106
0.484586
0.48665
0.489334
0.492695
0.496735
0.501546
0.507104
0.51352
0.520765
0.52896
0.538056
0.548186
0.559277
0.571448
0.584626
0.598913
0.614208
0.630606
0.647987
0.6664
0.68576
0.706054
0.727184
0.749069
0.771787
0.793401
2.27265
1.12819
0.391874
0.377174
0.450034
0.510768
0.529181
0.528304
0.524082
0.520277
0.518834
0.518457
0.51844
0.518399
0.517982
0.517352
0.516677
0.516046
0.515476
0.514999
0.514629
0.514432
0.514428
0.514698
0.515278
0.516247
0.517642
0.519572
0.522035
0.525185
0.528973
0.533586
0.538946
0.54523
0.552373
0.560504
0.569602
0.579757
0.590958
0.603232
0.616608
0.631033
0.646534
0.663016
0.680449
0.698765
0.717871
0.737672
0.758235
0.777805
2.29756
1.17691
0.434451
0.384038
0.447125
0.50343
0.52192
0.522953
0.521129
0.519945
0.520365
0.521597
0.523392
0.525194
0.526602
0.527802
0.528925
0.530072
0.53122
0.5324
0.533585
0.534828
0.536119
0.537521
0.539033
0.540728
0.542624
0.544794
0.547284
0.550161
0.553492
0.557329
0.561769
0.566843
0.572669
0.579261
0.586732
0.595074
0.60438
0.614631
0.625866
0.63806
0.651238
0.665387
0.680477
0.696481
0.713299
0.730778
0.749005
0.766392
1.90079
0.805085
0.305911
0.316882
0.373993
0.41488
0.429167
0.432999
0.435827
0.439482
0.444417
0.450169
0.45661
0.46311
0.46929
0.475292
0.48126
0.487227
0.493174
0.499062
0.504887
0.510629
0.516304
0.521894
0.527431
0.532895
0.53835
0.543771
0.549248
0.554773
0.560415
0.566223
0.572257
0.578588
0.585266
0.592391
0.599988
0.608179
0.616953
0.626443
0.636607
0.647582
0.659281
0.671807
0.685048
0.699018
0.713656
0.728984
0.745004
0.760323
2.30607
1.19404
0.449794
0.386687
0.440695
0.492276
0.509285
0.50935
0.506204
0.503726
0.502467
0.502282
0.502736
0.503131
0.503454
0.503958
0.504782
0.506058
0.507753
0.509912
0.512486
0.515527
0.518991
0.522918
0.527234
0.531993
0.53708
0.542584
0.548346
0.554483
0.560869
0.56761
0.574591
0.58193
0.589523
0.597505
0.605796
0.614522
0.623628
0.633225
0.643284
0.653886
0.665017
0.676709
0.688971
0.701786
0.71516
0.729006
0.743411
0.757134
2.31132
1.20402
0.433088
0.369765
0.438403
0.500678
0.522143
0.523559
0.52134
0.519869
0.519996
0.521127
0.522856
0.52436
0.525384
0.526231
0.527064
0.528012
0.529086
0.530373
0.531882
0.533695
0.535802
0.538287
0.541135
0.54441
0.548106
0.552261
0.556874
0.561959
0.567516
0.573531
0.580013
0.586933
0.594327
0.602132
0.610404
0.619063
0.62819
0.637691
0.647668
0.658014
0.668851
0.680055
0.691746
0.703801
0.716314
0.729149
0.742433
0.755038
2.31404
1.20984
0.43726
0.371806
0.44153
0.5054
0.527789
0.529475
0.527311
0.525963
0.526436
0.527952
0.530223
0.532416
0.534135
0.535664
0.537191
0.538822
0.540553
0.542414
0.544401
0.546547
0.548868
0.551396
0.554164
0.557197
0.560538
0.5642
0.568235
0.572645
0.577485
0.582741
0.588473
0.594647
0.601317
0.608445
0.616072
0.624156
0.632726
0.641746
0.651226
0.661143
0.671486
0.682243
0.693378
0.7049
0.716742
0.728919
0.741424
0.753316
2.31701
1.21755
0.463636
0.387881
0.447132
0.506267
0.528837
0.532074
0.531197
0.530828
0.53172
0.533649
0.536188
0.538486
0.540513
0.542417
0.544375
0.546416
0.548594
0.550875
0.553306
0.555856
0.558581
0.561453
0.56453
0.567789
0.571291
0.575018
0.57903
0.583315
0.587933
0.592878
0.598199
0.603897
0.610002
0.61652
0.623467
0.630859
0.63869
0.646981
0.6557
0.664877
0.674462
0.684481
0.694871
0.705649
0.716743
0.728154
0.739899
0.751078
1.90565
0.813621
0.324793
0.323676
0.37647
0.414362
0.427252
0.430296
0.432588
0.435931
0.440704
0.446617
0.453347
0.460169
0.466882
0.473546
0.480284
0.487082
0.493951
0.500833
0.507734
0.514616
0.521496
0.528348
0.535195
0.542026
0.548867
0.555715
0.562595
0.569518
0.576501
0.583574
0.590749
0.598068
0.605536
0.613207
0.621075
0.629198
0.637562
0.646211
0.655137
0.664365
0.67388
0.683705
0.693817
0.704224
0.714902
0.72584
0.737088
0.747766
2.31211
1.20885
0.465144
0.403558
0.466251
0.527447
0.549385
0.550318
0.546175
0.542342
0.540134
0.53876
0.538164
0.537766
0.53703
0.536306
0.535738
0.535583
0.535769
0.536456
0.537568
0.53918
0.541261
0.543849
0.546908
0.550466
0.55448
0.558976
0.563898
0.569269
0.575031
0.581194
0.587703
0.594572
0.601758
0.609269
0.617075
0.625179
0.63356
0.642227
0.651164
0.66038
0.669862
0.67961
0.689608
0.699846
0.710308
0.720974
0.731903
0.742268
2.29414
1.16979
0.460233
0.422761
0.485854
0.546259
0.566155
0.566198
0.562477
0.55924
0.558482
0.558886
0.559971
0.561235
0.562106
0.562745
0.563335
0.563992
0.564726
0.565548
0.566468
0.56753
0.568781
0.570263
0.57201
0.574067
0.57645
0.579193
0.58231
0.585825
0.58974
0.594079
0.598843
0.604043
0.609673
0.615733
0.622212
0.629103
0.636391
0.644062
0.652097
0.660479
0.669184
0.678199
0.687516
0.697105
0.706962
0.717051
0.727423
0.737278
1.88785
0.805098
0.340862
0.355384
0.40635
0.443127
0.45286
0.452688
0.451752
0.452604
0.455918
0.460544
0.466086
0.472154
0.478246
0.484372
0.490592
0.496916
0.503296
0.509687
0.516052
0.522381
0.528661
0.534893
0.541071
0.547208
0.553309
0.559403
0.565505
0.571651
0.577863
0.584164
0.590585
0.597147
0.603877
0.610792
0.617916
0.625259
0.632838
0.640657
0.648733
0.657061
0.665655
0.674493
0.683576
0.692892
0.702426
0.712168
0.722157
0.731653
1.87402
0.796337
0.339588
0.356677
0.398322
0.426954
0.434867
0.434822
0.433815
0.433302
0.434033
0.435666
0.438222
0.441429
0.444921
0.448754
0.453011
0.457732
0.462895
0.468481
0.474448
0.480775
0.487416
0.494349
0.501528
0.508931
0.516513
0.524256
0.532125
0.540106
0.548172
0.556337
0.564569
0.572893
0.581283
0.589772
0.598341
0.607021
0.615808
0.624707
0.633717
0.642855
0.652121
0.66153
0.671076
0.680771
0.69061
0.700586
0.71074
0.720354
1.88891
0.806073
0.345108
0.373681
0.430949
0.466911
0.473646
0.469591
0.464505
0.461399
0.460445
0.460413
0.461002
0.461965
0.463002
0.464174
0.465604
0.467363
0.469488
0.471989
0.474891
0.478202
0.481952
0.486135
0.490768
0.495835
0.501347
0.507272
0.513612
0.520332
0.527432
0.534866
0.542634
0.55069
0.559027
0.567599
0.576405
0.5854
0.594579
0.603929
0.613447
0.623107
0.63291
0.642829
0.652871
0.663013
0.673263
0.683597
0.694084
0.703979
2.34082
1.12445
0.469179
0.447643
0.5132
0.574951
0.59558
0.594976
0.589677
0.584372
0.58136
0.579449
0.577882
0.576508
0.574953
0.573218
0.571442
0.569727
0.568113
0.566632
0.565305
0.56417
0.563251
0.562599
0.562239
0.562226
0.562573
0.563343
0.564526
0.566163
0.568282
0.57089
0.574014
0.577634
0.581777
0.586412
0.591556
0.597172
0.603272
0.609805
0.616774
0.624133
0.631865
0.639962
0.648379
0.657101
0.666089
0.675329
0.68483
0.69389
1.88938
0.80726
0.346232
0.363495
0.415833
0.456092
0.468564
0.46957
0.469022
0.469
0.471287
0.474806
0.479013
0.483749
0.488575
0.493389
0.498231
0.503162
0.508139
0.513153
0.518144
0.523123
0.528049
0.532949
0.537793
0.542617
0.547397
0.552174
0.556952
0.56176
0.566604
0.571519
0.576503
0.58161
0.586838
0.592239
0.597803
0.603585
0.609566
0.615803
0.622265
0.629003
0.63599
0.643236
0.650731
0.658485
0.666478
0.67471
0.683195
0.691302
1.88911
0.807406
0.347542
0.364561
0.416106
0.454595
0.465045
0.463981
0.461105
0.458544
0.458076
0.458915
0.460499
0.462704
0.465123
0.467712
0.470581
0.473809
0.477403
0.481347
0.485614
0.490187
0.495044
0.500168
0.505537
0.511124
0.516911
0.522873
0.528991
0.535265
0.54167
0.548206
0.554859
0.561622
0.568489
0.575456
0.582525
0.589696
0.596975
0.60436
0.611863
0.619477
0.627217
0.635079
0.643076
0.651202
0.659468
0.667862
0.676429
0.684565
2.34283
1.12813
0.472853
0.449706
0.516452
0.580701
0.603161
0.603269
0.59819
0.593121
0.590337
0.588781
0.587651
0.586798
0.585795
0.584629
0.583402
0.582275
0.581235
0.580375
0.579633
0.57912
0.578772
0.57871
0.578864
0.579343
0.580105
0.581191
0.582616
0.584388
0.586516
0.588999
0.591838
0.59503
0.598574
0.602471
0.606712
0.61129
0.616196
0.621424
0.626956
0.632787
0.638898
0.645285
0.651926
0.658819
0.66594
0.673285
0.680856
0.688099
1.88982
0.808797
0.353506
0.381445
0.439697
0.479651
0.489614
0.487934
0.484887
0.483499
0.484925
0.4876
0.490947
0.494782
0.498683
0.502635
0.506699
0.510929
0.515293
0.519778
0.524341
0.528976
0.533661
0.538393
0.543165
0.54797
0.552812
0.557691
0.562616
0.567592
0.572625
0.577733
0.582913
0.58819
0.593561
0.599049
0.604648
0.610379
0.616239
0.622242
0.628391
0.634698
0.641162
0.647788
0.654578
0.661533
0.668653
0.675927
0.683383
0.690483
1.87524
0.799755
0.351218
0.378129
0.427537
0.459449
0.4671
0.465971
0.464289
0.463573
0.464097
0.465295
0.467193
0.469476
0.471826
0.474307
0.477014
0.479997
0.483265
0.486815
0.490637
0.494724
0.499068
0.503662
0.508494
0.513554
0.518829
0.524306
0.529972
0.535813
0.54182
0.547972
0.554276
0.56071
0.567283
0.573971
0.580788
0.587716
0.594768
0.601925
0.609198
0.61657
0.624053
0.631634
0.639326
0.647112
0.655008
0.662998
0.671131
0.678834
1.87422
0.799382
0.351737
0.375373
0.422433
0.454099
0.462315
0.461854
0.460736
0.460114
0.460382
0.461205
0.462686
0.464519
0.466365
0.468265
0.47032
0.472575
0.475047
0.477735
0.480651
0.483798
0.487185
0.490813
0.494689
0.498811
0.503185
0.507804
0.512672
0.517782
0.523136
0.528724
0.534546
0.540588
0.546848
0.553311
0.559974
0.56682
0.57385
0.581049
0.588416
0.59594
0.603621
0.611441
0.619395
0.627474
0.635684
0.644018
0.652506
0.660567
1.88906
0.809132
0.354929
0.362683
0.413308
0.452103
0.463046
0.462633
0.460843
0.459595
0.459629
0.460437
0.461975
0.463875
0.465701
0.467506
0.469422
0.471512
0.473796
0.476269
0.478934
0.481791
0.484846
0.4881
0.49156
0.495224
0.4991
0.503186
0.507487
0.512003
0.516738
0.521689
0.526861
0.532249
0.537855
0.543676
0.54971
0.555954
0.562405
0.569058
0.575906
0.582943
0.590162
0.597559
0.605134
0.61288
0.620785
0.628842
0.637069
0.644895
2.31239
1.20481
0.485544
0.431529
0.492618
0.556856
0.582855
0.586353
0.58369
0.580958
0.579669
0.579353
0.579841
0.580669
0.581208
0.581497
0.581729
0.58201
0.582386
0.582852
0.583416
0.584078
0.584854
0.585747
0.586775
0.587942
0.589263
0.590743
0.592396
0.594225
0.596246
0.59846
0.600882
0.603513
0.606365
0.609439
0.612745
0.616282
0.620061
0.624075
0.628336
0.632834
0.637579
0.64256
0.647786
0.653241
0.658926
0.66482
0.670952
0.676848
2.32262
1.22894
0.466228
0.405408
0.481481
0.557555
0.588734
0.593419
0.590788
0.587926
0.586937
0.58739
0.588679
0.590493
0.592176
0.593574
0.594905
0.596318
0.597871
0.599551
0.601354
0.603265
0.605294
0.607433
0.609695
0.612072
0.614575
0.617196
0.619948
0.622822
0.625832
0.62897
0.632249
0.635661
0.639221
0.642921
0.646775
0.650774
0.654933
0.659244
0.66372
0.668353
0.673157
0.678124
0.683262
0.688561
0.694028
0.699649
0.705448
0.710986
2.31279
1.20631
0.486772
0.43259
0.49439
0.559855
0.586925
0.59108
0.58903
0.586918
0.586348
0.587005
0.588513
0.590502
0.592302
0.593896
0.59547
0.597153
0.598982
0.600958
0.603067
0.605312
0.60769
0.610208
0.612865
0.615666
0.61861
0.621701
0.624935
0.628319
0.631849
0.635529
0.639356
0.643335
0.647461
0.65174
0.656165
0.660745
0.66547
0.67035
0.675374
0.680552
0.685874
0.69135
0.696966
0.702733
0.708639
0.71469
0.720898
0.726837
1.88896
0.809187
0.356125
0.364327
0.416397
0.457012
0.469111
0.469129
0.467541
0.466525
0.467167
0.468792
0.471272
0.474227
0.477159
0.480125
0.483233
0.486561
0.490104
0.493866
0.497821
0.501977
0.506313
0.510841
0.515542
0.520425
0.525472
0.530691
0.536065
0.541602
0.547283
0.55312
0.559091
0.56521
0.571457
0.577843
0.584348
0.590987
0.597739
0.604617
0.611603
0.618711
0.625919
0.633244
0.640663
0.648194
0.655818
0.663554
0.671419
0.678908
1.8742
0.800017
0.355346
0.380497
0.42859
0.460134
0.467654
0.466488
0.464745
0.463861
0.464076
0.464927
0.466465
0.468345
0.470174
0.472024
0.473986
0.476124
0.478433
0.480926
0.483589
0.486439
0.489465
0.492684
0.496086
0.499687
0.503476
0.507466
0.511647
0.51603
0.520605
0.525383
0.530351
0.535519
0.540875
0.546427
0.552163
0.558089
0.564194
0.570483
0.576943
0.583579
0.590378
0.597344
0.604463
0.611739
0.61916
0.62673
0.634459
0.641823
1.87704
0.803113
0.359432
0.395177
0.451572
0.484577
0.490501
0.48697
0.482784
0.480834
0.480821
0.481616
0.483024
0.484688
0.486284
0.487905
0.489647
0.491559
0.493632
0.495869
0.498259
0.500812
0.503523
0.506401
0.509443
0.512657
0.516038
0.519594
0.523322
0.527227
0.531307
0.535566
0.540001
0.544616
0.549408
0.55438
0.559528
0.564855
0.570356
0.576035
0.581884
0.587908
0.594098
0.600457
0.606977
0.613659
0.620495
0.627483
0.634631
0.641444
1.19174
1.04955
0.498118
0.190663
0.010101
0.108613
0.159744
0.208158
0.229824
0.234257
0.222674
0.211256
0.200962
0.191419
0.179379
0.16492
0.147584
0.127655
0.105825
0.0826951
0.0588606
0.0351734
0.0158086
0.0233563
0.0471462
0.0714121
0.0956076
0.119307
0.142652
0.165562
0.188087
0.21017
0.231829
0.252979
0.273013
0.292122
0.311681
0.332064
0.352055
0.371233
0.389775
0.407784
0.425334
0.442402
0.459009
0.475125
0.490769
0.505915
0.520577
0.53473
0.548384
0.56151
0.574114
0.586162
0.597654
0.608551
0.618847
0.628499
0.637495
0.645789
0.653365
0.660174
0.666201
0.6714
0.675763
0.679252
0.681879
0.683634
0.684555
0.684804
0.68469
0.68424
0.683092
0.680779
0.677512
0.674011
0.670415
0.666785
0.663161
0.659654
0.656334
0.653307
0.650615
0.648322
0.646433
0.64498
0.643935
0.643299
0.643035
0.643081
0.643302
0.6437
0.644398
0.645555
0.647015
0.648588
0.650186
0.651887
0.653545
0.658316
1.12214
1.03643
0.806703
0.549736
0.502811
0.431613
0.381498
0.340662
0.310287
0.291729
0.260533
0.230373
0.210828
0.209115
0.216244
0.226814
0.239274
0.253223
0.268358
0.284248
0.300633
0.317137
0.333473
0.349683
0.366429
0.383444
0.400622
0.417749
0.434859
0.451815
0.46868
0.485332
0.501844
0.518099
0.533772
0.548706
0.563719
0.579456
0.595342
0.610586
0.625328
0.639719
0.653826
0.667622
0.681107
0.694248
0.707051
0.719492
0.731577
0.743279
0.754606
0.765523
0.776037
0.786108
0.795738
0.804885
0.813546
0.821673
0.829261
0.836258
0.842655
0.848402
0.853486
0.857861
0.861521
0.864427
0.866591
0.867992
0.868666
0.868762
0.868529
0.867963
0.866776
0.864586
0.861501
0.858138
0.854671
0.851194
0.847748
0.84443
0.841305
0.838467
0.835959
0.833836
0.832107
0.830791
0.829866
0.82933
0.829165
0.829258
0.829493
0.829893
0.830522
0.831555
0.83283
0.83423
0.8356
0.837051
0.838261
0.842069
1.07481
1.07583
1.0084
0.900183
0.831494
0.78137
0.745402
0.715296
0.690469
0.672395
0.657389
0.643114
0.633105
0.62802
0.626521
0.626814
0.628375
0.630836
0.634268
0.638581
0.643733
0.64954
0.655924
0.662781
0.670347
0.678522
0.687293
0.696457
0.706024
0.715832
0.725936
0.736189
0.74667
0.75722
0.767597
0.777543
0.787607
0.798392
0.809751
0.820854
0.83166
0.842287
0.852804
0.863212
0.873495
0.883619
0.893572
0.903327
0.912878
0.922196
0.931277
0.940088
0.948623
0.956846
0.964748
0.97229
0.97946
0.986215
0.992543
0.998395
1.00376
1.00859
1.01286
1.01654
1.01961
1.02204
1.02383
1.02494
1.02541
1.02536
1.02507
1.02447
1.0233
1.02127
1.01843
1.0153
1.01203
1.00877
1.00556
1.00249
0.999613
0.99702