/*--------------------------------*- C++ -*----------------------------------*\
| =========                 |                                                 |
| \\      /  F ield         | OpenFOAM: The Open Source CFD Toolbox           |
|  \\    /   O peration     | Version:  2412                                  |
|   \\  /    A nd           | Website:  www.openfoam.com                      |
|    \\/     M anipulation  |                                                 |
\*---------------------------------------------------------------------------*/
FoamFile
{
    version     2.0;
    format      ascii;
    arch        "LSB;label=32;scalar=64";
    class       volScalarField;
    location    "18.5";
    object      p;
}
// * * * * * * * * * * * * * * * * * * * * * * * * * * * * * * * * * * * * * //

dimensions      [1 -1 -2 0 0 0 0];

internalField   nonuniform List<scalar> 
7000
(
1.63874
3.75539
11.4523
11.5273
11.0969
10.6872
10.5684
10.583
10.624
10.6637
10.6855
10.6993
10.7138
10.7315
10.7519
10.7741
10.7979
10.8234
10.8506
10.8796
10.9104
10.9431
10.9776
11.014
11.0522
11.0923
11.1342
11.1778
11.2232
11.2703
11.3189
11.369
11.4205
11.4731
11.5266
11.5808
11.6354
11.69
11.7443
11.7976
11.8497
11.8997
11.9471
11.9913
12.0316
12.0672
12.0975
12.122
12.1396
12.1526
1.63904
3.7541
11.4519
11.5267
11.0964
10.6869
10.5681
10.5827
10.6236
10.6633
10.6851
10.6988
10.7133
10.731
10.7514
10.7735
10.7973
10.8228
10.8499
10.8789
10.9097
10.9424
10.9769
11.0132
11.0514
11.0914
11.1332
11.1769
11.2222
11.2693
11.3179
11.3679
11.4193
11.4719
11.5254
11.5796
11.6342
11.6888
11.7431
11.7965
11.8486
11.8987
11.9462
11.9905
12.0309
12.0666
12.0971
12.1217
12.1393
12.1524
1.63893
3.75316
11.45
11.5258
11.0957
10.6861
10.5674
10.5819
10.6228
10.6624
10.6841
10.6978
10.7123
10.7299
10.7502
10.7723
10.796
10.8214
10.8485
10.8774
10.9081
10.9407
10.9751
11.0113
11.0494
11.0893
11.131
11.1745
11.2198
11.2667
11.3151
11.3651
11.4163
11.4687
11.5221
11.5762
11.6306
11.6851
11.7393
11.7926
11.8446
11.8946
11.9421
11.9864
12.0267
12.0625
12.0929
12.1176
12.1351
12.1481
1.6388
3.75188
11.4467
11.5247
11.0948
10.685
10.5662
10.5807
10.6215
10.661
10.6825
10.6962
10.7105
10.7281
10.7483
10.7703
10.794
10.8192
10.8462
10.875
10.9056
10.938
10.9723
11.0083
11.0463
11.086
11.1275
11.1708
11.2158
11.2625
11.3108
11.3605
11.4115
11.4636
11.5168
11.5706
11.6248
11.6791
11.733
11.7861
11.8379
11.8878
11.9352
11.9794
12.0197
12.0555
12.0859
12.1105
12.128
12.1409
1.63863
3.75001
11.4419
11.5233
11.0935
10.6834
10.5645
10.579
10.6197
10.6589
10.6804
10.6939
10.7081
10.7256
10.7457
10.7676
10.791
10.8161
10.843
10.8716
10.902
10.9342
10.9682
11.0041
11.0418
11.0813
11.1225
11.1655
11.2102
11.2566
11.3045
11.3538
11.4045
11.4563
11.5091
11.5625
11.6164
11.6703
11.7239
11.7767
11.8283
11.878
11.9252
11.9693
12.0095
12.0452
12.0756
12.1002
12.1176
12.1306
1.63841
3.74748
11.4357
11.5215
11.0918
10.6813
10.5622
10.5766
10.6172
10.6563
10.6775
10.6908
10.705
10.7223
10.7422
10.7639
10.7872
10.812
10.8387
10.867
10.8972
10.9292
10.9629
10.9985
11.0358
11.075
11.1159
11.1585
11.2028
11.2487
11.2962
11.345
11.3952
11.4465
11.4987
11.5517
11.605
11.6585
11.7116
11.764
11.8152
11.8645
11.9115
11.9554
11.9955
12.0311
12.0615
12.0862
12.1035
12.1166
1.63815
3.74425
11.4277
11.5193
11.0898
10.6787
10.5593
10.5737
10.614
10.6529
10.6739
10.687
10.7009
10.718
10.7377
10.7592
10.7822
10.8069
10.8332
10.8613
10.8912
10.9228
10.9562
10.9913
11.0283
11.067
11.1074
11.1495
11.1933
11.2387
11.2855
11.3338
11.3833
11.434
11.4856
11.5378
11.5905
11.6433
11.6958
11.7476
11.7982
11.8471
11.8937
11.9372
11.9771
12.0126
12.0429
12.0676
12.085
12.0983
1.63783
3.74026
11.4181
11.5165
11.0873
10.6755
10.5557
10.57
10.6101
10.6487
10.6694
10.6823
10.696
10.7128
10.7323
10.7535
10.7762
10.8005
10.8265
10.8542
10.8837
10.9149
10.9479
10.9826
11.019
11.0571
11.097
11.1385
11.1816
11.2263
11.2724
11.3199
11.3686
11.4184
11.4692
11.5206
11.5724
11.6243
11.676
11.727
11.7769
11.8252
11.8711
11.9143
11.9538
11.9891
12.0193
12.044
12.0614
12.0749
1.63746
3.73546
11.4065
11.5133
11.0843
10.6716
10.5514
10.5655
10.6054
10.6436
10.664
10.6766
10.69
10.7066
10.7257
10.7465
10.7689
10.7928
10.8184
10.8457
10.8747
10.9054
10.9378
10.972
11.0078
11.0453
11.0844
11.1251
11.1675
11.2113
11.2565
11.3031
11.3508
11.3996
11.4493
11.4996
11.5503
11.6012
11.6518
11.7017
11.7507
11.798
11.8432
11.8857
11.9247
11.9596
11.9897
12.0143
12.0318
12.0456
1.63703
3.72979
11.3929
11.5094
11.0808
10.6671
10.5463
10.5602
10.5997
10.6375
10.6576
10.6699
10.6829
10.6991
10.7178
10.7383
10.7602
10.7837
10.8088
10.8356
10.8641
10.8942
10.926
10.9594
10.9945
11.0312
11.0695
11.1093
11.1507
11.1935
11.2376
11.283
11.3296
11.3771
11.4255
11.4745
11.5238
11.5733
11.6225
11.6712
11.7188
11.7649
11.8091
11.8506
11.8889
11.9233
11.9529
11.9776
11.995
12.0091
1.63654
3.72321
11.3772
11.5049
11.0767
10.6618
10.5403
10.554
10.5931
10.6304
10.6501
10.662
10.6746
10.6904
10.7087
10.7286
10.7501
10.7731
10.7976
10.8238
10.8516
10.881
10.9121
10.9447
10.9789
11.0147
11.052
11.0908
11.131
11.1726
11.2154
11.2595
11.3046
11.3506
11.3974
11.4448
11.4924
11.5402
11.5877
11.6346
11.6806
11.7251
11.7678
11.808
11.8451
11.8786
11.9077
11.932
11.9493
11.964
1.63599
3.71568
11.3592
11.4997
11.072
10.6558
10.5333
10.5468
10.5854
10.6222
10.6414
10.6528
10.665
10.6803
10.698
10.7175
10.7384
10.7607
10.7847
10.8101
10.8372
10.8658
10.896
10.9277
10.9609
10.9956
11.0318
11.0693
11.1082
11.1484
11.1897
11.2321
11.2755
11.3198
11.3647
11.41
11.4556
11.5013
11.5466
11.5913
11.6351
11.6775
11.7181
11.7564
11.7919
11.824
11.8521
11.8759
11.893
11.908
1.63538
3.70716
11.3389
11.4938
11.0666
10.6489
10.5254
10.5385
10.5765
10.6127
10.6313
10.6422
10.6539
10.6686
10.6858
10.7047
10.7249
10.7466
10.7698
10.7945
10.8207
10.8484
10.8776
10.9082
10.9403
10.9738
11.0086
11.0447
11.082
11.1206
11.1601
11.2007
11.2421
11.2842
11.3268
11.3698
11.4129
11.4559
11.4985
11.5404
11.5813
11.6209
11.6587
11.6943
11.7273
11.7573
11.7836
11.8062
11.8228
11.8385
1.6347
3.69759
11.3163
11.4871
11.0604
10.6412
10.5163
10.5291
10.5662
10.6018
10.6198
10.6301
10.6412
10.6553
10.6719
10.69
10.7096
10.7305
10.7528
10.7767
10.8019
10.8286
10.8567
10.8861
10.9169
10.9489
10.9822
11.0167
11.0523
11.0889
11.1264
11.1648
11.2038
11.2434
11.2834
11.3235
11.3635
11.4033
11.4425
11.4809
11.5181
11.5539
11.5878
11.6196
11.6489
11.6755
11.6991
11.7197
11.7349
11.7508
1.63398
3.68697
11.2913
11.4795
11.0534
10.6325
10.5061
10.5184
10.5546
10.5894
10.6067
10.6164
10.6269
10.6403
10.6561
10.6735
10.6922
10.7123
10.7337
10.7565
10.7807
10.8062
10.8331
10.8612
10.8905
10.9209
10.9525
10.9851
11.0187
11.0531
11.0883
11.1241
11.1605
11.1971
11.2339
11.2706
11.307
11.3429
11.3779
11.4118
11.4443
11.475
11.5036
11.5299
11.5537
11.5749
11.5935
11.6102
11.623
11.6392
1.63319
3.67538
11.2638
11.4711
11.0458
10.6229
10.4945
10.5062
10.5414
10.5753
10.5919
10.6009
10.6106
10.6233
10.6383
10.6549
10.6727
10.6918
10.7122
10.734
10.757
10.7812
10.8066
10.8332
10.8608
10.8895
10.9192
10.9497
10.981
11.013
11.0455
11.0785
11.1116
11.1449
11.178
11.2107
11.2427
11.2739
11.3037
11.332
11.3583
11.3823
11.4038
11.4223
11.438
11.4508
11.4613
11.4707
11.478
11.4928
1.63234
3.66284
11.234
11.462
11.0374
10.6121
10.4815
10.4926
10.5264
10.5594
10.5753
10.5835
10.5924
10.6042
10.6184
10.634
10.6509
10.669
10.6883
10.7088
10.7305
10.7533
10.7772
10.8021
10.8279
10.8546
10.8821
10.9103
10.9391
10.9683
10.9978
11.0275
11.0571
11.0864
11.1152
11.1432
11.1701
11.1956
11.2191
11.2404
11.2589
11.2742
11.2859
11.2935
11.2967
11.296
11.2926
11.2883
11.2843
11.295
1.63143
3.64948
11.2022
11.4522
11.0282
10.6001
10.4669
10.4771
10.5095
10.5414
10.5564
10.5639
10.5719
10.5829
10.5961
10.6108
10.6266
10.6436
10.6616
10.6808
10.7011
10.7224
10.7446
10.7676
10.7914
10.816
10.8411
10.8667
10.8926
10.9188
10.9449
10.9709
10.9965
11.0214
11.0453
11.0679
11.0888
11.1075
11.1234
11.1361
11.1449
11.1488
11.1472
11.1402
11.1253
11.1034
11.0755
11.0448
11.0146
11.0109
1.6305
3.63547
11.1688
11.4417
11.0183
10.5869
10.4505
10.4598
10.4905
10.5212
10.5354
10.5421
10.5493
10.5592
10.5715
10.5851
10.5998
10.6155
10.6323
10.6501
10.6688
10.6883
10.7087
10.7297
10.7514
10.7735
10.7961
10.8188
10.8417
10.8644
10.8869
10.9088
10.9298
10.9497
10.9681
10.9845
10.9985
11.0093
11.0164
11.0183
11.0155
11.006
10.9866
10.9575
10.9167
10.8624
10.7932
10.7112
10.6207
10.5653
1.62955
3.62109
11.1347
11.4306
11.0075
10.572
10.4318
10.44
10.4685
10.4981
10.5115
10.5174
10.5237
10.5327
10.5439
10.5564
10.57
10.5845
10.5999
10.6161
10.6332
10.6509
10.6693
10.6882
10.7075
10.727
10.7467
10.7664
10.7858
10.8049
10.8232
10.8406
10.8567
10.8711
10.8832
10.8927
10.8989
10.9004
10.8976
10.8887
10.8701
10.8419
10.8011
10.7448
10.668
10.5649
10.4269
10.2459
10.0122
9.75775
1.62878
3.60273
11.0941
11.4174
10.9938
10.5527
10.407
10.4136
10.4394
10.4676
10.4802
10.4852
10.4903
10.4981
10.508
10.5191
10.5312
10.544
10.5576
10.572
10.5869
10.6023
10.6182
10.6343
10.6506
10.6669
10.683
10.6988
10.7139
10.7282
10.7414
10.753
10.7628
10.7701
10.7742
10.7742
10.7713
10.7625
10.7444
10.7177
10.6799
10.6278
10.5571
10.4609
10.33
10.1476
9.8846
9.47939
8.78103
7.25879
1.62798
3.58327
11.051
11.4002
10.9747
10.5244
10.3708
10.3754
10.3979
10.4254
10.4378
10.4423
10.4465
10.4531
10.4617
10.4714
10.4819
10.493
10.5046
10.5167
10.5291
10.5419
10.5547
10.5676
10.5803
10.5927
10.6045
10.6155
10.6256
10.6342
10.6412
10.646
10.6478
10.6469
10.6427
10.6327
10.6157
10.5913
10.5576
10.5119
10.4514
10.3711
10.2646
10.1224
9.92927
9.6616
9.27774
8.70878
7.86644
6.48
1.62753
3.57202
11.0262
11.3886
10.9592
10.4961
10.3316
10.3338
10.3526
10.3798
10.3923
10.3961
10.3991
10.4044
10.4116
10.4199
10.4287
10.4379
10.4474
10.4572
10.4671
10.4771
10.4868
10.4963
10.5054
10.5137
10.5211
10.5273
10.5321
10.5349
10.5351
10.5336
10.5288
10.5186
10.5031
10.4818
10.4528
10.4147
10.365
10.301
10.2186
10.1127
9.97541
9.79671
9.56135
9.24814
8.82785
8.26026
7.52834
6.55524
1.62689
3.56283
11.0029
11.3673
10.9312
10.4507
10.2767
10.2789
10.2992
10.3298
10.3438
10.3473
10.3495
10.3538
10.36
10.367
10.3743
10.3817
10.3892
10.3966
10.404
10.4111
10.4177
10.4238
10.4292
10.4335
10.4365
10.4379
10.4375
10.4354
10.4301
10.4206
10.4072
10.3889
10.3647
10.3335
10.2936
10.2432
10.1797
10.1003
10.0009
9.87631
9.71983
9.52261
9.27352
8.95873
8.56363
8.07249
7.49205
6.76285
1.62758
3.59729
11.0644
11.3645
10.9038
10.3851
10.1997
10.205
10.2331
10.271
10.2874
10.291
10.2927
10.2963
10.3019
10.3081
10.3142
10.3201
10.3258
10.3312
10.3363
10.3409
10.3447
10.3478
10.3497
10.3502
10.3495
10.3472
10.3421
10.3339
10.3225
10.3072
10.2874
10.2621
10.2302
10.1906
10.1415
10.0812
10.0074
9.91706
9.80681
9.67224
9.50803
9.30786
9.06446
8.77006
8.41744
7.99942
7.51841
6.96725
1.58986
3.70786
11.0693
11.2733
10.823
10.3036
10.1306
10.1406
10.1772
10.2171
10.2335
10.2373
10.2393
10.243
10.2478
10.2527
10.2572
10.2613
10.2649
10.268
10.2705
10.2722
10.273
10.2728
10.2717
10.2688
10.2636
10.2563
10.2465
10.2336
10.2171
10.1965
10.171
10.1396
10.1013
10.0548
9.99879
9.93136
9.85053
9.75382
9.63831
9.50057
9.33676
9.14252
8.91344
8.64504
8.33398
7.9776
7.57789
7.13014
1.55482
4.81545
11.2208
10.9518
10.3116
10.0544
10.0498
10.0763
10.1237
10.1503
10.16
10.1642
10.1684
10.1735
10.1786
10.1832
10.187
10.1902
10.1926
10.1942
10.1947
10.1945
10.1935
10.1911
10.1866
10.1806
10.1729
10.1628
10.1497
10.1332
10.1128
10.0877
10.0575
10.0213
9.97806
9.92667
9.86587
9.79407
9.70949
9.6101
9.4936
9.35743
9.19885
9.01496
8.80307
8.56072
8.28647
7.9803
7.64355
7.26898
1.55572
4.82248
11.1707
10.8826
10.2389
9.99939
10.0094
10.0518
10.1002
10.122
10.128
10.1305
10.1336
10.1368
10.1394
10.141
10.1417
10.1416
10.1409
10.1391
10.136
10.1321
10.1272
10.1209
10.1129
10.103
10.0908
10.0761
10.0586
10.0378
10.0134
9.98478
9.95105
9.91118
9.86423
9.80935
9.74534
9.67094
9.58476
9.48515
9.37039
9.23856
9.08776
8.91603
8.72176
8.50353
8.26063
7.99256
7.70561
7.38949
1.56588
4.84159
11.2333
10.9026
10.1826
9.92196
9.93694
9.9915
10.0488
10.0733
10.0797
10.0824
10.0858
10.0891
10.0915
10.0925
10.0923
10.0914
10.089
10.0848
10.0797
10.0734
10.0657
10.0564
10.0452
10.0319
10.0164
9.99826
9.97729
9.95303
9.92483
9.89203
9.85409
9.81059
9.7608
9.70368
9.6383
9.56324
9.47728
9.37918
9.26778
9.14157
8.99941
8.83994
8.66221
8.46552
8.25019
8.01602
7.76686
7.49637
1.55621
4.81981
11.1575
10.8508
10.1585
9.89717
9.90914
9.95824
10.0144
10.0387
10.0443
10.0458
10.0478
10.0497
10.0504
10.05
10.0484
10.045
10.0402
10.0343
10.0272
10.0187
10.0086
9.99678
9.98296
9.96697
9.94852
9.92743
9.9033
9.87581
9.84443
9.80875
9.76827
9.7223
9.6702
9.61106
9.54415
9.46868
9.38383
9.28852
9.18181
9.06246
8.92946
8.78201
8.61981
8.44279
8.25114
8.04427
7.82582
7.59103
1.52702
4.76224
10.95
10.7261
10.1499
9.90177
9.90259
9.93186
9.98051
10.0038
10.0096
10.0103
10.011
10.0112
10.0108
10.0091
10.0055
10.0003
9.99411
9.98671
9.97789
9.9675
9.95536
9.94136
9.92525
9.90696
9.88613
9.86262
9.836
9.80603
9.77231
9.73441
9.69186
9.64409
9.59061
9.53074
9.46385
9.38921
9.30612
9.21373
9.11125
8.99812
8.87382
8.7379
8.58984
8.42936
8.25655
8.07355
7.8808
7.67477
1.51095
4.71675
10.8668
10.7313
10.2332
9.94039
9.88844
9.90674
9.94614
9.97026
9.977
9.97673
9.97556
9.97326
9.97036
9.96653
9.96145
9.95509
9.94744
9.93846
9.92797
9.91588
9.90201
9.88628
9.86843
9.84836
9.82572
9.80039
9.77199
9.74027
9.7049
9.66548
9.62169
9.57301
9.51896
9.45904
9.39277
9.31957
9.23888
9.15006
9.05258
8.94596
8.8298
8.70377
8.56776
8.42185
8.26638
8.10202
7.93002
7.74738
1.66797
3.29185
10.5047
11.012
10.5963
10.0764
9.88814
9.89207
9.91729
9.95035
9.96108
9.95992
9.95596
9.94961
9.94377
9.93784
9.93093
9.92268
9.91303
9.90195
9.88939
9.87518
9.85916
9.84135
9.82147
9.79933
9.77466
9.74733
9.71699
9.68347
9.64642
9.60552
9.5604
9.51069
9.45601
9.396
9.33032
9.25852
9.18016
9.09482
9.00201
8.9014
8.79277
8.67584
8.55063
8.41726
8.27605
8.12749
7.97273
7.80932
1.67588
3.1682
10.4388
11.1639
10.7153
10.1113
9.8664
9.85349
9.87123
9.9034
9.91384
9.91197
9.90596
9.89662
9.88898
9.88245
9.8755
9.8673
9.85763
9.84649
9.83381
9.81946
9.80331
9.78516
9.76489
9.74231
9.71715
9.68928
9.65837
9.62431
9.58675
9.5455
9.50031
9.45089
9.397
9.33821
9.27412
9.20439
9.12873
9.04669
8.95806
8.86269
8.76052
8.65169
8.53605
8.41364
8.28468
8.1496
8.00939
7.86191
1.64109
3.05366
9.91005
11.0077
10.6479
10.1089
9.88569
9.86478
9.87574
9.89406
9.89571
9.89176
9.88161
9.86824
9.85707
9.84736
9.83757
9.82681
9.81483
9.8016
9.78703
9.771
9.75332
9.73384
9.71237
9.68873
9.66273
9.63412
9.60264
9.56812
9.53036
9.48914
9.4442
9.39528
9.3421
9.28438
9.22182
9.15417
9.0812
9.00279
8.91885
8.82914
8.73348
8.63172
8.52375
8.40994
8.29114
8.16764
8.03993
7.90605
1.43576
4.54862
10.3345
10.511
10.2187
9.92415
9.81617
9.81353
9.8218
9.83231
9.83222
9.82868
9.81963
9.80766
9.79741
9.78828
9.77879
9.76818
9.75627
9.74307
9.72853
9.71247
9.69475
9.6752
9.65368
9.63
9.60403
9.57548
9.54419
9.51008
9.47288
9.43235
9.38829
9.34048
9.28871
9.23273
9.17233
9.10734
9.03758
8.96291
8.88322
8.79838
8.70833
8.61308
8.51303
8.40827
8.29869
8.18451
8.06674
7.94393
1.63342
3.00224
9.72503
10.8955
10.5808
10.0805
9.86095
9.82664
9.83198
9.83845
9.83569
9.82654
9.80985
9.79404
9.78044
9.76787
9.75504
9.74121
9.72618
9.71009
9.6929
9.67441
9.65444
9.63283
9.60939
9.58401
9.55652
9.52687
9.4949
9.46029
9.42283
9.38232
9.3386
9.29153
9.24089
9.18644
9.12801
9.06544
8.99858
8.92732
8.85156
8.77129
8.68648
8.5972
8.50358
8.40574
8.30383
8.19824
8.08956
7.97656
1.64229
2.93412
9.72642
11.0205
10.6394
10.0483
9.79093
9.75737
9.76751
9.78317
9.78208
9.77494
9.75898
9.74188
9.72804
9.71591
9.70366
9.69057
9.67644
9.66107
9.6443
9.62609
9.60634
9.58493
9.56174
9.5366
9.50938
9.47993
9.44812
9.41375
9.3767
9.33682
9.29394
9.24783
9.19836
9.14542
9.08889
9.02863
8.96456
8.89658
8.82464
8.74866
8.66867
8.58471
8.49687
8.40528
8.31014
8.21192
8.11103
8.00622
1.6406
2.91484
9.67198
10.999
10.6143
10.0082
9.74148
9.70631
9.71745
9.73578
9.73528
9.72904
9.71406
9.69646
9.68233
9.67027
9.65818
9.64511
9.63084
9.61529
9.59841
9.58012
9.56031
9.53888
9.51568
9.4906
9.46351
9.43427
9.40276
9.36884
9.33238
9.29325
9.2513
9.20638
9.15837
9.10715
9.05266
8.99479
8.93348
8.86865
8.80026
8.72826
8.65268
8.57358
8.49107
8.4053
8.31634
8.22453
8.13034
8.03262
1.62624
2.92344
9.50399
10.8584
10.5486
9.99759
9.74191
9.69397
9.69866
9.70695
9.70463
9.69608
9.67887
9.66214
9.64782
9.63473
9.62151
9.60746
9.59235
9.57611
9.55865
9.53988
9.51968
9.49793
9.47451
9.4493
9.42218
9.39303
9.36173
9.32818
9.29222
9.25375
9.21264
9.16882
9.1222
9.0727
9.02021
8.96463
8.90589
8.84398
8.77886
8.71051
8.63895
8.56424
8.48648
8.40579
8.3224
8.23641
8.14813
8.05653
1.39402
4.48136
10.0339
10.3034
10.0229
9.73531
9.62744
9.61829
9.62369
9.63026
9.62919
9.62397
9.61265
9.59994
9.58849
9.57763
9.56628
9.55383
9.54011
9.52505
9.50864
9.49081
9.47148
9.45057
9.42798
9.40359
9.37731
9.34903
9.31868
9.28616
9.25136
9.21418
9.17453
9.13234
9.08751
9.03997
8.98964
8.93644
8.88037
8.82137
8.75947
8.69468
8.627
8.55645
8.48308
8.40699
8.32838
8.24732
8.16418
8.07797
1.63147
2.94717
9.5914
10.8417
10.4979
9.90899
9.63541
9.593
9.60329
9.62373
9.62532
9.62065
9.60826
9.59094
9.57601
9.56289
9.54967
9.53541
9.51985
9.50295
9.48482
9.4653
9.44441
9.42215
9.39845
9.37318
9.34619
9.31738
9.28664
9.25387
9.21906
9.18218
9.14314
9.10184
9.0582
9.01211
8.96354
8.91241
8.85867
8.80225
8.74314
8.68132
8.61684
8.54976
8.48017
8.40818
8.33391
8.25742
8.17897
8.09762
1.6417
3.07677
9.86454
10.7737
10.3913
9.7794
9.51741
9.49721
9.51453
9.54735
9.55682
9.55416
9.5458
9.53157
9.51909
9.50822
9.49715
9.48485
9.4711
9.45597
9.43961
9.42198
9.40285
9.38211
9.35964
9.33543
9.30948
9.28173
9.25211
9.22061
9.18713
9.1516
9.11393
9.07406
9.03191
8.98744
8.94061
8.89137
8.83969
8.78557
8.72901
8.67005
8.60871
8.54495
8.47884
8.41047
8.33992
8.26731
8.19285
8.11567
1.40419
4.54531
10.1028
10.1583
9.8527
9.54538
9.44583
9.45114
9.47052
9.4905
9.49624
9.49472
9.48969
9.48024
9.47091
9.46185
9.45208
9.44098
9.4284
9.41438
9.39893
9.38202
9.36355
9.34347
9.32174
9.29832
9.2732
9.24633
9.21762
9.18703
9.15457
9.12017
9.08377
9.0453
9.00473
8.962
8.91707
8.8699
8.82049
8.76881
8.71484
8.65859
8.6001
8.53945
8.47665
8.41178
8.34488
8.276
8.20533
8.13206
1.38814
4.55506
9.99917
10.0244
9.78276
9.55065
9.46829
9.46563
9.47179
9.4812
9.48289
9.48082
9.47488
9.46485
9.45454
9.44413
9.43293
9.42054
9.40686
9.39189
9.37562
9.35805
9.3391
9.31871
9.29683
9.27342
9.24841
9.22177
9.19346
9.16344
9.1316
9.0979
9.06228
9.02469
8.9851
8.94347
8.89976
8.85391
8.80602
8.75614
8.70424
8.65025
8.59418
8.53604
8.47588
8.41371
8.34962
8.28373
8.21619
8.14625
1.42131
4.56851
10.2112
10.1813
9.79762
9.46218
9.36897
9.38093
9.41215
9.43664
9.44358
9.44221
9.43761
9.42901
9.42006
9.41094
9.40098
9.3897
9.37695
9.36276
9.34713
9.33003
9.31145
9.2914
9.26985
9.24677
9.22211
9.19585
9.16798
9.13844
9.10719
9.07418
9.03936
9.00272
8.96427
8.92399
8.88185
8.83788
8.79195
8.74401
8.69407
8.64217
8.58836
8.53264
8.47503
8.41557
8.35432
8.29134
8.22672
8.15964
1.5322
3.35165
9.88715
10.7061
10.3184
9.67615
9.39218
9.36631
9.38395
9.41982
9.434
9.43297
9.42833
9.41857
9.4081
9.39811
9.38767
9.37602
9.36294
9.34843
9.33252
9.31526
9.2966
9.27649
9.2549
9.23179
9.20706
9.1807
9.15284
9.12335
9.09218
9.0593
9.02476
8.98852
8.95056
8.91088
8.86945
8.82625
8.78127
8.73447
8.68591
8.6356
8.58344
8.52947
8.47379
8.41646
8.35752
8.29701
8.23503
8.1709
1.39653
4.53383
10.0648
10.0942
9.79122
9.46619
9.34421
9.34265
9.35405
9.37551
9.38434
9.38365
9.38015
9.3725
9.36355
9.3548
9.34561
9.33525
9.32346
9.31022
9.29555
9.27949
9.26199
9.24303
9.22255
9.20054
9.17697
9.15183
9.12515
9.09691
9.06708
9.03567
9.00264
8.96791
8.93145
8.89327
8.85336
8.81171
8.76832
8.72319
8.6763
8.62766
8.57738
8.52549
8.47198
8.41687
8.3602
8.30204
8.24251
8.18106
1.39392
4.53096
10.0474
10.0813
9.77465
9.44683
9.32664
9.32694
9.33951
9.36226
9.37166
9.37078
9.36673
9.35816
9.34849
9.33901
9.32905
9.31794
9.30544
9.29156
9.27636
9.25985
9.24204
9.22288
9.20237
9.18046
9.15717
9.13248
9.10628
9.07851
9.04917
9.01822
8.98569
8.9516
8.91595
8.87871
8.83986
8.79937
8.75725
8.71349
8.6681
8.62109
8.5725
8.52233
8.4706
8.41733
8.36256
8.30634
8.24874
8.18929
1.53038
3.33969
9.84783
10.687
10.3009
9.63638
9.33246
9.29669
9.31323
9.34803
9.36326
9.36238
9.35782
9.34799
9.33717
9.32722
9.31716
9.30612
9.2937
9.27993
9.26483
9.24842
9.23069
9.21161
9.19113
9.16918
9.14592
9.12121
9.095
9.0673
9.03809
9.00736
8.97514
8.94143
8.90621
8.86946
8.83119
8.79138
8.75002
8.70713
8.6627
8.61676
8.56931
8.52037
8.46995
8.41812
8.36487
8.31027
8.25442
8.1969
1.40795
4.54742
10.1173
10.0912
9.70602
9.35315
9.24295
9.2522
9.28148
9.31047
9.32008
9.31917
9.31528
9.30724
9.29859
9.29012
9.28108
9.27088
9.25931
9.24639
9.23217
9.21666
9.19986
9.18172
9.16223
9.14137
9.11913
9.0955
9.07043
9.04391
9.01592
8.9865
8.95563
8.92328
8.88944
8.8541
8.81726
8.77892
8.73909
8.69775
8.65488
8.61048
8.56458
8.51721
8.4684
8.41816
8.36649
8.3135
8.25928
8.20341
1.39289
4.55524
10.0064
9.98075
9.66799
9.38767
9.29916
9.30218
9.31434
9.32516
9.32571
9.32322
9.31662
9.30653
9.29651
9.28659
9.27608
9.26454
9.25185
9.23798
9.22295
9.20677
9.18941
9.17084
9.15105
9.12999
9.10766
9.08404
9.05909
9.03282
9.00522
8.97622
8.9458
8.91394
8.88063
8.84587
8.80963
8.77192
8.73276
8.69216
8.65013
8.6067
8.56183
8.51554
8.46786
8.41878
8.36837
8.31661
8.26354
8.20871
1.38493
4.54754
9.95777
9.94651
9.65809
9.38641
9.29414
9.29344
9.29959
9.30731
9.30737
9.30512
9.29898
9.28908
9.27916
9.26936
9.25902
9.24772
9.23534
9.22186
9.20728
9.19156
9.17466
9.15656
9.13723
9.11664
9.09479
9.07165
9.04719
9.02141
8.99429
8.96579
8.93592
8.90465
8.87198
8.83792
8.80248
8.76563
8.72736
8.68767
8.64656
8.60403
8.56009
8.51476
8.46809
8.42011
8.3708
8.32011
8.2681
8.21428
1.37702
4.50899
9.91814
10.0306
9.73037
9.40255
9.28131
9.27728
9.28588
9.29823
9.30034
9.29799
9.29132
9.28027
9.26957
9.25943
9.24896
9.23755
9.22503
9.21139
9.19665
9.18077
9.16376
9.14558
9.12621
9.10564
9.08383
9.06078
9.03647
9.01088
8.98399
8.95579
8.92626
8.89539
8.86318
8.82961
8.79468
8.75839
8.72071
8.68167
8.64126
8.59949
8.55639
8.51199
8.46623
8.4191
8.37067
8.32096
8.27002
8.21748
1.62609
2.96852
9.52026
10.6169
10.2725
9.64675
9.33722
9.27135
9.27891
9.29711
9.30457
9.30232
9.29479
9.28042
9.26723
9.25592
9.24506
9.23352
9.22089
9.20712
9.19225
9.17632
9.15929
9.14114
9.12183
9.10133
9.07963
9.0567
9.03252
9.00708
8.98036
8.95234
8.92301
8.89237
8.86039
8.82708
8.79243
8.75643
8.71909
8.68041
8.64038
8.59904
8.55637
8.5124
8.46713
8.42059
8.37283
8.32392
8.27392
8.22253
1.6354
2.8532
9.48249
10.8206
10.4143
9.67612
9.30888
9.23087
9.24141
9.26737
9.28204
9.28083
9.27471
9.26135
9.24722
9.23565
9.22522
9.2143
9.20223
9.18893
9.1745
9.15899
9.1424
9.12469
9.10583
9.08581
9.0646
9.04217
9.01852
8.99362
8.96747
8.94004
8.91132
8.88131
8.84999
8.81735
8.7834
8.74812
8.71151
8.67358
8.63433
8.59376
8.55188
8.50868
8.4642
8.41846
8.3715
8.32337
8.27415
8.22358
1.62645
2.96166
9.50498
10.6074
10.263
9.63063
9.31304
9.24537
9.25375
9.27436
9.28453
9.28266
9.27562
9.26123
9.24737
9.23566
9.22471
9.21321
9.20065
9.18696
9.17222
9.15646
9.13966
9.1218
9.10284
9.08274
9.0615
9.03909
9.01549
8.99067
8.96463
8.93735
8.9088
8.87899
8.8479
8.81551
8.78183
8.74685
8.71056
8.67297
8.63407
8.59387
8.55239
8.50961
8.46557
8.42027
8.37374
8.326
8.27711
8.22668
1.374
4.50566
9.8988
10.011
9.70658
9.36454
9.23586
9.23141
9.24093
9.25548
9.25862
9.2564
9.2499
9.23894
9.22834
9.21841
9.20823
9.19717
9.18506
9.17188
9.15767
9.14243
9.12615
9.10879
9.09034
9.07076
9.05004
9.02815
9.00508
8.98081
8.95532
8.9286
8.90062
8.87139
8.84088
8.80908
8.776
8.74162
8.70595
8.66896
8.63068
8.59109
8.55019
8.50801
8.46456
8.41985
8.37387
8.32664
8.27813
8.22788
1.37978
4.54092
9.92338
9.90601
9.60638
9.32937
9.24148
9.24378
9.25449
9.26446
9.26471
9.26212
9.25518
9.24436
9.23375
9.22349
9.21279
9.2012
9.18861
9.17502
9.16044
9.14486
9.12825
9.1106
9.09187
9.07203
9.05108
9.02899
9.00574
8.98131
8.95568
8.92885
8.90078
8.87148
8.84092
8.80911
8.77603
8.74167
8.70603
8.66911
8.6309
8.59142
8.55065
8.50863
8.46534
8.42081
8.37505
8.32808
8.27989
8.23019
1.40397
4.56216
10.0538
9.98654
9.59142
9.27538
9.19256
9.20416
9.23388
9.25431
9.25688
9.25423
9.24722
9.23684
9.2269
9.21722
9.20695
9.19569
9.18336
9.17
9.15565
9.14028
9.12388
9.10643
9.08789
9.06826
9.0475
9.02561
9.00255
8.97832
8.95289
8.92624
8.89838
8.86927
8.83891
8.80729
8.7744
8.74024
8.7048
8.66807
8.63006
8.59077
8.5502
8.50836
8.46527
8.42094
8.37538
8.32863
8.28072
8.23144
3.04316
2.45703
3.00093
4.17847
4.12463
4.10841
4.04768
4.01002
3.99708
3.99975
4.02722
4.07067
4.10772
4.13846
4.17248
4.21523
4.2669
4.32499
4.38664
4.44955
4.51199
4.57275
4.63134
4.68831
4.73931
4.78471
4.8244
4.85886
4.88801
4.91208
4.93106
4.94517
4.95448
4.95927
4.95967
4.95804
4.95271
4.94141
4.92594
4.90815
4.8881
4.86574
4.84117
4.81469
4.78653
4.75699
4.72631
4.69474
4.66249
4.62981
4.59691
4.56398
4.53124
4.49889
4.46713
4.43615
4.40616
4.37734
4.3499
4.32403
4.29992
4.27777
4.25775
4.24004
4.22478
4.21211
4.20211
4.19484
4.19027
4.18841
4.18855
4.18943
4.19204
4.19798
4.20935
4.22212
4.23527
4.24865
4.2621
4.27533
4.28798
4.29973
4.31031
4.31953
4.32727
4.33347
4.33814
4.3413
4.34308
4.34366
4.34358
4.34321
4.34217
4.33985
4.33583
4.33141
4.32687
4.3222
4.31722
4.31292
4.09532
3.55244
3.75472
4.23281
4.15059
4.09414
4.03504
3.99477
3.98302
3.99512
4.03602
4.08628
4.11805
4.14009
4.16919
4.21012
4.2614
4.31941
4.38094
4.44374
4.5061
4.56699
4.62587
4.68257
4.73365
4.77905
4.81887
4.85345
4.88275
4.90694
4.92604
4.94025
4.94964
4.95444
4.95467
4.95349
4.94922
4.93922
4.92222
4.90381
4.88392
4.86189
4.83758
4.81125
4.78322
4.75379
4.72322
4.69176
4.65962
4.62704
4.59423
4.56139
4.52873
4.49645
4.46475
4.43382
4.40388
4.3751
4.34769
4.32185
4.29777
4.27564
4.25565
4.23795
4.22272
4.21009
4.20016
4.19298
4.18861
4.18722
4.18745
4.18844
4.1911
4.19697
4.20831
4.22136
4.23488
4.24856
4.26222
4.27561
4.2884
4.30027
4.31095
4.32024
4.32801
4.33422
4.33887
4.34202
4.34373
4.34422
4.34412
4.34373
4.34269
4.34039
4.33627
4.33171
4.3271
4.32249
4.31774
4.31507
5.22459
4.4633
4.23452
4.26634
4.24722
4.19495
4.11322
4.06038
4.0402
4.04261
4.05496
4.084
4.1193
4.1507
4.18388
4.22457
4.27355
4.32911
4.3885
4.44944
4.51022
4.5697
4.62704
4.6816
4.73183
4.77671
4.81612
4.85022
4.87908
4.90285
4.92159
4.93543
4.94447
4.94884
4.94877
4.94768
4.94403
4.9354
4.9181
4.8987
4.8782
4.85605
4.83187
4.80569
4.77779
4.74847
4.718
4.68665
4.65464
4.62218
4.58948
4.55676
4.52421
4.49203
4.46043
4.4296
4.39974
4.37105
4.34373
4.31797
4.29397
4.27191
4.25199
4.23438
4.21925
4.20674
4.19697
4.19004
4.18606
4.18538
4.18568
4.18681
4.18963
4.19569
4.20696
4.22024
4.23425
4.24846
4.26257
4.27632
4.28939
4.30149
4.31233
4.32173
4.32955
4.33576
4.34034
4.34337
4.34505
4.34533
4.34521
4.34474
4.34358
4.3411
4.33689
4.3322
4.32746
4.3229
4.31833
4.31737
5.828
5.09477
4.66181
4.46527
4.42652
4.36098
4.26899
4.18872
4.13682
4.11634
4.1186
4.12954
4.15552
4.19254
4.22615
4.26107
4.30195
4.34968
4.40274
4.45881
4.51587
4.57243
4.62724
4.67959
4.72804
4.77183
4.81045
4.8438
4.87197
4.89513
4.91332
4.92665
4.93522
4.93902
4.93885
4.93772
4.93435
4.92657
4.91067
4.89055
4.86917
4.84659
4.8224
4.79642
4.76879
4.73974
4.70954
4.67844
4.64668
4.61448
4.58203
4.54955
4.51723
4.48528
4.4539
4.42328
4.39363
4.36514
4.33801
4.31244
4.28862
4.26675
4.24701
4.22959
4.21467
4.20239
4.19289
4.18636
4.18296
4.18296
4.18336
4.1847
4.18787
4.19452
4.20563
4.21897
4.23343
4.24827
4.263
4.27725
4.2907
4.30306
4.31408
4.32358
4.33146
4.33764
4.34217
4.34514
4.34663
4.34662
4.34644
4.34585
4.34446
4.34161
4.33741
4.33267
4.32782
4.32328
4.31894
4.31904
6.23103
5.59594
5.12117
4.83193
4.68315
4.5704
4.45921
4.35783
4.28036
4.23279
4.21287
4.21379
4.22003
4.23633
4.26887
4.30168
4.33797
4.37927
4.42541
4.47516
4.52699
4.57931
4.63068
4.67995
4.7261
4.76815
4.80551
4.83771
4.86489
4.88722
4.90461
4.91721
4.92513
4.92817
4.9279
4.92666
4.9233
4.91586
4.9008
4.88103
4.85922
4.83607
4.81158
4.78562
4.75819
4.72943
4.69954
4.66876
4.63731
4.60541
4.57327
4.54109
4.50908
4.47743
4.44634
4.41602
4.38667
4.35848
4.33164
4.30636
4.28284
4.26126
4.24183
4.22471
4.21012
4.19818
4.18913
4.18311
4.18046
4.18059
4.18124
4.18297
4.18674
4.19433
4.20518
4.21838
4.23308
4.24843
4.26374
4.2785
4.29233
4.30495
4.31612
4.3257
4.33358
4.33973
4.34419
4.34703
4.34815
4.34808
4.34776
4.34693
4.34516
4.34195
4.33776
4.33301
4.3281
4.32356
4.31955
4.31986
6.53811
6.00293
5.5482
5.20434
4.97135
4.80504
4.66812
4.549
4.45099
4.37888
4.33353
4.31158
4.31129
4.31447
4.32514
4.34829
4.38065
4.41664
4.45542
4.49732
4.54198
4.58826
4.63468
4.67998
4.72301
4.76273
4.79834
4.8293
4.85543
4.87682
4.89329
4.90512
4.91239
4.91464
4.9143
4.91295
4.90951
4.9021
4.88749
4.86856
4.84688
4.82341
4.79859
4.77253
4.74524
4.71679
4.6873
4.65694
4.62591
4.59443
4.5627
4.53093
4.49933
4.4681
4.43745
4.40756
4.37863
4.35087
4.32448
4.29964
4.27656
4.25544
4.23645
4.21978
4.20566
4.19426
4.18577
4.18029
4.17846
4.17869
4.17956
4.18172
4.18627
4.19457
4.20548
4.21859
4.23331
4.24887
4.26452
4.27964
4.29377
4.30658
4.31785
4.32745
4.33531
4.34143
4.3458
4.34846
4.34922
4.3491
4.34866
4.3476
4.34541
4.34198
4.33771
4.33294
4.328
4.32347
4.31973
4.32013
6.78236
6.33176
5.91409
5.55493
5.27433
5.06263
4.89501
4.75516
4.63815
4.54469
4.47599
4.43121
4.4077
4.40177
4.40339
4.41007
4.4258
4.45425
4.48604
4.5213
4.55931
4.59918
4.63989
4.68046
4.71976
4.75667
4.7902
4.81964
4.84461
4.86498
4.88068
4.89176
4.8983
4.89977
4.89937
4.8979
4.89428
4.88665
4.87252
4.85427
4.83298
4.80954
4.78459
4.75845
4.73126
4.70308
4.67398
4.64408
4.61354
4.58256
4.55133
4.52007
4.48898
4.45827
4.42814
4.39878
4.37041
4.34321
4.31739
4.29312
4.27064
4.25011
4.23172
4.2157
4.2022
4.1914
4.18351
4.17863
4.17766
4.17796
4.17904
4.18161
4.18693
4.19582
4.207
4.22008
4.23465
4.25009
4.26572
4.2809
4.29511
4.30799
4.31929
4.32889
4.3367
4.34273