/*--------------------------------*- C++ -*----------------------------------*\
| =========                 |                                                 |
| \\      /  F ield         | OpenFOAM: The Open Source CFD Toolbox           |
|  \\    /   O peration     | Version:  2412                                  |
|   \\  /    A nd           | Website:  www.openfoam.com                      |
|    \\/     M anipulation  |                                                 |
\*---------------------------------------------------------------------------*/
FoamFile
{
    version     2.0;
    format      ascii;
    arch        "LSB;label=32;scalar=64";
    class       surfaceScalarField;
    location    "18.5";
    object      phi;
}
// * * * * * * * * * * * * * * * * * * * * * * * * * * * * * * * * * * * * * //

dimensions      [1 0 -1 0 0 0 0];

oriented        oriented;

internalField   nonuniform List<scalar> 
13790
(
0.00292376
-1.97267e-07
0.00274462
9.30795e-07
0.00280403
3.25072e-06
0.00280528
5.58687e-06
0.00279926
6.47424e-06
0.00279213
7.16601e-06
0.00278418
7.95849e-06
0.00277527
8.90841e-06
0.00276528
9.99594e-06
0.00275404
1.12404e-05
0.00274147
1.25724e-05
0.00272751
1.39537e-05
0.00271213
1.53865e-05
0.00269524
1.68878e-05
0.00267677
1.84701e-05
0.00265663
2.01393e-05
0.00263473
2.18985e-05
0.00261098
2.37522e-05
0.00258528
2.57064e-05
0.00255751
2.77688e-05
0.00252756
2.99472e-05
0.00249531
3.22504e-05
0.00246062
3.46878e-05
0.00242335
3.7269e-05
0.00238334
4.00046e-05
0.00234043
4.29052e-05
0.00229445
4.5982e-05
0.0022452
4.92456e-05
0.00219249
5.27073e-05
0.00213611
5.63763e-05
0.00207585
6.02626e-05
0.00201147
6.43718e-05
0.00194276
6.87103e-05
0.00186948
7.32765e-05
0.00179141
7.807e-05
0.00170833
8.30772e-05
0.00162004
8.82855e-05
0.00152637
9.36625e-05
0.0014272
9.91775e-05
0.00132242
0.000104772
0.00121203
0.000110392
0.00109608
0.000115946
0.000974723
0.000121355
0.000848222
0.000126499
0.000716931
0.000131292
0.000581322
0.000135608
0.000441848
0.000139473
0.000299171
0.000142676
0.000152282
0.000146885
0.000152279
0.00303218
2.03635e-08
0.0028463
8.41826e-07
0.0029065
8.61185e-06
0.00290783
1.12871e-05
0.00290197
1.28101e-05
0.00289479
1.4377e-05
0.0028866
1.61497e-05
0.00287736
1.8152e-05
0.00286697
2.03915e-05
0.0028553
2.29072e-05
0.00284228
2.55994e-05
0.00282783
2.84046e-05
0.00281189
3.13234e-05
0.0027944
3.4384e-05
0.00277526
3.76076e-05
0.00275439
4.10073e-05
0.0027317
4.45892e-05
0.00270709
4.83644e-05
0.00268045
5.23436e-05
0.00265168
5.65437e-05
0.00262064
6.09793e-05
0.00258722
6.567e-05
0.00255128
7.06329e-05
0.00251265
7.58898e-05
0.0024712
8.14604e-05
0.00242673
8.73679e-05
0.00237908
9.3634e-05
0.00232804
0.000100281
0.00227341
0.000107333
0.00221498
0.000114807
0.00215251
0.000122725
0.00208578
0.000131098
0.00201455
0.000139941
0.00193857
0.00014925
0.00185762
0.000159026
0.00177145
0.000169239
0.00167986
0.00017987
0.00158268
0.000190848
0.00147973
0.000202118
0.00137095
0.000213555
0.00125628
0.000225056
0.00113579
0.000236432
0.00100962
0.000247527
0.00087802
0.000258096
0.00074137
0.000267943
0.000600122
0.000276854
0.000454852
0.000284743
0.000306096
0.000291431
0.000154203
0.000298773
0.000306479
0.00314489
9.20958e-08
0.00295181
1.21139e-06
0.00301445
1.38828e-05
0.00301573
1.72732e-05
0.00300975
1.92938e-05
0.00300244
2.17213e-05
0.00299403
2.4571e-05
0.00298448
2.77017e-05
0.00297372
3.11544e-05
0.00296164
3.49875e-05
0.00294816
3.90793e-05
0.00293322
4.33501e-05
0.00291673
4.78099e-05
0.00289863
5.24847e-05
0.00287883
5.74126e-05
0.00285723
6.2601e-05
0.00283375
6.80739e-05
0.00280828
7.38337e-05
0.00278071
7.99137e-05
0.00275093
8.63212e-05
0.00271881
9.30985e-05
0.00268423
0.000100254
0.00264702
0.000107837
0.00260705
0.000115855
0.00256415
0.000124367
0.00251813
0.000133378
0.00246881
0.000142954
0.00241599
0.000153096
0.00235945
0.000163874
0.00229897
0.00017528
0.00223431
0.000187388
0.00216523
0.000200172
0.00209147
0.000213699
0.0020128
0.000227921
0.00192894
0.000242884
0.00183966
0.000258507
0.00174474
0.00027479
0.00164398
0.000291609
0.0015372
0.000308887
0.00142431
0.000326451
0.00130526
0.000344103
0.00118005
0.000361632
0.0010489
0.000378679
0.000911951
0.000395043
0.000769674
0.000410221
0.0006225
0.000424027
0.000471061
0.000436181
0.000316172
0.000446319
0.000158595
0.000456345
0.000465071
0.00326182
1.16106e-07
0.00306156
1.66852e-06
0.00312677
1.90828e-05
0.0031281
2.34635e-05
0.00312193
2.59848e-05
0.00311445
2.92369e-05
0.00310583
3.31995e-05
0.00309599
3.75344e-05
0.00308488
4.22704e-05
0.0030724
4.74688e-05
0.00305849
5.29958e-05
0.00304306
5.87818e-05
0.00302604
6.48301e-05
0.00300734
7.1182e-05
0.00298689
7.78673e-05
0.00296458
8.49137e-05
0.00294032
9.23332e-05
0.002914
0.000100154
0.00288552
0.000108395
0.00285474
0.000117096
0.00282156
0.000126279
0.00278582
0.000135996
0.00274738
0.000146268
0.00270608
0.00015716
0.00266175
0.000168688
0.0026142
0.000180932
0.00256325
0.0001939
0.00250866
0.000207684
0.00245025
0.00022228
0.00238773
0.000237793
0.00232093
0.000254191
0.0022495
0.000271593
0.00217328
0.000289921
0.0020919
0.0003093
0.00200519
0.00032959
0.00191279
0.000350906
0.00181456
0.000373016
0.00171016
0.000396
0.00159953
0.000419516
0.00148243
0.000443553
0.00135885
0.000467676
0.00122881
0.000491673
0.00109237
0.000515118
0.000949934
0.000537477
0.000801622
0.000558533
0.000648244
0.000577404
0.000490312
0.000594112
0.000328675
0.000607955
0.000164762
0.000620254
0.000629829
0.00338306
1.39505e-07
0.00317539
2.15757e-06
0.00324318
2.43094e-05
0.00324463
2.97856e-05
0.00323832
3.28496e-05
0.00323066
3.69321e-05
0.00322186
4.20088e-05
0.00321175
4.76376e-05
0.00320031
5.37168e-05
0.00318746
6.0325e-05
0.00317313
6.73267e-05
0.00315723
7.46782e-05
0.0031397
8.23635e-05
0.00312043
9.04524e-05
0.00309935
9.89502e-05
0.00307635
0.000107919
0.00305133
0.000117345
0.00302419
0.000127296
0.00299482
0.000137763
0.00296309
0.000148832
0.00292887
0.000160496
0.00289201
0.000172854
0.00285237
0.000185902
0.00280978
0.00019975
0.00276407
0.000214399
0.00271504
0.000229962
0.00266248
0.000246449
0.0026062
0.000263968
0.00254594
0.00028254
0.00248147
0.000302253
0.00241252
0.000323141
0.00233886
0.000345254
0.00226014
0.000368637
0.00217616
0.000393269
0.00208654
0.000419207
0.00199114
0.000446311
0.00188949
0.000474655
0.00178158
0.000503907
0.00166694
0.00053416
0.00154567
0.00056482
0.00141737
0.000595969
0.00128232
0.000626727
0.0011404
0.000657031
0.000991921
0.000685954
0.00083747
0.000712984
0.000677152
0.000737721
0.000512235
0.000759027
0.000343482
0.000776707
0.000172036
0.000791694
0.000801862
0.00350882
1.632e-07
0.00329346
2.65299e-06
0.00336393
2.95798e-05
0.00336555
3.62105e-05
0.0033591
3.9875e-05
0.00335129
4.47898e-05
0.00334224
5.10589e-05
0.00333194
5.79415e-05
0.00332023
6.54323e-05
0.00330704
7.35113e-05
0.00329231
8.20604e-05
0.00327598
9.10074e-05
0.00325795
0.000100402
0.00323814
0.00011026
0.00321644
0.000120655
0.00319278
0.000131578
0.00316702
0.000143103
0.0031391
0.000155214
0.00310886
0.00016801
0.00307621
0.000181475
0.00304097
0.000195734
0.00300306
0.000210763
0.00296225
0.000226715
0.00291845
0.000243552
0.00287138
0.000261463
0.00282095
0.000280388
0.00276685
0.000300549
0.00270895
0.000321863
0.00264691
0.000344578
0.00258058
0.000368582
0.00250958
0.000394138
0.00243373
0.000421102
0.00235264
0.00044972
0.00226609
0.000479821
0.0021737
0.000511584
0.00207521
0.000544807
0.00197032
0.000579539
0.00185867
0.00061555
0.00174018
0.000652646
0.0016144
0.000690594
0.00148156
0.000728815
0.00134109
0.00076719
0.00119358
0.000804546
0.00103876
0.00084077
0.000877308
0.000874433
0.000709981
0.000905047
0.000537041
0.000931967
0.000360128
0.000953619
0.000180625
0.000971192
0.000982483
0.00363926
1.87234e-07
0.00341591
3.1502e-06
0.0034892
3.48892e-05
0.00349101
4.27127e-05
0.00348448
4.70111e-05
0.00347653
5.27871e-05
0.00346734
6.02566e-05
0.00345681
6.84681e-05
0.00344484
7.74043e-05
0.00343134
8.70168e-05
0.00341625
9.71485e-05
0.0033995
0.00010776
0.00338101
0.000118897
0.00336067
0.000130604
0.0033384
0.000142926
0.00331408
0.000155892
0.00328764
0.000169543
0.00325894
0.000183915
0.00322789
0.000199061
0.00319433
0.000215038
0.00315816
0.000231906
0.00311918
0.000249739
0.00307729
0.000268598
0.00303226
0.000288585
0.00298397
0.000309749
0.00293213
0.000332225
0.00287664
0.000356041
0.00281712
0.000381373
0.00275349
0.000408207
0.00268531
0.000436766
0.00261247
0.000466974
0.00253447
0.000499095
0.00245122
0.00053297
0.00236215
0.00056888
0.00226717
0.000606567
0.00216571
0.000646266
0.00205762
0.000687625
0.00194242
0.00073074
0.00181992
0.000775148
0.00168983
0.000820683
0.00155185
0.000866787
0.00140623
0.00091281
0.00125243
0.000958347
0.0010912
0.001002
0.000922302
0.00104333
0.000746705
0.00108064
0.000565544
0.00111313
0.000379445
0.00113972
0.000190152
0.00116048
0.00117263
0.00377456
2.11411e-07
0.00354291
3.64649e-06
0.00361915
4.02204e-05
0.00362119
4.9263e-05
0.00361463
5.4218e-05
0.00360658
6.08855e-05
0.00359727
6.95693e-05
0.00358657
7.91659e-05
0.00357438
8.9601e-05
0.00356061
0.000100791
0.0035452
0.000112558
0.00352808
0.000124884
0.00350916
0.000137819
0.00348834
0.000151424
0.00346553
0.000165735
0.00344063
0.000180795
0.00341354
0.000196637
0.00338413
0.000213318
0.0033523
0.000230889
0.00331792
0.000249423
0.00328084
0.000268986
0.00324091
0.000289664
0.00319797
0.000311537
0.00315185
0.000334702
0.00310234
0.000359257
0.00304927
0.000385298
0.00299236
0.000412949
0.00293143
0.000442292
0.00286616
0.000473479
0.00279636
0.000506561
0.00272161
0.00054172
0.00264176
0.000578939
0.00255628
0.000618452
0.00246505
0.000660107
0.00236742
0.000704191
0.00226331
0.000750369
0.00215203
0.000798901
0.00203351
0.000849265
0.00190708
0.000901573
0.00177265
0.000955111
0.00162979
0.00100964
0.00147828
0.00106432
0.00131844
0.00111819
0.00114976
0.00117068
0.000973231
0.00121985
0.000788862
0.00126501
0.000597627
0.00130436
0.000401357
0.00133599
0.00020156
0.00136027
0.00137419
0.0039149
2.35612e-07
0.00367462
4.13854e-06
0.00375397
4.55436e-05
0.00375629
5.58234e-05
0.00374973
6.14594e-05
0.00374163
6.90375e-05
0.00373222
7.89889e-05
0.00372141
8.99676e-05
0.00370907
0.000101955
0.00369508
0.00011478
0.0036794
0.000128242
0.00366195
0.000142332
0.00364265
0.000157122
0.0036214
0.000172674
0.0035981
0.000189033
0.00357266
0.000206236
0.00354497
0.00022433
0.00351492
0.00024337
0.00348238
0.000263425
0.00344724
0.000284569
0.00340933
0.000306886
0.00336853
0.000330468
0.00332465
0.000355413
0.00327753
0.000381828
0.00322695
0.000409826
0.00317272
0.000439528
0.00311461
0.000471056
0.00305236
0.000504545
0.00298572
0.000540116
0.00291436
0.000577914
0.00283803
0.000618042
0.00275632
0.000660652
0.00266898
0.000705784
0.00257547
0.000753614
0.00247562
0.000804033
0.00236873
0.000857258
0.0022547
0.000912927
0.00213269
0.000971268
0.0020027
0.00103156
0.00186384
0.00109396
0.00171617
0.00115731
0.00155904
0.00122144
0.00139232
0.00128491
0.00121645
0.00134654
0.00103081
0.00140549
0.000836918
0.0014589
0.000635291
0.00150599
0.00042703
0.00154425
0.000214247
0.00157305
0.00158843
0.00406047
2.59481e-07
0.00381121
4.62236e-06
0.00389386
5.08113e-05
0.00389652
6.23429e-05
0.00389003
6.86747e-05
0.00388193
7.71917e-05
0.00387252
8.84061e-05
0.00386164
0.000100849
0.00384917
0.000114424
0.00383502
0.000128933
0.00381913
0.000144139
0.00380141
0.000160051
0.00378179
0.000176745
0.00376016
0.000194302
0.00373644
0.000212755
0.00371052
0.000232158
0.0036823
0.000252548
0.00365167
0.000274004
0.00361851
0.000296585
0.00358268
0.000320395
0.00354405
0.00034551
0.00350247
0.000372053
0.00345776
0.000400115
0.00340975
0.000429839
0.00335824
0.000461333
0.00330301
0.000494756
0.00324383
0.00053023
0.00318045
0.000567927
0.00311258
0.000607977
0.00303994
0.000650557
0.00296218
0.000695796
0.00287897
0.000743858
0.0027899
0.000794852
0.00269461
0.000848901
0.00259257
0.000906069
0.00248345
0.000966372
0.00236656
0.00102981
0.00224166
0.00109617
0.00210786
0.00116536
0.00196508
0.00123673
0.00181228
0.00131012
0.0016496
0.00138412
0.00147609
0.00145842
0.0012919
0.00153073
0.00109758
0.00159982
0.000892417
0.00166406
0.000678316
0.00172009
0.000456724
0.00176584
0.000229857
0.00179991
0.00181828
0.00421147
2.82749e-07
0.00395288
5.092e-06
0.00403903
5.59603e-05
0.00404209
6.87571e-05
0.00403573
7.58195e-05
0.0040277
8.5275e-05
0.0040183
9.78148e-05
0.00400746
0.00011169
0.00399498
0.00012691
0.00398074
0.000143169
0.0039647
0.000160187
0.00394678
0.000177969
0.0039269
0.000196626
0.00390497
0.000216231
0.00388089
0.000236837
0.00385457
0.000258477
0.0038259
0.000281219
0.00379478
0.000305124
0.00376108
0.000330286
0.00372468
0.000356792
0.00368544
0.000384757
0.0036432
0.000414287
0.00359779
0.00044552
0.00354905
0.00047858
0.00349675
0.000513625
0.00344071
0.000550801
0.00338065
0.00059028
0.00331635
0.000632229
0.0032475
0.000676825
0.0031738
0.000724255
0.0030949
0.000774686
0.00301044
0.000828313
0.00292002
0.000885271
0.00282318
0.000945742
0.00271945
0.00100979
0.00260828
0.00107754
0.00248918
0.00114892
0.00236141
0.00122392
0.00222453
0.00130224
0.00207763
0.00138363
0.00192038
0.00146737
0.0017517
0.00155279
0.00157159
0.00163852
0.00137894
0.00172337
0.00117402
0.00180474
0.00095773
0.00188035
0.00072984
0.00194797
0.000492309
0.00200337
0.00024751
0.0020447
0.00206579
0.0043681
3.03397e-07
0.0040998
5.54275e-06
0.00418971
6.08882e-05
0.00419327
7.499e-05
0.0041871
8.282e-05
0.00417924
9.31915e-05
0.00417002
0.000107042
0.00415925
0.000122451
0.00414681
0.000139363
0.00413256
0.000157423
0.00411645
0.000176296
0.0040984
0.000196016
0.00407836
0.000216677
0.00405619
0.000238393
0.00403185
0.00026118
0.00400521
0.00028512
0.00397619
0.000310234
0.00394467
0.000336645
0.00391056
0.000364399
0.0038737
0.000393656
0.00383398
0.000424475
0.00379122
0.000457047
0.00374529
0.000491447
0.00369597
0.000527897
0.0036431
0.000566488
0.00358643
0.000607472
0.00352575
0.000650953
0.00346076
0.000697214
0.00339122
0.000746366
0.00331676
0.000798714
0.00323706
0.000854374
0.00315172
0.000913655
0.00306031
0.000976669
0.00296237
0.00104369
0.00285734
0.00111481
0.00274469
0.00119018
0.00262371
0.0012699
0.0024938
0.00135382
0.00235403
0.00144201
0.00220383
0.00153382
0.002042
0.0016292
0.00186808
0.00172671
0.00168079
0.00182581
0.00147992
0.00192424
0.00126438
0.00202028
0.00103403
0.0021107
0.000790448
0.00219155
0.000534733
0.00225908
0.000270106
0.00230933
0.00233589
0.00453057
3.15909e-07
0.00425218
5.97969e-06
0.00434613
6.54485e-05
0.00435027
8.0969e-05
0.00434435
8.963e-05
0.00433681
0.000100791
0.00432781
0.000116043
0.00431728
0.000132986
0.004305
0.000151647
0.00429084
0.000171582
0.00427475
0.00019239
0.00425668
0.000214092
0.00423653
0.000236822
0.00421425
0.000260679
0.00418972
0.00028571
0.00416288
0.000311964
0.0041336
0.000339506
0.00410182
0.000368424
0.0040674
0.000398823
0.00403024
0.000430818
0.00399017
0.00046454
0.00394709
0.000500129
0.00390079
0.000537744
0.00385113
0.000577548
0.00379789
0.000619732
0.00374088
0.00066448
0.00367981
0.000712014
0.00361449
0.000762536
0.00354454
0.000816304
0.00346973
0.000873526
0.0033896
0.000934496
0.00330385
0.000999407
0.00321192
0.00106859
0.00311341
0.00114219
0.00300765
0.00122056
0.00289411
0.00130372
0.00277197
0.00139204
0.00264049
0.0014853
0.00249875
0.00158375
0.00234565
0.00168691
0.00218032
0.00179452
0.00200115
0.00190588
0.00180749
0.00201947
0.00159748
0.00213424
0.00137093
0.00224684
0.00112699
0.00235464
0.000865202
0.00245334
0.000587467
0.00253681
0.000296633
0.00260015
0.00263252
0.00469912
3.26515e-07
0.0044102
6.38065e-06
0.00450839
6.96405e-05
0.00451327
8.65185e-05
0.00450786
9.59949e-05
0.00450075
0.000107974
0.00449215
0.000124649
0.00448194
0.00014319
0.00446993
0.000163668
0.00445595
0.000185557
0.00443999
0.000208354
0.00442198
0.000232106
0.00440186
0.000256944
0.00437954
0.000283001
0.00435495
0.000310296
0.004328
0.000338914
0.00429862
0.000368887
0.00426669
0.000400354
0.00423213
0.000433381
0.0041948
0.000468149
0.0041546
0.00050474
0.00411135
0.000543375
0.00406494
0.000584155
0.00401514
0.000627337
0.00396182
0.00067305
0.00390472
0.00072158
0.00384364
0.000773091
0.00377828
0.000827893
0.00370839
0.000886194
0.0036336
0.00094831
0.00355358
0.00101451
0.00346789
0.00108509
0.00337608
0.0011604
0.0032776
0.00124066
0.00317187
0.00132629
0.00305816
0.00141742
0.00293572
0.00151447
0.00280356
0.00161745
0.00266073
0.00172658
0.00250589
0.00184175
0.00233778
0.00196264
0.00215486
0.00208879
0.00195515
0.00221918
0.00173736
0.00235202
0.00149874
0.00248545
0.0012386
0.00261478
0.000956592
0.00273535
0.000653278
0.00284013
0.000332522
0.0029209
0.00296503
0.00487396
3.4681e-07
0.00457409
6.70139e-06
0.00467667
7.35127e-05
0.00468253
9.13929e-05
0.00467799
0.000101568
0.00467142
0.000114617
0.00466339
0.000132688
0.00465367
0.000152904
0.00464202
0.000175331
0.00462835
0.000199227
0.00461262
0.00022408
0.00459479
0.000249938
0.0045748
0.000276943
0.00455256
0.000305233
0.00452803
0.000334834
0.00450112
0.000365825
0.00447175
0.000398257
0.00443984
0.000432258
0.00440529
0.000467933
0.004368
0.000505433
0.00432783
0.000544909
0.00428469
0.000586521
0.00423836
0.000630478
0.00418875
0.000676942
0.00413561
0.000726192
0.00407881
0.000778379
0.00401802
0.000833876
0.0039531
0.000892804
0.00388365
0.000955645
0.00380947
0.00102249
0.00373005
0.00109392
0.00364513
0.00117001
0.00355408
0.00125144
0.00345649
0.00133824
0.00335163
0.00143115
0.0032388
0.00153025
0.00311713
0.00163614
0.00298556
0.00174902
0.00284293
0.00186921
0.00268775
0.00199691
0.00251834
0.00213205
0.00233275
0.00227437
0.00212879
0.00242314
0.00190364
0.00257716
0.00165514
0.00273395
0.00137939
0.00289054
0.00107443
0.00304031
0.000739556
0.003175
0.000377699
0.00328276
0.00334272
0.00505531
3.60797e-07
0.00474407
6.96466e-06
0.00485161
7.6648e-05
0.0048586
9.54502e-05
0.00485499
0.000106297
0.00484928
0.000120415
0.00484196
0.000140004
0.0048329
0.000161967
0.00482181
0.000186427
0.0048086
0.000212436
0.00479323
0.000239453
0.0047757
0.000267469
0.00475594
0.000296708
0.00473393
0.00032725
0.00470956
0.000359202
0.00468283
0.000392558
0.00465361
0.000427472
0.00462189
0.000463976
0.00458753
0.000502298
0.00455048
0.000542481
0.00451057
0.000584813
0.00446775
0.000629341
0.00442181
0.000676414
0.00437266
0.00072609
0.00432007
0.000778778
0.0042639
0.000834554
0.00420388
0.000893882
0.0041398
0.000956881
0.0040714
0.00102405
0.0039983
0.00109558
0.00392025
0.00117197
0.0038367
0.00125356
0.00374735
0.00134077
0.00365145
0.00143415
0.00354858
0.00153401
0.00343772
0.00164109
0.00331821
0.00175564
0.00318877
0.00187846
0.00304814
0.00200983
0.00289471
0.00215034
0.00272642
0.00230033
0.00254076
0.00246002
0.00233474
0.00262916
0.00210496
0.00280694
0.00184634
0.00299257
0.00155516
0.00318171
0.00122622
0.00336925
0.000855749
0.00354547
0.000444111
0.00369439
0.00378683
0.0052434
3.68908e-07
0.0049204
7.13694e-06
0.00503334
7.87801e-05
0.0050418
9.83487e-05
0.00503945
0.000109869
0.00503485
0.000125102
0.00502849
0.000146367
0.00502028
0.000170179
0.00500993
0.000196783
0.00499731
0.00022506
0.00498243
0.000254338
0.0049653
0.000284598
0.0049459
0.000316103
0.00492421
0.000348944
0.00490017
0.00038324
0.00487374
0.000418989
0.00484487
0.00045634
0.0048135
0.000495356
0.00477955
0.000536241
0.00474293
0.000579102
0.00470357
0.000624169
0.00466132
0.000671593
0.0046161
0.000721624
0.00456772
0.000774473
0.00451609
0.000830401
0.00446095
0.000889697
0.0044022
0.000952628
0.00433949
0.00101958
0.00427271
0.00109083
0.00420143
0.00116686
0.00412543
0.00124797
0.00404424
0.00133475
0.00395743
0.00142757
0.0038645
0.00152707
0.0037647
0.00163381
0.00365745
0.00174834
0.00354155
0.00187154
0.00341618
0.00200383
0.00327962
0.00214638
0.00313028
0.00229967
0.00296606
0.00246455
0.00278387
0.00264221
0.00258001
0.00283302
0.00235066
0.00303629
0.00208922
0.00325401
0.00178646
0.00348446
0.00143335
0.00372235
0.00101964
0.00395917
0.000538147
0.00417588
0.00432497
0.00543848
3.69863e-07
0.0051033
7.18941e-06
0.0052222
7.95327e-05
0.00523259
9.96386e-05
0.00523194
0.000111851
0.00522883
0.000128307
0.00522379
0.000151409
0.00521666
0.000177315
0.00520718
0.000206267
0.00519526
0.000236979
0.00518099
0.000268609
0.00516439
0.000301206
0.00514548
0.000335006
0.00512423
0.0003702
0.00510064
0.000406826
0.00507465
0.000444979
0.00504628
0.000484715
0.00501542
0.000526215
0.00498208
0.000569584
0.00494612
0.000615056
0.00490753
0.000662757
0.00486616
0.000712964
0.00482195
0.000765834
0.00477473
0.000821687
0.0047244
0.000880723
0.0046708
0.0009433
0.00461373
0.00100969
0.00455304
0.00108027
0.00448843
0.00115543
0.00441975
0.00123554
0.00434656
0.00132115
0.00426867
0.00141263
0.00418551
0.00151073
0.00409675
0.00161583
0.00400166
0.00172889
0.00389959
0.0018504
0.0037897
0.00198142
0.00367064
0.00212289
0.00354145
0.00227556
0.00339944
0.00244168
0.0032435
0.00262048
0.00307142
0.00281429
0.00287663
0.0030278
0.00265176
0.00326116
0.00239135
0.00351442
0.00208588
0.00378993
0.00171796
0.00409027
0.00126607
0.00441107
0.000701234
0.00474071
0.0050262
0.00564083
3.49753e-07
0.00529304
7.09415e-06
0.00541865
7.83408e-05
0.00543157
9.87086e-05
0.00543316
0.000111703
0.00543197
0.000129605
0.00542855
0.000154838
0.00542275
0.000183111
0.00541427
0.000214756
0.00540317
0.000248076
0.0053896
0.000282185
0.00537365
0.000317158
0.00535535
0.000353311
0.0053347
0.000390845
0.0053117
0.000429824
0.00528637
0.00047031
0.00525866
0.000512426
0.00522859
0.000556291
0.00519606
0.000602113
0.00516108
0.00065003
0.00512353
0.000700306
0.00508341
0.000753086
0.00504054
0.0008087
0.00499492
0.000867299
0.00494635
0.000929299
0.00489479
0.000994855
0.00483999
0.00106448
0.00478191
0.00113835
0.00472024
0.00121709
0.00465486
0.00130091
0.00458547
0.00139053
0.00451178
0.00148632
0.00443349
0.00158901
0.00435007
0.00169924
0.00426122
0.00181773
0.00416603
0.00194559
0.00406419
0.00208325
0.00395409
0.00223297
0.00383572
0.00239393
0.0037088
0.00256859
0.00356678
0.0027625
0.00340581
0.00297526
0.00322577
0.00320783
0.00302103
0.00346589
0.00278106
0.00375439
0.00249007
0.00408091
0.00212831
0.00445203
0.0016543
0.00488508
0.000999265
0.00539573
0.00602545
0.00585086
1.93002e-07
0.00548955
7.16263e-06
0.00562307
7.43458e-05
0.00563959
9.44723e-05
0.00564412
0.000108742
0.00564552
0.000128325
0.00564412
0.000156242
0.00563985
0.00018738
0.00563252
0.000222097
0.00562229
0.000258305
0.00560944
0.000295032
0.00559416
0.000332447
0.00557647
0.000371
0.00555645
0.00041086
0.00553411
0.000452172
0.00550948
0.000494939
0.00548256
0.000539344
0.00545337
0.00058548
0.00542187
0.000633609
0.00538805
0.00068385
0.00535185
0.0007365
0.00531324
0.000791703
0.00527214
0.000849794
0.00522847
0.000910962
0.00518219
0.000975575
0.00513315
0.00104389
0.00508132
0.0011163
0.00502648
0.00119319
0.00496863
0.00127493
0.00490746
0.00136208
0.00484295
0.00145503
0.00477471
0.00155455
0.00470269
0.00166103
0.0046264
0.00177552
0.0045456
0.00189853
0.00445938
0.0020318
0.00436864
0.00217398
0.0042738
0.00232781
0.00416941
0.00249832
0.00405336
0.00268464
0.00392864
0.00288721
0.00379284
0.00311105
0.00364117
0.0033595
0.00346861
0.00363844
0.00326843
0.00395456
0.00302845
0.00432089
0.00272144
0.00475903
0.0022983
0.00530821
0.00164576
0.00604827
0.0076712
0.00846024
1.37126e-07
0.00793526
6.22164e-06
0.00813425
6.47161e-05
0.00816372
8.29688e-05
0.00817637
9.83914e-05
0.00818336
0.000121508
0.00818561
0.000154003
0.00818294
0.000190044
0.00817535
0.000229693
0.00816337
0.000270289
0.00814762
0.000310783
0.00812842
0.000351645
0.00810597
0.00039345
0.00808032
0.000436514
0.00805161
0.000480883
0.00801987
0.000526677
0.00798522
0.000573989
0.00794765
0.000623059
0.00790722
0.000674034
0.00786387
0.000727195
0.00781768
0.000782693
0.00776853
0.000840848
0.00771649
0.00090183
0.00766144
0.00096601
0.00760342
0.00103359
0.00754232
0.00110499
0.00747814
0.00118047
0.00741081
0.00126052
0.00734027
0.00134546
0.00726648
0.00143586
0.00718933
0.00153217
0.00710885
0.00163502
0.00702469
0.00174518
0.00693738
0.00186283
0.00684751
0.00198839
0.00675546
0.00212384
0.00665657
0.00227287
0.00655062
0.00243374
0.00644174
0.00260719
0.00633062
0.00279575
0.00621372
0.0030041
0.00609252
0.00323225
0.00596531
0.0034867
0.00583384
0.0037699
0.00570022
0.00408818
0.00557191
0.0044492
0.00548221
0.00484872
0.00550605
0.00528437
0.00591257
0.00564176
0.00547745
0.00810632
0.00846204
1.06247e-07
0.00793467
3.85757e-06
0.00814841
4.22808e-05
0.00818869
6.08355e-05
0.00821065
7.87689e-05
0.00822463
0.000107708
0.00823093
0.000147702
0.00823052
0.000190454
0.00822384
0.000236375
0.00821272
0.000281414
0.00819815
0.000325352
0.00818046
0.000369342
0.00815974
0.000414171
0.00813616
0.000460092
0.00810986
0.000507178
0.00808102
0.000555521
0.0080497
0.00060531
0.008016
0.000656757
0.00797993
0.000710102
0.00794157
0.00076555
0.0079009
0.000823361
0.00785801
0.000883742
0.00781283
0.000946999
0.0077655
0.00101334
0.00771593
0.00108315
0.00766428
0.00115664
0.00761048
0.00123427
0.00755471
0.00131628
0.00749692
0.00140325
0.00743731
0.00149546
0.00737571
0.00159377
0.00731331
0.00169742
0.00725075
0.00180773
0.00718648
0.00192709
0.00711897
0.00205589
0.00704929
0.00219351
0.00698159
0.00234056
0.00691583
0.0024995
0.00685173
0.00267128
0.00679009
0.00285738
0.00673536
0.00305882
0.00668804
0.00327956
0.00665822
0.0035165
0.00664916
0.00377895
0.00668161
0.00405572
0.00677839
0.00435241
0.0069854
0.00464171
0.00738528
0.00488448
0.0080023
0.00502474
0.00467573
0.00880401
0.00846276
1.53951e-07
0.00793435
7.4056e-07
0.00816344
5.44929e-06
0.00822209
2.0406e-05
0.00825921
4.40102e-05
0.00828286
8.42379e-05
0.00829423
0.000136334
0.00829478
0.000189903
0.008289
0.00024216
0.00827931
0.000291101
0.00826638
0.000338283
0.0082503
0.00038543
0.00823124
0.000433227
0.00820948
0.00048185
0.00818528
0.000531376
0.00815886
0.000581942
0.00813033
0.00063384
0.0080998
0.000687283
0.00806735
0.000742548
0.00803308
0.000799818
0.00799706
0.000859381
0.00795938
0.000921422
0.00792012
0.000986253
0.0078794
0.00105407
0.00783733
0.00112521
0.00779405
0.00119991
0.00774973
0.00127858
0.00770449
0.00136151
0.00765879
0.00144895
0.00761346
0.00154078
0.00756919
0.00163803
0.00752369
0.00174292
0.00747701
0.00185441
0.00743186
0.00197223
0.00739034
0.0020974
0.00735196
0.00223188
0.0073177
0.00237481
0.00728818
0.00252901
0.00726691
0.00269254
0.00725471
0.00286957
0.00725674
0.00305678
0.0072778
0.00325849
0.00732451
0.00346979
0.00741248
0.00369097
0.00755098
0.00391722
0.00777038
0.00413301
0.00808336
0.00432872
0.00850965
0.00445819
0.00902961
0.00450477
0.00424748
0.00945785
0.00846135
1.30353e-06
0.00794064
-9.86694e-06
0.00821696
-7.85385e-05
0.00830513
-4.95504e-05
0.00835093
5.87411e-07
0.00837146
6.38848e-05
0.00837579
0.000132008
0.00837155
0.000194137
0.00836387
0.000249855
0.00835448
0.000300494
0.00834253
0.000350228
0.00832769
0.000400273
0.0083103
0.000450622
0.00829067
0.00050148
0.00826921
0.000552832
0.00824605
0.000605098
0.00822126
0.000658633
0.0081949
0.000713638
0.00816706
0.000770391
0.0081378
0.000829072
0.0081072
0.000889976
0.00807535
0.000953273
0.00804236
0.00101924
0.00800835
0.00108807
0.00797353
0.00116003
0.00793799
0.00123545
0.0079024
0.00131416
0.00786737
0.00139654
0.00783273
0.00148359
0.00779729
0.00157621
0.00776185
0.00167347
0.00772924
0.00177552
0.00770027
0.00188337
0.00767461
0.00199788
0.00765356
0.00211844
0.00763848
0.00224695
0.00763115
0.00238214
0.00763385
0.0025263
0.0076483
0.00267808
0.00767945
0.00283841
0.00772888
0.00300734
0.00780544
0.00318192
0.0079118
0.00336341
0.00805987
0.00354288
0.00825789
0.00371919
0.00851372
0.00387718
0.00883801
0.00400442
0.00921558
0.00408061
0.00966945
0.00405089
0.00392812
0.0099888
0.00845146
9.93932e-06
0.00798011
-6.57346e-05
0.00836235
-0.000271188
0.00854406
-0.000213136
0.00858716
-4.02013e-05
0.00857808
7.31504e-05
0.00856142
0.000148673
0.00854567
0.000209877
0.00853305
0.000262483
0.00852004
0.000313514
0.00850392
0.000366341
0.00848492
0.000419282
0.00846382
0.000471724
0.00844147
0.000523827
0.00841781
0.000576495
0.00839292
0.000629981
0.00836699
0.000684566
0.00834014
0.00074049
0.00831251
0.000798017
0.00828422
0.000857361
0.00825541
0.000918787
0.00822616
0.000982513
0.00819665
0.00104875
0.00816713
0.00111759
0.00813814
0.00118902
0.00811007
0.00126351
0.00808196
0.00134227
0.00805373
0.00142476
0.00802655
0.00151077
0.0080021
0.00160066
0.00798031
0.00169524
0.00796138
0.00179446
0.00794598
0.00189876
0.00793571
0.00200815
0.00793095
0.0021232
0.00793441
0.00224348
0.00794641
0.00237013
0.00797133
0.00250137
0.00800978
0.00263963
0.00806716
0.00278102
0.00814626
0.00292823
0.00825217
0.00307601
0.00839114
0.00322443
0.00856604
0.00336798
0.00878541
0.0034998
0.00904785
0.00361474
0.00935638
0.00369587
0.00970168
0.00373531
0.0100485
0.00370401
0.00359513
0.0103815
0.00851924
1.56709e-05
0.008248
-0.00039473
0.00879286
-0.000604915
0.00889098
-0.000291195
0.0088724
-1.8642e-05
0.00880452
0.000141259
0.00877257
0.000180629
0.00875265
0.000229789
0.00874295
0.000272191
0.00872842
0.000328049
0.00870945
0.000385311
0.00868839
0.000440343
0.00866637
0.000493749
0.00864335
0.000546849
0.00861935
0.000600489
0.00859429
0.000655043
0.00856814
0.000710718
0.00854097
0.00076765
0.00851292
0.000826069
0.00848414
0.000886145
0.00845468
0.000948241
0.00842491
0.00101227
0.00839534
0.00107832
0.00836621
0.00114672
0.00833672
0.0012185
0.00830755
0.00129267
0.00828048
0.00136934
0.0082564
0.00144883
0.00823494
0.00153222
0.00821698
0.00161861
0.00820276
0.00170946
0.00819364
0.00180358
0.0081897
0.00190269
0.00819273
0.00200511
0.00820302
0.0021129
0.00822261
0.00222389
0.00825256
0.00234017
0.0082948
0.00245913
0.00835246
0.00258196
0.00842667
0.0027068
0.00852299
0.00283191
0.00864198
0.00295701
0.00879056
0.00307583
0.00896899
0.00318955
0.00918212
0.00328666
0.00942895
0.00336789
0.00970705
0.00341776
0.0100118
0.00343052
0.0103151
0.00340072
0.00330264
0.0106076
0.00816089
3.0859e-06
0.00784786