/*--------------------------------*- C++ -*----------------------------------*\
| =========                 |                                                 |
| \\      /  F ield         | OpenFOAM: The Open Source CFD Toolbox           |
|  \\    /   O peration     | Version:  2412                                  |
|   \\  /    A nd           | Website:  www.openfoam.com                      |
|    \\/     M anipulation  |                                                 |
\*---------------------------------------------------------------------------*/
FoamFile
{
    version     2.0;
    format      ascii;
    arch        "LSB;label=32;scalar=64";
    class       volScalarField;
    location    "18.5";
    object      T;
}
// * * * * * * * * * * * * * * * * * * * * * * * * * * * * * * * * * * * * * //

dimensions      [0 0 0 1 0 0 0];

internalField   nonuniform List<scalar> 
7000
(
1.31909
2.65672
2.71964
2.66986
2.66464
2.64791
2.64449
2.64723
2.64928
2.65148
2.65274
2.65374
2.65488
2.65622
2.65773
2.65935
2.66109
2.66294
2.66491
2.66701
2.66923
2.67158
2.67404
2.67665
2.67935
2.6822
2.68513
2.68821
2.69137
2.69466
2.69801
2.70148
2.70498
2.70858
2.71219
2.71586
2.71949
2.72313
2.72668
2.73019
2.73352
2.73675
2.73972
2.7425
2.74494
2.74708
2.74884
2.75021
2.75117
2.75174
1.31916
2.65693
2.71989
2.66996
2.66477
2.64803
2.64462
2.64735
2.6494
2.65159
2.65285
2.65385
2.65499
2.65633
2.65784
2.65946
2.66119
2.66304
2.66501
2.66711
2.66932
2.67167
2.67413
2.67673
2.67943
2.68227
2.6852
2.68828
2.69143
2.69471
2.69806
2.70152
2.70502
2.70861
2.71221
2.71587
2.71949
2.72312
2.72666
2.73015
2.73348
2.73668
2.73965
2.74239
2.74484
2.74693
2.7487
2.74996
2.75092
2.75129
1.31913
2.65684
2.71978
2.66994
2.66473
2.64798
2.64455
2.64731
2.64931
2.65154
2.65275
2.65379
2.65488
2.65627
2.65772
2.65939
2.66107
2.66296
2.66488
2.66702
2.66918
2.67157
2.67398
2.67662
2.67927
2.68214
2.68503
2.68813
2.69124
2.69455
2.69785
2.70134
2.7048
2.70842
2.71199
2.71566
2.71927
2.72291
2.72645
2.72993
2.73328
2.73645
2.73946
2.74214
2.74462
2.74669
2.74844
2.74976
2.75061
2.75106
1.31911
2.65667
2.7196
2.66993
2.66468
2.64787
2.64446
2.64716
2.64924
2.65138
2.65266
2.65361
2.65479
2.65608
2.65762
2.65918
2.66096
2.66274
2.66476
2.66677
2.66905
2.6713
2.67384
2.67632
2.67911
2.68182
2.68485
2.68778
2.69104
2.69416
2.69763
2.70091
2.70455
2.70795
2.71169
2.71516
2.71891
2.72238
2.72603
2.72942
2.73281
2.73601
2.73894
2.7418
2.74406
2.74628
2.74796
2.74918
2.75022
2.75042
1.31907
2.65644
2.71937
2.66996
2.66463
2.64774
2.64434
2.64695
2.64917
2.65115
2.65257
2.65337
2.65468
2.65582
2.65748
2.6589
2.66079
2.66244
2.66456
2.66646
2.66882
2.67097
2.67356
2.67597
2.67877
2.68146
2.68446
2.68741
2.69058
2.69379
2.6971
2.70054
2.70394
2.70759
2.71101
2.71479
2.71816
2.72198
2.72519
2.72893
2.73192
2.73535
2.73816
2.74096
2.74357
2.74535
2.74734
2.74857
2.74925
2.74984
1.31903
2.65615
2.71908
2.67
2.66458
2.64761
2.64415
2.64695
2.64881
2.65113
2.65218
2.65333
2.65426
2.65577
2.65704
2.65883
2.66031
2.66235
2.66403
2.66634
2.66824
2.67082
2.67293
2.67577
2.6781
2.68119
2.68373
2.68706
2.6898
2.69334
2.69629
2.69997
2.70312
2.70687
2.71021
2.71394
2.71743
2.721
2.72459
2.72784
2.73139
2.73409
2.73742
2.73977
2.74245
2.74468
2.74604
2.74759
2.74854
2.74854
1.31898
2.65579
2.71872
2.67005
2.66452
2.64741
2.64395
2.64668
2.64863
2.65083
2.65198
2.653
2.65405
2.6554
2.65681
2.65842
2.66008
2.66189
2.6638
2.66582
2.668
2.67023
2.67268
2.67511
2.67784
2.68044
2.68344
2.68619
2.68947
2.69235
2.69587
2.69885
2.70258
2.70566
2.70949
2.71267
2.71649
2.71974
2.7234
2.72669
2.73001
2.73332
2.73586
2.73887
2.74087
2.74321
2.74512
2.74607
2.7468
2.74756
1.31892
2.65536
2.71828
2.67012
2.66444
2.64716
2.6437
2.64636
2.6484
2.65047
2.65171
2.65261
2.65374
2.65497
2.65645
2.65796
2.65966
2.66139
2.66332
2.66529
2.66745
2.66966
2.67205
2.67451
2.6771
2.67982
2.6826
2.68558
2.6885
2.69174
2.69477
2.69825
2.70132
2.70501
2.70805
2.71187
2.7149
2.7187
2.72173
2.72532
2.72836
2.73151
2.73469
2.73696
2.73969
2.74139
2.74303
2.74479
2.74565
2.74542
1.31885
2.65484
2.71776
2.67021
2.66435
2.64689
2.64339
2.64609
2.64801
2.65015
2.65128
2.65225
2.65326
2.65457
2.65594
2.65751
2.6591
2.66088
2.66271
2.66471
2.66677
2.66901
2.6713
2.67376
2.67629
2.67895
2.68171
2.68457
2.68754
2.69056
2.69374
2.69688
2.70028
2.70344
2.70705
2.71012
2.71387
2.71679
2.72055
2.72327
2.72683
2.72946
2.73244
2.73537
2.7371
2.73981
2.74124
2.74211
2.74285
2.74388
1.31877
2.65423
2.71715
2.67031
2.66425
2.64655
2.64303
2.64563
2.64768
2.64965
2.65089
2.65169
2.65283
2.65396
2.65545
2.65685
2.65855
2.66017
2.66208
2.66393
2.66607
2.66815
2.67051
2.67281
2.67538
2.67791
2.68068
2.68341
2.68636
2.68928
2.69239
2.69548
2.6987
2.70194
2.7052
2.70856
2.71175
2.7152
2.71817
2.72167
2.72424
2.72766
2.7298
2.7328
2.73523
2.73645
2.7387
2.74023
2.74104
2.74054
1.31867
2.65353
2.71644
2.67042
2.66413
2.64618
2.64259
2.64528
2.6471
2.64924
2.65026
2.65123
2.65214
2.65344
2.6547
2.65626
2.65773
2.6595
2.66119
2.66318
2.6651
2.6673
2.66944
2.67185
2.6742
2.67681
2.67937
2.68216
2.68491
2.68785
2.69079
2.69385
2.69693
2.70006
2.70326
2.7064
2.70965
2.71273
2.71597
2.71887
2.72198
2.72453
2.72742
2.72939
2.73203
2.7343
2.73505
2.73604
2.73674
2.73815
1.31857
2.65272
2.71564
2.67055
2.66399
2.64571
2.64211
2.64465
2.64667
2.64853
2.64976
2.65045
2.65157
2.6526
2.65407
2.65534
2.65702
2.6585
2.6604
2.66208
2.6642
2.66609
2.66842
2.67051
2.67305
2.67533
2.67805
2.68052
2.68341
2.68605
2.68906
2.69185
2.69495
2.69786
2.70098
2.70399
2.70703
2.71013
2.71296
2.7161
2.71859
2.72165
2.72374
2.72632
2.72789
2.72973
2.73205
2.73321
2.7339
2.73301
1.31844
2.65181
2.71472
2.67072
2.66381
2.64523
2.64153
2.64412
2.64596
2.64793
2.64897
2.64978
2.6507
2.65185
2.65311
2.65452
2.65597
2.65759
2.65924
2.66107
2.66291
2.66496
2.66699
2.66925
2.67146
2.67391
2.67628
2.67891
2.68142
2.68421
2.68684
2.68977
2.69247
2.69549
2.69821
2.70128
2.70396
2.707
2.70961
2.71244
2.71502
2.71734
2.72003
2.72169
2.72414
2.72536
2.72595
2.7268
2.72734
2.72921
1.31832
2.65081
2.71363
2.67114
2.66338
2.64467
2.64088
2.64342
2.64525
2.64712
2.64817
2.64888
2.64984
2.65086
2.65216
2.65343
2.65493
2.65638
2.65809
2.65973
2.66165
2.66347
2.66559
2.66759
2.66989
2.67205
2.67452
2.67683
2.67943
2.68188
2.68458
2.68714
2.68988
2.69255
2.69527
2.69798
2.70063
2.70328
2.70586
2.7083
2.71073
2.71286
2.71476
2.71677
2.7178
2.71993
2.72151
2.7223
2.72265
2.72105
1.31818
2.64974
2.71235
2.67185
2.66267
2.64403
2.64014
2.64258
2.64444
2.64617
2.64727
2.64786
2.64883
2.64975
2.65104
2.65221
2.65369
2.65506
2.65671
2.6583
2.66011
2.6619
2.66386
2.66586
2.66793
2.67014
2.67229
2.67471
2.67691
2.6795
2.68172
2.68444
2.68666
2.68944
2.69165
2.69436
2.69657
2.69906
2.70126
2.70346
2.70551
2.70747
2.70922
2.71056
2.7119
2.7118
2.7122
2.71233
2.71289
2.71464
1.31803
2.64852
2.71101
2.6724
2.66204
2.64333
2.63929
2.64177
2.6434
2.64524
2.64612
2.64683
2.64757
2.64862
2.64967
2.65098
2.65218
2.6537
2.65506
2.65678
2.65829
2.66021
2.66185
2.66395
2.66572
2.66797
2.66986
2.67221
2.67423
2.67662
2.67877
2.68112
2.6834
2.68561
2.68799
2.69
2.69236
2.69415
2.69626
2.69785
2.69946
2.70074
2.70197
2.70298
2.70351
2.70486
2.7045
2.70444
2.70313
2.70079
1.31786
2.64718
2.70955
2.67296
2.66136
2.64253
2.63832
2.64086
2.64224
2.64418
2.64485
2.64565
2.6462
2.64731
2.64818
2.64953
2.65058
2.65208
2.65332
2.65497
2.6564
2.65817
2.65978
2.66165
2.66343
2.66536
2.6673
2.66925
2.67134
2.67328
2.67544
2.67736
2.67951
2.68141
2.68341
2.68531
2.687
2.68888
2.69015
2.69176
2.69271
2.69351
2.69381
2.6939
2.69324
2.6914
2.69071
2.68854
2.68786
2.68779
1.31768
2.64573
2.708
2.67353
2.66062
2.64161
2.63727
2.63964
2.64112
2.64279
2.64361
2.64413
2.64485
2.64566
2.64671
2.64773
2.64897
2.65013
2.65155
2.65284
2.65443
2.65584
2.65757
2.65909
2.66093
2.66255
2.66445
2.66616
2.66806
2.66985
2.67167
2.67352
2.67517
2.67699
2.67841
2.68006
2.68124
2.68242
2.68346
2.68383
2.68463
2.68455
2.68418
2.68321
2.68203
2.68037
2.67606
2.67249
2.66665
2.66065
1.31749
2.64419
2.70635
2.67411
2.65981
2.6406
2.63607
2.63832
2.63978
2.6413
2.64214
2.64254
2.64324
2.64394
2.64494
2.64588
2.64701
2.64812
2.64937
2.65065
2.65199
2.65343
2.65484
2.65641
2.65785
2.65954
2.66099
2.66276
2.66417
2.66596
2.66733
2.66904
2.67035
2.67183
2.67307
2.67412
2.6752
2.67557
2.67621
2.67605
2.67519
2.67443
2.672
2.66988
2.66522
2.65988
2.65471
2.64495
2.63529
2.62268
1.31728
2.64259
2.70467
2.67468
2.65887
2.63948
2.63469
2.637
2.63811
2.63979
2.64036
2.64093
2.64135
2.64223
2.64291
2.64403
2.64485
2.6461
2.64705
2.64842
2.64948
2.65093
2.65209
2.65359
2.65482
2.65631
2.6576
2.65902
2.66033
2.66161
2.66291
2.66395
2.66516
2.66589
2.66688
2.66718
2.66784
2.66772
2.66737
2.66652
2.66544
2.66278
2.66057
2.65527
2.65061
2.64063
2.6278
2.61088
2.582
2.51098
1.31729
2.64174
2.70012
2.67518
2.65745
2.63772
2.63261
2.63471
2.63584
2.63723
2.63794
2.63821
2.63876
2.63929
2.64015
2.64087
2.64188
2.6427
2.64383
2.64473
2.64596
2.64693
2.64822
2.64921
2.65054
2.65151
2.65282
2.65372
2.65494
2.65573
2.65674
2.65735
2.658
2.65831
2.65852
2.6582
2.65761
2.65671
2.65481
2.65277
2.64866
2.64507
2.63743
2.63135
2.61839
2.60617
2.58342
2.54728
2.48951
2.36393
1.31727
2.64076
2.6954
2.67536
2.65554
2.63534
2.62973
2.63181
2.63268
2.63411
2.63473
2.63503
2.63542
2.63596
2.6366
2.63733
2.63808
2.63891
2.63972
2.64063
2.64148
2.64243
2.64328
2.64425
2.64505
2.646
2.64669
2.64755
2.64806
2.64878
2.64901
2.64952
2.64948
2.6493
2.64883
2.64825
2.64673
2.64546
2.64235
2.63992
2.63484
2.62888
2.62125
2.60781
2.59487
2.56848
2.54175
2.49167
2.41715
2.31786
1.31724
2.6401
2.69294
2.67519
2.65396
2.63306
2.62682
2.62865
2.62943
2.63085
2.63143
2.63167
2.63196
2.63241
2.63296
2.63359
2.63424
2.63494
2.63564
2.6364
2.63713
2.6379
2.63861
2.63935
2.64
2.64063
2.64114
2.64158
2.64184
2.64201
2.64184
2.64146
2.64092
2.63973
2.6385
2.63616
2.63407
2.63015
2.62704
2.62074
2.61611
2.60609
2.59862
2.58342
2.56669
2.54287
2.50644
2.46393
2.39202
2.31835
1.31712
2.63896
2.69213
2.674
2.65202
2.63026
2.62356
2.6255
2.62634
2.62785
2.62838
2.62844
2.62854
2.62881
2.62906
2.62951
2.62982
2.63031
2.63065
2.63117
2.63154
2.63208
2.63246
2.63299
2.63336
2.63383
2.63414
2.63454
2.63465
2.63472
2.63461
2.63427
2.63369
2.6324
2.63114
2.62835
2.62602
2.62113
2.61674
2.60949
2.60128
2.59128
2.57729
2.56323
2.54109
2.51819
2.48441
2.44384
2.39087
2.32877
1.31687
2.64008
2.70383
2.67066
2.65203
2.62865
2.62144
2.62416
2.62512
2.62697
2.62745
2.62739
2.62735
2.62739
2.62747
2.62758
2.62764
2.62767
2.62765
2.62761
2.62753
2.62736
2.6272
2.62686
2.62659
2.62611
2.62574
2.62493
2.62445
2.62335
2.6227
2.62123
2.62036
2.61834
2.61703
2.61423
2.61167
2.60787
2.60269
2.59708
2.58807
2.5787
2.56468
2.54869
2.52839
2.50247
2.47339
2.4346
2.39194
2.34471
1.30176
2.58648
2.69838
2.67711
2.65959
2.63607
2.62917
2.63207
2.63313
2.63465
2.63452
2.63408
2.63341
2.63287
2.63228
2.63175
2.63112
2.63056
2.6299
2.62935
2.62867
2.62815
2.62742
2.62693
2.62604
2.6255
2.62426
2.62334
2.62149
2.62017
2.6175
2.61571
2.61217
2.60993
2.60544
2.60267
2.59698
2.59344
2.58637
2.58076
2.57192
2.56251
2.55062
2.53523
2.51796
2.49452
2.46881
2.43582
2.39819
2.358
1.72056
2.4688
2.72862
2.70675
2.68426
2.67395
2.67447
2.67601
2.67741
2.67769
2.6765
2.67505
2.67342
2.67164
2.66967
2.66748
2.66507
2.66246
2.65963
2.65668
2.65346
2.65022
2.64666
2.64321
2.63923
2.63531
2.63088
2.62778
2.62394
2.62136
2.61772
2.61498
2.61074
2.60702
2.60187
2.59675
2.59069
2.58363
2.57678
2.5673
2.55919
2.54679
2.5363
2.52021
2.50545
2.4844
2.46315
2.43558
2.40587
2.37308
1.73247
2.46189
2.72311
2.70201
2.67732
2.66833
2.67222
2.67391
2.6766
2.67742
2.67762
2.67748
2.67722
2.67693
2.67625
2.67564
2.67432
2.67336
2.67133
2.67001
2.66728
2.66556
2.66216
2.65985
2.65595
2.6533
2.64893
2.64475
2.63918
2.6337
2.62718
2.62095
2.61482
2.60876
2.60312
2.59602
2.59007
2.58125
2.57379
2.56294
2.55332
2.5402
2.52766
2.512
2.49568
2.47682
2.45598
2.43306
2.40765
2.38157
1.72922
2.46744
2.7251
2.70232
2.67376
2.66427
2.6691
2.67153
2.67469
2.67581
2.67616
2.6763
2.67647
2.67645
2.67635
2.6761
2.6755
2.6751
2.67419
2.67347
2.6719
2.67082
2.66864
2.66684
2.66407
2.66133
2.65801
2.65428
2.65023
2.64523
2.64059
2.634
2.62801
2.61895
2.61176
2.6016
2.59368
2.58337
2.57482
2.56358
2.55325
2.5404
2.52738
2.51215
2.49606
2.47777
2.45798
2.43619
2.41267
2.38972
1.73192
2.46074
2.72056
2.69683
2.67068
2.66102
2.66557
2.66782
2.67099
2.67225
2.67265
2.67293
2.67327
2.67357
2.67384
2.67387
2.67379
2.67354
2.67311
2.67241
2.67173
2.67042
2.66945
2.66744
2.66612
2.66341
2.66162
2.65791
2.65552
2.6506
2.64751
2.64123
2.63699
2.62944
2.62334
2.61412
2.6056
2.59422
2.58341
2.57061
2.55806
2.54431
2.5304
2.51509
2.499
2.48139
2.46321
2.44316
2.4221
2.4014
1.7411
2.44258
2.70902
2.68447
2.66694
2.65756
2.6605
2.66221
2.6653
2.66636
2.66702
2.6671
2.66733
2.66745
2.66758
2.66758
2.66753
2.66736
2.66718
2.66671
2.66637
2.66557
2.66499
2.66373
2.66279
2.66074
2.65936
2.65638
2.65444
2.65042
2.64753
2.64257
2.63848
2.63249
2.62682
2.61951
2.6121
2.60306
2.59338
2.58215
2.57001
2.55607
2.54144
2.52536
2.50903
2.49129
2.47306
2.45376
2.43374
2.41423
1.73605
2.43615
2.70566
2.67693
2.66914
2.65589
2.656
2.658
2.661
2.66212
2.66319
2.66329
2.66357
2.66376
2.66392
2.664
2.66398
2.66388
2.66372
2.66338
2.66308
2.66241
2.6619
2.6608
2.66001
2.65829
2.65711
2.65461
2.65287
2.64956
2.64685
2.64266
2.63866
2.63353
2.62835
2.62195
2.61531
2.60741
2.59912
2.5895
2.57927
2.56754
2.555
2.54085
2.52577
2.5093
2.49205
2.47371
2.45459
2.43596
1.35695
2.4672
2.67915
2.66847
2.64647
2.62382
2.61677
2.6208
2.62277
2.62565
2.62707
2.6281
2.6289
2.62991
2.63062
2.63171
2.63236
2.63333
2.63383
2.63466
2.63498
2.63571
2.63583
2.63601
2.63602
2.63591
2.63568
2.63509
2.63451
2.63331
2.63214
2.63024
2.62825
2.62527
2.62204
2.61745
2.61242
2.60604
2.59912
2.59086
2.58216
2.57206
2.56143
2.54957
2.53684
2.52293
2.5081
2.49223
2.47543
2.45897
1.36037
2.47675
2.68629
2.67707
2.65245
2.62347
2.61384
2.61466
2.61664
2.6186
2.61942
2.61951
2.61971
2.61974
2.62
2.62034
2.62071
2.62103
2.62137
2.6216
2.62187
2.62196
2.62212
2.62203
2.62186
2.62147
2.62108
2.6202
2.6195
2.61802
2.61685
2.61465
2.61271
2.60977
2.60692
2.60339
2.59972
2.59527
2.59031
2.58466
2.57795
2.57037
2.56137
2.55146
2.54061
2.52895
2.51658
2.50336
2.48926
2.47546
1.34959
2.41248
2.66928
2.66952
2.6501
2.62371
2.61394
2.61399
2.61469
2.61525
2.61492
2.61405
2.6133
2.61227
2.6116
2.61091
2.61041
2.60976
2.60928
2.60864
2.60817
2.60753
2.60704
2.60636
2.6058
2.60502
2.60431
2.60348
2.60259
2.6015
2.60013
2.59858
2.59656
2.59439
2.59158
2.58861
2.58493
2.58105
2.5764
2.57131
2.56556
2.55946
2.55277
2.54546
2.53739
2.52803
2.5175
2.50642
2.49462
2.48325
1.74173
2.39649
2.67482
2.66123
2.65239
2.63849
2.63333
2.63358
2.63333
2.63305
2.63225
2.63102
2.62963
2.62796
2.62636
2.62477
2.62311
2.62138
2.61954
2.61768
2.61569
2.61372
2.61159
2.60951
2.60724
2.60512
2.60274
2.60064
2.59817
2.59574
2.59318
2.59055
2.58775
2.5847
2.58152
2.57789
2.57414
2.56975
2.56527
2.55998
2.55459
2.54828
2.5419
2.53456
2.52696
2.51894
2.5108
2.50177
2.49204
2.48245
1.34699
2.39544
2.66007
2.66577
2.64944
2.62414
2.61554
2.61418
2.61545
2.61571
2.61544
2.61509
2.6142
2.61327
2.61263
2.61177
2.61105
2.60998
2.60904
2.6077
2.60657
2.6052
2.60403
2.60254
2.60126
2.59941
2.59782
2.59531
2.5933
2.59059
2.58823
2.58516
2.58236
2.5788
2.57557
2.57165
2.56794
2.56355
2.55921
2.55422
2.54907
2.54329
2.53716
2.53052
2.52332
2.51574
2.50759
2.49917
2.4902
2.48158
1.34831
2.40632
2.66727
2.67124
2.65092
2.62219
2.61092
2.61073
2.6117
2.61241
2.61228
2.61159
2.61083
2.60984
2.60924
2.6085
2.6079
2.60701
2.6062
2.60507
2.60392
2.60225
2.60057
2.59841
2.59623
2.59374
2.59121
2.58841
2.58549
2.58239
2.57909
2.5757
2.57213
2.56857
2.56462
2.5607
2.5563
2.55201
2.54714
2.54245
2.53711
2.53199
2.52612
2.52042
2.51396
2.50757
2.50038
2.4931
2.48528
2.47793
1.34773
2.40198
2.6645
2.66928
2.64832
2.61889
2.60688
2.60674
2.60754
2.60845
2.60817
2.60732
2.6065
2.60539
2.60468
2.60393
2.6033
2.6025
2.60173
2.6008
2.59983
2.59868
2.5974
2.59592
2.5942
2.5923
2.59008
2.58771
2.58496
2.58207
2.57877
2.57538
2.57154
2.56767
2.56337
2.55899
2.55414
2.54919
2.54383
2.53831
2.5325
2.52647
2.52022
2.5137
2.50703
2.50003
2.493
2.48552
2.47797
2.47059
1.34489
2.37898
2.64733
2.6615
2.64235
2.61451
2.6027
2.60126
2.60156
2.6018
2.60114
2.60037
2.59903
2.59794
2.59686
2.59599
2.59495
2.59402
2.59287
2.59184
2.59057
2.58945
2.58807
2.58683
2.58532
2.5839
2.58216
2.58044
2.57838
2.57628
2.57382
2.57122
2.56823
2.56498
2.56135
2.55743
2.55322
2.54865
2.54381
2.53852
2.53303
2.52708
2.52096
2.51436
2.50763
2.50047
2.49323
2.48571
2.47809
2.47075
1.75135
2.37299
2.6455
2.64161
2.62814
2.61404
2.60917
2.60941
2.60939
2.60928
2.6087
2.60804
2.60682
2.60568
2.6044
2.60328
2.60191
2.6006
2.59903
2.59748
2.5957
2.59393
2.59195
2.58997
2.58778
2.58558
2.58319
2.58073
2.57811
2.57538
2.57258
2.56961
2.56655
2.56323
2.5598
2.556
2.55209
2.54775
2.54321
2.53825
2.53303
2.52742
2.52164
2.5155
2.50918
2.50253
2.49566
2.48849
2.48099
2.47384
1.34699
2.38861
2.65248
2.65977
2.63923
2.60888
2.59754
2.59618
2.5978
2.59912
2.59897
2.59846
2.59787
2.5966
2.59593
2.59471
2.59397
2.59249
2.59153
2.5898
2.58826
2.58642
2.58459
2.58246
2.58038
2.57815
2.57607
2.57377
2.57162
2.56916
2.56663
2.56373
2.56077
2.5575
2.55415
2.55053
2.54679
2.54281
2.53872
2.53439
2.52988
2.52507
2.51998
2.51454
2.50879
2.50273
2.4964
2.48987
2.48302
2.47646
1.35069
2.41187
2.65474
2.6488
2.62686
2.5963
2.58553
2.58579
2.58758
2.5895
2.58985
2.58961
2.58914
2.58837
2.58786
2.58734
2.58688
2.58626
2.5856
2.5848
2.58392
2.5829
2.58175
2.58043
2.57894
2.5771
2.57501
2.57262
2.56999
2.5671
2.5641
2.56091
2.55758
2.55406
2.55039
2.54653
2.54251
2.5383
2.53393
2.52937
2.52465
2.51974
2.51474
2.50962
2.50427
2.49877
2.49301
2.48705
2.48081
2.47484
1.77125
2.37207
2.63828
2.61741
2.61107
2.59576
2.59302
2.59378
2.59489
2.59617
2.59591
2.59543
2.59508
2.59442
2.59385
2.59327
2.5927
2.59202
2.5913
2.59048
2.58961
2.58861
2.58753
2.5863
2.58497
2.58346
2.5818
2.57992
2.57784
2.57544
2.5727
2.56967
2.56634
2.56274
2.55887
2.55477
2.55042
2.54586
2.54109
2.53615
2.53097
2.52561
2.51994
2.51412
2.50813
2.502
2.49579
2.48947
2.48304
2.47691
1.7978
2.35502
2.62628
2.60573
2.60255
2.59262
2.58923
2.58945
2.5897
2.59025
2.58999
2.58937
2.58874
2.5877
2.58668
2.58555
2.58437
2.58304
2.58164
2.5801
2.57852
2.57681
2.57512
2.57334
2.57158
2.56974
2.56793
2.56601
2.5641
2.56215
2.56027
2.55824
2.55626
2.55407
2.55185
2.54936
2.54677
2.54382
2.5405
2.53682
2.53292
2.52875
2.52434
2.51964
2.5147
2.50946
2.50393
2.49809
2.49199
2.48609
1.76262
2.38151
2.64993
2.61916
2.61337
2.59922
2.59605
2.59815
2.59963
2.60046
2.60019
2.59971
2.59865
2.59745
2.59617
2.59485
2.59341
2.5919
2.59025
2.58855
2.58674
2.5849
2.58281
2.58061
2.57816
2.57563
2.57286
2.57004
2.56698
2.56392
2.56063
2.55737
2.55391
2.5504
2.54669
2.54296
2.53903
2.53512
2.53123
2.52731
2.52324
2.51906
2.5147
2.51029
2.50569
2.50103
2.49616
2.49119
2.48596
2.48104
1.28615
2.4944
2.64464
2.64196
2.6167
2.58398
2.57192
2.57235
2.57499
2.57738
2.57864
2.57886
2.57909
2.57906
2.579
2.57892
2.57877
2.57845
2.57799
2.57733
2.57651
2.57546
2.5743
2.57295
2.57148
2.56977
2.56804
2.5659
2.56365
2.56126
2.55863
2.55585
2.55274
2.54955
2.54604
2.54247
2.5386
2.53468
2.5305
2.52629
2.52184
2.51738
2.51288
2.50815
2.50329
2.49821
2.49303
2.48763
2.48212
2.47686
1.77187
2.36709
2.63936
2.61682
2.61052
2.5951
2.59016
2.59106
2.59148
2.59307
2.5927
2.59213
2.59167
2.59088
2.59014
2.58928
2.58851
2.58754
2.58661
2.58546
2.58436
2.58301
2.58171
2.58015
2.57861
2.5768
2.57501
2.5729
2.57059
2.56798
2.56518
2.5621
2.55902
2.5557
2.55237
2.54876
2.54513
2.54117
2.5372
2.53288
2.52855
2.52385
2.51898
2.51391
2.50875
2.5034
2.49796
2.49234
2.48661
2.48113
1.77327
2.36529
2.63726
2.6149
2.60865
2.59335
2.58839
2.5895
2.59055
2.59164
2.59218
2.59168
2.59124
2.59044
2.58959
2.58865
2.58766
2.58652
2.58528
2.58389
2.58242
2.58082
2.57913
2.57735
2.57545
2.57349
2.5714
2.56929
2.56723
2.56507
2.5629
2.56057
2.55807
2.55536
2.55246
2.5494
2.54618
2.5428
2.53925
2.53554
2.53164
2.52761
2.52337
2.51899
2.5144
2.50969
2.50477
2.49974
2.49448
2.48939
1.28556
2.49081
2.64196
2.63929
2.61355
2.5789
2.56596
2.56546
2.56799
2.57005
2.57101
2.57095
2.57081
2.57042
2.57011
2.56964
2.56935
2.56872
2.56828
2.56738
2.56674
2.56557
2.56469
2.56325
2.56214
2.5605
2.55887
2.55709
2.55519
2.55317
2.55104
2.54883
2.54651
2.54409
2.54156
2.53889
2.53608
2.53313
2.53003
2.52675
2.52334
2.51973
2.51599
2.51207
2.50801
2.50377
2.49941
2.49485
2.49018
2.48564
1.76682
2.37275
2.64047
2.60975
2.60332
2.58735
2.58429
2.58647
2.58737
2.58949
2.58924
2.5887
2.58824
2.5874
2.58662
2.58573
2.58487
2.58382
2.58277
2.58154
2.58029
2.5789
2.57744
2.57587
2.5742
2.57244
2.57054
2.56856
2.56643
2.56419
2.56181
2.55919
2.55644
2.55347
2.55039
2.54708
2.54369
2.54008
2.53639
2.53259
2.5287
2.52467
2.52053
2.51625
2.51185
2.50732
2.50265
2.49787
2.49294
2.48821
1.79472
2.35584
2.62388
2.59578
2.59176
2.58006
2.57679
2.57798
2.57829
2.579
2.57882
2.57841
2.57795
2.57721
2.57649
2.57573
2.57492
2.57402
2.57303
2.57194
2.57077
2.5695
2.56814
2.56669
2.56515
2.56352
2.5618
2.55998
2.55807
2.55607
2.55398
2.55193
2.54976
2.54759
2.54528
2.54296
2.54046
2.53787
2.53504
2.53209
2.52889
2.52559
2.5221
2.51851
2.51472
2.51083
2.50674
2.50256
2.49814
2.49397
1.79932
2.35062
2.61885
2.59261
2.58896
2.57771
2.57389
2.57457
2.57475
2.57514
2.575
2.57458
2.57408
2.57333
2.57254
2.57177
2.5709
2.56997
2.56892
2.5678
2.56655
2.56523
2.56379
2.56226
2.5606
2.55886
2.55697
2.55501
2.5529
2.55071
2.54837
2.54595
2.54339
2.54075
2.53797
2.53511
2.53213
2.52912
2.52601
2.52285
2.51959
2.51624
2.51276
2.50918
2.50547
2.50167
2.49773
2.49367
2.48947
2.48546
1.77985
2.35584
2.6164
2.60289
2.5935
2.57705
2.57202
2.57249
2.5731
2.57372
2.5737
2.57323
2.5727
2.57187
2.57106
2.57028
2.56942
2.56851
2.56749
2.5664
2.56519
2.56392
2.56252
2.56105
2.55946
2.55778
2.55597
2.55407
2.55204
2.54991
2.54765
2.54528
2.54278
2.54016
2.53741
2.53454
2.53153
2.52841
2.52516
2.52179
2.5183
2.51468
2.51096
2.50711
2.50316
2.49907
2.49488
2.49056
2.48612
2.48187
1.34475
2.37975
2.63789
2.63731
2.61512
2.58165
2.56744
2.56506
2.56636
2.56748
2.56743
2.56717
2.56648
2.56548
2.56457
2.56378
2.56295
2.56208
2.56107
2.56001
2.55882
2.55756
2.55617
2.55471
2.55311
2.55144
2.54962
2.54771
2.54566
2.54351
2.54122
2.53883
2.53628
2.53364
2.53084
2.52794
2.52488
2.52172
2.51839
2.51497
2.51138
2.50769
2.50383
2.49988
2.49577
2.49157
2.4872
2.48278
2.47818
2.47379
1.346
2.38733
2.65278
2.65695
2.63091
2.5924
2.57486
2.57251
2.57415
2.57543
2.57588
2.57553
2.5747
2.57371
2.57265
2.57178
2.57089
2.56999
2.56896
2.56787
2.56666
2.56541
2.56403
2.56261
2.56106
2.55945
2.55771
2.55592
2.55398
2.55199
2.54985
2.54764
2.54529
2.54286
2.54028
2.53762
2.5348
2.5319
2.52884
2.52569
2.52237
2.51897
2.51539
2.51173
2.50789
2.50396
2.49987
2.49569
2.49134
2.48717
1.3451
2.37922
2.63627
2.63627
2.61336
2.58003
2.56486
2.56287
2.56422
2.56514
2.56555
2.56513
2.56442
2.56339
2.56245
2.56163
2.56082
2.55995
2.559
2.55795
2.55684
2.55565
2.55438
2.55302
2.55159
2.55006
2.54845
2.54674
2.54495
2.54304
2.54106
2.53895
2.53677
2.53446
2.53206
2.52954
2.52693
2.52418
2.52135
2.51837
2.51531
2.5121
2.5088
2.50535
2.50182
2.49813
2.49436
2.49042
2.4864
2.48248
1.78112
2.35414
2.61389
2.59959
2.5899
2.57202
2.56694
2.5673
2.56789
2.56893
2.56877
2.56822
2.56773
2.56685
2.56609
2.56527
2.56449
2.56356
2.56263
2.56154
2.56045
2.5592
2.55795
2.55653
2.55511
2.55352
2.55191
2.55014
2.54835
2.54639
2.5444
2.54224
2.54005
2.53768
2.53528
2.5327
2.53009
2.52729
2.52445
2.52143
2.51836
2.51511
2.51181
2.50833
2.50479
2.50107
2.4973
2.49333
2.48929
2.48535
1.80139
2.3471
2.61446
2.58726
2.58372
2.57245
2.56895
2.57003
2.57033
2.57076
2.57061
2.57008
2.56954
2.56863
2.56782
2.56692
2.56604
2.56501
2.56397
2.56276
2.56155
2.56018
2.55879
2.55724
2.55566
2.55392
2.55215
2.55021
2.54824
2.5461
2.54391
2.54156
2.53915
2.53658
2.53395
2.53116
2.5283
2.52528
2.52219
2.51894
2.51562
2.51214
2.50858
2.50486
2.50107
2.49712
2.49309
2.4889
2.48463
2.48049
1.78833
2.36073
2.62688
2.59527
2.58865
2.57454
2.57205
2.57408
2.57557
2.57649
2.57646
2.57594
2.57541
2.57457
2.57381
2.57297
2.57213
2.57115
2.57013
2.56899
2.5678
2.56649
2.56513
2.56365
2.5621
2.56044
2.5587
2.55684
2.55491
2.55285
2.55072
2.54845
2.5461
2.54362
2.54105
2.53835
2.53556
2.53263
2.52961
2.52645
2.5232
2.51981
2.51631
2.51268
2.50895
2.50509
2.50112
2.49702
2.49281
2.48876
2.17207
2.34467
2.76328
2.85969
2.87644
2.82984
2.82729
2.82636
2.81893
2.8177
2.82046
2.822
2.82309
2.8239
2.82537
2.82667
2.82846
2.83017
2.83144
2.83227
2.83256
2.83258
2.83112
2.83018
2.82687
2.82462
2.82031
2.81644
2.81128
2.80628
2.80032
2.79445
2.78782
2.78128
2.77434
2.7674
2.76012
2.75236
2.74408
2.73599
2.72768
2.71951
2.71113
2.70289
2.69452
2.68632
2.67806
2.66999
2.66193
2.6541
2.64633
2.63881
2.63142
2.62433
2.61741
2.61084
2.60451
2.59858
2.59294
2.58777
2.58296
2.57867
2.5748
2.57152
2.5687
2.56652
2.56483
2.56378
2.56321
2.56315
2.56327
2.56359
2.56444
2.56581
2.56794
2.57012
2.57242
2.57466
2.57696
2.57911
2.58121
2.58305
2.58478
2.58617
2.58741
2.58831
2.58905
2.58946
2.58974
2.58977
2.58968
2.58946
2.58913
2.58843
2.58766
2.58666
2.5858
2.58471
2.58381
2.58085
2.18021
2.26002
2.45008
2.62836
2.69654
2.73676
2.76608
2.79199
2.80721
2.82011
2.82835
2.83842
2.84429
2.84387
2.84003
2.83421
2.82664
2.81857
2.80909
2.79956
2.7891
2.77888
2.76806
2.75769
2.74657
2.73582
2.72442
2.71354
2.70211
2.69124
2.67988
2.66908
2.65786
2.64722
2.63641
2.62628
2.61588
2.6054
2.59452
2.58403
2.57374
2.56371
2.55377
2.54406
2.53447
2.52513
2.51594
2.50702
2.49827
2.48981
2.48154
2.47359
2.46585
2.45847
2.45134
2.4446
2.43814
2.43212
2.42643
2.42123
2.41641
2.41213
2.40829
2.40503
2.40226
2.4001
2.39846
2.39744
2.39692
2.39689
2.39711
2.39759
2.39862
2.40023
2.40263
2.40521
2.40792
2.41059
2.41328
2.41583
2.41826
2.42043
2.42238
2.42399
2.42534
2.42634
2.42707
2.42747
2.42761
2.42754
2.42737
2.42701
2.42661
2.42576
2.42494
2.42378
2.42289
2.42168
2.42089
2.41801
2.22672
2.21259
2.27125
2.35783
2.41105
2.45996
2.49378
2.52135
2.54285
2.55896
2.57105
2.58019
2.58705
2.58939
2.58861
2.58678
2.58265
2.57794
2.57223
2.56605
2.55916
2.55214
2.54466
2.53728
2.52939
2.52159
2.51331
2.50526
2.4968
2.48866
2.48014
2.47198
2.46345
2.45531
2.44703
2.43936
2.43148
2.42344
2.41488
2.40652
2.39839
2.39042
2.38252
2.37473
2.36702
2.35944
2.35196
2.34465
2.33745
2.33045
2.32359
2.31694
2.31047
2.30425
2.29824
2.29252
2.28704
2.2819
2.27705
2.27259
2.26846
2.26478
2.26148
2.25867
2.25628
2.25443
2.25303
2.25218
2.2518
2.25183
2.25208
2.25253
2.25347
2.25492
2.25712
2.25948
2.26201
2.26446
2.26694
2.26924
2.27146
2.2734
2.27517
2.27659
2.27779
2.27864
2.27927
2.27955
2.27966
2.27954
2.2794
2.27908
2.27871
2.27795
2.27724
2.2762
2.27544
2.27441
2.27392
2.27153
2.25956
2.22009
2.21568
2.24061
2.27133
2.2938
2.30905
2.32083
2.33137
2.34059
2.34824
2.35431
2.359
2.36258
2.36413
2.36435
2.36429
2.36416
2.36397
2.36368
2.3632
2.36256
2.36186
2.3606
2.35911
2.35735
2.35511
2.35264
2.34973
2.34665
2.34315
2.33952
2.33546
2.33135
2.32704
2.32298
2.31866
2.31393
2.30853
2.30302
2.29749
2.29204
2.28648
2.28094
2.27528
2.26967
2.26397
2.25836
2.25271
2.24719
2.24166
2.23629
2.23096
2.22584
2.2208
2.21601
2.21135
2.20699
2.20281
2.19898
2.19539
2.1922
2.18931
2.18687
2.18477
2.18317
2.18196
2.18127
2.18103
2.18116
2.18145
2.18191
2.18285
2.18425
2.18633
2.18855
2.19101
2.19336
2.19577
2.19796
2.20009
2.20191
2.20359
2.2049
2.20605
2.20682
2.20742
2.20766
2.20778
2.20767
2.20756
2.2073
2.20699
2.20631
2.20572
2.2048
2.20417
2.2033
2.20304
2.20097
2.27493
2.24086
2.21907
2.21152
2.21856
2.22322
2.22526
2.22588
2.22685
2.2287
2.23148
2.23378
2.2358
2.23764
2.24037
2.24267
2.24487
2.24733
2.25
2.25286
2.25575
2.25855
2.26116
2.26342
2.26535
2.26674
2.26768
2.26818
2.2679
2.26735
2.26624
2.26478
2.26277
2.2605
2.25797
2.25552
2.25272
2.24943
2.24539
2.24105
2.23655
2.23202
2.22737
2.22266
2.21781
2.21292
2.20792
2.20294
2.19789
2.19289
2.18788
2.18297
2.17809
2.17335
2.16869
2.16423
2.1599
2.15582
2.15192
2.14832
2.14496
2.14196
2.13925
2.13695
2.13499
2.1335
2.13239
2.1318
2.13165
2.1318
2.1321
2.13259
2.13354
2.13497
2.13687
2.13901
2.14135
2.14367
2.14599
2.14814
2.15016
2.15192
2.1535
2.15476
2.15581
2.15653
2.15705
2.15727
2.15733
2.15723
2.15711
2.15682
2.1565
2.15579
2.15528
2.15436
2.1538
2.15296
2.15282
2.1508
2.29843
2.25457
2.23039
2.2105
2.20069
2.19383
2.18809
2.18201
2.17716
2.17336
2.17162
2.17111
2.1717
2.17206
2.17316
2.17538
2.17795
2.18114
2.18409
2.18771
2.1911
2.19496
2.19829
2.20182
2.20458
2.2073
2.2091
2.21074
2.21145
2.21202
2.2118
2.21115
2.20997
2.20847
2.20673
2.205
2.2029
2.20029
2.19696
2.19326
2.18933
2.18527
2.1811
2.17685
2.17248
2.16803
2.16349
2.1589
2.15427
2.14963
2.14499
2.14039
2.13584
2.13139
2.12703
2.12281
2.11875
2.11488
2.11121
2.1078
2.10464
2.10179
2.09925
2.09707
2.09526
2.09385
2.09288
2.0924
2.09233
2.09249
2.0928
2.09335
2.09433
2.09577
2.09757
2.09961
2.10185
2.10412
2.10638
2.10848
2.11044
2.11215
2.11365
2.11486
2.11584
2.11654
2.11703
2.11722
2.11726
2.11716
2.11704
2.11673
2.11641
2.1157
2.11523
2.11433
2.11383
2.11303
2.11296
2.11101
2.32206
2.28204
2.24835
2.22354
2.2031
2.18814
2.17575
2.16526
2.15576
2.14828
2.14241
2.13889
2.13677
2.13638
2.13643
2.13699
2.13886
2.1417
2.14492
2.14832
2.15197
2.15575
2.15953
2.16325
2.16666
2.16981
2.17239
2.17459
2.17612
2.17726
2.1777
2.17783
2.17722
2.17631
2.17524
2.17408
2.17257
2.1705
2.16778
2.16464
2.16122
2.15759
2.15384
2.14997
2.146
2.14192
2.13776
2.13352
2.12922
2.12489
2.12055
2.11622
2.11194
2.10772
2.1036
2.09959
2.09574
2.09205
2.08857
2.08531
2.08232
2.0796
2.0772
2.07512
2.07343
2.07213
2.07126
2.07087
2.07088
2.07103
2.07133
2.07195
2.07296
2.07443
2.07616
2.07815
2.08027
2.08248
2.08464
2.0867
2.08857
2.09025
2.09168
2.09288
2.09382
2.09452
2.09496
2.09515
2.09515