/*--------------------------------*- C++ -*----------------------------------*\
| =========                 |                                                 |
| \\      /  F ield         | OpenFOAM: The Open Source CFD Toolbox           |
|  \\    /   O peration     | Version:  2412                                  |
|   \\  /    A nd           | Website:  www.openfoam.com                      |
|    \\/     M anipulation  |                                                 |
\*---------------------------------------------------------------------------*/
FoamFile
{
    version     2.0;
    format      ascii;
    arch        "LSB;label=32;scalar=64";
    class       volVectorField;
    location    "18.5";
    object      U;
}
// * * * * * * * * * * * * * * * * * * * * * * * * * * * * * * * * * * * * * //

dimensions      [0 1 -1 0 0 0 0];

internalField   nonuniform List<vector> 
7000
(
(2.59124 -7.25461e-05 0)
(1.62098 0.000178411 0)
(0.495975 0.000208748 0)
(0.553012 0.000350593 0)
(0.654709 0.000446438 0)
(0.719937 0.000524491 0)
(0.732829 0.00059233 0)
(0.725938 0.000662621 0)
(0.715876 0.000741081 0)
(0.708177 0.000831503 0)
(0.70371 0.000930155 0)
(0.700142 0.00103337 0)
(0.696057 0.00114036 0)
(0.691202 0.00125204 0)
(0.685738 0.00136945 0)
(0.679792 0.00149316 0)
(0.673379 0.00162346 0)
(0.666468 0.00176069 0)
(0.659023 0.00190526 0)
(0.651017 0.00205773 0)
(0.642428 0.0022187 0)
(0.633234 0.00238886 0)
(0.623408 0.00256888 0)
(0.612923 0.00275956 0)
(0.601751 0.00296171 0)
(0.58986 0.0031762 0)
(0.57722 0.00340395 0)
(0.563796 0.00364591 0)
(0.549554 0.00390306 0)
(0.534457 0.00417636 0)
(0.518467 0.0044668 0)
(0.501548 0.00477526 0)
(0.483662 0.00510262 0)
(0.46477 0.00544949 0)
(0.444837 0.00581649 0)
(0.423829 0.00620368 0)
(0.401717 0.00661113 0)
(0.378477 0.007038 0)
(0.35409 0.00748337 0)
(0.328551 0.00794504 0)
(0.301862 0.00842064 0)
(0.274041 0.00890607 0)
(0.245125 0.00939739 0)
(0.215166 0.00988826 0)
(0.184236 0.0103742 0)
(0.152431 0.0108481 0)
(0.119829 0.0113142 0)
(0.086856 0.0117563 0)
(0.0514983 0.012345 0)
(0.0221164 0.0131974 0)
(2.59137 -4.81554e-05 0)
(1.62115 0.000347397 0)
(0.495663 0.000827607 0)
(0.55275 0.00113938 0)
(0.65447 0.00137458 0)
(0.719711 0.00159662 0)
(0.732604 0.00180462 0)
(0.725717 0.00201991 0)
(0.715664 0.00225741 0)
(0.707975 0.0025272 0)
(0.703513 0.00282003 0)
(0.69995 0.00312631 0)
(0.695869 0.00344387 0)
(0.691018 0.00377498 0)
(0.68556 0.00412227 0)
(0.679619 0.00448713 0)
(0.673212 0.00487029 0)
(0.666307 0.00527244 0)
(0.658868 0.00569466 0)
(0.650869 0.00613821 0)
(0.642288 0.00660461 0)
(0.6331 0.00709534 0)
(0.623282 0.00761214 0)
(0.612806 0.00815663 0)
(0.601642 0.00873074 0)
(0.589761 0.00933616 0)
(0.57713 0.00997493 0)
(0.563715 0.0106486 0)
(0.549482 0.0113592 0)
(0.534395 0.0121079 0)
(0.518415 0.0128962 0)
(0.501504 0.0137246 0)
(0.483625 0.0145938 0)
(0.464739 0.0155027 0)
(0.444809 0.0164507 0)
(0.423802 0.0174341 0)
(0.401687 0.0184497 0)
(0.378437 0.0194907 0)
(0.354035 0.0205497 0)
(0.328472 0.0216155 0)
(0.301748 0.0226757 0)
(0.273882 0.0237135 0)
(0.244904 0.0247114 0)
(0.214867 0.0256481 0)
(0.18384 0.0265031 0)
(0.151918 0.0272568 0)
(0.119171 0.0279071 0)
(0.08607 0.0284276 0)
(0.050552 0.0290784 0)
(0.0211899 0.0298288 0)
(2.5915 4.76155e-05 0)
(1.62144 0.000392102 0)
(0.49587 0.00160441 0)
(0.552803 0.00198004 0)
(0.654512 0.00230428 0)
(0.719753 0.00266989 0)
(0.732647 0.00303929 0)
(0.725771 0.00341811 0)
(0.715739 0.00382821 0)
(0.708071 0.00428615 0)
(0.703624 0.00478087 0)
(0.70007 0.00529957 0)
(0.695998 0.00583931 0)
(0.691159 0.00640293 0)
(0.685713 0.00699443 0)
(0.679786 0.0076158 0)
(0.673393 0.00826868 0)
(0.666503 0.00895414 0)
(0.65908 0.00967441 0)
(0.651098 0.0104314 0)
(0.642534 0.0112281 0)
(0.633365 0.0120667 0)
(0.623568 0.0129507 0)
(0.613113 0.0138827 0)
(0.601972 0.0148663 0)
(0.590115 0.0159044 0)
(0.57751 0.0170008 0)
(0.564123 0.0181583 0)
(0.549919 0.0193806 0)
(0.53486 0.0206698 0)
(0.51891 0.0220292 0)
(0.50203 0.0234597 0)
(0.48418 0.024963 0)
(0.465322 0.0265378 0)
(0.445419 0.028183 0)
(0.424435 0.0298941 0)
(0.402337 0.0316648 0)
(0.379098 0.0334857 0)
(0.354698 0.0353432 0)
(0.329124 0.0372211 0)
(0.302375 0.0390961 0)
(0.274465 0.0409438 0)
(0.245424 0.0427311 0)
(0.215298 0.0444265 0)
(0.184156 0.0459929 0)
(0.152094 0.0473952 0)
(0.119177 0.0486213 0)
(0.0859332 0.0496317 0)
(0.050276 0.0506842 0)
(0.0207501 0.0516777 0)
(2.59167 5.40833e-05 0)
(1.62189 0.000535485 0)
(0.496297 0.00235025 0)
(0.552926 0.00281366 0)
(0.654634 0.00323635 0)
(0.719896 0.00375635 0)
(0.732794 0.00430262 0)
(0.725933 0.00485855 0)
(0.71593 0.0054513 0)
(0.708294 0.00610357 0)
(0.70387 0.00680513 0)
(0.700333 0.00754211 0)
(0.696279 0.0083107 0)
(0.691459 0.00911401 0)
(0.686035 0.00995659 0)
(0.680131 0.0108413 0)
(0.673762 0.0117704 0)
(0.666897 0.0127459 0)
(0.659501 0.0137704 0)
(0.651547 0.0148473 0)
(0.643014 0.0159802 0)
(0.633878 0.0171729 0)
(0.624115 0.0184296 0)
(0.613698 0.0197547 0)
(0.602597 0.0211528 0)
(0.590782 0.0226288 0)
(0.578221 0.0241872 0)
(0.564881 0.0258332 0)
(0.550726 0.0275709 0)
(0.535718 0.0294051 0)
(0.519821 0.0313387 0)
(0.502994 0.0333754 0)
(0.485197 0.0355155 0)
(0.466392 0.0377605 0)
(0.446539 0.0401062 0)
(0.425601 0.0425497 0)
(0.403543 0.0450803 0)
(0.380335 0.0476878 0)
(0.355953 0.0503517 0)
(0.330382 0.0530513 0)
(0.303617 0.0557544 0)
(0.275666 0.0584249 0)
(0.246556 0.0610204 0)
(0.216331 0.0634898 0)
(0.185056 0.065789 0)
(0.152827 0.0678613 0)
(0.119708 0.0696785 0)
(0.0862807 0.0711868 0)
(0.0504251 0.0726121 0)
(0.0206061 0.0737689 0)
(2.59192 6.7704e-05 0)
(1.62252 0.000715927 0)
(0.496848 0.00310277 0)
(0.553036 0.0036788 0)
(0.654762 0.00421053 0)
(0.720068 0.0048846 0)
(0.732981 0.00560791 0)
(0.726137 0.00634802 0)
(0.716171 0.00713215 0)
(0.708576 0.00798496 0)
(0.704185 0.00889861 0)
(0.700674 0.00986023 0)
(0.696646 0.010865 0)
(0.691856 0.0119164 0)
(0.686464 0.0130189 0)
(0.680594 0.0141767 0)
(0.674261 0.0153918 0)
(0.667433 0.0166681 0)
(0.660077 0.0180081 0)
(0.652166 0.0194171 0)
(0.643679 0.0208989 0)
(0.634592 0.0224595 0)
(0.624881 0.0241033 0)
(0.614519 0.0258373 0)
(0.603478 0.0276663 0)
(0.591726 0.0295979 0)
(0.579232 0.0316371 0)
(0.565962 0.0337916 0)
(0.551881 0.0360661 0)
(0.53695 0.0384676 0)
(0.521132 0.0409997 0)
(0.504385 0.0436676 0)
(0.486671 0.0464721 0)
(0.467946 0.0494148 0)
(0.44817 0.0524916 0)
(0.427303 0.0556976 0)
(0.405309 0.0590216 0)
(0.382153 0.0624473 0)
(0.357808 0.0659533 0)
(0.332251 0.0695076 0)
(0.305475 0.0730756 0)
(0.27748 0.0766039 0)
(0.248289 0.0800408 0)
(0.217941 0.0833163 0)
(0.186497 0.0863645 0)
(0.154059 0.0891195 0)
(0.120679 0.0915228 0)
(0.0870007 0.093497 0)
(0.0508566 0.0952349 0)
(0.0206239 0.0964843 0)
(2.59226 7.99787e-05 0)
(1.62336 0.000899926 0)
(0.497547 0.00385434 0)
(0.553151 0.00455651 0)
(0.654905 0.00520356 0)
(0.720278 0.00603201 0)
(0.733217 0.00693792 0)
(0.7264 0.00786716 0)
(0.716478 0.00885124 0)
(0.708932 0.00991348 0)
(0.704583 0.0110477 0)
(0.701109 0.0122417 0)
(0.697117 0.0134912 0)
(0.692365 0.0147993 0)
(0.687015 0.0161709 0)
(0.681189 0.0176105 0)
(0.674903 0.0191214 0)
(0.668126 0.0207077 0)
(0.660822 0.0223735 0)
(0.652968 0.0241244 0)
(0.64454 0.025966 0)
(0.635518 0.027905 0)
(0.625877 0.029948 0)
(0.615589 0.0321025 0)
(0.604627 0.034376 0)
(0.59296 0.0367764 0)
(0.580556 0.0393121 0)
(0.567381 0.0419905 0)
(0.553399 0.0448203 0)
(0.538573 0.0478078 0)
(0.522863 0.0509606 0)
(0.506228 0.0542827 0)
(0.488626 0.0577786 0)
(0.470013 0.0614478 0)
(0.450346 0.0652889 0)
(0.429582 0.0692939 0)
(0.40768 0.073452 0)
(0.384602 0.077742 0)
(0.360314 0.0821393 0)
(0.334789 0.0866041 0)
(0.308009 0.0910917 0)
(0.279971 0.095543 0)
(0.250684 0.099886 0)
(0.220186 0.104039 0)
(0.188533 0.107907 0)
(0.155824 0.111399 0)
(0.12211 0.114437 0)
(0.0880719 0.116908 0)
(0.0515173 0.118958 0)
(0.0207753 0.120279 0)
(2.59269 9.26297e-05 0)
(1.62444 0.00108609 0)
(0.498403 0.00461367 0)
(0.553272 0.00544976 0)
(0.655063 0.00621861 0)
(0.72053 0.00720518 0)
(0.733508 0.00830124 0)
(0.726723 0.00942414 0)
(0.716855 0.0106149 0)
(0.709369 0.011895 0)
(0.705072 0.0132578 0)
(0.701644 0.0146919 0)
(0.697698 0.016194 0)
(0.692996 0.0177669 0)
(0.687699 0.0194163 0)
(0.681929 0.0211466 0)
(0.675702 0.0229625 0)
(0.668987 0.0248682 0)
(0.661751 0.0268697 0)
(0.653967 0.0289726 0)
(0.645617 0.0311849 0)
(0.636677 0.0335135 0)
(0.627123 0.0359674 0)
(0.61693 0.0385548 0)
(0.606068 0.0412858 0)
(0.594509 0.0441692 0)
(0.582219 0.0472156 0)
(0.569165 0.0504344 0)
(0.555311 0.053836 0)
(0.540619 0.0574289 0)
(0.525048 0.0612221 0)
(0.508557 0.0652221 0)
(0.491101 0.0694339 0)
(0.472635 0.0738594 0)
(0.453113 0.0784966 0)
(0.432487 0.0833383 0)
(0.410712 0.0883717 0)
(0.387744 0.0935745 0)
(0.36354 0.0989166 0)
(0.338066 0.104353 0)
(0.311297 0.109829 0)
(0.283216 0.115273 0)
(0.253828 0.120601 0)
(0.223151 0.12571 0)
(0.191243 0.130483 0)
(0.158196 0.134801 0)
(0.124052 0.138543 0)
(0.0895469 0.141565 0)
(0.0524242 0.143975 0)
(0.0210226 0.1454 0)
(2.59322 0.000105393 0)
(1.62576 0.00127275 0)
(0.49943 0.00537875 0)
(0.553402 0.00635252 0)
(0.655239 0.00724671 0)
(0.720826 0.00839565 0)
(0.733859 0.00968417 0)
(0.727114 0.0110082 0)
(0.717313 0.0124142 0)
(0.709897 0.0139202 0)
(0.705663 0.0155191 0)
(0.702291 0.0172011 0)
(0.698402 0.0189636 0)
(0.693761 0.02081 0)
(0.688529 0.0227458 0)
(0.682828 0.024776 0)
(0.676674 0.0269059 0)
(0.670036 0.0291408 0)
(0.662882 0.0314873 0)
(0.655187 0.0339528 0)
(0.64693 0.0365459 0)
(0.638091 0.0392755 0)
(0.628646 0.0421516 0)
(0.618568 0.0451845 0)
(0.607831 0.0483856 0)
(0.596404 0.0517662 0)
(0.584255 0.0553382 0)
(0.571351 0.0591139 0)
(0.557656 0.0631047 0)
(0.54313 0.0673226 0)
(0.527733 0.0717774 0)
(0.511421 0.0764784 0)
(0.494149 0.0814327 0)
(0.475869 0.0866432 0)
(0.45653 0.0921106 0)
(0.436082 0.097827 0)
(0.414473 0.10378 0)
(0.391652 0.109947 0)
(0.367567 0.116293 0)
(0.342175 0.122769 0)
(0.315435 0.129313 0)
(0.287321 0.13584 0)
(0.257821 0.142245 0)
(0.226944 0.148414 0)
(0.194729 0.154193 0)
(0.161273 0.159433 0)
(0.126591 0.163984 0)
(0.0914649 0.167644 0)
(0.0536211 0.170472 0)
(0.0214124 0.172035 0)
(2.59386 0.000118222 0)
(1.62734 0.00145902 0)
(0.500642 0.0061469 0)
(0.553544 0.00726071 0)
(0.655438 0.0082835 0)
(0.721173 0.00959901 0)
(0.734277 0.0110856 0)
(0.727585 0.0126162 0)
(0.717862 0.0142447 0)
(0.710528 0.0159845 0)
(0.706366 0.0178276 0)
(0.703064 0.0197656 0)
(0.699244 0.0217968 0)
(0.694676 0.0239251 0)
(0.689522 0.0261558 0)
(0.683904 0.0284946 0)
(0.677837 0.0309472 0)
(0.671292 0.0335201 0)
(0.664236 0.0362209 0)
(0.656646 0.0390582 0)
(0.648502 0.0420418 0)
(0.639785 0.0451824 0)
(0.63047 0.0484913 0)
(0.620533 0.0519809 0)
(0.609945 0.0556642 0)
(0.598678 0.0595546 0)
(0.586701 0.0636665 0)
(0.573979 0.0680139 0)
(0.560476 0.0726115 0)
(0.546153 0.0774726 0)
(0.530968 0.0826107 0)
(0.514877 0.0880368 0)
(0.497831 0.0937612 0)
(0.47978 0.0997885 0)
(0.46067 0.106122 0)
(0.440447 0.112755 0)
(0.419049 0.119677 0)
(0.396419 0.126864 0)
(0.372495 0.134279 0)
(0.34722 0.141873 0)
(0.32054 0.149571 0)
(0.292409 0.157284 0)
(0.262799 0.164885 0)
(0.231696 0.172234 0)
(0.199127 0.179159 0)
(0.165172 0.185457 0)
(0.129841 0.190934 0)
(0.0939424 0.195341 0)
(0.0551505 0.198679 0)
(0.0219202 0.200434 0)
(2.59461 0.000130983 0)
(1.62921 0.00164363 0)
(0.502055 0.00691299 0)
(0.553701 0.00816835 0)
(0.655663 0.00932208 0)
(0.721579 0.0108076 0)
(0.734772 0.0124965 0)
(0.728144 0.0142393 0)
(0.718515 0.0160977 0)
(0.711274 0.0180794 0)
(0.707198 0.0201753 0)
(0.703977 0.0223777 0)
(0.70024 0.0246861 0)
(0.695759 0.0271045 0)
(0.690696 0.0296386 0)
(0.685175 0.0322944 0)
(0.67921 0.0350784 0)
(0.672774 0.0379978 0)
(0.665834 0.0410616 0)
(0.658368 0.0442795 0)
(0.650358 0.0476628 0)
(0.641784 0.0512236 0)
(0.632624 0.0549751 0)
(0.622852 0.0589314 0)
(0.612442 0.0631077 0)
(0.601366 0.0675196 0)
(0.589592 0.0721838 0)
(0.577087 0.0771169 0)
(0.563815 0.0823363 0)
(0.549735 0.0878583 0)
(0.534806 0.0936996 0)
(0.518981 0.0998744 0)
(0.50221 0.106396 0)
(0.484441 0.113272 0)
(0.465614 0.120509 0)
(0.445669 0.128105 0)
(0.424539 0.136048 0)
(0.402154 0.144319 0)
(0.378444 0.152879 0)
(0.353334 0.161677 0)
(0.326754 0.170634 0)
(0.298633 0.179651 0)
(0.268923 0.188588 0)
(0.237586 0.197276 0)
(0.204612 0.20551 0)
(0.170073 0.213047 0)
(0.133938 0.219633 0)
(0.0970678 0.224943 0)
(0.0571115 0.228904 0)
(0.0226258 0.230911 0)
(2.59548 0.000143544 0)
(1.63137 0.00182479 0)
(0.503681 0.00766952 0)
(0.553878 0.00906801 0)
(0.65592 0.0103551 0)
(0.722051 0.0120127 0)
(0.735353 0.0139089 0)
(0.728805 0.0158687 0)
(0.719285 0.0179638 0)
(0.712152 0.0201962 0)
(0.708174 0.0225538 0)
(0.705047 0.0250293 0)
(0.701406 0.0276233 0)
(0.697026 0.0303402 0)
(0.69207 0.0331861 0)
(0.686661 0.036167 0)
(0.680815 0.0392904 0)
(0.674505 0.0425644 0)
(0.6677 0.0459991 0)
(0.660379 0.0496057 0)
(0.652524 0.0533968 0)
(0.644118 0.0573861 0)
(0.635137 0.0615888 0)
(0.625559 0.0660209 0)
(0.615357 0.0706998 0)
(0.604504 0.0756435 0)
(0.59297 0.0808714 0)
(0.58072 0.0864028 0)
(0.567719 0.0922581 0)
(0.553927 0.0984572 0)
(0.539302 0.10502 0)
(0.523795 0.111965 0)
(0.507356 0.119309 0)
(0.489927 0.127066 0)
(0.471446 0.135244 0)
(0.451845 0.143848 0)
(0.43105 0.152868 0)
(0.408981 0.162291 0)
(0.385553 0.172079 0)
(0.360674 0.182183 0)
(0.334251 0.192521 0)
(0.306191 0.202985 0)
(0.276404 0.213425 0)
(0.244829 0.223647 0)
(0.211413 0.233413 0)
(0.176196 0.242414 0)
(0.139123 0.250332 0)
(0.10105 0.256762 0)
(0.0595899 0.261532 0)
(0.0235156 0.26389 0)
(2.59648 0.000155499 0)
(1.63385 0.00200064 0)
(0.505535 0.00840495 0)
(0.55408 0.00995063 0)
(0.656214 0.0113749 0)
(0.722597 0.0132025 0)
(0.736032 0.0153096 0)
(0.729579 0.0174918 0)
(0.72019 0.019832 0)
(0.713179 0.0223244 0)
(0.709313 0.024953 0)
(0.706293 0.0277105 0)
(0.702763 0.0305986 0)
(0.698499 0.0336223 0)
(0.693666 0.0367878 0)
(0.688385 0.0401016 0)
(0.682675 0.0435718 0)
(0.676509 0.0472077 0)
(0.669859 0.0510204 0)
(0.662704 0.0550225 0)
(0.655028 0.0592282 0)
(0.646814 0.0636531 0)
(0.638041 0.0683141 0)
(0.628686 0.0732294 0)
(0.618725 0.0784188 0)
(0.608131 0.0839029 0)
(0.596874 0.0897037 0)
(0.584922 0.0958441 0)
(0.572239 0.102347 0)
(0.558785 0.109238 0)
(0.544517 0.116539 0)
(0.529387 0.124275 0)
(0.513342 0.132466 0)
(0.496321 0.141134 0)
(0.478258 0.15029 0)
(0.45908 0.159948 0)
(0.438703 0.170104 0)
(0.417036 0.18075 0)
(0.393979 0.191857 0)
(0.369418 0.203379 0)
(0.343236 0.215237 0)
(0.315307 0.227316 0)
(0.285503 0.239464 0)
(0.253713 0.251458 0)
(0.219835 0.263027 0)
(0.183848 0.273816 0)
(0.145644 0.2834 0)
(0.106109 0.291256 0)
(0.0627998 0.297075 0)
(0.0247298 0.299917 0)
(2.5976 0.000164326 0)
(1.63666 0.00217099 0)
(0.507629 0.00910146 0)
(0.554315 0.0108032 0)
(0.65655 0.0123729 0)
(0.723223 0.0143608 0)
(0.736821 0.0166841 0)
(0.730484 0.0190952 0)
(0.721248 0.0216892 0)
(0.714377 0.0244518 0)
(0.710635 0.0273613 0)
(0.707738 0.03041 0)
(0.704333 0.0336008 0)
(0.700201 0.0369395 0)
(0.695506 0.0404324 0)
(0.69037 0.0440865 0)
(0.684814 0.0479103 0)
(0.678812 0.0519144 0)
(0.672337 0.0561112 0)
(0.665371 0.0605146 0)
(0.657899 0.0651406 0)
(0.649904 0.0700065 0)
(0.641368 0.0751313 0)
(0.632269 0.0805354 0)
(0.622584 0.0862409 0)
(0.612287 0.0922716 0)
(0.601349 0.0986521 0)
(0.58974 0.105409 0)
(0.577424 0.11257 0)
(0.564363 0.120163 0)
(0.550513 0.128216 0)
(0.535825 0.136759 0)
(0.520245 0.14582 0)
(0.503711 0.155425 0)
(0.486153 0.165596 0)
(0.467489 0.176352 0)
(0.447631 0.187702 0)
(0.426474 0.199647 0)
(0.4039 0.212169 0)
(0.379777 0.22523 0)
(0.353952 0.238763 0)
(0.326268 0.252658 0)
(0.29654 0.266757 0)
(0.264599 0.280827 0)
(0.230275 0.294553 0)
(0.193473 0.30752 0)
(0.153979 0.31921 0)
(0.112639 0.328941 0)
(0.0669468 0.33621 0)
(0.0262965 0.339759 0)
(2.59886 0.000169675 0)
(1.63979 0.00233262 0)
(0.509958 0.00974848 0)
(0.554591 0.0116079 0)
(0.656927 0.0133261 0)
(0.723928 0.0154674 0)
(0.737729 0.0180168 0)
(0.73153 0.0206635 0)
(0.722474 0.0235204 0)
(0.715761 0.026564 0)
(0.712159 0.0297646 0)
(0.709398 0.0331141 0)
(0.706135 0.0366164 0)
(0.702151 0.040278 0)
(0.697611 0.0441054 0)
(0.692638 0.0481059 0)
(0.687255 0.052289 0)
(0.681437 0.0566663 0)
(0.67516 0.0612515 0)
(0.668407 0.0660603 0)
(0.661164 0.0711101 0)
(0.653418 0.0764203 0)
(0.645149 0.0820119 0)
(0.63634 0.087908 0)
(0.626968 0.0941328 0)
(0.617009 0.100714 0)
(0.606437 0.107678 0)
(0.595221 0.115056 0)
(0.583327 0.12288 0)
(0.570719 0.131183 0)
(0.557353 0.139998 0)
(0.543181 0.149362 0)
(0.528148 0.159309 0)
(0.51219 0.169875 0)
(0.495234 0.181092 0)
(0.477196 0.192989 0)
(0.457977 0.20559 0)
(0.437462 0.218909 0)
(0.415517 0.232945 0)
(0.391986 0.247676 0)
(0.366686 0.263055 0)
(0.33941 0.278985 0)
(0.309922 0.295321 0)
(0.277962 0.311831 0)
(0.243264 0.328181 0)
(0.205609 0.34389 0)
(0.16466 0.358314 0)
(0.12118 0.370573 0)
(0.0725143 0.379876 0)
(0.0284966 0.384489 0)
(2.60026 0.000178161 0)
(1.64326 0.00247418 0)
(0.512524 0.0103506 0)
(0.554911 0.0123461 0)
(0.657353 0.0141939 0)
(0.724727 0.0165071 0)
(0.738778 0.0192801 0)
(0.732741 0.0221725 0)
(0.723894 0.0253094 0)
(0.717359 0.0286467 0)
(0.713911 0.0321492 0)
(0.711301 0.0358095 0)
(0.708194 0.0396325 0)
(0.704374 0.0436255 0)
(0.700006 0.0477946 0)
(0.695214 0.0521481 0)
(0.690022 0.0566959 0)
(0.684409 0.061451 0)
(0.678352 0.0664281 0)
(0.671837 0.071645 0)
(0.664851 0.0771204 0)
(0.657383 0.0828761 0)
(0.649416 0.0889349 0)
(0.640933 0.0953228 0)
(0.631915 0.102067 0)
(0.622338 0.109197 0)
(0.612179 0.116744 0)
(0.601409 0.124743 0)
(0.589998 0.133231 0)
(0.577908 0.142245 0)
(0.565099 0.151826 0)
(0.551524 0.162016 0)
(0.537129 0.172861 0)
(0.52185 0.184404 0)
(0.505612 0.19669 0)
(0.488329 0.209763 0)
(0.469894 0.223664 0)
(0.450186 0.238425 0)
(0.429052 0.254072 0)
(0.406316 0.270609 0)
(0.381763 0.288016 0)
(0.355135 0.306231 0)
(0.326131 0.325135 0)
(0.294398 0.34452 0)
(0.259532 0.364055 0)
(0.221142 0.383227 0)
(0.178649 0.401265 0)
(0.132614 0.41707 0)
(0.080097 0.429409 0)
(0.031529 0.435759 0)
(2.60178 0.000188027 0)
(1.64707 0.00259133 0)
(0.515357 0.0108816 0)
(0.555279 0.0129886 0)
(0.657852 0.014948 0)
(0.72566 0.0174479 0)
(0.739999 0.020451 0)
(0.734165 0.0236012 0)
(0.725561 0.0270343 0)
(0.719218 0.0306795 0)
(0.715937 0.0344955 0)
(0.713491 0.0384758 0)
(0.710556 0.0426268 0)
(0.706915 0.0469566 0)
(0.702734 0.0514718 0)
(0.698139 0.0561811 0)
(0.693157 0.0610954 0)
(0.687769 0.0662291 0)
(0.681955 0.0715986 0)
(0.675701 0.0772231 0)
(0.668999 0.0831235 0)
(0.661839 0.0893233 0)
(0.654206 0.0958477 0)
(0.646086 0.102725 0)
(0.637462 0.109985 0)
(0.628313 0.117661 0)
(0.618618 0.125788 0)
(0.608352 0.134405 0)
(0.597485 0.143552 0)
(0.585984 0.153274 0)
(0.573812 0.163619 0)
(0.560924 0.174636 0)
(0.547268 0.18638 0)
(0.532782 0.198907 0)
(0.517393 0.212277 0)
(0.501014 0.226549 0)
(0.483536 0.241787 0)
(0.464832 0.258049 0)
(0.44474 0.27539 0)
(0.423064 0.293856 0)
(0.399558 0.31347 0)
(0.37392 0.33423 0)
(0.345772 0.35607 0)
(0.314653 0.37884 0)
(0.279994 0.402302 0)
(0.241138 0.425921 0)
(0.197205 0.448812 0)
(0.148345 0.469703 0)
(0.0910151 0.486719 0)
(0.0361586 0.496131 0)
(2.60343 0.000193944 0)
(1.6512 0.00268116 0)
(0.518437 0.0112915 0)
(0.555699 0.0134953 0)
(0.658439 0.0155619 0)
(0.726756 0.0182471 0)
(0.741431 0.0215047 0)
(0.735839 0.0249291 0)
(0.727512 0.0286751 0)
(0.721379 0.0326492 0)
(0.718276 0.0367988 0)
(0.716005 0.0411158 0)
(0.713255 0.045609 0)
(0.709807 0.0502871 0)
(0.705829 0.0551575 0)
(0.701447 0.0602291 0)
(0.696693 0.065514 0)
(0.69155 0.0710276 0)
(0.686 0.0767884 0)
(0.680034 0.0828169 0)
(0.673644 0.0891368 0)
(0.666823 0.0957731 0)
(0.659559 0.102754 0)
(0.651841 0.11011 0)
(0.643653 0.117875 0)
(0.63498 0.126084 0)
(0.625802 0.134778 0)
(0.616097 0.143997 0)
(0.605841 0.15379 0)
(0.595005 0.164206 0)
(0.583554 0.175299 0)
(0.571449 0.18713 0)
(0.558642 0.199762 0)
(0.545076 0.213266 0)
(0.530683 0.227716 0)
(0.515377 0.243194 0)
(0.499057 0.259786 0)
(0.481591 0.277585 0)
(0.462818 0.296684 0)
(0.442531 0.317184 0)
(0.420469 0.339156 0)
(0.396289 0.362715 0)
(0.369538 0.387886 0)
(0.339694 0.414547 0)
(0.30597 0.442741 0)
(0.267317 0.472058 0)
(0.222433 0.501659 0)
(0.170709 0.530101 0)
(0.107371 0.554909 0)
(0.043486 0.570092 0)
(2.60518 0.00019659 0)
(1.65562 0.00273172 0)
(0.521743 0.0115326 0)
(0.556185 0.0138179 0)
(0.659136 0.015986 0)
(0.728055 0.0188597 0)
(0.743127 0.0223891 0)
(0.737816 0.0261055 0)
(0.72981 0.0301823 0)
(0.723908 0.0344987 0)
(0.720992 0.0389889 0)
(0.718906 0.0436453 0)
(0.716351 0.0484804 0)
(0.71311 0.0535056 0)
(0.709346 0.0587297 0)
(0.705192 0.064162 0)
(0.700681 0.0698159 0)
(0.6958 0.0757082 0)
(0.690535 0.081859 0)
(0.684878 0.0882905 0)
(0.678826 0.0950279 0)
(0.672373 0.102098 0)
(0.665512 0.109532 0)
(0.658232 0.117361 0)
(0.650524 0.125622 0)
(0.642373 0.134355 0)
(0.633766 0.143602 0)
(0.624684 0.153409 0)
(0.615108 0.163829 0)
(0.605013 0.174919 0)
(0.594373 0.186739 0)
(0.583152 0.199359 0)
(0.571313 0.212854 0)
(0.558804 0.227308 0)
(0.545567 0.242815 0)
(0.531527 0.259478 0)
(0.516589 0.277411 0)
(0.500637 0.296746 0)
(0.483518 0.317617 0)
(0.465017 0.340234 0)
(0.444905 0.364661 0)
(0.422833 0.391101 0)
(0.398192 0.419933 0)
(0.370536 0.451215 0)
(0.33897 0.485082 0)
(0.301923 0.521544 0)
(0.257469 0.560268 0)
(0.203868 0.600042 0)
(0.133828 0.638322 0)
(0.0565642 0.666367 0)
(2.60702 0.000195062 0)
(1.66026 0.00273222 0)
(0.525242 0.0115296 0)
(0.556762 0.0138814 0)
(0.659979 0.0161593 0)
(0.729605 0.0192498 0)
(0.745142 0.0231003 0)
(0.740158 0.0271683 0)
(0.732508 0.0316422 0)
(0.726843 0.0363541 0)
(0.724113 0.0412254 0)
(0.722215 0.046252 0)
(0.719864 0.0514518 0)
(0.716841 0.0568397 0)
(0.713307 0.0624243 0)
(0.709397 0.0682165 0)
(0.705147 0.0742316 0)
(0.70055 0.0804892 0)
(0.695593 0.0870119 0)
(0.690273 0.0938248 0)
(0.684587 0.100955 0)
(0.678534 0.108433 0)
(0.67211 0.116292 0)
(0.665307 0.124566 0)
(0.658121 0.133294 0)
(0.65054 0.14252 0)
(0.642557 0.152289 0)
(0.634158 0.162653 0)
(0.625329 0.173667 0)
(0.616055 0.185394 0)
(0.606314 0.197904 0)
(0.596083 0.211272 0)
(0.585332 0.225587 0)
(0.574024 0.240946 0)
(0.562113 0.257461 0)
(0.54954 0.275258 0)
(0.536235 0.294468 0)
(0.52209 0.315315 0)
(0.507031 0.337886 0)
(0.490782 0.36243 0)
(0.473091 0.389377 0)
(0.45395 0.418955 0)
(0.432736 0.451649 0)
(0.408648 0.487956 0)
(0.380878 0.528329 0)
(0.347877 0.573494 0)
(0.307005 0.624273 0)
(0.255025 0.681001 0)
(0.180401 0.743044 0)
(0.083236 0.803207 0)
(2.60891 0.000137356 0)
(1.66502 0.00273194 0)
(0.528831 0.0111899 0)
(0.557453 0.0135362 0)
(0.661029 0.0159113 0)
(0.731504 0.0192022 0)
(0.747609 0.0233764 0)
(0.743017 0.0277996 0)
(0.735766 0.0326742 0)
(0.730334 0.0377754 0)
(0.727778 0.0430153 0)
(0.726061 0.0484017 0)
(0.723912 0.0539635 0)
(0.721105 0.0597174 0)
(0.7178 0.0656721 0)
(0.714135 0.0718376 0)
(0.710152 0.0782294 0)
(0.705847 0.0848678 0)
(0.701212 0.0917768 0)
(0.696247 0.0989826 0)
(0.690951 0.106514 0)
(0.685327 0.114402 0)
(0.679372 0.122681 0)
(0.673086 0.131388 0)
(0.666464 0.140566 0)
(0.659504 0.150259 0)
(0.652199 0.160517 0)
(0.644546 0.171395 0)
(0.636536 0.182953 0)
(0.628163 0.195261 0)
(0.619414 0.208393 0)
(0.610278 0.222436 0)
(0.600739 0.237488 0)
(0.59078 0.253654 0)
(0.580371 0.271076 0)
(0.569461 0.289932 0)
(0.558071 0.310244 0)
(0.546036 0.332289 0)
(0.533247 0.356454 0)
(0.519883 0.382942 0)
(0.505662 0.412276 0)
(0.490291 0.44489 0)
(0.473514 0.481273 0)
(0.45484 0.522412 0)
(0.433624 0.569482 0)
(0.408696 0.624302 0)
(0.377664 0.689768 0)
(0.336619 0.770954 0)
(0.270955 0.878212 0)
(0.146448 1.04344 0)
(2.61128 7.68059e-05 0)
(1.6708 0.0026018 0)
(0.532531 0.0103655 0)
(0.557944 0.0128014 0)
(0.66215 0.0154207 0)
(0.733838 0.0191757 0)
(0.750769 0.0239743 0)
(0.746729 0.0290343 0)
(0.740014 0.0345522 0)
(0.734875 0.0402208 0)
(0.732552 0.0459507 0)
(0.731106 0.0517774 0)
(0.729273 0.0577513 0)
(0.726808 0.0638993 0)
(0.723865 0.0702361 0)
(0.720585 0.0767761 0)
(0.717018 0.0835399 0)
(0.713168 0.0905533 0)
(0.70903 0.0978447 0)
(0.704607 0.105444 0)
(0.699905 0.113383 0)
(0.694929 0.121696 0)
(0.689684 0.130418 0)
(0.684174 0.139591 0)
(0.678403 0.149257 0)
(0.672374 0.159463 0)
(0.666093 0.170261 0)
(0.659562 0.181708 0)
(0.652789 0.19387 0)
(0.645778 0.206818 0)
(0.638537 0.220633 0)
(0.631071 0.235405 0)
(0.623384 0.251261 0)
(0.615503 0.268287 0)
(0.60749 0.286573 0)
(0.599118 0.306369 0)
(0.590436 0.327905 0)
(0.581923 0.35136 0)
(0.573436 0.377167 0)
(0.564753 0.405685 0)
(0.555993 0.437264 0)
(0.547242 0.472612 0)
(0.538691 0.512568 0)
(0.530566 0.558416 0)
(0.523409 0.611941 0)
(0.518397 0.675906 0)
(0.518249 0.754774 0)
(0.531171 0.855975 0)
(0.587145 0.99069 0)
(0.657227 1.18538 0)
(2.61379 5.90763e-05 0)
(1.67693 0.00193924 0)
(0.537048 0.00775181 0)
(0.559581 0.00991286 0)
(0.664796 0.0124948 0)
(0.738227 0.0166699 0)
(0.756237 0.0222004 0)
(0.752797 0.0280403 0)
(0.746542 0.0343718 0)
(0.741472 0.0407608 0)
(0.739165 0.0471387 0)
(0.73782 0.0535813 0)
(0.736166 0.0601537 0)
(0.733925 0.0668823 0)
(0.731235 0.0737779 0)
(0.728244 0.0808556 0)
(0.725011 0.0881385 0)
(0.721545 0.0956552 0)
(0.717847 0.103436 0)
(0.713922 0.111513 0)
(0.709776 0.119919 0)
(0.705421 0.128691 0)
(0.700865 0.137867 0)
(0.696117 0.14749 0)
(0.691188 0.157604 0)
(0.686088 0.16826 0)
(0.680832 0.179513 0)
(0.675434 0.191422 0)
(0.669912 0.204054 0)
(0.664286 0.217487 0)
(0.658575 0.231827 0)
(0.652845 0.247089 0)
(0.647075 0.263392 0)
(0.641188 0.280951 0)
(0.635425 0.299898 0)
(0.629997 0.320368 0)
(0.624797 0.342705 0)
(0.619892 0.367108 0)
(0.615511 0.393766 0)
(0.611811 0.423132 0)
(0.609065 0.455729 0)
(0.607749 0.492209 0)
(0.608531 0.533488 0)
(0.612506 0.580717 0)
(0.621495 0.635559 0)
(0.638818 0.700173 0)
(0.670486 0.777474 0)
(0.725508 0.8709 0)
(0.836674 0.980475 0)
(0.984549 1.09505 0)
(2.61524 6.99431e-05 0)
(1.68048 0.00130175 0)
(0.539901 0.00544839 0)
(0.561331 0.00789864 0)
(0.668148 0.0110901 0)
(0.743993 0.0164516 0)
(0.763448 0.0232492 0)
(0.760739 0.0301839 0)
(0.754955 0.0372456 0)
(0.749879 0.0440529 0)
(0.747581 0.0507286 0)
(0.746372 0.0574499 0)
(0.744922 0.0642971 0)
(0.742905 0.0712906 0)
(0.740451 0.0784368 0)
(0.737722 0.0857589 0)
(0.734789 0.0932903 0)
(0.731669 0.101066 0)
(0.728364 0.109119 0)
(0.724882 0.117482 0)
(0.721237 0.12619 0)
(0.717443 0.135278 0)
(0.713515 0.144784 0)
(0.70947 0.154748 0)
(0.705325 0.165213 0)
(0.7011 0.176226 0)
(0.696819 0.187839 0)
(0.692503 0.20012 0)
(0.688192 0.213121 0)
(0.683957 0.226871 0)
(0.679702 0.241485 0)
(0.675464 0.257107 0)
(0.671575 0.273797 0)
(0.668075 0.29172 0)
(0.66488 0.311073 0)
(0.662148 0.331935 0)
(0.660051 0.35448 0)
(0.658767 0.378973 0)
(0.658576 0.405704 0)
(0.659845 0.435017 0)
(0.66304 0.467369 0)
(0.668909 0.503278 0)
(0.678516 0.543404 0)
(0.69334 0.588512 0)
(0.715766 0.639459 0)
(0.749251 0.697088 0)
(0.799385 0.761671 0)
(0.871769 0.832254 0)
(0.984716 0.90388 0)
(1.12039 0.956718 0)
(2.61645 4.05318e-05 0)
(1.68355 -0.00153414 0)
(0.54526 -0.00485118 0)
(0.567303 -0.00305533 0)
(0.675918 0.000985946 0)
(0.754131 0.00903601 0)
(0.774464 0.0185686 0)
(0.771533 0.0278524 0)
(0.765153 0.03644 0)
(0.759485 0.0442429 0)
(0.757008 0.0517362 0)
(0.755883 0.0592156 0)
(0.754601 0.0667591 0)
(0.752768 0.0743862 0)
(0.750525 0.082092 0)
(0.748064 0.0899125 0)
(0.745462 0.097893 0)
(0.742731 0.106075 0)
(0.739868 0.114496 0)
(0.736881 0.123193 0)
(0.733783 0.132206 0)
(0.730591 0.141573 0)
(0.727322 0.151335 0)
(0.723999 0.161532 0)
(0.720644 0.172211 0)
(0.717285 0.183432 0)
(0.713968 0.195215 0)
(0.710714 0.207605 0)
(0.707482 0.220702 0)
(0.704398 0.234585 0)
(0.701673 0.249305 0)
(0.699276 0.265028 0)
(0.69722 0.281841 0)
(0.695673 0.299765 0)
(0.694737 0.31895 0)
(0.694575 0.339555 0)
(0.695409 0.361747 0)
(0.697492 0.385727 0)
(0.701182 0.41172 0)
(0.706909 0.439981 0)
(0.71528 0.470791 0)
(0.727106 0.504481 0)
(0.743522 0.541331 0)
(0.766024 0.58162 0)
(0.796667 0.62543 0)
(0.838142 0.672482 0)
(0.894087 0.721719 0)
(0.967197 0.770553 0)
(1.0684 0.814762 0)
(1.18145 0.840325 0)
(2.61211 0.002293 0)
(1.67351 -0.00677395 0)
(0.549838 -0.0137998 0)
(0.583112 -0.00802419 0)
(0.69617 -0.000398262 0)
(0.777951 0.00987371 0)
(0.798569 0.0200665 0)
(0.794154 0.029713 0)
(0.785826 0.0382279 0)
(0.778782 0.0460897 0)
(0.775665 0.0537713 0)
(0.774184 0.0614293 0)
(0.772598 0.0690985 0)
(0.770458 0.0768107 0)
(0.767922 0.0846186 0)
(0.765232 0.0925752 0)
(0.76247 0.100725 0)
(0.759642 0.109105 0)
(0.756745 0.117749 0)
(0.753794 0.12669 0)
(0.750804 0.13596 0)
(0.747796 0.145592 0)
(0.744791 0.155621 0)
(0.741816 0.166077 0)
(0.738923 0.176973 0)
(0.736093 0.188365 0)
(0.733325 0.200336 0)
(0.730781 0.212903 0)
(0.728553 0.226131 0)
(0.726627 0.240128 0)
(0.725064 0.254925 0)
(0.723972 0.270548 0)
(0.723435 0.28711 0)
(0.723601 0.304702 0)
(0.724633 0.323427 0)
(0.726711 0.34342 0)
(0.730086 0.364797 0)
(0.735037 0.387711 0)
(0.741939 0.412297 0)
(0.75126 0.438705 0)
(0.763596 0.467062 0)
(0.779721 0.497475 0)
(0.800609 0.529962 0)
(0.82751 0.564409 0)
(0.861948 0.600469 0)
(0.905755 0.637383 0)
(0.961219 0.673814 0)
(1.02994 0.70743 0)
(1.11632 0.7353 0)
(1.20918 0.749051 0)
(2.60383 0.00792139 0)
(1.64328 -0.0735326 0)
(0.585148 -0.0725983 0)
(0.624006 -0.0457708 0)
(0.731435 -0.00578493 0)
(0.809072 0.0165005 0)
(0.827086 0.0266062 0)
(0.821135 0.0352708 0)
(0.811624 0.042639 0)
(0.804263 0.0507564 0)
(0.800887 0.0592884 0)
(0.799027 0.0677222 0)
(0.797045 0.0759344 0)
(0.794602 0.0840048 0)
(0.791877 0.0920704 0)
(0.789044 0.10021 0)
(0.786163 0.108472 0)
(0.783233 0.116898 0)
(0.780253 0.125529 0)
(0.777238 0.134414 0)
(0.774206 0.1436 0)
(0.771186 0.153113 0)
(0.768199 0.162968 0)
(0.765238 0.173219 0)
(0.76238 0.183932 0)
(0.759768 0.195116 0)
(0.757387 0.206826 0)
(0.755237 0.219122 0)
(0.753436 0.232023 0)
(0.752061 0.245585 0)
(0.751184 0.259879 0)
(0.750918 0.27497 0)
(0.751389 0.290919 0)
(0.752752 0.307806 0)
(0.755182 0.32569 0)
(0.758876 0.344659 0)
(0.764087 0.364781 0)
(0.771116 0.386138 0)