/*--------------------------------*- C++ -*----------------------------------*\
| =========                 |                                                 |
| \\      /  F ield         | OpenFOAM: The Open Source CFD Toolbox           |
|  \\    /   O peration     | Version:  2412                                  |
|   \\  /    A nd           | Website:  www.openfoam.com                      |
|    \\/     M anipulation  |                                                 |
\*---------------------------------------------------------------------------*/
FoamFile
{
    version     2.0;
    format      ascii;
    arch        "LSB;label=32;scalar=64";
    class       volScalarField;
    location    "25.5";
    object      Ma;
}
// * * * * * * * * * * * * * * * * * * * * * * * * * * * * * * * * * * * * * //

dimensions      [0 0 0 0 0 0 0];

internalField   nonuniform List<scalar> 
7000
(
2.25599
0.994183
0.300533
0.338438
0.401062
0.442388
0.450595
0.446125
0.439771
0.434861
0.432016
0.429743
0.427144
0.424057
0.420586
0.41681
0.412744
0.408366
0.403655
0.398594
0.393173
0.387375
0.38119
0.374597
0.367585
0.360132
0.352223
0.343836
0.334956
0.325558
0.315624
0.305132
0.294063
0.282394
0.270107
0.257184
0.243611
0.229373
0.214465
0.198882
0.182633
0.165727
0.14819
0.130054
0.111368
0.0921926
0.0725908
0.052847
0.031923
0.0155244
2.25604
0.994245
0.300331
0.338273
0.400907
0.44224
0.450448
0.445981
0.439633
0.43473
0.431889
0.42962
0.427024
0.423941
0.420474
0.416704
0.412643
0.408271
0.403566
0.398513
0.393098
0.387309
0.381132
0.37455
0.367547
0.360106
0.352209
0.343837
0.334972
0.325591
0.315675
0.305203
0.294156
0.282511
0.270251
0.257357
0.243816
0.229614
0.214746
0.199208
0.18301
0.166165
0.148701
0.13066
0.112103
0.0931173
0.0738191
0.0546558
0.0351573
0.0220572
2.25617
0.994442
0.300463
0.338308
0.400937
0.442273
0.450481
0.446021
0.43969
0.434799
0.431971
0.429707
0.427122
0.424044
0.420592
0.416829
0.412784
0.408421
0.403734
0.398692
0.393299
0.387524
0.381371
0.374808
0.367834
0.360417
0.352554
0.344212
0.335386
0.326043
0.316176
0.305752
0.294762
0.283178
0.270989
0.258172
0.244718
0.230614
0.215858
0.200451
0.184403
0.167741
0.1505
0.132745
0.114565
0.0961167
0.0776339
0.0598398
0.0430409
0.0335722
2.25634
0.994747
0.300734
0.338385
0.401018
0.442373
0.450584
0.446138
0.439821
0.434957
0.43214
0.429895
0.427317
0.424262
0.42082
0.417084
0.413051
0.408717
0.404046
0.399038
0.393664
0.38793
0.381801
0.375284
0.368341
0.360979
0.353155
0.344879
0.336102
0.326838
0.317033
0.306703
0.295793
0.284321
0.272234
0.259553
0.246233
0.232296
0.217717
0.202523
0.186719
0.170347
0.153462
0.136148
0.118555
0.100896
0.0835506
0.0674575
0.0533028
0.0461804
2.25659
0.995178
0.301084
0.338454
0.401103
0.442494
0.450714
0.446288
0.439983
0.435161
0.432355
0.430142
0.427574
0.424553
0.421125
0.417427
0.413414
0.409122
0.404476
0.399514
0.394174
0.388491
0.382406
0.375948
0.369062
0.361767
0.354016
0.345817
0.337132
0.327958
0.318268
0.308046
0.297279
0.285938
0.274028
0.26151
0.248409
0.234682
0.220378
0.205465
0.190016
0.174037
0.157639
0.140921
0.124072
0.107409
0.0913718
0.0770293
0.0651083
0.0594943
2.25692
0.995751
0.301527
0.338526
0.401199
0.442639
0.450883
0.446459
0.440213
0.435396
0.43265
0.430435
0.427924
0.424903
0.421539
0.417847
0.413904
0.409622
0.405054
0.40011
0.394856
0.389201
0.383214
0.376796
0.37002
0.362783
0.355156
0.347036
0.338494
0.329426
0.319899
0.309817
0.299237
0.288081
0.276388
0.26411
0.251269
0.237852
0.22387
0.209359
0.194332
0.178893
0.163088
0.147117
0.131165
0.115612
0.100984
0.0882973
0.0781878
0.0736196
2.25734
0.996477
0.30207
0.338602
0.401306
0.442817
0.451087
0.446691
0.440474
0.435708
0.432989
0.43082
0.428332
0.425362
0.422027
0.418395
0.414484
0.410272
0.405742
0.400881
0.395673
0.390117
0.384186
0.377887
0.371181
0.364084
0.356545
0.348595
0.340163
0.331296
0.321912
0.312068
0.301673
0.290795
0.279346
0.267394
0.254872
0.241844
0.22828
0.214246
0.199772
0.184939
0.169887
0.154751
0.139833
0.125479
0.112234
0.101078
0.0924445
0.088625
2.25785
0.997369
0.302722
0.338682
0.401426
0.443027
0.451335
0.446972
0.440793
0.436083
0.433404
0.431282
0.428834
0.425917
0.422629
0.419055
0.415202
0.411057
0.406597
0.401812
0.39669
0.391223
0.385397
0.379202
0.372626
0.365652
0.358275
0.350468
0.342237
0.333543
0.324406
0.314772
0.304681
0.294065
0.282986
0.271367
0.25929
0.246691
0.233665
0.220191
0.206375
0.192283
0.178049
0.163896
0.150053
0.136958
0.125074
0.115263
0.107843
0.104622
2.25847
0.998438
0.303492
0.33877
0.401562
0.443273
0.451631
0.447301
0.441183
0.436523
0.433904
0.431828
0.429439
0.426573
0.423352
0.41984
0.416064
0.411991
0.407619
0.402923
0.397904
0.392544
0.386842
0.380778
0.374348
0.367536
0.360333
0.352727
0.344704
0.336258
0.32737
0.318043
0.30825
0.298015
0.287295
0.276149
0.264518
0.252501
0.24004
0.227275
0.214188
0.200956
0.18767
0.174546
0.161895
0.150027
0.139452
0.130888
0.124492
0.121715
2.25919
0.999698
0.304389
0.338868
0.401716
0.443562
0.451979
0.447702
0.441635
0.437055
0.434484
0.432482
0.430143
0.427357
0.424197
0.420775
0.41707
0.4131
0.408816
0.404237
0.399327
0.394105
0.388536
0.382636
0.376371
0.369754
0.362753
0.355381
0.347607
0.339442
0.330862
0.321874
0.312462
0.302636
0.292391
0.281736
0.270695
0.259274
0.247544
0.235512
0.223321
0.211
0.198785
0.186793
0.175337
0.164783
0.155438
0.14799
0.14249
0.140144
2.26003
1.00116
0.305422
0.338976
0.401892
0.443894
0.45239
0.448158
0.442184
0.437662
0.435179
0.433231
0.430982
0.428258
0.425198
0.42185
0.418259
0.414378
0.410223
0.405755
0.400995
0.395909
0.390516
0.384785
0.378728
0.372319
0.365569
0.358453
0.350979
0.34313
0.33491
0.326312
0.317338
0.307991
0.298277
0.288215
0.277816
0.267126
0.256172
0.245038
0.233779
0.222545
0.211437
0.200703
0.190517
0.181222
0.173164
0.166806
0.162134
0.160098
2.26099
1.00284
0.306599
0.3391
0.402092
0.444281
0.452866
0.44871
0.442806
0.43839
0.435968
0.43412
0.431935
0.429322
0.426338
0.423113
0.419612
0.415872
0.411827
0.407521
0.402897
0.398001
0.392777
0.387269
0.381422
0.375279
0.368786
0.361987
0.354833
0.347365
0.33954
0.3314
0.322913
0.31412
0.305006
0.295613
0.285955
0.276072
0.266026
0.255857
0.245696
0.235598
0.225771
0.216327
0.207538
0.199607
0.192762
0.187489
0.18363
0.182023
2.26208
1.00473
0.307929
0.339243
0.402322
0.444722
0.453419
0.449335
0.443549
0.439217
0.4369
0.435129
0.433054
0.430527
0.427667
0.424543
0.421183
0.417561
0.413681
0.409518
0.405087
0.400367
0.395371
0.390078
0.384504
0.378624
0.372459
0.365984
0.359223
0.352153
0.344803
0.337152
0.329239
0.321047
0.312629
0.303975
0.295157
0.28618
0.27714
0.268075
0.259095
0.250315
0.241829
0.233864
0.226514
0.220065
0.214644
0.210544
0.207567
0.206265
2.26329
1.00685
0.309413
0.339397
0.402594
0.445218
0.454054
0.450066
0.444398
0.440182
0.437961
0.436297
0.434323
0.431917
0.42917
0.426184
0.422955
0.419494
0.415768
0.411795
0.40755
0.403056
0.398285
0.393265
0.387962
0.382411
0.376577
0.370498
0.364143
0.35755
0.350697
0.343623
0.336321
0.328828
0.321159
0.313351
0.305448
0.297497
0.289564
0.28173
0.274076
0.266728
0.259804
0.253421
0.247779
0.242928
0.239021
0.236287
0.234365
0.233712
2.26462
1.00919
0.311052
0.339557
0.402919
0.445777
0.454783
0.450909
0.445375
0.441291
0.439175
0.43763
0.435768
0.433494
0.430877
0.428038
0.42496
0.421668
0.418123
0.41435
0.410324
0.406065
0.401561
0.396821
0.391845
0.386629
0.381193
0.375518
0.369646
0.363545
0.357278
0.350806
0.344214
0.33746
0.330648
0.323754
0.316883
0.310053
0.303363
0.296884
0.290715
0.284968
0.279763
0.275235
0.271478
0.268666
0.266693
0.265721
0.26519
0.265155
2.26608
1.01176
0.312855
0.339753
0.403284
0.446423
0.455627
0.451879
0.446524
0.442561
0.440581
0.439144
0.437427
0.435274
0.43282
0.43012
0.427228
0.424101
0.420773
0.417199
0.413429
0.409414
0.405214
0.400773
0.396157
0.39131
0.386303
0.381084
0.375722
0.370183
0.364528
0.35875
0.352893
0.346993
0.341073
0.335222
0.329446
0.323879
0.318542
0.313583
0.309073
0.305152
0.301925
0.299521
0.29808
0.29758
0.298077
0.299506
0.301151
0.302676
2.26766
1.01456
0.314816
0.339982
0.403703
0.447176
0.456609
0.453013
0.447859
0.444031
0.442192
0.440875
0.439308
0.437294
0.435008
0.432468
0.429766
0.426832
0.423723
0.420384
0.416872
0.413144
0.409249
0.405159
0.400908
0.396488
0.39192
0.387218
0.38239
0.377477
0.372476
0.367451
0.362401
0.357407
0.35249
0.347729
0.343197
0.338956
0.335148
0.331829
0.329177
0.327312
0.326391
0.326515
0.327915
0.330655
0.334521
0.339627
0.344726
0.348724
2.26935
1.01755
0.31692
0.340247
0.404191
0.448061
0.457759
0.454359
0.449404
0.445753
0.444034
0.442873
0.441436
0.439599
0.437459
0.43512
0.432589
0.429887
0.426987
0.423921
0.420665
0.417261
0.413682
0.409976
0.406113
0.402149
0.398059
0.3939
0.389662
0.385396
0.38112
0.376876
0.372717
0.368676
0.364848
0.361268
0.358062
0.355307
0.35312
0.351685
0.35106
0.351507
0.353199
0.35641
0.361329
0.368068
0.376899
0.387632
0.399368
0.409972
2.27111
1.0207
0.319144
0.340562
0.404772
0.449106
0.459116
0.455936
0.451214
0.447738
0.44615
0.445137
0.443852
0.442187
0.440224
0.438078
0.435756
0.433277
0.430629
0.427827
0.424876
0.421787
0.418577
0.415247
0.411831
0.40832
0.404768
0.40116
0.397568
0.393977
0.390476
0.387062
0.383834
0.380821
0.37812
0.375818
0.373997
0.372843
0.372422
0.372923
0.374587
0.377705
0.382627
0.389494
0.398922
0.41125
0.426946
0.447106
0.470989
0.498596
2.27294
1.02395
0.321424
0.340941
0.405481
0.450367
0.460761
0.457823
0.453388
0.450056
0.448616
0.447721
0.446606
0.445088
0.443323
0.441349
0.439256
0.436991
0.434615
0.43208
0.429452
0.426693
0.423867
0.420944
0.417984
0.414971
0.411961
0.408961
0.406015
0.403164
0.400442
0.397929
0.395649
0.393731
0.392203
0.391242
0.390882
0.391312
0.392697
0.395383
0.399589
0.405686
0.413892
0.425052
0.439619
0.459157
0.485082
0.520594
0.571927
0.664904
2.27502
1.02768
0.323957
0.341215
0.406281
0.451966
0.462914
0.46035
0.456263
0.453159
0.451877
0.451203
0.450304
0.449062
0.447543
0.445882
0.444076
0.442177
0.440148
0.438046
0.435839
0.433594
0.431276
0.428962
0.426617
0.424328
0.422063
0.419922
0.417882
0.416053
0.414435
0.413142
0.412214
0.411772
0.411915
0.412687
0.414249
0.417015
0.421205
0.426897
0.434588
0.444559
0.45783
0.474816
0.497603
0.52761
0.569592
0.631147
0.729824
0.881476
2.27722
1.03166
0.326968
0.342166
0.408011
0.454835
0.466504
0.464318
0.460551
0.457504
0.456265
0.455682
0.454943
0.453878
0.452578
0.451144
0.449619
0.448016
0.446348
0.444621
0.442861
0.441076
0.439303
0.437546
0.435855
0.434236
0.432753
0.431413
0.430305
0.429438
0.42893
0.428799
0.429164
0.430046
0.431683
0.434271
0.437984
0.442902
0.449467
0.457792
0.468591
0.482304
0.499811
0.522621
0.551792
0.591354
0.643911
0.718033
0.828977
0.967133
2.27851
1.03397
0.32884
0.343226
0.410174
0.458581
0.471228
0.469542
0.466101
0.463076
0.461871
0.461406
0.460833
0.459947
0.458836
0.457608
0.456318
0.454981
0.453612
0.452222
0.450838
0.449474
0.448165
0.446929
0.445807
0.444826
0.444034
0.443473
0.443203
0.443292
0.44375
0.444654
0.446239
0.448644
0.451866
0.456154
0.461588
0.468578
0.477194
0.488161
0.501494
0.518492
0.53921
0.565768
0.599041
0.641711
0.697368
0.767751
0.864165
0.967475
2.27967
1.03609
0.332154
0.346924
0.415038
0.464995
0.478238
0.476422
0.472632
0.469259
0.46798
0.46762
0.467209
0.466498
0.465593
0.464595
0.46359
0.462564
0.461552
0.460541
0.459577
0.458658
0.457834
0.457112
0.456546
0.456157
0.456012
0.456125
0.456542
0.457352
0.458726
0.460707
0.463357
0.466846
0.471239
0.476841
0.483679
0.492268
0.502617
0.515404
0.530885
0.549717
0.572837
0.600698
0.635322
0.677093
0.728925
0.790942
0.868865
0.949904
2.2761
1.02969
0.334293
0.356824
0.427459
0.47982
0.49332
0.490521
0.485519
0.481271
0.479614
0.479059
0.478486
0.477617
0.476557
0.475464
0.474401
0.473377
0.472402
0.47149
0.470665
0.469955
0.469377
0.468979
0.468783
0.468822
0.469093
0.469762
0.470841
0.472444
0.474539
0.477327
0.480775
0.485171
0.490481
0.497076
0.504976
0.514556
0.526083
0.539789
0.556354
0.57591
0.599479
0.627362
0.66059
0.70005
0.746332
0.800698
0.864202
0.928779
2.28203
1.02254
0.358744
0.382357
0.448477
0.498369
0.51028
0.506528
0.500785
0.496402
0.494701
0.494012
0.493313
0.492364
0.491298
0.490222
0.48919
0.488193
0.487256
0.486376
0.4856
0.484926
0.484413
0.48403
0.483901
0.484056
0.484602
0.485468
0.486859
0.488706
0.491257
0.494403
0.498487
0.503352
0.509463
0.516589
0.525357
0.53546
0.547708
0.561823
0.578645
0.598173
0.621057
0.647784
0.678645
0.714587
0.755558
0.802429
0.855621
0.909179
1.87633
0.772015
0.273266
0.344117
0.417753
0.441224
0.441129
0.437149
0.433505
0.433411
0.435586
0.438474
0.441474
0.444517
0.447656
0.450904
0.454222
0.457565
0.460903
0.464219
0.467493
0.470673
0.473816
0.476956
0.480149
0.48333
0.486621
0.489941
0.493564
0.497373
0.501676
0.506366
0.511802
0.517899
0.525022
0.533156
0.542608
0.553545
0.566085
0.580724
0.597301
0.616688
0.638457
0.663783
0.69206
0.724533
0.760519
0.800992
0.845799
0.890541
1.8689
0.771406
0.28217
0.355348
0.428334
0.44779
0.443317
0.435956
0.430299
0.428405
0.428317
0.42872
0.42932
0.430225
0.431572
0.433354
0.435612
0.438218
0.441295
0.444721
0.448605
0.452672
0.457149
0.461794
0.466827
0.471981
0.47752
0.483248
0.489341
0.495665
0.502398
0.509469
0.51703
0.525165
0.533963
0.543711
0.554313
0.566334
0.579526
0.594597
0.611245
0.630224
0.651265
0.675021
0.701359
0.730666
0.762978
0.798101
0.836503
0.874177
1.86794
0.770093
0.284303
0.365061
0.443619
0.463692
0.457505
0.448129
0.441123
0.438391
0.437492
0.436895
0.436307
0.435904
0.435817
0.436088
0.436718
0.437721
0.439254
0.441238
0.443726
0.446642
0.450161
0.454163
0.458797
0.463939
0.469667
0.475918
0.482711
0.49008
0.497956
0.506544
0.515633
0.525585
0.536006
0.547449
0.559507
0.572778
0.586947
0.602622
0.619548
0.63828
0.658697
0.681196
0.705731
0.732539
0.76158
0.792781
0.826394
0.858922
1.86943
0.773375
0.290097
0.367276
0.443689
0.464289
0.459066
0.450546
0.443968
0.441604
0.44113
0.440951
0.440734
0.440624
0.440709
0.441015
0.441603
0.44251
0.443699
0.445181
0.446984
0.449219
0.45186
0.455071
0.458757
0.463137
0.468049
0.473769
0.480042
0.487239
0.494984
0.503743
0.513049
0.523419
0.534431
0.546564
0.559474
0.573573
0.58857
0.604824
0.622186
0.640925
0.66101
0.682659
0.705841
0.730688
0.757135
0.785229
0.815016
0.843665
1.87254
0.780057
0.297781
0.361235
0.429067
0.450304
0.448018
0.441951
0.436342
0.434468
0.434506
0.435036
0.435624
0.436338
0.437231
0.438402
0.439863
0.441547
0.443418
0.445525
0.447869
0.450532
0.45349
0.45686
0.460597
0.464874
0.46959
0.474999
0.480925
0.487697
0.495076
0.503399
0.512437
0.522482
0.53335
0.545262
0.558086
0.572003
0.586941
0.603042
0.620267
0.638751
0.658395
0.679338
0.701458
0.724931
0.74954
0.775263
0.802278
0.828115
1.88112
0.786636
0.30003
0.349025
0.412198
0.44124
0.44421
0.439522
0.43437
0.432088
0.431844
0.432367
0.433086
0.434006
0.435102
0.436435
0.438031
0.439887
0.442
0.444397
0.447071
0.450078
0.453388
0.457088
0.461125
0.465643
0.470549
0.476049
0.48201
0.488683
0.495928
0.503985
0.512752
0.522409
0.532895
0.544361
0.556736
0.570155
0.584549
0.600039
0.616554
0.634202
0.6529
0.672751
0.69365
0.715634
0.738557
0.762381
0.787198
0.810847
2.26308
1.10601
0.407193
0.39918
0.459363
0.508058
0.519348
0.514456
0.507533
0.501485
0.497969
0.495498
0.493387
0.491369
0.489341
0.48737
0.485646
0.484157
0.483009
0.482162
0.481734
0.481685
0.48214
0.483073
0.484554
0.486619
0.489303
0.492664
0.496704
0.501514
0.507072
0.513486
0.52073
0.528923
0.538017
0.548144
0.559232
0.571401
0.584574
0.598858
0.614148
0.630543
0.647918
0.666327
0.685681
0.70597
0.727095
0.748974
0.771686
0.793294
2.2725
1.12789
0.391669
0.377128
0.449993
0.510707
0.529104
0.528221
0.523999
0.520196
0.518754
0.518379
0.518363
0.518324
0.517909
0.51728
0.516608
0.51598
0.515412
0.514938
0.514571
0.514377
0.514375
0.514648
0.515231
0.516202
0.517599
0.519531
0.521995
0.525147
0.528933
0.533548
0.538906
0.545191
0.55233
0.560461
0.569555
0.579709
0.590906
0.603179
0.616551
0.630972
0.64647
0.662947
0.680376
0.698687
0.717788
0.737583
0.75814
0.777705
2.29743
1.17662
0.43425
0.383994
0.44709
0.503381
0.521858
0.522886
0.521061
0.519876
0.520295
0.521527
0.523321
0.525122
0.526531
0.52773
0.528854
0.530002
0.531151
0.532331
0.533518
0.534762
0.536055
0.537458
0.538972
0.54067
0.542567
0.54474
0.547232
0.550111
0.553444
0.557282
0.561724
0.566798
0.572625
0.579215
0.586687
0.595026
0.604331
0.614577
0.625809
0.637999
0.651174
0.665319
0.680406
0.696406
0.713219
0.730692
0.748914
0.766296
1.90075
0.80503
0.305809
0.316891
0.374007
0.414892
0.429173
0.432999
0.435822
0.439473
0.444404
0.45015
0.456589
0.463083
0.46926
0.475257
0.481223
0.487185
0.493129
0.499014
0.504837
0.510576
0.51625
0.521836
0.527373
0.532836
0.538292
0.543711
0.549189
0.554713
0.560357
0.566165
0.572202
0.578533
0.585212
0.592337
0.599935
0.608126
0.616899
0.626389
0.636552
0.647526
0.659221
0.671744
0.68498
0.698947
0.713579
0.728904
0.744918
0.760233
2.30593
1.19375
0.449592
0.386639
0.440664
0.492235
0.509235
0.509295
0.506149
0.503672
0.502414
0.502229
0.502685
0.50308
0.503405
0.503909
0.504734
0.50601
0.507706
0.509864
0.512438
0.515479
0.518941
0.522868
0.527181
0.531939
0.537024
0.542527
0.548287
0.554423
0.560808
0.567549
0.574528
0.581867
0.589459
0.597443
0.605732
0.61446
0.623564
0.633162
0.64322
0.653822
0.664951
0.676642
0.688901
0.701714
0.715085
0.728928
0.743329
0.757048
2.31118
1.20373
0.432893
0.369732
0.438373
0.50063
0.522082
0.523494
0.521274
0.519804
0.519932
0.521063
0.522793
0.524297
0.525322
0.52617
0.527004
0.527953
0.529028
0.530317
0.531826
0.53364
0.535748
0.538232
0.541081
0.544356
0.548051
0.552205
0.556818
0.561902
0.567458
0.573472
0.579951
0.58687
0.594263
0.602067
0.610337
0.618995
0.628121
0.637621
0.647598
0.657943
0.668779
0.679982
0.691672
0.703726
0.716238
0.729072
0.742353
0.754955
2.3139
1.20955
0.43707
0.371773
0.4415
0.505352
0.527727
0.529408
0.527244
0.525896
0.526368
0.527885
0.530156
0.532349
0.534068
0.535597
0.537124
0.538756
0.540487
0.542349
0.544337
0.546484
0.548806
0.551335
0.554103
0.557136
0.560477
0.56414
0.568175
0.572584
0.577424
0.58268
0.58841
0.594584
0.601253
0.608378
0.616004
0.624087
0.632655
0.641674
0.651152
0.661068
0.671408
0.682164
0.693296
0.704817
0.716657
0.728833
0.741336
0.753227
2.31689
1.21728
0.463439
0.387829
0.447097
0.506224
0.528782
0.532012
0.531134
0.530763
0.531655
0.533584
0.536122
0.538421
0.540447
0.542351
0.544308
0.54635
0.548527
0.550809
0.55324
0.555791
0.558516
0.561388
0.564465
0.567724
0.571227
0.574954
0.578966
0.583252
0.587869
0.592815
0.598135
0.603833
0.609937
0.616455
0.6234
0.630791
0.63862
0.64691
0.655627
0.664802
0.674385
0.684402
0.694789
0.705566
0.716658
0.728066
0.739809
0.750986
1.90563
0.813584
0.324711
0.323678
0.37648
0.414373
0.42726
0.430302
0.432593
0.435933
0.440703
0.446614
0.453341
0.460159
0.466868
0.473528
0.480261
0.487056
0.49392
0.500799
0.507696
0.514575
0.521451
0.528299
0.535144
0.541972
0.54881
0.555657
0.562535
0.569456
0.576437
0.583509
0.590683
0.598001
0.605468
0.613138
0.621006
0.629127
0.63749
0.646138
0.655062
0.664289
0.673802
0.683626
0.693736
0.704141
0.714816
0.725752
0.736998
0.747673
2.31199
1.20859
0.464957
0.403499
0.466203
0.527386
0.549313
0.550239
0.546095
0.542263
0.540057
0.538685
0.53809
0.537694
0.536961
0.536239
0.535674
0.535521
0.535709
0.536397
0.537511
0.539124
0.541205
0.543794
0.546853
0.55041
0.554424
0.558919
0.56384
0.569208
0.57497
0.58113
0.587638
0.594505
0.601689
0.609199
0.617003
0.625106
0.633485
0.64215
0.651087
0.660301
0.669782
0.679528
0.689525
0.69976
0.710221
0.720884
0.731812
0.742175
2.29403
1.16958
0.460061
0.422688
0.485796
0.546192
0.566076
0.566115
0.562394
0.559158
0.558402
0.558805
0.559891
0.561155
0.562028
0.562666
0.563258
0.563916
0.564651
0.565475
0.566396
0.56746
0.568713
0.570197
0.571945
0.574003
0.576387
0.57913
0.582249
0.585764
0.589679
0.594017
0.598781
0.60398
0.609609
0.615668
0.622146
0.629034
0.636322
0.64399
0.652024
0.660402
0.669106
0.678118
0.687434
0.69702
0.706876
0.716963
0.727333
0.737185
1.88783
0.805072
0.340774
0.355364
0.406342
0.443122
0.452856
0.452685
0.451749
0.452601
0.455915
0.460538
0.466078
0.472143
0.478232
0.484353
0.49057
0.49689
0.503265
0.509653
0.516015
0.52234
0.528617
0.534846
0.541022
0.547156
0.553256
0.559347
0.565449
0.571593
0.577804
0.584103
0.590523
0.597084
0.603813
0.610727
0.61785
0.625191
0.632769
0.640586
0.648661
0.656987
0.665579
0.674415
0.683496
0.692809
0.702342
0.712081
0.722069
0.731562
1.87402
0.796328
0.33952
0.35666
0.398325
0.426967
0.434882
0.434835
0.433828
0.433316
0.434048
0.435683
0.43824
0.441448
0.444939
0.448771
0.453028
0.457746
0.462906
0.468488
0.474452
0.480775
0.487412
0.49434
0.501515
0.508912
0.51649
0.524229
0.532093
0.54007
0.548133
0.556293
0.564523
0.572843
0.581231
0.589716
0.598283
0.60696
0.615745
0.624642
0.633649
0.642785
0.652049
0.661456
0.671
0.680693
0.690529
0.700503
0.710655
0.720267
1.88891
0.806046
0.345018
0.373647
0.430941
0.466893
0.473621
0.469568
0.464486
0.461384
0.460433
0.460403
0.460995
0.46196
0.463
0.464173
0.465605
0.467366
0.469492
0.471995
0.474898
0.478209
0.481959
0.48614
0.490772
0.495837
0.501347
0.507269
0.513606
0.520321
0.527417
0.534847
0.54261
0.550662
0.558994
0.567562
0.576363
0.585354
0.594529
0.603876
0.613389
0.623047
0.632846
0.642762
0.652801
0.66294
0.673187
0.683518
0.694002
0.703896
2.34072
1.12428
0.469023
0.447562
0.513129
0.574869
0.595485
0.594876
0.589577
0.584274
0.581264
0.579354
0.57779
0.576419
0.574865
0.573132
0.57136
0.569647
0.568038
0.56656
0.565237
0.564106
0.563192
0.562543
0.562189
0.562179
0.56253
0.563303
0.56449
0.566129
0.56825
0.57086
0.573985
0.577605
0.581748
0.586382
0.591525
0.59714
0.603237
0.609769
0.616735
0.624091
0.631819
0.639913
0.648327
0.657045
0.666029
0.675266
0.684763
0.69382
1.88937
0.807237
0.346155
0.363471
0.415821
0.456082
0.468553
0.469557
0.469008
0.468986
0.471274
0.474791
0.478998
0.483733
0.488556
0.493368
0.498208
0.503136
0.508111
0.513122
0.518112
0.523088
0.528013
0.532911
0.537753
0.542577
0.547356
0.552133
0.556911
0.561718
0.566562
0.571478
0.576462
0.58157
0.586797
0.592199
0.597763
0.603545
0.609526
0.615762
0.622223
0.62896
0.635946
0.643191
0.650684
0.658436
0.666427
0.674656
0.683138
0.691243
1.8891
0.807384
0.347467
0.364538
0.416094
0.454585
0.465034
0.46397
0.461095
0.458536
0.458069
0.458911
0.460497
0.462704
0.465123
0.467713
0.470581
0.47381
0.477402
0.481346
0.485611
0.490183
0.495039
0.50016
0.505526
0.511111
0.516896
0.522855
0.528971
0.535242
0.541645
0.548179
0.55483
0.56159
0.568455
0.57542
0.582487
0.589657
0.596934
0.604317
0.611818
0.619432
0.62717
0.63503
0.643026
0.65115
0.659415
0.667806
0.676372
0.684506
2.34274
1.12796
0.472706
0.449628
0.516383
0.580621
0.603068
0.60317
0.59809
0.593022
0.590239
0.588684
0.587557
0.586706
0.585704
0.584539
0.583314
0.58219
0.581153
0.580295
0.579557
0.579046
0.578702
0.578643
0.5788
0.579282
0.580047
0.581135
0.582562
0.584337
0.586467
0.588952
0.591792
0.594985
0.598531
0.602427
0.606669
0.611247
0.616153
0.62138
0.626912
0.632742
0.638853
0.645238
0.651878
0.658769
0.66589
0.673233
0.680802
0.688043
1.88982
0.808779
0.353425
0.381411
0.439686
0.479633
0.48959
0.487909
0.484864
0.483479
0.484905
0.48758
0.490928
0.494763
0.498662
0.502612
0.506675
0.510903
0.515265
0.519748
0.524309
0.528942
0.533625
0.538355
0.543125
0.547929
0.55277
0.557647
0.562571
0.567545
0.572578
0.577685
0.582865
0.588141
0.593512
0.598999
0.604598
0.610329
0.616188
0.62219
0.628339
0.634645
0.641109
0.647735
0.654523
0.661478
0.668597
0.675869
0.683324
0.690423
1.87526
0.799751
0.351153
0.3781
0.427535
0.459446
0.467093
0.465964
0.464282
0.463569
0.464095
0.465294
0.467194
0.469479
0.471831
0.474312
0.477019
0.480003
0.483271
0.48682
0.490642
0.494728
0.49907
0.503662
0.508492
0.51355
0.518822
0.524297
0.52996
0.535799
0.541802
0.547951
0.554253
0.560684
0.567254
0.57394
0.580754
0.58768
0.594729
0.601884
0.609155
0.616525
0.624006
0.631585
0.639275
0.647059
0.654953
0.662941
0.671073
0.678773
1.87423
0.799385
0.351677
0.375348
0.422432
0.4541
0.462313
0.461851
0.460734
0.460115
0.460384
0.46121
0.462692
0.464529
0.466376
0.468278
0.470335
0.47259
0.475063
0.477753
0.48067
0.483817
0.487205
0.490833
0.494709
0.498831
0.503203
0.507821
0.512688
0.517796
0.523148
0.528734
0.534553
0.540593
0.546849
0.553309
0.559969
0.566812
0.573838
0.581034
0.588398
0.595919
0.603596
0.611413
0.619364
0.62744
0.635646
0.643976
0.652462
0.66052
1.88906
0.809113
0.354852
0.362658
0.413294
0.452093
0.463035
0.462621
0.460832
0.459585
0.459622
0.460432
0.461972
0.463875
0.465702
0.467509
0.469427
0.471519
0.473804
0.476279
0.478945
0.481804
0.48486
0.488115
0.491575
0.495241
0.499117
0.503203
0.507504
0.51202
0.516754
0.521705
0.526875
0.532262
0.537867
0.543686
0.549719
0.55596
0.562409
0.569059
0.575905
0.582939
0.590155
0.597549
0.605121
0.612863
0.620766
0.628819
0.637043
0.644865
2.31231
1.20465
0.48541
0.43147
0.492568
0.556796
0.582784
0.586276
0.583612
0.58088
0.579592
0.579277
0.579767
0.580597
0.581135
0.581426
0.581659
0.581941
0.582318
0.582786
0.583352
0.584015
0.584793
0.585688
0.586718
0.587887
0.589211
0.590692
0.592347
0.594178
0.596201
0.598417
0.600841
0.603473
0.606328
0.609403
0.612711
0.616249
0.620029
0.624043
0.628305
0.632803
0.637548
0.642529
0.647755
0.653208
0.658893
0.664786
0.670917
0.676811
2.32253
1.22874
0.46609
0.405363
0.481438
0.557496
0.58866
0.593338
0.590704
0.587842
0.586854
0.587307
0.588597
0.590413
0.592095
0.593492
0.594823
0.596236
0.597789
0.599469
0.601272
0.603183
0.605212
0.607352
0.609614
0.611991
0.614494
0.617116
0.619868
0.622744
0.625754
0.628893
0.632172
0.635586
0.639146
0.642847
0.646701
0.650702
0.654861
0.659174
0.66365
0.668284
0.673088
0.678055
0.683193
0.688493
0.69396
0.699581
0.705379
0.710918
2.31272
1.20615
0.486657
0.432536
0.494346
0.559804
0.586864
0.591013
0.588961
0.586849
0.58628
0.586937
0.588446
0.590435
0.592234
0.593828
0.595401
0.597084
0.598913
0.600888
0.602997
0.605241
0.607619
0.610136
0.612793
0.615594
0.618536
0.621627
0.624861
0.628245
0.631773
0.635454
0.63928
0.643259
0.647383
0.651662
0.656087
0.660666
0.665391
0.67027
0.675294
0.680472
0.685793
0.691268
0.696884
0.702651
0.708555
0.714606
0.720813
0.726752
1.88895
0.809181
0.356057
0.364303
0.416385
0.457004
0.469102
0.469119
0.467533
0.466519
0.467164
0.46879
0.471273
0.474229
0.477162
0.480128
0.483237
0.486565
0.490108
0.493869
0.497824
0.501978
0.506313
0.510839
0.515538
0.52042
0.525464
0.530681
0.536051
0.541586
0.547264
0.553098
0.559067
0.565183
0.571426
0.577809
0.584312
0.590948
0.597696
0.604572
0.611554
0.618659
0.625865
0.633187
0.640603
0.648132
0.655752
0.663487
0.671348
0.678836
1.87422
0.800022
0.355293
0.380472
0.428585
0.460131
0.467651
0.466484
0.464742
0.46386
0.464078
0.464929
0.466471
0.468352
0.470185
0.472036
0.474
0.476139
0.478451
0.480944
0.483609
0.486459
0.489487
0.492706
0.49611
0.499711
0.5035
0.50749
0.51167
0.516053
0.520628
0.525404
0.530371
0.535537
0.540892
0.546442
0.552176
0.5581
0.564202
0.570489
0.576946
0.583579
0.590375
0.597338
0.604454
0.611728
0.619144
0.626711
0.634436
0.641798
1.87704
0.803104
0.359364
0.395138
0.451552
0.484554
0.490476
0.486944
0.48276
0.480813
0.480802
0.481598
0.483009
0.484674
0.486272
0.487894
0.489638
0.49155
0.493625
0.495863
0.498255
0.500809
0.503521
0.5064
0.509443
0.512658
0.516039
0.519597
0.523324
0.527231
0.53131
0.53557
0.540004
0.54462
0.549411
0.554383
0.55953
0.564857
0.570357
0.576035
0.581883
0.587905
0.594094
0.600452
0.60697
0.613651
0.620484
0.62747
0.634615
0.641427
1.19154
1.04882
0.497518
0.190545
0.0108666
0.108733
0.160262
0.208602
0.230193
0.234551
0.222849
0.211379
0.201055
0.191519
0.179483
0.165029
0.147697
0.127764
0.105942
0.0827987
0.0589762
0.0352626
0.015872
0.0232575
0.0469758
0.0712777
0.0954164
0.119122
0.142437
0.165339
0.187837
0.209911
0.231543
0.252683
0.27269
0.29179
0.311327
0.331698
0.351658
0.370822
0.389331
0.407325
0.42484
0.441888
0.458457
0.474549
0.490151
0.505267
0.519882
0.533999
0.547599
0.560682
0.573225
0.585221
0.596641
0.607476
0.617689
0.627266
0.636167
0.644371
0.651836
0.658541
0.664442
0.669522
0.673744
0.677102
0.679579
0.681198
0.681966
0.682137
0.681958
0.681394
0.680054
0.677544
0.674161
0.67055
0.666869
0.663149
0.659458
0.655878
0.652508
0.649424
0.646691
0.644346
0.642419
0.640909
0.639819
0.639122
0.638792
0.638765
0.638922
0.639258
0.639891
0.64098
0.642362
0.643875
0.64542
0.647089
0.648728
0.653504
1.12191
1.03598
0.8061
0.549188
0.502193
0.431239
0.381337
0.340599
0.310327
0.291769
0.260403
0.230126
0.210552
0.208804
0.215942
0.226493
0.238951
0.252864
0.267993
0.283846
0.300222
0.316691
0.333013
0.349184
0.365914
0.382895
0.400054
0.417151
0.434245
0.451173
0.468022
0.484649
0.501143
0.517374
0.533029
0.547942
0.562938
0.578655
0.594516
0.609738
0.624453
0.638822
0.652898
0.66667
0.680121
0.693234
0.706
0.718409
0.730452
0.742118
0.753396
0.764271
0.774728
0.78475
0.794315
0.803403
0.811988
0.820045
0.827544
0.834459
0.840754
0.846404
0.851374
0.855639
0.859171
0.861958
0.863987
0.865262
0.865814
0.865823
0.865525
0.864855
0.863498
0.861107
0.857885
0.854405
0.850851
0.847281
0.843762
0.840366
0.837183
0.834282
0.831725
0.829545
0.827768
0.826393
0.825418
0.824815
0.824583
0.824608
0.824782
0.825114
0.825678
0.82664
0.827846
0.829183
0.830502
0.831914
0.833104
0.836903
1.07463
1.07545
1.00804
0.899594
0.831144
0.780855
0.744939
0.714847
0.690031
0.671938
0.656828
0.642489
0.63249
0.627354
0.625833
0.626086
0.627587
0.629988
0.633367
0.637629
0.642742
0.64851
0.65487
0.661699
0.669254
0.677411
0.686179
0.695332
0.704903
0.714704
0.724817
0.735064
0.745555
0.756099
0.766485
0.776426
0.786501
0.797281
0.808647
0.81974
0.830549
0.841164
0.851681
0.862074
0.872351
0.882457
0.892399
0.902131
0.911664
0.920955
0.930011
0.938788
0.947292
0.955473
0.963335
0.970826
0.977947
0.984642
0.990908
0.996689
1.00198
1.00672
1.01091
1.0145
1.01747
1.01979
1.02147
1.02248
1.02282
1.0227
1.02234
1.02165
1.02034
1.01812
1.01516
1.01191
1.00856
1.00521
1.00193