/*--------------------------------*- C++ -*----------------------------------*\
| =========                 |                                                 |
| \\      /  F ield         | OpenFOAM: The Open Source CFD Toolbox           |
|  \\    /   O peration     | Version:  2412                                  |
|   \\  /    A nd           | Website:  www.openfoam.com                      |
|    \\/     M anipulation  |                                                 |
\*---------------------------------------------------------------------------*/
FoamFile
{
    version     2.0;
    format      ascii;
    arch        "LSB;label=32;scalar=64";
    class       volScalarField;
    location    "25.5";
    object      p;
}
// * * * * * * * * * * * * * * * * * * * * * * * * * * * * * * * * * * * * * //

dimensions      [1 -1 -2 0 0 0 0];

internalField   nonuniform List<scalar> 
7000
(
1.63884
3.75685
11.4558
11.5283
11.0977
10.6883
10.5695
10.5841
10.6251
10.6649
10.6867
10.7004
10.7149
10.7327
10.753
10.7752
10.799
10.8245
10.8517
10.8807
10.9115
10.9442
10.9787
11.0151
11.0533
11.0934
11.1352
11.1789
11.2243
11.2713
11.32
11.3701
11.4215
11.4741
11.5276
11.5818
11.6364
11.691
11.7452
11.7986
11.8506
11.9007
11.9481
11.9923
12.0325
12.0681
12.0985
12.1229
12.1406
12.1535
1.63915
3.75556
11.4553
11.5276
11.0973
10.6879
10.5692
10.5838
10.6247
10.6644
10.6862
10.7
10.7144
10.7321
10.7525
10.7747
10.7985
10.8239
10.851
10.88
10.9108
10.9435
10.978
11.0143
11.0525
11.0925
11.1343
11.1779
11.2233
11.2703
11.3189
11.369
11.4204
11.4729
11.5264
11.5806
11.6352
11.6898
11.7441
11.7975
11.8496
11.8997
11.9472
11.9915
12.0318
12.0676
12.098
12.1226
12.1403
12.1533
1.63904
3.75463
11.4535
11.5268
11.0966
10.6872
10.5685
10.583
10.6239
10.6635
10.6852
10.6989
10.7134
10.731
10.7513
10.7734
10.7972
10.8225
10.8496
10.8785
10.9092
10.9418
10.9762
11.0124
11.0505
11.0904
11.1321
11.1756
11.2208
11.2677
11.3162
11.3661
11.4173
11.4698
11.5231
11.5772
11.6316
11.6861
11.7402
11.7936
11.8455
11.8956
11.9431
11.9873
12.0277
12.0634
12.0939
12.1185
12.1361
12.149
1.63891
3.75334
11.4502
11.5257
11.0956
10.686
10.5673
10.5818
10.6226
10.6621
10.6837
10.6973
10.7117
10.7292
10.7494
10.7715
10.7951
10.8203
10.8473
10.8761
10.9067
10.9391
10.9733
11.0094
11.0473
11.0871
11.1286
11.1719
11.2169
11.2636
11.3118
11.3615
11.4125
11.4647
11.5178
11.5716
11.6258
11.68
11.734
11.7871
11.8389
11.8888
11.9362
11.9804
12.0207
12.0564
12.0868
12.1115
12.1289
12.1418
1.63874
3.75147
11.4454
11.5243
11.0943
10.6844
10.5656
10.5801
10.6208
10.6601
10.6815
10.695
10.7093
10.7267
10.7468
10.7687
10.7922
10.8172
10.8441
10.8727
10.9031
10.9353
10.9693
11.0052
11.0429
11.0823
11.1236
11.1666
11.2113
11.2576
11.3055
11.3549
11.4055
11.4573
11.5101
11.5635
11.6173
11.6713
11.7249
11.7777
11.8292
11.8789
11.9261
11.9702
12.0105
12.0461
12.0766
12.1012
12.1186
12.1315
1.63852
3.74895
11.4391
11.5225
11.0927
10.6823
10.5633
10.5778
10.6183
10.6574
10.6786
10.692
10.7061
10.7234
10.7433
10.765
10.7883
10.8132
10.8398
10.8682
10.8983
10.9303
10.964
10.9996
11.0369
11.076
11.1169
11.1595
11.2038
11.2497
11.2972
11.3461
11.3962
11.4475
11.4998
11.5527
11.606
11.6595
11.7126
11.765
11.8161
11.8655
11.9125
11.9563
11.9964
12.032
12.0624
12.0871
12.1045
12.1176
1.63825
3.74571
11.4312
11.5203
11.0906
10.6797
10.5604
10.5748
10.6152
10.654
10.675
10.6881
10.7021
10.7192
10.7388
10.7603
10.7834
10.808
10.8343
10.8624
10.8923
10.9239
10.9573
10.9924
11.0294
11.0681
11.1085
11.1506
11.1944
11.2397
11.2866
11.3348
11.3844
11.435
11.4866
11.5388
11.5915
11.6443
11.6968
11.7486
11.7992
11.8481
11.8946
11.9382
11.9781
12.0136
12.0439
12.0686
12.086
12.0993
1.63793
3.74172
11.4215
11.5175
11.0881
10.6765
10.5568
10.5711
10.6112
10.6498
10.6705
10.6834
10.6971
10.714
10.7334
10.7546
10.7773
10.8016
10.8276
10.8554
10.8848
10.916
10.949
10.9837
11.0201
11.0582
11.0981
11.1395
11.1827
11.2273
11.2734
11.3209
11.3696
11.4195
11.4702
11.5216
11.5734
11.6253
11.677
11.728
11.7779
11.8261
11.8721
11.9152
11.9548
11.99
12.0202
12.045
12.0624
12.0759
1.63756
3.73691
11.41
11.5142
11.0851
10.6727
10.5525
10.5667
10.6065
10.6447
10.6651
10.6777
10.6911
10.7077
10.7268
10.7476
10.77
10.794
10.8195
10.8468
10.8758
10.9065
10.9389
10.9731
11.0089
11.0463
11.0855
11.1262
11.1685
11.2123
11.2575
11.3041
11.3518
11.4006
11.4503
11.5006
11.5513
11.6021
11.6527
11.7027
11.7516
11.799
11.8442
11.8866
11.9257
11.9606
11.9906
12.0153
12.0327
12.0466
1.63714
3.73124
11.3964
11.5104
11.0816
10.6681
10.5474
10.5614
10.6009
10.6387
10.6587
10.671
10.6841
10.7002
10.719
10.7394
10.7614
10.7848
10.81
10.8367
10.8652
10.8953
10.9271
10.9605
10.9956
11.0323
11.0705
11.1104
11.1517
11.1945
11.2386
11.284
11.3306
11.3781
11.4265
11.4755
11.5248
11.5743
11.6235
11.6721
11.7198
11.7659
11.8101
11.8516
11.8898
11.9242
11.9539
11.9785
11.9959
12.0101
1.63665
3.72466
11.3806
11.5059
11.0775
10.6629
10.5414
10.5551
10.5942
10.6316
10.6512
10.6631
10.6757
10.6915
10.7098
10.7298
10.7512
10.7742
10.7987
10.8249
10.8527
10.8821
10.9132
10.9458
10.98
11.0158
11.0531
11.0918
11.132
11.1736
11.2165
11.2605
11.3056
11.3516
11.3984
11.4458
11.4934
11.5412
11.5887
11.6356
11.6816
11.7261
11.7687
11.8089
11.8461
11.8796
11.9086
11.9329
11.9503
11.965
1.63609
3.71712
11.3627
11.5007
11.0728
10.6568
10.5344
10.5479
10.5865
10.6233
10.6425
10.6539
10.6661
10.6814
10.6991
10.7186
10.7395
10.7619
10.7858
10.8113
10.8383
10.8669
10.8971
10.9288
10.962
10.9967
11.0328
11.0704
11.1093
11.1494
11.1907
11.2332
11.2766
11.3208
11.3657
11.411
11.4566
11.5022
11.5476
11.5923
11.6361
11.6785
11.719
11.7574
11.7928
11.825
11.8531
11.8768
11.8939
11.909
1.63548
3.70859
11.3423
11.4948
11.0674
10.6499
10.5265
10.5396
10.5776
10.6138
10.6324
10.6433
10.655
10.6698
10.6869
10.7058
10.726
10.7477
10.7709
10.7956
10.8218
10.8495
10.8787
10.9093
10.9414
10.9749
11.0097
11.0458
11.0831
11.1216
11.1612
11.2017
11.2431
11.2852
11.3278
11.3708
11.4139
11.4569
11.4995
11.5414
11.5823
11.6218
11.6596
11.6953
11.7283
11.7582
11.7845
11.8072
11.8237
11.8394
1.6348
3.69903
11.3196
11.4881
11.0613
10.6422
10.5174
10.5302
10.5674
10.6029
10.6209
10.6313
10.6424
10.6565
10.673
10.6912
10.7107
10.7316
10.754
10.7778
10.803
10.8297
10.8578
10.8872
10.918
10.95
10.9833
11.0178
11.0533
11.0899
11.1275
11.1658
11.2049
11.2444
11.2844
11.3245
11.3645
11.4043
11.4435
11.4819
11.5191
11.5549
11.5888
11.6206
11.6499
11.6765
11.7
11.7206
11.7359
11.7518
1.63408
3.6884
11.2946
11.4805
11.0543
10.6335
10.5071
10.5195
10.5557
10.5905
10.6079
10.6176
10.628
10.6414
10.6572
10.6746
10.6934
10.7134
10.7348
10.7577
10.7818
10.8074
10.8342
10.8622
10.8915
10.922
10.9536
10.9862
11.0197
11.0542
11.0894
11.1252
11.1615
11.1981
11.2349
11.2716
11.308
11.3439
11.3789
11.4128
11.4452
11.4759
11.5046
11.5309
11.5547
11.5759
11.5945
11.6112
11.6239
11.6402
1.63328
3.67679
11.2672
11.4721
11.0466
10.6239
10.4956
10.5073
10.5425
10.5764
10.5931
10.6021
10.6118
10.6244
10.6394
10.656
10.6738
10.6929
10.7134
10.7351
10.7581
10.7823
10.8077
10.8343
10.8619
10.8906
10.9203
10.9508
10.9821
11.014
11.0466
11.0795
11.1127
11.1459
11.179
11.2117
11.2437
11.2749
11.3047
11.333
11.3593
11.3833
11.4047
11.4233
11.4389
11.4518
11.4623
11.4717
11.4789
11.4938
1.63243
3.66424
11.2374
11.463
11.0382
10.6131
10.4826
10.4937
10.5276
10.5605
10.5764
10.5846
10.5935
10.6054
10.6195
10.6352
10.652
10.6701
10.6894
10.7099
10.7316
10.7544
10.7783
10.8032
10.829
10.8557
10.8832
10.9114
10.9401
10.9693
10.9989
11.0285
11.0581
11.0874
11.1162
11.1443
11.1712
11.1966
11.2201
11.2414
11.2599
11.2752
11.2868
11.2945
11.2977
11.297
11.2935
11.2892
11.2852
11.2959
1.63153
3.65087
11.2055
11.4532
11.0291
10.6011
10.468
10.4783
10.5106
10.5425
10.5575
10.565
10.5731
10.584
10.5972
10.6119
10.6277
10.6447
10.6628
10.682
10.7022
10.7235
10.7457
10.7687
10.7925
10.8171
10.8422
10.8678
10.8937
10.9198
10.946
10.972
10.9975
11.0224
11.0463
11.0689
11.0898
11.1085
11.1244
11.1371
11.1459
11.1497
11.1482
11.1412
11.1262
11.1044
11.0765
11.0457
11.0155
11.0118
1.63059
3.63684
11.1721
11.4427
11.0192
10.5879
10.4516
10.4609
10.4916
10.5223
10.5365
10.5432
10.5504
10.5604
10.5726
10.5862
10.6009
10.6167
10.6334
10.6512
10.6699
10.6895
10.7098
10.7308
10.7525
10.7746
10.7971
10.8199
10.8427
10.8655
10.8879
10.9098
10.9309
10.9508
10.9691
10.9855
10.9995
11.0103
11.0174
11.0193
11.0165
11.007
10.9875
10.9585
10.9177
10.8634
10.7941
10.7122
10.6217
10.5663
1.62964
3.62244
11.1379
11.4316
11.0084
10.573
10.4329
10.4411
10.4697
10.4992
10.5126
10.5185
10.5248
10.5338
10.545
10.5576
10.5711
10.5856
10.601
10.6172
10.6343
10.652
10.6704
10.6893
10.7086
10.7281
10.7478
10.7675
10.7869
10.8059
10.8243
10.8417
10.8577
10.8721
10.8843
10.8937
10.8999
10.9014
10.8986
10.8897
10.8711
10.8429
10.8021
10.7458
10.6689
10.5659
10.4279
10.2469
10.0131
9.75876
1.62883
3.60414
11.0972
11.4184
10.9947
10.5537
10.4081
10.4147
10.4405
10.4687
10.4813
10.4863
10.4914
10.4992
10.5091
10.5202
10.5323
10.5451
10.5588
10.5731
10.588
10.6035
10.6193
10.6354
10.6517
10.668
10.6841
10.6998
10.715
10.7293
10.7425
10.7541
10.7638
10.7711
10.7753
10.7752
10.7723
10.7635
10.7454
10.7187
10.6809
10.6288
10.5581
10.4619
10.331
10.1486
9.88561
9.4804
8.78205
7.25983
1.62804
3.58465
11.0541
11.4012
10.9756
10.5254
10.3719
10.3765
10.399
10.4265
10.439
10.4434
10.4476
10.4542
10.4628
10.4726
10.483
10.4941
10.5057
10.5178
10.5303
10.543
10.5558
10.5687
10.5814
10.5938
10.6056
10.6166
10.6266
10.6353
10.6422
10.6471
10.6489
10.6479
10.6437
10.6338
10.6168
10.5923
10.5586
10.5129
10.4524
10.3721
10.2657
10.1234
9.93031
9.66263
9.2788
8.70986
7.86757
6.48131
1.62758
3.57338
11.0292
11.3896
10.9601
10.4971
10.3327
10.3349
10.3537
10.3809
10.3934
10.3972
10.4003
10.4055
10.4128
10.421
10.4298
10.439
10.4485
10.4583
10.4682
10.4782
10.4879
10.4974
10.5064
10.5148
10.5222
10.5284
10.5332
10.536
10.5362
10.5347
10.5298
10.5196
10.5042
10.4828
10.4539
10.4157
10.3661
10.3021
10.2196
10.1138
9.97645
9.79777
9.56242
9.24922
8.82897
8.26143
7.52959
6.55663
1.62694
3.56417
11.0059
11.3682
10.9321
10.4517
10.2778
10.28
10.3003
10.3309
10.3449
10.3484
10.3506
10.3549
10.3611
10.3682
10.3754
10.3828
10.3903
10.3978
10.4051
10.4122
10.4188
10.4249
10.4303
10.4346
10.4376
10.439
10.4385
10.4364
10.4312
10.4217
10.4083
10.39
10.3658
10.3346
10.2946
10.2442
10.1808
10.1013
10.0019
9.87738
9.7209
9.5237
9.27463
8.95986
8.56481
8.07374
7.49341
6.76438
1.62767
3.59853
11.0674
11.3655
10.9047
10.386
10.2008
10.206
10.2342
10.2721
10.2885
10.2921
10.2938
10.2974
10.3031
10.3092
10.3153
10.3212
10.3269
10.3323
10.3374
10.342
10.3458
10.3489
10.3508
10.3513
10.3506
10.3483
10.3431
10.3349
10.3235
10.3083
10.2884
10.2632
10.2313
10.1917
10.1426
10.0823
10.0084
9.91812
9.80788
9.67332
9.50912
9.30898
9.0656
8.77125
8.41868
8.00071
7.51979
6.96878
1.58995
3.70899
11.0722
11.2744
10.8239
10.3045
10.1317
10.1417
10.1783
10.2182
10.2347
10.2384
10.2404
10.2441
10.249
10.2539
10.2584
10.2624
10.266
10.2691
10.2716
10.2733
10.2741
10.2739
10.2728
10.2699
10.2646
10.2574
10.2476
10.2347
10.2182
10.1976
10.172
10.1406
10.1023
10.0559
9.99984
9.93242
9.85161
9.75489
9.63939
9.50167
9.33787
9.14366
8.91461
8.64625
8.33525
7.97894
7.57931
7.13167
1.55514
4.81619
11.2233
10.9533
10.3122
10.0553
10.0509
10.0775
10.1249
10.1514
10.1611
10.1653
10.1696
10.1746
10.1797
10.1843
10.1882
10.1913
10.1937
10.1953
10.1959
10.1956
10.1946
10.1922
10.1877
10.1817
10.174
10.1639
10.1508
10.1343
10.1138
10.0888
10.0586
10.0223
9.97912
9.92773
9.86694
9.79514
9.71057
9.61119
9.49469
9.35854
9.19998
9.01612
8.80425
8.56195
8.28775
7.98164
7.64496
7.27049
1.55603
4.82316
11.1731
10.8843
10.2396
10.0003
10.0105
10.053
10.1014
10.1231
10.1291
10.1317
10.1347
10.1379
10.1405
10.1421
10.1428
10.1427
10.142
10.1402
10.1371
10.1332
10.1283
10.122
10.114
10.1041
10.0919
10.0772
10.0596
10.0389
10.0145
9.98584
9.95211
9.91224
9.86529
9.81042
9.74641
9.67201
9.58584
9.48625
9.3715
9.23968
9.0889
8.91719
8.72295
8.50476
8.26191
7.99389
7.70701
7.39098
1.56619
4.84228
11.2357
10.9042
10.1833
9.92285
9.93796
9.99271
10.0501
10.0745
10.0808
10.0835
10.0869
10.0902
10.0926
10.0936
10.0934
10.0925
10.0901
10.0859
10.0808
10.0745
10.0668
10.0575
10.0463
10.033
10.0174
9.99933
9.97836
9.9541
9.92589
9.8931
9.85515
9.81165
9.76187
9.70475
9.63938
9.56432
9.47837
9.38028
9.26889
9.1427
9.00056
8.84112
8.66341
8.46676
8.25147
8.01735
7.76825
7.49783
1.55651
4.82046
11.1598
10.8524
10.1593
9.89806
9.91015
9.95944
10.0156
10.0399
10.0455
10.047
10.0489
10.0508
10.0515
10.0511
10.0495
10.0461
10.0412
10.0354
10.0283
10.0198
10.0097
9.99785
9.98403
9.96803
9.94959
9.9285
9.90436
9.87688
9.8455
9.8098
9.76933
9.72336
9.67127
9.61213
9.54522
9.46976
9.38492
9.28962
9.18292
9.06359
8.93061
8.78318
8.62101
8.44402
8.25241
8.04559
7.82719
7.59246
1.52733
4.76284
10.9523
10.7277
10.1507
9.90266
9.90359
9.93302
9.98168
10.005
10.0107
10.0114
10.0121
10.0123
10.0118
10.0102
10.0065
10.0014
9.99518
9.98778
9.97896
9.96857
9.95642
9.94242
9.92631
9.90802
9.88719
9.86368
9.83705
9.80708
9.77336
9.73546
9.69292
9.64515
9.59167
9.53181
9.46492
9.39029
9.3072
9.21483
9.11236
8.99924
8.87497
8.73906
8.59104
8.43058
8.25781
8.07485
7.88215
7.67617
1.51126
4.71734
10.8691
10.7328
10.2339
9.94124
9.88949
9.90783
9.94728
9.97137
9.97809
9.97781
9.97664
9.97433
9.97143
9.9676
9.96251
9.95615
9.94849
9.93951
9.92902
9.91694
9.90306
9.88733
9.86948
9.8494
9.82676
9.80144
9.77304
9.74131
9.70594
9.66652
9.62274
9.57407
9.52002
9.4601
9.39383
9.32064
9.23996
9.15115
9.05369
8.94708
8.83094
8.70493
8.56894
8.42306
8.26762
8.1033
7.93133
7.74874
1.66809
3.29277
10.5075
11.013
10.597
10.0772
9.88914
9.8931
9.91838
9.95143
9.96213
9.96097
9.95701
9.95065
9.94481
9.93888
9.93197
9.92371
9.91406
9.90298
9.89042
9.87621
9.86019
9.84238
9.8225
9.80036
9.77569
9.74835
9.71802
9.68449
9.64745
9.60655
9.56144
9.51173
9.45705
9.39705
9.33138
9.25959
9.18123
9.09591
9.0031
8.90252
8.7939
8.67699
8.5518
8.41846
8.27727
8.12874
7.97402
7.81064
1.67601
3.16917
10.4417
11.1647
10.7159
10.1121
9.86736
9.85453
9.87227
9.90444
9.91488
9.91301
9.907
9.89765
9.89002
9.88348
9.87653
9.86833
9.85866
9.84751
9.83483
9.82048
9.80433
9.78618
9.76591
9.74333
9.71816
9.69029
9.65939
9.62533
9.58777
9.54653
9.50134
9.45192
9.39804
9.33925
9.27517
9.20544
9.12978
9.04776
8.95914
8.86378
8.76164
8.65283
8.5372
8.41482
8.28588
8.15083
8.01065
7.86321
1.64117
3.05466
9.91289
11.0087
10.6486
10.1098
9.88663
9.86578
9.87675
9.89507
9.89673
9.89278
9.88263
9.86926
9.85808
9.84838
9.83859
9.82782
9.81585
9.80261
9.78804
9.77201
9.75433
9.73485
9.71337
9.68973
9.66374
9.63513
9.60365
9.56913
9.53137
9.49015
9.44522
9.3963
9.34313
9.2854
9.22285
9.15521
9.08225
9.00386
8.91993
8.83023
8.73458
8.63283
8.52487
8.41109
8.29231
8.16884
8.04116
7.9073
1.43606
4.54911
10.3367
10.5122
10.2198
9.92513
9.81715
9.81453
9.82281
9.83332
9.83323
9.82969
9.82064
9.80868
9.79842
9.78929
9.7798
9.76918
9.75728
9.74408
9.72953
9.71347
9.69575
9.6762
9.65468
9.631
9.60502
9.57647
9.54519
9.51107
9.47388
9.43336
9.38929
9.34149
9.28972
9.23374
9.17336
9.10837
9.03862
8.96397
8.88428
8.79946
8.70942
8.61418
8.51415
8.40941
8.29985
8.18569
8.06794
7.94516
1.63352
3.00319
9.72782
10.8965
10.5816
10.0813
9.86185
9.82759
9.83294
9.83942
9.83667
9.82751
9.81083
9.79503
9.78142
9.76886
9.75603
9.7422
9.72717
9.71107
9.69388
9.6754
9.65543
9.63381
9.61037
9.585
9.55751
9.52786
9.49589
9.46128
9.42381
9.38331
9.3396
9.29253
9.24189
9.18745
9.12902
9.06646
8.99961
8.92836
8.85261
8.77235
8.68756
8.59829
8.50468
8.40686
8.30496
8.19939
8.09073
7.97775
1.64238
2.93508
9.72922
11.0214
10.64
10.0491
9.79185
9.75834
9.7685
9.78415
9.78306
9.77591
9.75995
9.74286
9.72902
9.71689
9.70464
9.69154
9.67742
9.66205
9.64528
9.62707
9.60732
9.5859
9.56271
9.53758
9.51035
9.48091
9.44909
9.41473
9.37767
9.3378
9.29492
9.24882
9.19935
9.14642
9.08989
9.02964
8.96557
8.8976
8.82567
8.7497
8.66972
8.58578
8.49794
8.40637
8.31125
8.21305
8.11218
8.00739
1.64069
2.91577
9.67471
10.9998
10.6149
10.009
9.74238
9.70728
9.71842
9.73675
9.73625
9.73
9.71503
9.69742
9.6833
9.67124
9.65915
9.64608
9.63181
9.61626
9.59938
9.58108
9.56127
9.53984
9.51664
9.49156
9.46447
9.43523
9.40372
9.3698
9.33334
9.29421
9.25226
9.20735
9.15934
9.10813
9.05364
8.99579
8.93448
8.86966
8.80127
8.72929
8.65372
8.57463
8.49214
8.40638
8.31743
8.22564
8.13146
8.03375
1.62632
2.92432
9.50662
10.8594
10.5494
9.99836
9.74278
9.69491
9.69962
9.70791
9.70559
9.69704
9.67982
9.6631
9.64878
9.63569
9.62247
9.60842
9.59331
9.57706
9.5596
9.54083
9.52063
9.49888
9.47546
9.45025
9.42312
9.39397
9.36268
9.32913
9.29318
9.2547
9.2136
9.16978
9.12316
9.07367
9.02118
8.96561
8.90688
8.84497
8.77986
8.71151
8.63997
8.56527
8.48752
8.40684
8.32347
8.23749
8.14922
8.05763
1.3943
4.48175
10.0358
10.3046
10.0239
9.73627
9.6284
9.61926
9.62466
9.63124
9.63017
9.62495
9.61362
9.6009
9.58945
9.57859
9.56724
9.55478
9.54106
9.526
9.50959
9.49175
9.47242
9.45151
9.42891
9.40453
9.37825
9.34997
9.31961
9.28709
9.2523
9.21512
9.17547
9.13328
9.08846
9.04093
8.9906
8.93741
8.88133
8.82235
8.76045
8.69567
8.628
8.55746
8.4841
8.40802
8.32942
8.24838
8.16525
8.07906
1.63155
2.94801
9.59389
10.8426
10.4986
9.90976
9.63628
9.59394
9.60424
9.62468
9.62626
9.62159
9.60919
9.59187
9.57694
9.56382
9.5506
9.53634
9.52077
9.50387
9.48574
9.46622
9.44533
9.42307
9.39937
9.3741
9.34711
9.3183
9.28756
9.2548
9.21999
9.1831
9.14407
9.10277
9.05913
9.01305
8.96447
8.91335
8.85962
8.8032
8.7441
8.68229
8.61782
8.55075
8.48117
8.40919
8.33493
8.25846
8.18001
8.09867
1.6418
3.07746
9.86668
10.7746
10.3921
9.78023
9.51834
9.4982
9.51552
9.54832
9.55778
9.55511
9.54675
9.53251
9.52002
9.50915
9.49808
9.48578
9.47202
9.45689
9.44053
9.4229
9.40377
9.38302
9.36055
9.33634
9.31039
9.28264
9.25302
9.22152
9.18804
9.15251
9.11484
9.07497
9.03283
8.98836
8.94153
8.8923
8.84063
8.78651
8.72996
8.67101
8.60968
8.54592
8.47982
8.41145
8.34091
8.26831
8.19386
8.1167
1.40444
4.54565
10.1045
10.1595
9.85373
9.54637
9.44681
9.45212
9.4715
9.49148
9.49721
9.49569
9.49064
9.48119
9.47184
9.46278
9.45301
9.4419
9.42932
9.41529
9.39984
9.38293
9.36446
9.34438
9.32264
9.29922
9.2741
9.24722
9.21852
9.18793
9.15547
9.12106
9.08467
9.0462
9.00563
8.9629
8.91798
8.87082
8.82141
8.76973
8.71577
8.65952
8.60104
8.5404
8.47761
8.41274
8.34584
8.27698
8.20632
8.13306
1.38839
4.55537
10.0008
10.0257
9.78384
9.55159
9.4692
9.46656
9.47273
9.48215
9.48383
9.48176
9.47581
9.46577
9.45546
9.44504
9.43384
9.42144
9.40776
9.39278
9.37652
9.35894
9.33998
9.3196
9.29772
9.2743
9.24929
9.22265
9.19434
9.16432
9.13248
9.09878
9.06316
9.02557
8.98598
8.94436
8.90065
8.8548
8.80692
8.75705
8.70515
8.65117
8.5951
8.53697
8.47681
8.41465
8.35057
8.28468
8.21716
8.14722
1.42153
4.56882
10.2127
10.1825
9.7985
9.46311
9.36996
9.38192
9.41313
9.43759
9.44451
9.44314
9.43853
9.42992
9.42096
9.41184
9.40188
9.39059
9.37784
9.36364
9.348
9.3309
9.31232
9.29227
9.27072
9.24763
9.22298
9.19671
9.16884
9.13931
9.10806
9.07505
9.04022
9.00359
8.96514
8.92486
8.88272
8.83875
8.79283
8.74489
8.69495
8.64306
8.58926
8.53354
8.47594
8.41648
8.35524
8.29227
8.22766
8.16059
1.53229
3.35223
9.88901
10.7069
10.3191
9.67692
9.39307
9.36726
9.3849
9.42076
9.43491
9.43388
9.42923
9.41945
9.40898
9.39899
9.38854
9.37689
9.3638
9.34928
9.33338
9.31611
9.29745
9.27734
9.25574
9.23263
9.2079
9.18154
9.15368
9.12419
9.09302
9.06015
9.0256
8.98936
8.95141
8.91173
8.8703
8.82711
8.78213
8.73534
8.68678
8.63647
8.58432
8.53036
8.47469
8.41736
8.35843
8.29792
8.23595
8.17182
1.39676
4.53414
10.0663
10.0953
9.7922
9.46713
9.34514
9.34358
9.35499
9.37645
9.38527
9.38457
9.38106
9.37339
9.36443
9.35568
9.34648
9.33613
9.32433
9.31107
9.29641
9.28034
9.26284
9.24387
9.22339
9.20138
9.1778
9.15266
9.12599
9.09774
9.06791
9.0365
9.00347
8.96874
8.93229
8.89411
8.8542
8.81255
8.76916
8.72404
8.67716
8.62852
8.57824
8.52636
8.47285
8.41775
8.36108
8.30293
8.2434
8.18197
1.39415
4.53125
10.0489
10.0823
9.77562
9.44775
9.32754
9.32785
9.34042
9.36317
9.37256
9.37168
9.36761
9.35902
9.34935
9.33987
9.32991
9.3188
9.30629
9.2924
9.27719
9.26069
9.24287
9.22371
9.20319
9.18128
9.15799
9.1333
9.1071
9.07933
9.04999
9.01904
8.98651
8.95242
8.91677
8.87954
8.84068
8.8002
8.75808
8.71432
8.66894
8.62193
8.57334
8.52318
8.47145
8.41819
8.36343
8.30721
8.24961
8.19017
1.53046
3.34023
9.84956
10.6878
10.3016
9.63712
9.33332
9.29761
9.31416
9.34896
9.36416
9.36327
9.3587
9.34884
9.33803
9.32807
9.31801
9.30696
9.29453
9.28075
9.26565
9.24924
9.2315
9.21242
9.19194
9.16999
9.14672
9.12201
9.09581
9.0681
9.03889
9.00816
8.97594
8.94223
8.90701
8.87027
8.832
8.79219
8.75083
8.70794
8.66352
8.61758
8.57013
8.5212
8.47079
8.41896
8.36572
8.31112
8.25528
8.19776
1.40815
4.54768
10.1187
10.0923
9.70688
9.35402
9.24387
9.25312
9.28241
9.31138
9.32098
9.32005
9.31616
9.3081
9.29945
9.29097
9.28193
9.27172
9.26014
9.24722
9.23299
9.21748
9.20067
9.18253
9.16304
9.14217
9.11993
9.0963
9.07123
9.04471
9.01671
8.98729
8.95642
8.92408
8.89024
8.8549
8.81806
8.77972
8.73989
8.69855
8.65568
8.61129
8.5654
8.51803
8.46922
8.41898
8.36732
8.31434
8.26012
8.20425
1.3931
4.55547
10.0078
9.98195
9.66888
9.38852
9.30004
9.30306
9.31524
9.32604
9.32658
9.32408
9.31748
9.30738
9.29735
9.28742
9.27691
9.26536
9.25266
9.23879
9.22376
9.20757
9.19021
9.17164
9.15184
9.13078
9.10845
9.08482
9.05988
9.0336
9.006
8.97701
8.94658
8.91472
8.88141
8.84665
8.81041
8.77271
8.73354
8.69295
8.65093
8.60749
8.56263
8.51635
8.46867
8.41959
8.36919
8.31743
8.26437
8.20954
1.38514
4.54775
9.95909
9.94769
9.65899
9.38726
9.295
9.29432
9.30048
9.30818
9.30824
9.30598
9.29983
9.28992
9.27999
9.27019
9.25984
9.24854
9.23615
9.22266
9.20808
9.19235
9.17545
9.15734
9.13801
9.11742
9.09557
9.07242
9.04797
9.02219
8.99506
8.96656
8.93668
8.90542
8.87275
8.8387
8.80325
8.76641
8.72814
8.68845
8.64734
8.60481
8.56088
8.51555
8.46888
8.42091
8.3716
8.32092
8.26891
8.2151
1.37723
4.50927
9.91955
10.0316
9.73129
9.40341
9.28217
9.27815
9.28675
9.2991
9.3012
9.29884
9.29215
9.2811
9.27039
9.26024
9.24976
9.23835
9.22583
9.21219
9.19743
9.18156
9.16454
9.14636
9.12698
9.10641
9.0846
9.06155
9.03723
9.01164
8.98475
8.95654
8.92702
8.89615
8.86394
8.83037
8.79544
8.75915
8.72147
8.68243
8.64202
8.60026
8.55716
8.51276
8.46701
8.41989
8.37146
8.32175
8.27082
8.21829
1.62614
2.96909
9.52194
10.6176
10.2731
9.64746
9.33801
9.27221
9.27977
9.29798
9.30542
9.30316
9.29562
9.28124
9.26804
9.25673
9.24586
9.23432
9.22168
9.2079
9.19303
9.17709
9.16006
9.14191
9.12259
9.10209
9.08038
9.05745
9.03327
9.00783
8.9811
8.95309
8.92376
8.89311
8.86114
8.82783
8.79317
8.75718
8.71984
8.68116
8.64114
8.59979
8.55713
8.51316
8.4679
8.42136
8.3736
8.3247
8.27471
8.22332
1.63546
2.85384
9.48433
10.8213
10.4149
9.67677
9.30967
9.23173
9.24228
9.26825
9.28289
9.28167
9.27554
9.26215
9.24802
9.23645
9.22601
9.21509
9.20301
9.18971
9.17527
9.15976
9.14316
9.12545
9.10659
9.08656
9.06535
9.04292
9.01927
8.99437
8.96821
8.94078
8.91207
8.88205
8.85073
8.81809
8.78414
8.74886
8.71226
8.67433
8.63508
8.59451
8.55263
8.50944
8.46496
8.41923
8.37227
8.32414
8.27492
8.22436
1.62649
2.96221
9.50653
10.6082
10.2637
9.63137
9.31384
9.24623
9.25461
9.27522
9.28538
9.2835
9.27644
9.26203
9.24817
9.23646
9.2255
9.214
9.20143
9.18774
9.17299
9.15722
9.14042
9.12256
9.10359
9.08349
9.06225
9.03983
9.01623
8.99141
8.96537
8.93808
8.90954
8.87973
8.84863
8.81625
8.78257
8.74759
8.7113
8.67371
8.63481
8.59462
8.55313
8.51036
8.46632
8.42103
8.37451
8.32677
8.27788
8.22745
1.3742
4.50588
9.90012
10.012
9.70749
9.36538
9.2367
9.23226
9.24178
9.25633
9.25946
9.25723
9.25073
9.23975
9.22915
9.21921
9.20902
9.19796
9.18584
9.17266
9.15844
9.1432
9.12691
9.10955
9.09109
9.07151
9.05079
9.0289
9.00582
8.98155
8.95606
8.92933
8.90136
8.87212
8.84161
8.80982
8.77673
8.74236
8.70668
8.6697
8.63141
8.59182
8.55093
8.50876
8.46531
8.4206
8.37463
8.32739
8.27889
8.22864
1.37997
4.54112
9.92462
9.90714
9.60728
9.33022
9.24233
9.24463
9.25534
9.26531
9.26555
9.26295
9.256
9.24517
9.23455
9.22428
9.21357
9.20198
9.18938
9.17579
9.1612
9.14562
9.12901
9.11135
9.09261
9.07278
9.05183
9.02973
9.00648
8.98204
8.95642
8.92958
8.90151
8.87221
8.84165
8.80984
8.77675
8.7424
8.70676
8.66984
8.63163
8.59215
8.55139
8.50937
8.46609
8.42156
8.3758
8.32883
8.28065
8.23095
1.40416
4.56239
10.055
9.98763
9.59228
9.27622
9.19342
9.20503
9.23475
9.25516
9.25771
9.25506
9.24803
9.23765
9.2277
9.21801
9.20774
9.19647
9.18414
9.17078
9.15641
9.14104
9.12464
9.10718
9.08864
9.069
9.04824
9.02634
9.00329
8.97905
8.95362
8.92697
8.8991
8.87
8.83964
8.80802
8.77513
8.74097
8.70552
8.6688
8.63079
8.5915
8.55093
8.5091
8.46601
8.42168
8.37613
8.32938
8.28147
8.2322
3.0443
2.45915
3.00473
4.18122
4.12724
4.11031
4.04941
4.01173
3.99884
4.00161
4.02929
4.07296
4.11009
4.14078
4.17475
4.21746
4.26912
4.32719
4.38883
4.45172
4.51413
4.57486
4.63339
4.69031
4.74127
4.78659
4.82626
4.86065
4.88976
4.91378
4.93273
4.9468
4.95611
4.96087
4.96128
4.95965
4.95432
4.94303
4.9276
4.90984
4.88983
4.86751
4.843
4.81657
4.78849
4.75902
4.72843
4.69695
4.66481
4.63224
4.59946
4.56667
4.53408
4.50189
4.47031
4.43952
4.40974
4.38115
4.35396
4.32836
4.30454
4.2827
4.26301
4.24564
4.23075
4.21845
4.20884
4.20195
4.19775
4.19631
4.19653
4.19763
4.20069
4.20744
4.21921
4.23226
4.24564
4.25921
4.27281
4.28615
4.29888
4.31067
4.32127
4.33051
4.33826
4.34448
4.34918
4.35239
4.35421
4.35482
4.35475
4.35437
4.35332
4.35102
4.34707
4.3427
4.33819
4.33349
4.32845
4.32402
4.09682
3.55501
3.75763
4.23579
4.15291
4.09619
4.03683
3.99638
3.98475
3.99699
4.0382
4.0887
4.1205
4.14238
4.1714
4.21232
4.2636
4.32162
4.38314
4.44593
4.50825
4.56912
4.62793
4.68459
4.73562
4.78096
4.82073
4.85526
4.88451
4.90866
4.92772
4.9419
4.95128
4.95607
4.95629
4.95511
4.95084
4.94085
4.92389
4.90551
4.88566
4.86367
4.83941
4.81314
4.78518
4.75583
4.72535
4.69398
4.66195
4.62948
4.59679
4.56409
4.53157
4.49945
4.46793
4.4372
4.40746
4.37891
4.35176
4.32618
4.30239
4.28057
4.2609
4.24355
4.22869
4.21643
4.20689
4.20009
4.19613
4.19518
4.19547
4.19664
4.19971
4.20635
4.2182
4.23156
4.2453
4.25914
4.27295
4.28644
4.29931
4.31122
4.32192
4.33122
4.339
4.34523
4.3499
4.35307
4.35485
4.35537
4.35527
4.35489
4.35385
4.35159
4.34754
4.34303
4.33844
4.33383
4.32902
4.32621
5.22633
4.46536
4.23734
4.26908
4.24979
4.19722
4.11502
4.06196
4.04194
4.04444
4.057
4.08634
4.12161
4.15304
4.18611
4.22675
4.27572
4.33128
4.39066
4.45159
4.51234
4.57178
4.62908
4.68359
4.73376
4.7786
4.81796
4.85201
4.88083
4.90457
4.92327
4.93709
4.94611
4.95048
4.9504
4.94931
4.94567
4.93704
4.91976
4.9004
4.87995
4.85785
4.83371
4.8076
4.77976
4.75051
4.72014
4.68888
4.65696
4.62461
4.59204
4.55945
4.52705
4.49503
4.4636
4.43296
4.40331
4.37485
4.34777
4.32227
4.29855
4.2768
4.25721
4.23995
4.22518
4.21305
4.20368
4.19717
4.19364
4.19334
4.1937
4.19499
4.1982
4.20501
4.21681
4.23043
4.24467
4.25906
4.27332
4.28717
4.30032
4.31245
4.32331
4.33271
4.34054
4.34676
4.35139
4.35446
4.35613
4.35644
4.35632
4.35588
4.35476
4.35236
4.34821
4.34357
4.33887
4.33432
4.32972
4.32865
5.82978
5.09677
4.6644
4.46776
4.42895
4.36303
4.27066
4.19023
4.1384
4.11815
4.12048
4.1316
4.15787
4.19486
4.22836
4.26322
4.30409
4.35184
4.40491
4.46099
4.51803
4.57456
4.62933
4.68162
4.73004
4.77378
4.81236
4.84565
4.87378
4.8969
4.91505
4.92835
4.9369
4.94069
4.94052
4.93939
4.93602
4.92824
4.91235
4.89226
4.87093
4.84839
4.82424
4.79833
4.77076
4.74178
4.71166
4.68066
4.649
4.6169
4.58457
4.55222
4.52005
4.48825
4.45704
4.42661
4.39717
4.3689
4.34201
4.3167
4.29316
4.27159
4.25218
4.23511
4.22055
4.20866
4.19957
4.19349
4.19065
4.19072
4.19127
4.19285
4.19647
4.20391
4.21543
4.22911
4.24383
4.25889
4.27377
4.28813
4.30165
4.31404
4.32508
4.33458
4.34246
4.34866
4.35321
4.35619
4.35769
4.35772
4.35756
4.35701
4.35569
4.35298
4.34882
4.34412
4.33932
4.33481
4.33045
4.33053
6.23276
5.59782
5.12341
4.83427
4.68546
4.57249
4.46103
4.35947
4.28198
4.23452
4.21478
4.21575
4.22209
4.23859
4.2711
4.30387
4.34014
4.38144
4.42759
4.47735
4.52916
4.58145
4.63279
4.68202
4.72812
4.77012
4.80742
4.83957
4.8667
4.88899
4.90635
4.91891
4.92682
4.92984
4.92958
4.92833
4.92497
4.91753
4.90248
4.88273
4.86095
4.83785
4.81341
4.78751
4.76015
4.73146
4.70165
4.67096
4.63962
4.60782
4.5758
4.54375
4.51187
4.48038
4.44946
4.41932
4.39017
4.36219
4.3356
4.31058
4.28733
4.26605
4.24694
4.23017
4.21593
4.20439
4.19578
4.19021
4.18813
4.18831
4.18908
4.19106
4.1953
4.20359
4.21487
4.22845
4.24345
4.25904
4.27452
4.2894
4.3033
4.31595
4.32713
4.33671
4.34459
4.35074
4.3552
4.35805
4.35925
4.3592
4.35891
4.35814
4.35648
4.35337
4.34926
4.34458
4.33973
4.33524
4.33125
4.33155
6.5398
6.00477
5.5502
5.2065
4.97354
4.80712
4.67
4.55071
4.45261
4.38053
4.33528
4.31344
4.31339
4.31659
4.32728
4.35046
4.38283
4.41882
4.4576
4.49952
4.54417
4.59043
4.63683
4.68209
4.72507
4.76475
4.80031
4.83122
4.8573
4.87864
4.89507
4.90687
4.91411
4.91634
4.91601
4.91466
4.91121
4.9038
4.88919
4.87028
4.84862
4.82519
4.80042
4.77442
4.7472
4.71882
4.68941
4.65913
4.6282
4.59683
4.56521
4.53357
4.50211
4.47103
4.44054
4.41083
4.3821
4.35456
4.32839
4.30381
4.281
4.26017
4.2415
4.22516
4.21142
4.20042
4.19237
4.18733
4.18607
4.18635
4.18734
4.18975
4.19478
4.20364
4.21505
4.22859
4.24364
4.25946
4.27531
4.29055
4.30474
4.31759
4.32888
4.33849
4.34634
4.35244
4.35682
4.35952
4.36038
4.36028
4.35986
4.35887
4.3568
4.35348
4.34932
4.34464
4.33978
4.33533
4.33163
4.33204
6.78401
6.33353
5.91599
5.55695
5.27639
5.06466
4.89691
4.75691
4.6398
4.54632
4.47768
4.43299
4.40954
4.40383
4.40547
4.4122
4.42801
4.45648
4.48828
4.52353
4.56153
4.60138
4.64207
4.68261
4.72188
4.75874
4.79221
4.82161
4.84652
4.86684
4.8825
4.89354
4.90004
4.9015
4.90109
4.89962
4.896
4.88836
4.87422
4.85598
4.83471
4.81131
4.7864
4.76033
4.73321
4.7051
4.67608
4.64627
4.61582
4.58494
4.55382
4.52268
4.49173
4.46117
4.4312
4.40202
4.37384
4.34686
4.32126
4.29724
4.27502
4.25478
4.23671
4.22104
4.20789
4.19748
4.19003
4.18561
4.18514
4.1855
4.18672
4.18955
4.19541
4.20479
4.21643
4.22993
4.24485
4.2606
4.27646
4.29178
4.30607
4.31898
4.3303
4.3399