/*--------------------------------*- C++ -*----------------------------------*\
| =========                 |                                                 |
| \\      /  F ield         | OpenFOAM: The Open Source CFD Toolbox           |
|  \\    /   O peration     | Version:  2412                                  |
|   \\  /    A nd           | Website:  www.openfoam.com                      |
|    \\/     M anipulation  |                                                 |
\*---------------------------------------------------------------------------*/
FoamFile
{
    version     2.0;
    format      ascii;
    arch        "LSB;label=32;scalar=64";
    class       volVectorField;
    location    "25.5";
    object      U;
}
// * * * * * * * * * * * * * * * * * * * * * * * * * * * * * * * * * * * * * //

dimensions      [0 1 -1 0 0 0 0];

internalField   nonuniform List<vector> 
7000
(
(2.59105 -7.24834e-05 0)
(1.6205 0.000178365 0)
(0.495632 0.000208982 0)
(0.552994 0.000350762 0)
(0.654684 0.000446557 0)
(0.71988 0.000524597 0)
(0.732762 0.00059244 0)
(0.725869 0.000662735 0)
(0.715807 0.000741197 0)
(0.708109 0.000831613 0)
(0.703641 0.000930256 0)
(0.700073 0.00103346 0)
(0.695988 0.00114043 0)
(0.691132 0.00125209 0)
(0.685668 0.00136948 0)
(0.679721 0.00149317 0)
(0.673309 0.00162345 0)
(0.666398 0.00176064 0)
(0.658954 0.00190518 0)
(0.650949 0.00205763 0)
(0.642361 0.00221857 0)
(0.633167 0.00238868 0)
(0.623342 0.00256868 0)
(0.612859 0.00275932 0)
(0.601688 0.00296143 0)
(0.5898 0.00317589 0)
(0.577161 0.0034036 0)
(0.563739 0.00364553 0)
(0.549499 0.00390264 0)
(0.534404 0.00417591 0)
(0.518418 0.00446633 0)
(0.501501 0.00477476 0)
(0.483617 0.00510209 0)
(0.464728 0.00544894 0)
(0.444797 0.00581592 0)
(0.423792 0.0062031 0)
(0.401683 0.00661054 0)
(0.378445 0.0070374 0)
(0.354061 0.00748277 0)
(0.328524 0.00794444 0)
(0.301838 0.00842005 0)
(0.27402 0.00890549 0)
(0.245106 0.00939683 0)
(0.215149 0.00988771 0)
(0.184223 0.0103736 0)
(0.152419 0.0108475 0)
(0.119821 0.0113135 0)
(0.0868493 0.0117555 0)
(0.0514911 0.0123442 0)
(0.0221145 0.0131963 0)
(2.59118 -4.80855e-05 0)
(1.62067 0.000347463 0)
(0.49532 0.000828105 0)
(0.552733 0.00113977 0)
(0.654445 0.00137489 0)
(0.719655 0.00159692 0)
(0.732537 0.00180494 0)
(0.725648 0.00202024 0)
(0.715595 0.00225775 0)
(0.707906 0.00252753 0)
(0.703445 0.00282033 0)
(0.699881 0.00312657 0)
(0.695799 0.00344408 0)
(0.690949 0.00377513 0)
(0.68549 0.00412236 0)
(0.679549 0.00448715 0)
(0.673142 0.00487024 0)
(0.666238 0.0052723 0)
(0.658799 0.00569444 0)
(0.650801 0.0061379 0)
(0.64222 0.00660421 0)
(0.633034 0.00709484 0)
(0.623217 0.00761154 0)
(0.612742 0.00815593 0)
(0.60158 0.00872994 0)
(0.5897 0.00933527 0)
(0.577071 0.00997394 0)
(0.563659 0.0106475 0)
(0.549428 0.011358 0)
(0.534343 0.0121066 0)
(0.518365 0.0128949 0)
(0.501457 0.0137232 0)
(0.48358 0.0145924 0)
(0.464697 0.0155013 0)
(0.44477 0.0164491 0)
(0.423766 0.0174325 0)
(0.401653 0.0184481 0)
(0.378406 0.0194891 0)
(0.354007 0.0205482 0)
(0.328446 0.021614 0)
(0.301725 0.0226742 0)
(0.273861 0.023712 0)
(0.244886 0.0247099 0)
(0.214851 0.0256467 0)
(0.183827 0.0265017 0)
(0.151907 0.0272554 0)
(0.119163 0.0279055 0)
(0.086064 0.028426 0)
(0.0505454 0.0290766 0)
(0.0211885 0.0298265 0)
(2.59131 4.76377e-05 0)
(1.62096 0.000392387 0)
(0.495527 0.00160503 0)
(0.552785 0.00198059 0)
(0.654487 0.00230479 0)
(0.719697 0.00267041 0)
(0.732579 0.00303984 0)
(0.725702 0.00341869 0)
(0.71567 0.00382879 0)
(0.708003 0.00428671 0)
(0.703556 0.00478139 0)
(0.700001 0.00530002 0)
(0.695929 0.00583967 0)
(0.691089 0.0064032 0)
(0.685644 0.00699459 0)
(0.679716 0.00761584 0)
(0.673324 0.00826859 0)
(0.666434 0.00895391 0)
(0.659011 0.00967403 0)
(0.651029 0.0104309 0)
(0.642466 0.0112274 0)
(0.633299 0.0120659 0)
(0.623502 0.0129497 0)
(0.613049 0.0138815 0)
(0.60191 0.0148649 0)
(0.590055 0.0159028 0)
(0.577452 0.0169991 0)
(0.564067 0.0181564 0)
(0.549864 0.0193786 0)
(0.534808 0.0206677 0)
(0.51886 0.0220269 0)
(0.501983 0.0234573 0)
(0.484136 0.0249604 0)
(0.465281 0.0265352 0)
(0.44538 0.0281803 0)
(0.424398 0.0298913 0)
(0.402303 0.031662 0)
(0.379067 0.0334829 0)
(0.354669 0.0353405 0)
(0.329098 0.0372184 0)
(0.302352 0.0390935 0)
(0.274445 0.0409412 0)
(0.245406 0.0427286 0)
(0.215283 0.044424 0)
(0.184144 0.0459904 0)
(0.152084 0.0473928 0)
(0.119169 0.0486188 0)
(0.0859277 0.049629 0)
(0.0502699 0.0506813 0)
(0.020749 0.051674 0)
(2.59148 5.41202e-05 0)
(1.62141 0.000535881 0)
(0.495955 0.00235107 0)
(0.552908 0.00281443 0)
(0.654609 0.00323711 0)
(0.71984 0.00375712 0)
(0.732727 0.00430345 0)
(0.725864 0.00485939 0)
(0.715861 0.00545212 0)
(0.708226 0.00610437 0)
(0.703802 0.00680587 0)
(0.700264 0.00754275 0)
(0.696209 0.00831122 0)
(0.691389 0.00911439 0)
(0.685965 0.00995682 0)
(0.680061 0.0108414 0)
(0.673692 0.0117703 0)
(0.666828 0.0127455 0)
(0.659432 0.0137699 0)
(0.651479 0.0148466 0)
(0.642947 0.0159792 0)
(0.633812 0.0171716 0)
(0.62405 0.0184281 0)
(0.613634 0.019753 0)
(0.602535 0.0211509 0)
(0.590722 0.0226266 0)
(0.578163 0.0241848 0)
(0.564825 0.0258306 0)
(0.550671 0.0275681 0)
(0.535666 0.0294021 0)
(0.519771 0.0313355 0)
(0.502947 0.033372 0)
(0.485153 0.035512 0)
(0.46635 0.0377567 0)
(0.4465 0.0401024 0)
(0.425564 0.0425458 0)
(0.403509 0.0450763 0)
(0.380304 0.0476838 0)
(0.355925 0.0503477 0)
(0.330357 0.0530473 0)
(0.303594 0.0557505 0)
(0.275646 0.058421 0)
(0.246539 0.0610167 0)
(0.216316 0.0634862 0)
(0.185044 0.0657854 0)
(0.152817 0.0678577 0)
(0.119701 0.0696748 0)
(0.0862756 0.071183 0)
(0.0504192 0.0726081 0)
(0.0206051 0.0737639 0)
(2.59173 6.77554e-05 0)
(1.62204 0.000716431 0)
(0.496506 0.00310384 0)
(0.553018 0.0036798 0)
(0.654737 0.00421152 0)
(0.720012 0.00488562 0)
(0.732913 0.00560901 0)
(0.726068 0.00634912 0)
(0.716102 0.00713323 0)
(0.708508 0.00798601 0)
(0.704116 0.00889957 0)
(0.700606 0.00986106 0)
(0.696577 0.0108657 0)
(0.691786 0.0119169 0)
(0.686394 0.0130192 0)
(0.680523 0.0141767 0)
(0.674191 0.0153917 0)
(0.667364 0.0166676 0)
(0.660008 0.0180074 0)
(0.652098 0.0194161 0)
(0.643611 0.0208976 0)
(0.634525 0.0224578 0)
(0.624816 0.0241014 0)
(0.614455 0.025835 0)
(0.603415 0.0276638 0)
(0.591665 0.029595 0)
(0.579173 0.0316339 0)
(0.565906 0.0337881 0)
(0.551826 0.0360623 0)
(0.536898 0.0384635 0)
(0.521082 0.0409954 0)
(0.504338 0.043663 0)
(0.486626 0.0464674 0)
(0.467904 0.0494098 0)
(0.448131 0.0524866 0)
(0.427267 0.0556925 0)
(0.405276 0.0590164 0)
(0.382122 0.0624421 0)
(0.357779 0.0659481 0)
(0.332226 0.0695024 0)
(0.305452 0.0730704 0)
(0.27746 0.0765987 0)
(0.248271 0.0800358 0)
(0.217926 0.0833115 0)
(0.186485 0.0863598 0)
(0.154049 0.0891149 0)
(0.120672 0.091518 0)
(0.0869959 0.0934921 0)
(0.050851 0.0952297 0)
(0.020623 0.0964781 0)
(2.59207 8.00455e-05 0)
(1.62289 0.000900549 0)
(0.497205 0.0038557 0)
(0.553133 0.00455777 0)
(0.65488 0.00520478 0)
(0.720222 0.00603329 0)
(0.73315 0.00693925 0)
(0.726331 0.00786855 0)
(0.716408 0.00885268 0)
(0.708864 0.00991485 0)
(0.704515 0.0110489 0)
(0.70104 0.0122427 0)
(0.697047 0.013492 0)
(0.692295 0.0147999 0)
(0.686945 0.0161712 0)
(0.681119 0.0176106 0)
(0.674833 0.0191212 0)
(0.668056 0.0207071 0)
(0.660753 0.0223726 0)
(0.652899 0.0241231 0)
(0.644473 0.0259644 0)
(0.635452 0.027903 0)
(0.625812 0.0299457 0)
(0.615525 0.0320997 0)
(0.604565 0.0343729 0)
(0.592899 0.0367728 0)
(0.580497 0.0393081 0)
(0.567324 0.0419862 0)
(0.553345 0.0448156 0)
(0.538521 0.0478028 0)
(0.522813 0.0509552 0)
(0.506181 0.0542771 0)
(0.488581 0.0577726 0)
(0.469971 0.0614416 0)
(0.450307 0.0652826 0)
(0.429546 0.0692874 0)
(0.407647 0.0734454 0)
(0.384571 0.0777354 0)
(0.360285 0.0821327 0)
(0.334764 0.0865976 0)
(0.307986 0.0910853 0)
(0.279951 0.0955365 0)
(0.250667 0.0998796 0)
(0.220171 0.104033 0)
(0.188521 0.107901 0)
(0.155814 0.111393 0)
(0.122103 0.114431 0)
(0.0880671 0.116902 0)
(0.0515118 0.118952 0)
(0.0207744 0.120272 0)
(2.5925 9.27115e-05 0)
(1.62396 0.00108684 0)
(0.498061 0.00461535 0)
(0.553254 0.00545131 0)
(0.655038 0.00622007 0)
(0.720473 0.00720671 0)
(0.733441 0.00830271 0)
(0.726653 0.00942581 0)
(0.716785 0.0106168 0)
(0.709301 0.0118967 0)
(0.705004 0.0132593 0)
(0.701575 0.0146932 0)
(0.697628 0.016195 0)
(0.692925 0.0177676 0)
(0.687628 0.0194167 0)
(0.681858 0.0211467 0)
(0.675632 0.0229623 0)
(0.668917 0.0248676 0)
(0.661681 0.0268686 0)
(0.653899 0.0289712 0)
(0.645549 0.0311829 0)
(0.63661 0.0335111 0)
(0.627058 0.0359645 0)
(0.616866 0.0385515 0)
(0.606006 0.0412819 0)
(0.594448 0.0441648 0)
(0.58216 0.0472108 0)
(0.569108 0.0504292 0)
(0.555256 0.0538303 0)
(0.540567 0.0574229 0)
(0.524998 0.0612156 0)
(0.50851 0.0652153 0)
(0.491056 0.0694268 0)
(0.472593 0.073852 0)
(0.453073 0.078489 0)
(0.43245 0.0833305 0)
(0.410678 0.0883638 0)
(0.387712 0.0935664 0)
(0.363511 0.0989085 0)
(0.338041 0.104345 0)
(0.311274 0.109822 0)
(0.283196 0.115266 0)
(0.253811 0.120593 0)
(0.223136 0.125703 0)
(0.191232 0.130476 0)
(0.158187 0.134794 0)
(0.124045 0.138536 0)
(0.0895421 0.141558 0)
(0.0524189 0.143968 0)
(0.0210218 0.145392 0)
(2.59303 0.000105494 0)
(1.62528 0.00127365 0)
(0.499088 0.00538081 0)
(0.553384 0.0063544 0)
(0.655214 0.00724851 0)
(0.72077 0.00839749 0)
(0.733791 0.00968612 0)
(0.727045 0.0110102 0)
(0.717243 0.0124163 0)
(0.709828 0.0139221 0)
(0.705594 0.0155209 0)
(0.702222 0.0172026 0)
(0.698332 0.0189648 0)
(0.693691 0.0208109 0)
(0.688458 0.0227463 0)
(0.682758 0.0247762 0)
(0.676604 0.0269056 0)
(0.669966 0.02914 0)
(0.662812 0.0314861 0)
(0.655118 0.0339511 0)
(0.646862 0.0365436 0)
(0.638024 0.0392726 0)
(0.62858 0.0421482 0)
(0.618504 0.0451806 0)
(0.607768 0.048381 0)
(0.596343 0.0517611 0)
(0.584196 0.0553326 0)
(0.571294 0.0591077 0)
(0.557601 0.0630981 0)
(0.543077 0.0673154 0)
(0.527683 0.0717698 0)
(0.511373 0.0764704 0)
(0.494104 0.0814243 0)
(0.475826 0.0866344 0)
(0.45649 0.0921016 0)
(0.436045 0.0978177 0)
(0.414439 0.103771 0)
(0.39162 0.109937 0)
(0.367539 0.116283 0)
(0.342149 0.12276 0)
(0.315412 0.129304 0)
(0.287301 0.135831 0)
(0.257803 0.142236 0)
(0.226929 0.148405 0)
(0.194717 0.154184 0)
(0.161263 0.159425 0)
(0.126584 0.163976 0)
(0.0914601 0.167636 0)
(0.0536159 0.170464 0)
(0.0214115 0.172026 0)
(2.59367 0.000118343 0)
(1.62687 0.00146008 0)
(0.5003 0.00614942 0)
(0.553525 0.00726299 0)
(0.655412 0.00828564 0)
(0.721117 0.00960117 0)
(0.73421 0.0110881 0)
(0.727516 0.0126186 0)
(0.717792 0.014247 0)
(0.710459 0.0159866 0)
(0.706298 0.0178296 0)
(0.702995 0.0197673 0)
(0.699174 0.0217982 0)
(0.694606 0.0239261 0)
(0.689452 0.0261564 0)
(0.683833 0.0284947 0)
(0.677767 0.0309469 0)
(0.671221 0.0335192 0)
(0.664166 0.0362194 0)
(0.656577 0.0390562 0)
(0.648434 0.0420392 0)
(0.639718 0.0451791 0)
(0.630404 0.0484874 0)
(0.620468 0.0519763 0)
(0.609882 0.055659 0)
(0.598617 0.0595488 0)
(0.586641 0.0636601 0)
(0.573921 0.0680068 0)
(0.560421 0.0726038 0)
(0.5461 0.0774643 0)
(0.530917 0.0826019 0)
(0.514828 0.0880275 0)
(0.497785 0.0937514 0)
(0.479737 0.0997783 0)
(0.46063 0.106111 0)
(0.440409 0.112745 0)
(0.419014 0.119666 0)
(0.396387 0.126853 0)
(0.372465 0.134268 0)
(0.347194 0.141862 0)
(0.320516 0.14956 0)
(0.292388 0.157273 0)
(0.262781 0.164874 0)
(0.231681 0.172224 0)
(0.199114 0.179149 0)
(0.165162 0.185447 0)
(0.129834 0.190924 0)
(0.0939375 0.195331 0)
(0.0551452 0.198669 0)
(0.0219193 0.200423 0)
(2.59442 0.00013112 0)
(1.62873 0.00164486 0)
(0.501713 0.00691608 0)
(0.553682 0.00817103 0)
(0.655637 0.00932443 0)
(0.721523 0.0108101 0)
(0.734704 0.0124992 0)
(0.728074 0.0142421 0)
(0.718444 0.0161004 0)
(0.711205 0.018082 0)
(0.707129 0.0201777 0)
(0.703907 0.0223797 0)
(0.700169 0.0246877 0)
(0.695688 0.0271056 0)
(0.690625 0.0296393 0)
(0.685104 0.0322946 0)
(0.679139 0.035078 0)
(0.672703 0.0379968 0)
(0.665763 0.04106 0)
(0.658299 0.0442772 0)
(0.65029 0.0476598 0)
(0.641717 0.0512199 0)
(0.632557 0.0549707 0)
(0.622787 0.0589262 0)
(0.612379 0.0631018 0)
(0.601304 0.0675129 0)
(0.589532 0.0721765 0)
(0.577029 0.0771088 0)
(0.563759 0.0823275 0)
(0.549682 0.0878488 0)
(0.534755 0.0936896 0)
(0.518932 0.0998638 0)
(0.502164 0.106385 0)
(0.484397 0.113261 0)
(0.465573 0.120498 0)
(0.445631 0.128093 0)
(0.424503 0.136036 0)
(0.402122 0.144306 0)
(0.378415 0.152866 0)
(0.353307 0.161665 0)
(0.32673 0.170622 0)
(0.298612 0.179639 0)
(0.268905 0.188576 0)
(0.23757 0.197264 0)
(0.204599 0.205498 0)
(0.170063 0.213036 0)
(0.133931 0.219622 0)
(0.0970631 0.224932 0)
(0.0571063 0.228893 0)
(0.0226248 0.230899 0)
(2.59529 0.000143699 0)
(1.6309 0.00182625 0)
(0.503339 0.00767345 0)
(0.553858 0.0090711 0)
(0.655893 0.0103575 0)
(0.721994 0.0120155 0)
(0.735286 0.013912 0)
(0.728735 0.0158721 0)
(0.719215 0.0179672 0)
(0.712082 0.0201993 0)
(0.708104 0.0225565 0)
(0.704977 0.0250316 0)
(0.701335 0.0276251 0)
(0.696955 0.0303415 0)
(0.691999 0.0331868 0)
(0.68659 0.0361672 0)
(0.680744 0.0392899 0)
(0.674434 0.0425633 0)
(0.667629 0.0459973 0)
(0.660309 0.0496031 0)
(0.652456 0.0533934 0)
(0.64405 0.0573819 0)
(0.63507 0.0615838 0)
(0.625493 0.0660151 0)
(0.615293 0.0706931 0)
(0.604442 0.075636 0)
(0.592909 0.080863 0)
(0.580662 0.0863936 0)
(0.567663 0.0922482 0)
(0.553874 0.0984466 0)
(0.53925 0.105009 0)
(0.523746 0.111953 0)
(0.507309 0.119297 0)
(0.489883 0.127053 0)
(0.471404 0.135231 0)
(0.451806 0.143834 0)
(0.431014 0.152854 0)
(0.408948 0.162277 0)
(0.385523 0.172064 0)
(0.360647 0.182169 0)
(0.334226 0.192506 0)
(0.306169 0.20297 0)
(0.276385 0.213412 0)
(0.244813 0.223634 0)
(0.2114 0.233399 0)
(0.176186 0.242401 0)
(0.139116 0.250319 0)
(0.101045 0.25675 0)
(0.0595846 0.26152 0)
(0.0235145 0.263876 0)
(2.59629 0.000155785 0)
(1.63338 0.00200218 0)
(0.505194 0.00841042 0)
(0.554058 0.00995404 0)
(0.656187 0.0113766 0)
(0.722541 0.0132058 0)
(0.735965 0.0153133 0)
(0.729509 0.0174959 0)
(0.720119 0.019836 0)
(0.713109 0.022328 0)
(0.709243 0.0249561 0)
(0.706223 0.027713 0)
(0.702692 0.0306005 0)
(0.698428 0.0336237 0)
(0.693594 0.0367886 0)
(0.688313 0.0401018 0)
(0.682603 0.0435713 0)
(0.676438 0.0472064 0)
(0.669788 0.0510183 0)
(0.662634 0.0550196 0)
(0.654959 0.0592245 0)
(0.646746 0.0636484 0)
(0.637974 0.0683085 0)
(0.628621 0.073223 0)
(0.618661 0.0784114 0)
(0.608069 0.0838946 0)
(0.596813 0.0896945 0)
(0.584863 0.0958339 0)
(0.572182 0.102336 0)
(0.55873 0.109226 0)
(0.544465 0.116527 0)
(0.529337 0.124262 0)
(0.513294 0.132452 0)
(0.496276 0.141119 0)
(0.478216 0.150275 0)
(0.45904 0.159932 0)
(0.438667 0.170088 0)
(0.417003 0.180734 0)
(0.393948 0.191841 0)
(0.36939 0.203362 0)
(0.343211 0.21522 0)
(0.315285 0.2273 0)
(0.285484 0.239448 0)
(0.253696 0.251443 0)
(0.219822 0.263012 0)
(0.183837 0.273801 0)
(0.145636 0.283386 0)
(0.106104 0.291242 0)
(0.0627945 0.297061 0)
(0.0247285 0.299901 0)
(2.59741 0.000165211 0)
(1.63619 0.00217212 0)
(0.507288 0.00910945 0)
(0.554291 0.0108073 0)
(0.656523 0.0123737 0)
(0.723168 0.0143651 0)
(0.736754 0.0166883 0)
(0.730414 0.0190998 0)
(0.721177 0.0216938 0)
(0.714306 0.0244559 0)
(0.710565 0.0273647 0)
(0.707667 0.0304128 0)
(0.704262 0.033603 0)
(0.700129 0.0369411 0)
(0.695433 0.0404333 0)
(0.690298 0.0440866 0)
(0.684742 0.0479097 0)
(0.67874 0.051913 0)
(0.672266 0.0561088 0)
(0.665301 0.0605114 0)
(0.65783 0.0651365 0)
(0.649836 0.0700014 0)
(0.641301 0.0751251 0)
(0.632203 0.0805282 0)
(0.622519 0.0862327 0)
(0.612224 0.0922624 0)
(0.601288 0.0986419 0)
(0.589681 0.105398 0)
(0.577367 0.112558 0)
(0.564308 0.12015 0)
(0.55046 0.128202 0)
(0.535775 0.136745 0)
(0.520198 0.145804 0)
(0.503666 0.155409 0)
(0.48611 0.165579 0)
(0.467449 0.176335 0)
(0.447594 0.187685 0)
(0.42644 0.199629 0)
(0.403869 0.212151 0)
(0.379748 0.225212 0)
(0.353927 0.238745 0)
(0.326245 0.25264 0)
(0.29652 0.266739 0)
(0.264582 0.28081 0)
(0.230262 0.294536 0)
(0.193461 0.307504 0)
(0.153971 0.319194 0)
(0.112634 0.328925 0)
(0.0669413 0.336194 0)
(0.026295 0.339741 0)
(2.59867 0.000170532 0)
(1.63932 0.00233396 0)
(0.509621 0.00975659 0)
(0.554565 0.0116127 0)
(0.656901 0.0133284 0)
(0.723876 0.0154727 0)
(0.737663 0.018022 0)
(0.731462 0.0206687 0)
(0.722404 0.0235253 0)
(0.715691 0.0265683 0)
(0.71209 0.0297683 0)
(0.709328 0.0331172 0)
(0.706064 0.0366189 0)
(0.70208 0.0402798 0)
(0.697539 0.0441064 0)
(0.692566 0.0481061 0)
(0.687183 0.0522883 0)
(0.681365 0.0566647 0)
(0.675089 0.0612489 0)
(0.668336 0.0660567 0)
(0.661095 0.0711055 0)
(0.653349 0.0764147 0)
(0.645082 0.0820051 0)
(0.636274 0.0879001 0)
(0.626904 0.0941239 0)
(0.616946 0.100703 0)
(0.606375 0.107667 0)
(0.595161 0.115044 0)
(0.58327 0.122867 0)
(0.570663 0.131168 0)
(0.557299 0.139983 0)
(0.54313 0.149346 0)
(0.528099 0.159292 0)
(0.512144 0.169857 0)
(0.495191 0.181073 0)
(0.477156 0.19297 0)
(0.457939 0.205571 0)
(0.437427 0.218889 0)
(0.415485 0.232925 0)
(0.391957 0.247656 0)
(0.366659 0.263034 0)
(0.339386 0.278965 0)
(0.309902 0.295301 0)
(0.277944 0.311811 0)
(0.24325 0.328161 0)
(0.205598 0.343871 0)
(0.164651 0.358295 0)
(0.121174 0.370555 0)
(0.0725088 0.379858 0)
(0.0284949 0.384469 0)
(2.60007 0.000178106 0)
(1.6428 0.00247666 0)
(0.512189 0.010356 0)
(0.554884 0.0123516 0)
(0.657327 0.0141998 0)
(0.724676 0.0165123 0)
(0.738713 0.0192864 0)
(0.732672 0.0221787 0)
(0.723824 0.0253147 0)
(0.717289 0.0286513 0)
(0.713841 0.0321532 0)
(0.711231 0.0358129 0)
(0.708124 0.0396352 0)
(0.704303 0.0436275 0)
(0.699934 0.0477958 0)
(0.695142 0.0521484 0)
(0.68995 0.0566952 0)
(0.684337 0.0614493 0)
(0.678281 0.0664254 0)
(0.671767 0.0716412 0)
(0.664782 0.0771155 0)
(0.657314 0.0828701 0)
(0.649349 0.0889277 0)
(0.640867 0.0953143 0)
(0.63185 0.102057 0)
(0.622275 0.109186 0)
(0.612117 0.116732 0)
(0.601349 0.12473 0)
(0.58994 0.133216 0)
(0.577852 0.142229 0)
(0.565045 0.151809 0)
(0.551473 0.161999 0)
(0.53708 0.172842 0)
(0.521803 0.184384 0)
(0.505568 0.19667 0)
(0.488287 0.209742 0)
(0.469856 0.223643 0)
(0.45015 0.238404 0)
(0.429019 0.25405 0)
(0.406286 0.270586 0)
(0.381735 0.287993 0)
(0.355111 0.306209 0)
(0.32611 0.325112 0)
(0.29438 0.344497 0)
(0.259517 0.364033 0)
(0.22113 0.383206 0)
(0.178639 0.401244 0)
(0.132608 0.41705 0)
(0.0800913 0.429389 0)
(0.0315269 0.435737 0)
(2.6016 0.000187957 0)
(1.64661 0.00259408 0)
(0.51502 0.0108872 0)
(0.555251 0.0129953 0)
(0.657825 0.0149559 0)
(0.725607 0.0174544 0)
(0.739933 0.0204582 0)
(0.734095 0.023608 0)
(0.725488 0.02704 0)
(0.719147 0.0306844 0)
(0.715866 0.0344998 0)
(0.713419 0.0384795 0)
(0.710484 0.0426296 0)
(0.706843 0.0469588 0)
(0.702661 0.0514731 0)
(0.698066 0.0561814 0)
(0.693084 0.0610947 0)
(0.687697 0.0662273 0)
(0.681883 0.0715956 0)
(0.67563 0.077219 0)
(0.668929 0.0831181 0)
(0.66177 0.0893167 0)
(0.654138 0.0958399 0)
(0.64602 0.102716 0)
(0.637397 0.109975 0)
(0.62825 0.117649 0)
(0.618556 0.125775 0)
(0.608292 0.13439 0)
(0.597426 0.143536 0)
(0.585928 0.153257 0)
(0.573758 0.163601 0)
(0.560872 0.174617 0)
(0.547218 0.18636 0)
(0.532735 0.198886 0)
(0.517349 0.212255 0)
(0.500972 0.226526 0)
(0.483497 0.241763 0)
(0.464795 0.258025 0)
(0.444706 0.275366 0)
(0.423033 0.293831 0)
(0.39953 0.313445 0)
(0.373895 0.334205 0)
(0.34575 0.356045 0)
(0.314634 0.378815 0)
(0.279978 0.402277 0)
(0.241125 0.425897 0)
(0.197195 0.448789 0)
(0.148338 0.46968 0)
(0.0910093 0.486697 0)
(0.0361561 0.496107 0)
(2.60325 0.000194245 0)
(1.65074 0.00268388 0)
(0.518102 0.0112995 0)
(0.555671 0.0135037 0)
(0.65841 0.0155705 0)
(0.726702 0.0182553 0)
(0.741364 0.0215123 0)
(0.735767 0.024936 0)
(0.727438 0.0286812 0)
(0.721307 0.0326546 0)
(0.718203 0.0368034 0)
(0.715932 0.0411198 0)
(0.713181 0.0456121 0)
(0.709734 0.0502892 0)
(0.705754 0.0551587 0)
(0.701373 0.0602293 0)
(0.696619 0.0655131 0)
(0.691476 0.0710255 0)
(0.685927 0.0767851 0)
(0.679962 0.0828124 0)
(0.673573 0.0891309 0)
(0.666753 0.0957659 0)
(0.65949 0.102746 0)
(0.651773 0.1101 0)
(0.643587 0.117864 0)
(0.634915 0.126071 0)
(0.625739 0.134763 0)
(0.616036 0.143982 0)
(0.605782 0.153773 0)
(0.594948 0.164187 0)
(0.583499 0.17528 0)
(0.571396 0.187109 0)
(0.558591 0.19974 0)
(0.545028 0.213243 0)
(0.530637 0.227692 0)
(0.515334 0.243169 0)
(0.499016 0.259761 0)
(0.481553 0.277558 0)
(0.462783 0.296657 0)
(0.442499 0.317156 0)
(0.42044 0.339129 0)
(0.396262 0.362687 0)
(0.369515 0.387858 0)
(0.339674 0.414519 0)
(0.305953 0.442714 0)
(0.267303 0.47203 0)
(0.222422 0.501632 0)
(0.170702 0.530075 0)
(0.107365 0.554884 0)
(0.0434831 0.570064 0)
(2.605 0.000196891 0)
(1.65516 0.00273494 0)
(0.52141 0.0115429 0)
(0.556156 0.0138282 0)
(0.659106 0.0159959 0)
(0.728 0.018869 0)
(0.743058 0.0223976 0)
(0.737744 0.0261133 0)
(0.729735 0.0301892 0)
(0.723834 0.0345047 0)
(0.720918 0.0389941 0)
(0.718832 0.0436496 0)
(0.716277 0.0484838 0)
(0.713035 0.0535079 0)
(0.709271 0.0587308 0)
(0.705117 0.064162 0)
(0.700606 0.0698148 0)
(0.695725 0.0757058 0)
(0.690461 0.0818553 0)
(0.684805 0.0882855 0)
(0.678754 0.0950215 0)
(0.672302 0.10209 0)
(0.665442 0.109522 0)
(0.658164 0.11735 0)
(0.650457 0.12561 0)
(0.642308 0.134341 0)
(0.633702 0.143586 0)
(0.624622 0.153392 0)
(0.615047 0.163811 0)
(0.604955 0.174899 0)
(0.594317 0.186718 0)
(0.583099 0.199336 0)
(0.571261 0.21283 0)
(0.558755 0.227284 0)
(0.545521 0.242789 0)
(0.531483 0.259451 0)
(0.516548 0.277383 0)
(0.500598 0.296718 0)
(0.483482 0.317588 0)
(0.464983 0.340204 0)
(0.444874 0.364631 0)
(0.422806 0.391071 0)
(0.398168 0.419902 0)
(0.370515 0.451184 0)
(0.338952 0.485051 0)
(0.301908 0.521513 0)
(0.257457 0.560238 0)
(0.203861 0.600011 0)
(0.133822 0.638293 0)
(0.0565604 0.666334 0)
(2.60684 0.000195368 0)
(1.6598 0.0027359 0)
(0.524911 0.0115438 0)
(0.55673 0.0138944 0)
(0.659948 0.0161703 0)
(0.729548 0.0192594 0)
(0.745072 0.0231091 0)
(0.740083 0.0271762 0)
(0.732431 0.0316494 0)
(0.726767 0.0363605 0)
(0.724038 0.0412309 0)
(0.72214 0.0462565 0)
(0.719788 0.0514553 0)
(0.716765 0.0568421 0)
(0.713231 0.0624256 0)
(0.709321 0.0682166 0)
(0.705071 0.0742305 0)
(0.700474 0.0804868 0)
(0.695518 0.0870081 0)
(0.690198 0.0938196 0)
(0.684514 0.100949 0)
(0.678462 0.108425 0)
(0.672038 0.116282 0)
(0.665237 0.124554 0)
(0.658052 0.133281 0)
(0.650473 0.142505 0)
(0.642491 0.152273 0)
(0.634094 0.162635 0)
(0.625267 0.173647 0)
(0.615995 0.185373 0)
(0.606257 0.197881 0)
(0.596028 0.211248 0)
(0.585279 0.225562 0)
(0.573974 0.240919 0)
(0.562065 0.257433 0)
(0.549495 0.275228 0)
(0.536192 0.294437 0)
(0.52205 0.315284 0)
(0.506994 0.337854 0)
(0.490748 0.362397 0)
(0.473059 0.389344 0)
(0.453921 0.418922 0)
(0.43271 0.451615 0)
(0.408626 0.487921 0)
(0.380858 0.528293 0)
(0.347861 0.573459 0)
(0.306992 0.624238 0)
(0.255015 0.680966 0)
(0.180394 0.743009 0)
(0.083231 0.803167 0)
(2.60873 0.000141935 0)
(1.66457 0.0027305 0)
(0.528505 0.0112109 0)
(0.557418 0.0135563 0)
(0.660994 0.0159255 0)
(0.731445 0.0192131 0)
(0.747538 0.0233859 0)
(0.742942 0.0278079 0)
(0.735689 0.0326817 0)
(0.730258 0.037782 0)
(0.727703 0.0430208 0)
(0.725985 0.0484061 0)
(0.723836 0.0539667 0)
(0.721029 0.0597195 0)
(0.717723 0.065673 0)
(0.714058 0.0718372 0)
(0.710075 0.0782276 0)
(0.70577 0.0848647 0)
(0.701136 0.0917722 0)
(0.696171 0.0989765 0)
(0.690877 0.106506 0)
(0.685253 0.114392 0)
(0.6793 0.12267 0)
(0.673014 0.131376 0)
(0.666394 0.140552 0)
(0.659435 0.150243 0)
(0.652133 0.160499 0)
(0.644481 0.171375 0)
(0.636473 0.182932 0)
(0.628101 0.195238 0)
(0.619355 0.208369 0)
(0.610221 0.22241 0)
(0.600685 0.23746 0)
(0.590727 0.253625 0)
(0.580321 0.271046 0)
(0.569413 0.289901 0)
(0.558027 0.310211 0)
(0.545994 0.332255 0)
(0.533208 0.356419 0)
(0.519847 0.382907 0)
(0.505629 0.412239 0)
(0.49026 0.444852 0)
(0.473486 0.481235 0)
(0.454815 0.522374 0)
(0.433603 0.569443 0)
(0.408677 0.624262 0)
(0.377648 0.689727 0)
(0.336607 0.770913 0)
(0.270945 0.87817 0)
(0.14644 1.04339 0)
(2.6111 8.14022e-05 0)
(1.67035 0.00260035 0)
(0.53226 0.0103858 0)
(0.557938 0.0128212 0)
(0.662137 0.0154354 0)
(0.733802 0.0191877 0)
(0.750722 0.0239853 0)
(0.746678 0.0290443 0)
(0.73996 0.0345615 0)
(0.734821 0.0402292 0)
(0.732497 0.0459578 0)
(0.73105 0.0517832 0)
(0.729215 0.0577558 0)
(0.726749 0.0639025 0)
(0.723804 0.0702379 0)
(0.720523 0.0767765 0)
(0.716956 0.0835389 0)
(0.713104 0.0905507 0)
(0.708966 0.0978405 0)
(0.704543 0.105438 0)
(0.69984 0.113375 0)
(0.694864 0.121686 0)
(0.689619 0.130407 0)
(0.684109 0.139578 0)
(0.678339 0.149242 0)
(0.672311 0.159446 0)
(0.66603 0.170242 0)
(0.6595 0.181688 0)
(0.652728 0.193847 0)
(0.645719 0.206793 0)
(0.638478 0.220606 0)
(0.631014 0.235376 0)
(0.623329 0.251231 0)
(0.61545 0.268255 0)
(0.607439 0.286539 0)
(0.599069 0.306335 0)
(0.59039 0.327869 0)
(0.58188 0.351323 0)
(0.573395 0.377128 0)
(0.564714 0.405645 0)
(0.555956 0.437223 0)
(0.547208 0.47257 0)
(0.53866 0.512524 0)
(0.530538 0.558371 0)
(0.523384 0.611894 0)
(0.518374 0.675857 0)
(0.518229 0.754724 0)
(0.531153 0.855922 0)
(0.587124 0.990632 0)
(0.657198 1.18531 0)
(2.61362 5.93672e-05 0)
(1.6765 0.00194259 0)
(0.536783 0.00776464 0)
(0.559572 0.00992513 0)
(0.66478 0.0125063 0)
(0.738191 0.0166812 0)
(0.75619 0.0222117 0)
(0.752747 0.0280515 0)
(0.74649 0.0343825 0)
(0.74142 0.0407707 0)
(0.739112 0.0471475 0)
(0.737767 0.053589 0)
(0.736112 0.0601602 0)
(0.73387 0.0668875 0)
(0.731179 0.0737817 0)
(0.728187 0.0808579 0)
(0.724954 0.0881393 0)
(0.721488 0.0956544 0)
(0.71779 0.103433 0)
(0.713864 0.111508 0)
(0.709719 0.119913 0)
(0.705363 0.128683 0)
(0.700807 0.137857 0)
(0.69606 0.147478 0)
(0.691131 0.15759 0)
(0.686031 0.168244 0)
(0.680775 0.179495 0)
(0.675378 0.191402 0)
(0.669856 0.204031 0)
(0.664231 0.217462 0)
(0.658521 0.2318 0)
(0.652792 0.24706 0)
(0.647022 0.26336 0)
(0.641137 0.280918 0)
(0.635375 0.299863 0)
(0.629949 0.320331 0)
(0.62475 0.342666 0)
(0.619847 0.367067 0)
(0.615468 0.393723 0)
(0.611769 0.423088 0)
(0.609025 0.455683 0)
(0.607712 0.492161 0)
(0.608496 0.533439 0)
(0.612473 0.580665 0)
(0.621464 0.635505 0)
(0.638788 0.700115 0)
(0.670455 0.777412 0)
(0.725474 0.870831 0)
(0.836623 0.980397 0)
(0.984476 1.09496 0)
(2.61507 7.02027e-05 0)
(1.68005 0.00130469 0)
(0.539639 0.00545835 0)
(0.56132 0.00790999 0)
(0.668131 0.0111028 0)
(0.743955 0.0164654 0)
(0.7634 0.023263 0)
(0.760688 0.0301974 0)
(0.754901 0.037258 0)
(0.749824 0.0440638 0)
(0.747527 0.0507381 0)
(0.746317 0.057458 0)
(0.744867 0.0643039 0)
(0.742849 0.071296 0)
(0.740395 0.0784407 0)
(0.737665 0.0857614 0)
(0.734733 0.0932912 0)
(0.731613 0.101065 0)
(0.728308 0.109116 0)
(0.724827 0.117478 0)
(0.721182 0.126184 0)
(0.717388 0.13527 0)
(0.713461 0.144774 0)
(0.709416 0.154736 0)
(0.705272 0.165199 0)
(0.701048 0.17621 0)
(0.696766 0.187821 0)
(0.692452 0.2001 0)
(0.688141 0.213098 0)
(0.683907 0.226846 0)
(0.679652 0.241457 0)
(0.675414 0.257077 0)
(0.671527 0.273765 0)
(0.668027 0.291686 0)
(0.664832 0.311036 0)
(0.662101 0.331896 0)
(0.660005 0.354439 0)
(0.658722 0.378929 0)
(0.658532 0.405658 0)
(0.659802 0.434969 0)
(0.662999 0.467318 0)
(0.668869 0.503225 0)
(0.678476 0.543348 0)
(0.6933 0.588453 0)
(0.715728 0.639396 0)
(0.749212 0.697021 0)
(0.799341 0.761597 0)
(0.871716 0.832172 0)
(0.984643 0.903787 0)
(1.12028 0.956615 0)
(2.61627 3.69649e-05 0)
(1.68312 -0.00152806 0)
(0.545002 -0.00484953 0)
(0.56729 -0.00305232 0)
(0.675899 0.000995723 0)
(0.75409 0.00905038 0)
(0.774412 0.0185845 0)
(0.771476 0.0278685 0)
(0.765092 0.0364544 0)
(0.759424 0.0442553 0)
(0.756948 0.0517469 0)
(0.755823 0.0592249 0)
(0.754541 0.0667668 0)
(0.752707 0.0743923 0)
(0.750465 0.0820964 0)
(0.748004 0.0899153 0)
(0.745403 0.0978941 0)
(0.742672 0.106074 0)
(0.73981 0.114494 0)
(0.736824 0.123189 0)
(0.733726 0.1322 0)
(0.730535 0.141565 0)
(0.727268 0.151325 0)
(0.723945 0.16152 0)
(0.720592 0.172197 0)
(0.717233 0.183416 0)
(0.713917 0.195197 0)
(0.710664 0.207584 0)
(0.707433 0.220679 0)
(0.70435 0.23456 0)
(0.701626 0.249278 0)
(0.69923 0.264998 0)
(0.697175 0.281809 0)
(0.695628 0.29973 0)
(0.694692 0.318913 0)
(0.694531 0.339515 0)
(0.695364 0.361705 0)
(0.697448 0.385681 0)
(0.701138 0.411672 0)
(0.706865 0.439929 0)
(0.715236 0.470737 0)
(0.727062 0.504423 0)
(0.743478 0.541269 0)
(0.765979 0.581554 0)
(0.79662 0.625359 0)
(0.838091 0.672406 0)
(0.894028 0.721636 0)
(0.967125 0.770462 0)
(1.06831 0.814665 0)
(1.18132 0.84022 0)
(2.61195 0.00228841 0)
(1.6731 -0.00676354 0)
(0.549529 -0.013785 0)
(0.583064 -0.00801594 0)
(0.696126 -0.000387707 0)
(0.777883 0.00988858 0)
(0.798486 0.0200822 0)
(0.794063 0.0297283 0)
(0.78573 0.0382407 0)
(0.778688 0.0461004 0)
(0.775573 0.0537803 0)
(0.774094 0.061437 0)
(0.77251 0.0691047 0)
(0.770371 0.0768155 0)
(0.767836 0.0846219 0)
(0.765149 0.0925768 0)
(0.762389 0.100725 0)
(0.759563 0.109103 0)
(0.756669 0.117745 0)
(0.75372 0.126684 0)
(0.750733 0.135953 0)
(0.747728 0.145583 0)
(0.744725 0.15561 0)
(0.741752 0.166064 0)
(0.738861 0.176957 0)
(0.736034 0.188348 0)
(0.733268 0.200317 0)
(0.730725 0.212881 0)
(0.7285 0.226107 0)
(0.726576 0.240102 0)
(0.725015 0.254897 0)
(0.723924 0.270518 0)
(0.723389 0.287077 0)
(0.723556 0.304666 0)
(0.724588 0.323389 0)
(0.726667 0.343379 0)
(0.730042 0.364754 0)
(0.734993 0.387666 0)
(0.741895 0.412248 0)
(0.751216 0.438652 0)
(0.763551 0.467006 0)
(0.779675 0.497415 0)
(0.80056 0.529898 0)
(0.827459 0.564339 0)
(0.861892 0.600394 0)
(0.905694 0.637302 0)
(0.961147 0.673728 0)
(1.02986 0.707336 0)
(1.11621 0.735203 0)
(1.20904 0.748951 0)
(2.60368 0.00790366 0)
(1.64291 -0.0735107 0)
(0.584833 -0.0725443 0)
(0.623925 -0.0457584 0)
(0.731373 -0.00575913 0)
(0.808992 0.0165319 0)
(0.826988 0.0266313 0)
(0.821027 0.0352884 0)
(0.811511 0.0426517 0)
(0.804152 0.0507655 0)
(0.800779 0.0592946 0)
(0.79892 0.0677259 0)
(0.796939 0.0759357 0)
(0.794498 0.084004 0)
(0.791774 0.0920677 0)
(0.788943 0.100206 0)
(0.786064 0.108466 0)
(0.783136 0.11689 0)
(0.780159 0.12552 0)
(0.777146 0.134403 0)
(0.774118 0.143587 0)
(0.771101 0.153098 0)
(0.768117 0.162952 0)
(0.765159 0.173201 0)
(0.762304 0.183912 0)
(0.759695 0.195094 0)
(0.757317 0.206802 0)
(0.75517 0.219096 0)
(0.753373 0.231995 0)
(0.752 0.245555 0)
(0.751127 0.259847 0)
(0.750862 0.274937 0)
(0.751336 0.290883 0)
(0.752701 0.307768 0)
(0.755133 0.32565 0)
(0.758829 0.344617 0)
(0.764041 0.364737 0)
(0.771069 0.386091 0)
(0.780262 0.408748 0)