/*--------------------------------*- C++ -*----------------------------------*\
| =========                 |                                                 |
| \\      /  F ield         | OpenFOAM: The Open Source CFD Toolbox           |
|  \\    /   O peration     | Version:  2412                                  |
|   \\  /    A nd           | Website:  www.openfoam.com                      |
|    \\/     M anipulation  |                                                 |
\*---------------------------------------------------------------------------*/
FoamFile
{
    version     2.0;
    format      ascii;
    arch        "LSB;label=32;scalar=64";
    class       volScalarField;
    location    "3.5";
    object      Ma;
}
// * * * * * * * * * * * * * * * * * * * * * * * * * * * * * * * * * * * * * //

dimensions      [0 0 0 0 0 0 0];

internalField   nonuniform List<scalar> 
7000
(
3.00001
3.00001
3.00001
3.00001
3.00001
3.00001
3.00001
3.00001
3
3
2.99999
2.99998
2.99991
2.99984
2.99945
2.99939
2.9968
3.00544
2.95542
3.12813
2.8871
2.5624
1.8091
1.05957
0.453858
0.396818
0.435843
0.463764
0.462257
0.445431
0.419435
0.394802
0.375125
0.357391
0.339391
0.320812
0.301994
0.282884
0.263224
0.243178
0.222998
0.202533
0.181557
0.159358
0.135629
0.111065
0.0855628
0.0607545
0.0354636
0.015097
3.00001
3.00001
3.00001
3.00001
3.00001
3.00001
3.00001
3.00001
3
3
2.99999
2.99998
2.99991
2.99984
2.99947
2.9994
2.99684
3.00549
2.95558
3.12803
2.88739
2.56325
1.81067
1.06114
0.454848
0.39704
0.436016
0.463893
0.462338
0.445532
0.41959
0.395027
0.375389
0.357669
0.339691
0.321155
0.302381
0.283302
0.263666
0.243643
0.223483
0.20304
0.182101
0.15998
0.136436
0.112298
0.0876668
0.064387
0.0414259
0.0238797
3.00001
3.00001
3.00001
3.00001
3.00001
3.00001
3.00001
3.00001
3
3
2.99999
2.99998
2.99993
2.9999
2.99946
2.99941
2.99691
3.0056
2.95594
3.12787
2.88808
2.56511
1.81412
1.06469
0.457134
0.397794
0.436624
0.464457
0.462869
0.446117
0.420288
0.395856
0.376293
0.358594
0.340632
0.322132
0.303412
0.284394
0.264824
0.244888
0.224851
0.204583
0.183899
0.162159
0.139225
0.116057
0.0929295
0.0717859
0.0518529
0.0376411
3.00001
3.00001
3.00001
3.00001
3.00001
3.00001
3.00001
3.00001
3
3
2.99999
2.99998
2.99993
2.99991
2.99948
2.99945
2.99702
3.00573
2.95647
3.12756
2.88916
2.56803
1.81963
1.07039
0.460707
0.398918
0.437508
0.465324
0.463724
0.447043
0.42135
0.397093
0.377653
0.359999
0.342062
0.323623
0.305011
0.286122
0.266694
0.246929
0.22712
0.207164
0.186912
0.165782
0.143754
0.121899
0.100596
0.0817385
0.0645898
0.052749
3.00001
3.00001
3.00001
3.00001
3.00001
3.00001
3.00001
3.00001
3
3
2.99999
2.99999
2.99994
2.99993
2.9995
2.99948
2.99717
3.00591
2.95721
3.12708
2.89067
2.57212
1.82743
1.07851
0.465699
0.400434
0.438686
0.466521
0.464936
0.448337
0.422813
0.398748
0.379455
0.361891
0.344026
0.325689
0.307224
0.28852
0.269315
0.249827
0.230374
0.210882
0.191237
0.170927
0.150036
0.129711
0.110359
0.093699
0.0789162
0.0687873
3.00001
3.00001
3.00001
3.00001
3.00001
3.00001
3.00001
3.00001
3
3
2.99999
3
2.99993
2.99993
2.99946
2.99963
2.99743
3.00618
2.95821
3.12652
2.89266
2.57749
1.83771
1.08926
0.472177
0.40229
0.440109
0.468017
0.466495
0.45
0.424655
0.40084
0.381734
0.36428
0.346533
0.32836
0.310102
0.291654
0.272762
0.253663
0.234699
0.215822
0.196954
0.177637
0.158086
0.139445
0.122072
0.107459
0.0946437
0.0858161
3.00001
3.00001
3.00001
3.00001
3.00001
3.00001
3.00001
3.00001
3
3
2.99999
2.99999
2.99993
2.99989
2.99957
2.99983
2.99771
3.00645
2.95943
3.12572
2.89518
2.58432
1.85084
1.10301
0.480353
0.40459
0.441866
0.469902
0.468502
0.452167
0.427028
0.40343
0.384575
0.367294
0.349664
0.331693
0.313735
0.295624
0.277111
0.258484
0.240128
0.222017
0.204098
0.18597
0.167886
0.150996
0.135564
0.122819
0.111684
0.103861
3.00001
3.00001
3.00001
3.00001
3.00001
3.00001
3.00001
3.00001
3.00001
3.00001
3
2.99999
2.99996
2.99994
2.99972
3.00011
2.99807
3.00676
2.96089
3.12465
2.89821
2.59265
1.86704
1.12005
0.490347
0.407352
0.443955
0.472156
0.470968
0.454861
0.429997
0.40661
0.387994
0.370985
0.353569
0.335806
0.318175
0.300532
0.282543
0.264462
0.246803
0.229581
0.212748
0.195942
0.179455
0.164346
0.150767
0.139705
0.12998
0.123018
3.00001
3.00001
3.00001
3.00001
3.00001
3.00001
3.00001
3.00001
3.00001
3.00001
3
3
2.99998
3
2.99986
3.00039
2.99849
3.00713
2.96262
3.12333
2.90181
2.60256
1.88656
1.14064
0.502275
0.410642
0.446375
0.474716
0.47391
0.458119
0.433599
0.410418
0.392063
0.37538
0.358298
0.340847
0.323584
0.306437
0.289062
0.271721
0.254905
0.238674
0.223006
0.207562
0.19273
0.179435
0.167636
0.158116
0.14964
0.143336
3.00001
3.00001
3.00001
3.00001
3.00001
3.00001
3.00001
3.00001
3.00001
3.00001
3.00001
3.00002
3.00002
3.0001
3.00005
3.00064
2.99896
3.00756
2.96465
3.12173
2.90599
2.61411
1.90959
1.16502
0.516202
0.414614
0.449097
0.477358
0.477304
0.461941
0.437799
0.41486
0.39679
0.38053
0.363905
0.346876
0.330088
0.313529
0.296854
0.280343
0.26448
0.249353
0.234968
0.220971
0.207772
0.196226
0.186129
0.178082
0.170714
0.165071
3.00001
3.00001
3.00001
3.00001
3.00001
3.00001
3.00001
3.00001
3.00001
3.00001
3.00001
3.00001
2.99998
3.0001
3.00009
3.00095
2.99965
3.00814
2.96705
3.11993
2.91085
2.6274
1.93621
1.19322
0.531987
0.41919
0.452138
0.480212
0.481081
0.466273
0.442525
0.419838
0.402156
0.386426
0.370424
0.353959
0.33772
0.321829
0.305979
0.290421
0.275627
0.261679
0.24861
0.236182
0.22475
0.214902
0.206423
0.199732
0.193484
0.188353
3.00001
3.00001
3.00001
3.00001
3.00001
3.00001
3.00001
3.00001
3.00001
3.00001
3
3
2.99995
3.00009
3.00012
3.00144
3.00059
3.00887
2.96994
3.11805
2.91657
2.64261
1.96631
1.22499
0.549192
0.424176
0.455514
0.483223
0.485017
0.470863
0.447628
0.425232
0.408073
0.393015
0.37776
0.36209
0.346608
0.33152
0.316613
0.302133
0.288508
0.275848
0.264146
0.25322
0.243579
0.235562
0.228755
0.223396
0.218207
0.213696
3.00001
3.00001
3.00001
3.00001
3.00001
3.00001
3.00001
3.00001
3
3
2.99999
2.99999
2.99991
3.00008
3.00014
3.00198
3.00141
3.01017
2.97377
3.11739
2.92369
2.66143
1.99965
1.26053
0.567283
0.429671
0.458986
0.485804
0.488489
0.475182
0.452693
0.430861
0.41434
0.400164
0.38597
0.371234
0.356613
0.342461
0.328611
0.315343
0.303031
0.291785
0.281676
0.272455
0.264475
0.258253
0.253191
0.249404
0.245293
0.241345
3.00001
3.00001
3.00001
3.00001
3.00001
3.00001
3.00001
3.00001
3
3
2.99999
2.99999
2.9999
3.00004
3.00023
3.0024
3.0023
3.01271
2.9798
3.12176
2.935
2.69003
2.03388
1.30112
0.582866
0.434899
0.461509
0.486736
0.49049
0.478469
0.457219
0.43641
0.420803
0.407574
0.394556
0.381259
0.367981
0.354942
0.342315
0.330433
0.319566
0.309847
0.301261
0.293834
0.287923
0.283558
0.280288
0.278183
0.275521
0.272311
3.00001
3.00001
3.00001
3.00001
3.00001
3.00001
3.00001
3.00001
3
3
2.99998
2.99999
2.99989
3.00013
3.00025
3.00274
3.00256
3.01578
2.98635
3.13194
2.9469
2.73169
2.07489
1.35374
0.602023
0.442544
0.463742
0.485776
0.490481
0.479809
0.459947
0.440633
0.426793
0.415142
0.403581
0.391843
0.380114
0.36856
0.357384
0.34708
0.337898
0.32997
0.323346
0.317718
0.313741
0.311699
0.310701
0.310419
0.309633
0.307321
3.00001
3.00001
3.00001
3.00001
3.00001
3.00001
3.00001
3.00001
3
3
2.99999
2.99999
2.99991
3.00015
3.00025
3.00264
3.00248
3.01612
2.98742
3.12796
2.94902
2.77991
2.11479
1.40639
0.637964
0.448095
0.463029
0.482631
0.488738
0.479662
0.46124
0.4436
0.431719
0.422142
0.412563
0.402825
0.393107
0.383391
0.373993
0.36542
0.358079
0.352122
0.34769
0.344643
0.342894
0.343227
0.344876
0.347601
0.348889
0.348397
3.00001
3.00001
3.00001
3.00001
3.00001
3.00001
3.00001
3.00001
3.00001
3
3
3
2.99998
2.99999
3
3.00021
3.00003
3.00153
2.99467
3.01865
2.94948
2.85607
2.22006
1.50965
0.69186
0.459171
0.464994
0.482732
0.488596
0.479999
0.462639
0.44617
0.43598
0.428492
0.42121
0.413796
0.406493
0.399267
0.392091
0.385658
0.380493
0.376775
0.374702
0.3741
0.375464
0.37903
0.384258
0.390479
0.39619
0.398402
3.00001
3.00001
3.00001
3.00001
3.00001
3.00001
3.00001
3.00001
3
3
2.99998
2.99998
2.99986
2.99983
2.99919
2.99867
2.99479
2.99648
2.97188
3.03236
2.93342
2.6584
2.36447
1.65949
0.787253
0.488712
0.481974
0.495677
0.498418
0.487025
0.469192
0.453274
0.443038
0.436147
0.430408
0.425046
0.420169
0.415623
0.411107
0.407099
0.404566
0.403622
0.404509
0.407288
0.412037
0.419626
0.429844
0.442369
0.454674
0.463795
3.00001
3.00001
3.00001
3.00001
3.00001
3.00001
3.00001
3.00001
3.00001
3
3
2.99997
2.99996
2.99981
2.99973
2.99885
2.99848
2.99341
2.98976
2.96725
2.9324
2.78489
2.48369
1.81583
0.868514
0.529518
0.501437
0.511205
0.512226
0.499783
0.481851
0.465779
0.455768
0.448727
0.442646
0.43803
0.434745
0.43263
0.431098
0.430016
0.43023
0.432248
0.43642
0.44334
0.453355
0.466561
0.483648
0.50506
0.530921
0.557464
3.00001
3.00001
3.00001
3.00001
3.00001
3.00001
3.00001
3.00001
3.00001
3
3
2.99998
2.99996
2.99982
2.99976
2.999
2.99855
2.99454
2.99099
2.96984
2.94123
2.84087
2.5489
1.97238
1.00307
0.606509
0.524185
0.524931
0.524125
0.51417
0.498373
0.482482
0.471596
0.46439
0.459091
0.454653
0.451612
0.450835
0.451852
0.453946
0.457375
0.462788
0.470881
0.482552
0.497999
0.518698
0.546092
0.583642
0.637355
0.73024
3.00001
3.00001
3.00001
3.00001
3.00001
3.00001
3.00001
3.00001
3.00001
3
3
2.99998
2.99997
2.99984
2.99982
2.99913
2.99888
2.99512
2.99323
2.97463
2.95117
2.8394
2.66337
2.15268
1.26823
0.784725
0.584863
0.560038
0.554868
0.548306
0.534427
0.517919
0.503622
0.494002
0.487559
0.48338
0.480911
0.480106
0.481943
0.486269
0.493967
0.504787
0.51933
0.537567
0.561734
0.593202
0.636651
0.700231
0.805795
0.969981
3.00001
3.00001
3.00001
3.00001
3.00001
3.00001
3.00001
3.00001
3.00001
3
3
2.99999
2.99998
2.9999
2.99988
2.99943
2.99923
2.99686
2.99517
2.98311
2.97006
2.89479
2.76837
2.43283
1.69263
1.01971
0.64174
0.600312
0.607569
0.611953
0.598313
0.578649
0.559529
0.543828
0.532398
0.524668
0.519757
0.517739
0.519055
0.524065
0.53338
0.547413
0.566024
0.590785
0.622862
0.665931
0.72302
0.801997
0.922755
1.08829
3.00001
3.00001
3.00001
3.00001
3.00001
3.00001
3.00001
3.00001
3.00001
3.00001
3.00001
3
3
2.99998
2.99997
2.99983
2.99991
2.99911
3.00244
2.99581
2.98614
2.96962
2.86286
2.5777
1.90766
1.19353
0.659435
0.593503
0.617928
0.637742
0.640646
0.629649
0.614645
0.598644
0.585133
0.574637
0.567428
0.56341
0.564039
0.569799
0.57961
0.593634
0.614308
0.641953
0.678335
0.726868
0.790589
0.873768
0.98687
1.11567
3.00001
3.00001
3.00001
3.00001
3.00001
3.00001
3.00001
3.00001
3.00001
3.00001
3.00001
3.00001
3
3
2.99993
3.00006
3.00012
3.00178
3.00132
3.01069
2.9796
3.11529
2.93842
2.72555
2.09965
1.3945
0.707903
0.58692
0.612439
0.641574
0.658874
0.659295
0.651299
0.639963
0.629608
0.621041
0.61416
0.610918
0.611637
0.617925
0.628225
0.643057
0.663856
0.691785
0.728211
0.775197
0.835854
0.912929
1.01305
1.11993
3.00001
3.00001
3.00001
3.00001
3.00001
3.00001
3.00001
3.00001
3.00001
3.00001
3.00001
3.00001
3.00001
3
2.99999
2.99988
2.99988
2.9993
2.99921
2.99947
2.98989
2.96981
2.93716
2.68411
2.40423
1.69757
0.843839
0.607829
0.610603
0.642337
0.666059
0.672637
0.671207
0.666105
0.660863
0.656589
0.653104
0.652161
0.655261
0.662603
0.673632
0.689627
0.710776
0.738991
0.773746
0.817883
0.871677
0.93737
1.02204
1.1116
3.00001
3.00001
3.00001
3.00001
3.00001
3.00001
3.00001
3.00001
3.00001
3.00001
3.00001
3
3
2.99999
2.99998
2.9999
2.99986
2.99936
2.9988
2.99594
2.99192
2.97424
2.93864
2.82101
2.57989
2.01106
1.06818
0.70765
0.641481
0.659773
0.677963
0.684862
0.685139
0.683382
0.68235
0.682104
0.682312
0.685497
0.691901
0.700989
0.71318
0.72963
0.751154
0.778491
0.812748
0.853381
0.902548
0.959768
1.02809
1.10344
3.00001
3.00001
3.00001
3.00001
3.00001
3.00001
3.00001
3.00001
3.00001
3.00001
3.00001
3
3
2.99999
2.99999
2.99991
3.00011
3.00018
3.00236
3.00196
3.01348
2.98401
3.12078
2.9461
2.76383
2.1425
1.45083
0.803058
0.683215
0.682167
0.694912
0.703419
0.704171
0.702957
0.702699
0.7047
0.708041
0.714513
0.723926
0.734695
0.747865
0.764661
0.786104
0.812114
0.84432
0.882579
0.927248
0.979004
1.03962
1.10092
3.00001
3.00001
3.00001
3.00001
3.00001
3.00001
3.00001
3.00001
3.00001
3.00001
3.00001
3.00001
3
3
2.99998
2.99996
2.99984
2.99978
2.99914
2.99857
2.99623
2.98917
2.97248
2.93217
2.78316
2.50299
1.88315
1.02815
0.74808
0.711433
0.718143
0.725439
0.726758
0.725286
0.72484
0.72684
0.732241
0.741088
0.752296
0.764433
0.778278
0.794896
0.815635
0.840493
0.870143
0.905338
0.945935
0.992591
1.047
1.10321
3.00001
3.00001
3.00001
3.00001
3.00001
3.00001
3.00001
3.00001
3.00001
3.00001
3.00001
3.00001
3
3
2.99998
2.99998
2.99987
2.99983
2.99935
2.99903
2.99624
2.99431
2.98001
2.95801
2.85396
2.69698
2.25028
1.3621
0.931607
0.776172
0.756665
0.757561
0.75905
0.756586
0.75503
0.756471
0.762037
0.771122
0.78183
0.794321
0.808159
0.824194
0.84317
0.866076
0.89317
0.925256
0.961695
1.00346
1.05169
1.10163
3.00001
3.00001
3.00001
3.00001
3.00001
3.00001
3.00001
3.00001
3.00001
3.00001
3.00001
3.00001
3.00001
3
3
2.99999
2.99995
2.99993
2.99974
2.99959
2.9986
2.99728
2.99318
2.98344
2.94343
2.83545
2.54899
1.88192
1.24164
0.864926
0.807719
0.799978
0.798843
0.798584
0.796646
0.79591
0.798455
0.804636
0.813765
0.824602
0.838007
0.853389
0.871141
0.892138
0.915682
0.943817
0.976531
1.01358
1.05611
1.1006
3.00001
3.00001
3.00001
3.00001
3.00001
3.00001
3.00001
3.00001
3.00001
3.00001
3.00001
3.00001
3.00001
3.00001
3.00001
3.00001
3.00001
2.99999
3.00006
3.00006
3.00073
2.99987
3.00615
2.97721
3.08846
2.93328
2.7744
2.23428
1.599
0.987285
0.829495
0.812185
0.820373
0.828232
0.832479
0.834325
0.836141
0.840378
0.847274
0.85663
0.868378
0.882696
0.899287
0.918211
0.940175
0.96442
0.99213
1.02463
1.06215
1.10079
3.00001
3.00001
3.00001
3.00001
3.00001
3.00001
3.00001
3.00001
3.00001
3.00001
3.00001
3.00001
3.00001
3.00001
3
3
2.99997
2.99997
2.99982
2.9998
2.99899
2.99887
2.99446
2.9925
2.96912
2.95407
2.80762
2.61881
2.04354
1.26508
0.932318
0.850106
0.847663
0.856415
0.864788
0.868577
0.870307
0.873022
0.877896
0.88571
0.895573
0.908577
0.924062
0.942138
0.962536
0.985623
1.01102
1.0389
1.07097
1.10519
3.00001
3.00001
3.00001
3.00001
3.00001
3.00001
3.00001
3.00001
3.00001
3.00001
3.00001
3.00001
3.00001
3.00001
3.00001
3.00001
3.00001
3.00003
3.00004
3.00012
3.00017
3.00043
3.00024
3.0029
2.99461
3.03016
2.96406
2.84962
2.39584
1.74895
1.0875
0.898213
0.871902
0.878715
0.889272
0.897499
0.90059
0.902857
0.906547
0.912775
0.921535
0.932863
0.946651
0.963148
0.982124
1.00355
1.0277
1.05408
1.08374
1.11325
3.00001
3.00001
3.00001
3.00001
3.00001
3.00001
3.00001
3.00001
3.00001
3.00001
3.00001
3.00001
3.00001
3.00001
3.00001
3
3
2.99998
2.99997
2.99986
2.99981
2.99918
2.99896
2.99548
2.99309
2.97646
2.95503
2.85147
2.69387
2.24608
1.44427
1.06619
0.935468
0.916113
0.917684
0.922458
0.925681
0.927596
0.930683
0.936072
0.943892
0.954127
0.966748
0.981942
0.999481
1.0194
1.04161
1.06636
1.09402
1.12221
3.00001
3.00001
3.00001
3.00001
3.00001
3.00001
3.00001
3.00001
3.00001
3.00001
3.00001
3.00001
3.00001
3.00001
3.00001
3.00001
3.00001
3.00001
3.00004
3.00004
3.00018
3.00017
3.00097
3.00011
3.00644
2.99756
2.98947
2.94782
2.86221
2.6083
2.02166
1.39341
1.04401
0.980695
0.962287
0.958471
0.9582
0.959334
0.961241
0.964538
0.97021
0.978332
0.988961
1.00214
1.01763
1.03545
1.05547
1.07794
1.1034
1.12935
3.00001
3.00001
3.00001
3.00001
3.00001
3.00001
3.00001
3.00001
3.00001
3.00001
3.00001
3.00001
3.00001
3.00001
3.00001
3.00001
3
3
2.99999
2.99999
2.99992
2.99989
2.99953
2.99937
2.99744
2.99583
2.98641
2.97483
2.91687
2.80956
2.53818
1.90591
1.3403
1.05325
1.0044
0.992699
0.991593
0.993217
0.996634
1.00059
1.00567
1.0131
1.02143
1.03199
1.04389
1.05829
1.07454
1.09343
1.11558
1.13861
3.00001
3.00001
3.00001
3.00001
3.00001
3.00001
3.00001
3.00001
3.00001
3.00001
3.00001
3.00001
3.00001
3.00001
3.00001
3.00001
3.00001
3
3
2.99999
2.99998
2.99989
2.99987
2.99935
2.99922
2.9963
2.99486
2.98163
2.96724
2.8916
2.76224
2.45373
1.79488
1.30971
1.07049
1.02794
1.02301
1.02393
1.02927
1.03487
1.04089
1.04758
1.05561
1.06433
1.07532
1.08698
1.10131
1.11627
1.13444
1.15295
3.00001
3.00001
3.00001
3.00001
3.00001
3.00001
3.00001
3.00001
3.00001
3.00001
3.00001
3.00001
3.00001
3.00001
3.00001
3.00001
3.00001
3.00001
3.00001
3.00001
3.00001
3.00002
2.99998
3.00022
2.99951
2.9994
2.99365
2.99708
2.9651
3.06944
2.91729
2.73034
2.26884
1.69317
1.1651
1.05619
1.0391
1.04259
1.05155
1.06187
1.07092
1.07809
1.08547
1.09308
1.10207
1.11253
1.12445
1.13851
1.15468
1.17189
3.00001
3.00001
3.00001
3.00001
3.00001
3.00001
3.00001
3.00001
3.00001
3.00001
3.00001
3.00001
3.00001
3.00001
3.00001
3.00001
3.00001
3.00001
3.00001
3
3
2.99997
2.99996
2.99982
2.99976
2.99901
2.99862
2.99486
2.99159
2.97056
2.95016
2.81763
2.67595
2.20517
1.5212
1.19485
1.09521
1.07747
1.0789
1.08579
1.09485
1.10167
1.10802
1.11491
1.12261
1.13214
1.1429
1.156
1.17126
1.18713
3.00001
3.00001
3.00001
3.00001
3.00001
3.00001
3.00001
3.00001
3.00001
3.00001
3.00001
3.00001
3.00001
3.00001
3.00001
3.00001
3.00001
3.00001
3.00001
3.00001
3
2.99999
2.99999
2.99994
2.99991
2.99963
2.99946
2.99811
2.99691
2.99062
2.98305
2.94342
2.85754
2.62269
2.09417
1.52163
1.20675
1.14013
1.12258
1.11935
1.1218
1.12562
1.13012
1.13535
1.14163
1.15012
1.15994
1.17185
1.18578
1.20047
3.00001
3.00001
3.00001
3.00001
3.00001
3.00001
3.00001
3.00001
3.00001
3.00001
3.00001
3.00001
3.00001
3.00001
3.00001
3.00001
3.00001
3.00001
3.00001
3.00001
3
3
2.99999
2.99998
2.99993
2.99987
2.99958
2.99925
2.99754
2.9962
2.98809
2.9775
2.9273
2.83801
2.59989
2.07245
1.51862
1.21493
1.16299
1.15057
1.14963
1.1535
1.15881
1.16299
1.16771
1.17354
1.18078
1.18986
1.20169
1.21463
3.00001
3.00001
3.00001
3.00001
3.00001
3.00001
3.00001
3.00001
3.00001
3.00001
3.00001
3.00001
3.00001
3.00001
3.00001
3.00001
3.00001
3.00001
3.00001
3.00001
3.00001
3
3
2.99999
2.99998
2.99991
2.99985
2.99949
2.99922
2.9972
2.99584
2.98732
2.97569
2.91997
2.82756
2.58368
2.04929
1.52833
1.23462
1.18283
1.17223
1.17266
1.17763
1.18455
1.19133
1.19828
1.20584
1.21402
1.22382
1.23479
3.00001
3.00001
3.00001
3.00001
3.00001
3.00001
3.00001
3.00001
3.00001
3.00001
3.00001
3.00001
3.00001
3.00001
3.00001
3.00001
3.00001
3.00001
3.00001
3.00001
3.00001
3.00001
3
3
2.99999
2.99998
2.99992
2.99986
2.99953
2.99925
2.9973
2.99864
2.98544
3.01328
2.95084
2.86961
2.48745
2.03772
1.49504
1.26406
1.20186
1.19206
1.19266
1.19827
1.20597
1.2147
1.22336
1.23302
1.24374
1.25556
3.00001
3.00001
3.00001
3.00001
3.00001
3.00001
3.00001
3.00001
3.00001
3.00001
3.00001
3.00001
3.00001
3.00001
3.00001
3.00001
3.00001
3.00001
3.00001
3.00001
3.00001
3.00001
3.00001
3
3
2.99999
2.99999
2.99993
2.99991
2.99964
2.9994
2.99784
2.99936
2.98664
3.02094
2.96418
2.84117
2.50474
2.02369
1.49965
1.28289
1.22318
1.21273
1.2129
1.2182
1.22693
1.23735
1.24766
1.25935
1.27107
3.00001
3.00001
3.00001
3.00001
3.00001
3.00001
3.00001
3.00001
3.00001
3.00001
3.00001
3.00001
3.00001
3.00001
3.00001
3.00001
3.00001
3.00001
3.00001
3.00001
3.00001
3.00001
3.00001
3.00001
3
3
2.99998
2.99998
2.99989
2.99987
2.9994
2.99924
2.9967
2.99559
2.98339
2.973
2.90352
2.81421
2.57454
2.0545
1.57322
1.31042
1.25346
1.24023
1.23865
1.24199
1.25118
1.26214
1.27421
1.28608
3.00001
3.00001
3.00001
3.00001
3.00001
3.00001
3.00001
3.00001
3.00001
3.00001
3.00001
3.00001
3.00001
3.00001
3.00001
3.00001
3.00001
3.00001
3.00001
3.00001
3.00001
3.00001
3.00001
3.00001
3.00001
3.00001
3.00001
3
3
2.99997
3.00007
2.9997
2.99972
2.99712
2.99816
2.98583
3.02841
2.94824
2.84795
2.51246
2.06341
1.56641
1.33957
1.2741
1.26153
1.26066
1.26546
1.27497
1.28734
1.29914
3.00001
3.00001
3.00001
3.00001
3.00001
3.00001
3.00001
3.00001
3.00001
3.00001
3.00001
3.00001
3.00001
3.00001
3.00001
3.00001
3.00001
3.00001
3.00001
3.00001
3.00001
3.00001
3.00001
3.00001
3.00001
3.00001
3.00001
3.00001
3
3
2.99994
2.99994
2.99968
2.99961
2.99759
2.99717
2.98538
2.9851
2.94127
2.89523
2.55526
2.11884
1.59804
1.36948
1.29792
1.28504
1.28399
1.28882
1.29803
1.30876
3.00001
3.00001
3.00001
3.00001
3.00001
3.00001
3.00001
3.00001
3.00001
3.00001
3.00001
3.00001
3.00001
3.00001
3.00001
3.00001
3.00001
3.00001
3.00001
3.00001
3.00001
3.00001
3.00001
3.00001
3.00001
3.00001
3.00001
3.00001
3.00001
3
3
2.99994
2.99995
2.99971
2.99965
2.99763
2.99731
2.98538
2.98498
2.93764
2.89863
2.56845
2.14638
1.63557
1.40615
1.328
1.30967
1.30598
1.30895
1.31212
3.00001
3.00001
3.00001
3.00001
3.00001
3.00001
3.00001
3.00001
3.00001
3.00001
3.00001
3.00001
3.00001
3.00001
3.00001
3.00001
3.00001
3.00001
3.00001
3.00001
3.00001
3.00001
3.00001
3.00001
3.00001
3.00001
3.00001
3.00001
3.00001
3.00001
3
3
2.99998
2.99996
2.99978
3.00011
2.99792
3.00511
2.99257
2.98205
2.93332
2.85457
2.63565
2.22229
1.74549
1.44333
1.36101
1.33606
1.32657
1.31737
3.00001
3.00001
3.00001
3.00001
3.00001
3.00001
3.00001
3.00001
3.00001
3.00001
3.00001
3.00001
3.00001
3.00001
3.00001
3.00001
3.00001
3.00001
3.00001
3.00001
3.00001
3.00001
3.00001
3.00001
3.00001
3.00001
3.00001
3.00001
3.00001
3.00001
3.00001
3.00001
3.00002
3.00003
3.0001
3.00008
3.00051
2.99939
3.00607
2.99526
2.98633
2.93693
2.87802
2.69587
2.28884
1.81692
1.47947
1.38233
1.34175
1.3077
3.00001
3.00001
3.00001
3.00001
3.00001
3.00001
3.00001
3.00001
3.00001
3.00001
3.00001
3.00001
3.00001
3.00001
3.00001
3.00001
3.00001
3.00001
3.00001
3.00001
3.00001
3.00001
3.00001
3.00001
3.00001
3.00001
3.00001
3.00001
3.00001
3.00001
3.00001
3.00001
3
3.00001
3.00001
3.00006
3.00004
3.0003
2.99923
3.00454
2.99541
2.9869
2.94429
2.89258
2.73744
2.3579
1.91298
1.52639
1.36941
1.27218
3.00001
3.00001
3.00001
3.00001
3.00001
3.00001
3.00001
3.00001
3.00001
3.00001
3.00001
3.00001
3.00001
3.00001
3.00001
3.00001
3.00001
3.00001
3.00001
3.00001
3.00001
3.00001
3.00001
3.00001
3.00001
3.00001
3.00001
3.00001
3.00001
3.00001
3.00001
3.00001
3
3
2.99998
2.99998
2.99987
2.99985
2.99923
2.99901
2.99599
2.99274
2.97667
2.9553
2.86463
2.74767
2.44827
1.94058
1.52774
1.17145
3.00001
3.00001
3.00001
3.00001
3.00001
3.00001
3.00001
3.00001
3.00001
3.00001
3.00001
3.00001
3.00001
3.00001
3.00001
3.00001
3.00001
3.00001
3.00001
3.00001
3.00001
3.00001
3.00001
3.00001
3.00001
3.00001
3.00001
3.00001
3.00001
3.00001
3.00001
3.00001
3.00001
3.00001
3.00001
3
3
2.99994
2.99995
2.99947
2.99926
2.99513
2.99872
2.96866
3.06543
2.90239
2.72342
2.18359
1.57118
0.783942
3.00001
3.00001
3.00001
3.00001
3.00001
3.00001
3.00001
3.00001
3.00001
3.00001
3.00001
3.00001
3.00001
3.00001
3.00001
3.00001
3.00001
3.00001
3.00001
3.00001
3.00001
3.00001
3.00001
3.00001
3.00001
3.00001
3.00001
3.00001
3.00001
3.00001
3.00001
3.00001
3.00001
3.00001
3
3
2.99996
2.99996
2.99976
2.9997
2.99871
2.99794
2.99326
2.98755
2.95858
2.92686
2.64558
2.25003
1.43931
0.485865
3.00001
3.00001
3.00001
3.00001
3.00001
3.00001
3.00001
3.00001
3.00001
3.00001
3.00001
3.00001
3.00001
3.00001
3.00001
3.00001
3.00001
3.00001
3.00001
3.00001
3.00001
3.00001
3.00001
3.00001
3.00001
3.00001
3.00001
3.00001
3.00001
3.00001
3.00001
3.00001
3.00001
3.00001
3
3
2.99996
2.99995
2.9997
2.99966
2.99793
2.99716
2.9859
2.99604
2.92343
3.12946
2.79421
2.35704
1.47027
0.719563
3.00001
3.00001
3.00001
3.00001
3.00001
3.00001
3.00001
3.00001
3.00001
3.00001
3.00001
3.00001
3.00001
3.00001
3.00001
3.00001
3.00001
3.00001
3.00001
3.00001
3.00001
3.00001
3.00001
3.00001
3.00001
3.00001
3.00001
3.00001
3.00001
3.00001
3.00001
3.00001
3.00001
3.00001
3
3
2.99998
2.99997
2.99979
2.99973
2.9985
2.998
2.9895
2.99964
2.92796
3.1385
2.81235
2.372
1.48983
0.726656
3.00001
3.00001
3.00001
3.00001
3.00001
3.00001
3.00001
3.00001
3.00001
3.00001
3.00001
3.00001
3.00001
3.00001
3.00001
3.00001
3.00001
3.00001
3.00001
3.00001
3.00001
3.00001
3.00001
3.00001
3.00001
3.00001
3.00001
3.00001
3.00001
3.00001
3.00001
3.00001
3.00001
3.00001
3
3
2.99997
2.99996
2.99973
2.99967
2.99812
2.99738
2.98698
2.99683
2.92212
3.13103
2.78356
2.32323
1.42439
0.686655
3.00001
3.00001
3.00001
3.00001
3.00001
3.00001
3.00001
3.00001
3.00001
3.00001
3.00001
3.00001
3.00001
3.00001
3.00001
3.00001
3.00001
3.00001
3.00001
3.00001
3.00001
3.00001
3.00001
3.00001
3.00001
3.00001
3.00001
3.00001
3.00001
3.00001
3.00001
3.00001
3.00001
3.00001
3
3
2.99997
2.99996
2.99982
2.99973
2.99928
2.99797
2.99675
2.989
3.0286
2.91463
2.78929
2.11056
1.32929
0.406667
3.00001
3.00001
3.00001
3.00001
3.00001
3.00001
3.00001
3.00001
3.00001
3.00001
3.00001
3.00001
3.00001
3.00001
3.00001
3.00001
3.00001
3.00001
3.00001
3.00001
3.00001
3.00001
3.00001
3.00001
3.00001
3.00001
3.00001
3.00001
3.00001
3.00001
3.00001
3.00001
3.00001
3.00001
3
3
2.99996
2.99995
2.99976
2.99969
2.99887
2.99802
2.99406
2.98929
2.96719
2.92655
2.70714
2.24168
1.37913
0.412721
3.00001
3.00001
3.00001
3.00001
3.00001
3.00001
3.00001
3.00001
3.00001
3.00001
3.00001
3.00001
3.00001
3.00001
3.00001
3.00001
3.00001
3.00001
3.00001
3.00001
3.00001
3.00001
3.00001
3.00001
3.00001
3.00001
3.00001
3.00001
3.00001
3.00001
3.00001
3.00001
3.00001
3.00001
3
3
2.99997
2.99995
2.99979
2.99969
2.99854
2.99806
2.99215
2.98528
2.94988
2.93559
2.75437
2.18329
1.33124
0.36888
1.38426
1.5567
1.58514
1.49711
1.35139
1.15697
0.86113
0.52945
0.277287
0.137779
0.187213
0.280669
0.383715
0.468866
0.532272
0.575831
0.607911
0.630026
0.646402
0.662302
0.675756
0.68453
0.689635
0.688248
0.675309
0.646542
0.600305
0.540108
0.473333
0.406281
0.341405
0.280289
0.221582
0.16741
0.117467
0.071179
0.0369929
0.0367433
0.0706136
0.107301
0.142321
0.174887
0.205075
0.233979
0.263849
0.293265
0.321598
0.348329
0.374303
0.399227
0.423633
0.447016
0.47015
0.492124
0.514095
0.534854
0.555723
0.575439
0.595345
0.61415
0.633216
0.651259
0.669597
0.687003
0.704672
0.721537
0.738565
0.754955
0.771393
0.787305
0.80324
0.818626
0.834145
0.848972
0.864126
0.878413
0.893209
0.907029
0.921439
0.934885
0.9489
0.962033
0.975696
0.988493
1.0019
1.01434
1.02755
1.03967
1.05279
1.06467
1.0777
1.08942
1.10223
1.11386
1.12628
1.13758
1.1492
1.15908
1.16772
1.17293
1.34519
1.45753
1.50147
1.50179
1.48581
1.47358
1.39648
1.16274
0.729413
0.468605
0.342749
0.261101
0.180696
0.116763
0.0885337
0.123439
0.179994
0.243778
0.30671
0.361932
0.405019
0.428442
0.436107
0.429894
0.411073
0.378347
0.329059
0.267864
0.206368
0.150062
0.101124
0.0709528
0.0702786
0.0972547
0.131961
0.167571
0.201837
0.232945
0.264237
0.295081
0.325037
0.353809
0.380431
0.40598
0.431986
0.458432
0.48352
0.507508
0.530643
0.553147
0.575168
0.596489
0.617542
0.637758
0.657869
0.677128
0.696326
0.714728
0.733114
0.750758
0.768454
0.785433
0.802539
0.818943
0.835484
0.851391
0.867402
0.882854
0.898358
0.913387
0.928425
0.94302
0.957647
0.971768
0.986083
0.999679
1.01379
1.02684
1.04082
1.05341
1.06718
1.07956
1.09293
1.10548
1.11828
1.13125
1.14349
1.15678
1.16861
1.18195
1.19352
1.20678
1.21819
1.23117
1.24248
1.25484
1.26564
1.27653
1.28476
1.29097
1.29719
1.39779
1.47962
1.55521
1.62845
1.65348
1.6196
1.49309
1.1588
0.805803
0.661827
0.581004
0.509753
0.441112
0.373963
0.310569
0.251429
0.194021
0.137337
0.0904409
0.0616846
0.0721997
0.0976126
0.121177
0.126871
0.0991034
0.0947347
0.118198
0.150319
0.184831
0.220453
0.254034
0.284303
0.314043
0.343046
0.37101
0.397397
0.422538
0.446913
0.471453
0.495157
0.518675
0.540451
0.561316
0.582211
0.604038
0.625536
0.645882
0.665783
0.684946
0.70411
0.722614
0.741108
0.759054
0.776937
0.794366
0.811683
0.828559
0.845324
0.861621
0.877909
0.893671
0.90954
0.924797
0.940253
0.955002
0.970086
0.984304
0.999073
1.01277
1.02721
1.04051
1.05448
1.06764
1.08086
1.09413
1.10648
1.11976
1.13157
1.14453
1.15611
1.16895
1.18035
1.19308
1.20434
1.21704
1.22813
1.24079
1.25173
1.26435
1.27515
1.28775
1.29844
1.31093
1.32166
1.33368
1.34407
1.35499
1.36302
1.36959
1.2731
1.37364
1.46134
1.5465
1.61909
1.66996
1.67234
1.63237
1.50004
1.18754
0.935609
0.841156
0.768989
0.708427
0.650968
0.593981
0.540396
0.48829
0.436849
0.384363
0.334867
0.28605
0.245316
0.218374
0.214125
0.252525
0.307501
0.358094
0.400272
0.434024
0.463017
0.487166
0.507499
0.526669
0.544848
0.562925
0.579759
0.596486
0.612883
0.629529
0.646612
0.663522
0.680392
0.695974
0.712116
0.728858
0.746893
0.76389
0.780946
0.797244
0.81385
0.829832
0.846136
0.861786
0.87782
0.893199
0.909004
0.92414
0.939685
0.954536
0.9698
0.984293
0.999312
1.01345
1.02826
1.04208
1.05664
1.07025
1.08439
1.09796
1.11147
1.12509
1.13792
1.15152
1.16387
1.17725
1.18936
1.20247
1.2144
1.2274
1.23908
1.25181
1.26317
1.27554
1.28653
1.29855
1.30923
1.32094
1.33145
1.34277
1.35339
1.36415
1.37492
1.38525
1.39594
1.40575
1.41615
1.42475
1.43305
1.43717
1.24846
1.34667
1.43568
1.5165
1.59179
1.65408
1.69299
1.69045
1.64646
1.49975
1.23732
1.05623
0.980337
0.921529
0.86733
0.818061
0.769667
0.722751
0.677377
0.633154
0.588036
0.545474
0.503156
0.46987
0.467813
0.500819
0.549219
0.596688
0.637286
0.668019
0.686427
0.697186
0.704328
0.711436
0.719359
0.727667
0.736707
0.745996
0.755874
0.76642
0.777519
0.788972
0.800632
0.811878
0.823601
0.83575
0.849685
0.863459
0.877556
0.890874
0.904684
0.917835
0.931704
0.944947
0.95883
0.972032
0.985818
0.998937
1.01271
1.02582
1.03965
1.05277
1.06666
1.07971
1.09358
1.10652
1.12026
1.13318
1.14663
1.15971
1.17266
1.18595
1.19829
1.21162
1.22355
1.2367
1.2485
1.26144
1.2731
1.28591
1.29741
1.31011
1.32153
1.33399
1.34536
1.35739
1.36885
1.38021
1.3918
1.40259
1.41411
1.42457
1.43594
1.44604
1.45732
1.46691
1.47771
1.48626
1.49484
1.4989
1.22428
1.3151
1.3998
1.48122
1.55352
1.62101
1.67654
1.70203
1.69181
1.64397
1.49388
1.28779
1.15232
1.09149
1.04269
0.994938
0.952231
0.909897
0.866496
0.821706
0.777977
0.734201
0.683849
0.644505
0.642301
0.673316
0.721639
0.772151
0.81413
0.844886
0.862718
0.865785
0.861499
0.856343
0.853076
0.853671
0.856407
0.860459
0.865799
0.87238
0.879768
0.887863
0.89698
0.905936
0.915051
0.924131
0.935281
0.947116
0.959556
0.97106
0.982941
0.993987
1.00566
1.01679
1.02875
1.04022
1.05251
1.06416
1.07661
1.0884
1.10105
1.11305
1.12595
1.13814
1.15119
1.16349
1.1765
1.18896
1.20177
1.21451
1.22701
1.24008
1.25232
1.26558
1.27769
1.29074
1.30269
1.31541
1.32702
1.33945
1.35073
1.36282
1.37395
1.3857
1.39686
1.40814
1.41958
1.43029
1.4419
1.45231
1.46375
1.47412
1.48528
1.49542
1.50637
1.5161
1.52652
1.53509
1.54355
1.54726
1.20635