/*--------------------------------*- C++ -*----------------------------------*\
| =========                 |                                                 |
| \\      /  F ield         | OpenFOAM: The Open Source CFD Toolbox           |
|  \\    /   O peration     | Version:  2412                                  |
|   \\  /    A nd           | Website:  www.openfoam.com                      |
|    \\/     M anipulation  |                                                 |
\*---------------------------------------------------------------------------*/
FoamFile
{
    version     2.0;
    format      ascii;
    arch        "LSB;label=32;scalar=64";
    class       volScalarField;
    location    "3.5";
    object      p;
}
// * * * * * * * * * * * * * * * * * * * * * * * * * * * * * * * * * * * * * //

dimensions      [1 -1 -2 0 0 0 0];

internalField   nonuniform List<scalar> 
7000
(
1
1
1
1
1
1
1
1
1
1.00001
1.00001
1.00003
1.00004
1.00018
1.00027
1.00083
1.00133
1.00407
0.995925
1.02374
1.06266
0.955874
2.52466
3.55474
8.99385
10.0307
9.82552
9.53354
9.50753
9.56861
9.71653
9.87683
9.99762
10.0953
10.1887
10.2827
10.3756
10.4654
10.5512
10.6334
10.712
10.7863
10.8564
10.9206
10.9789
11.0308
11.0746
11.1107
11.1341
11.1488
1
1
1
1
1
1
1
1
1
1.00001
1.00001
1.00003
1.00003
1.00017
1.00028
1.00082
1.00131
1.00401
0.995856
1.02359
1.06236
0.95567
2.52237
3.54861
8.98321
10.028
9.8238
9.53192
9.5065
9.5676
9.71542
9.87544
9.99604
10.0938
10.1872
10.2813
10.3743
10.464
10.5498
10.6321
10.7107
10.7852
10.8554
10.9198
10.9782
11.0302
11.0741
11.1103
11.1337
11.1487
1
1
1
1
1
1
1
1
1
1
1.00001
1.00002
1.00005
1.00004
1.00039
1.00075
1.0013
1.00387
0.995695
1.02325
1.06166
0.955128
2.51753
3.535
8.95994
10.0224
9.8202
9.52822
9.50336
9.56438
9.71191
9.87139
9.9916
10.0893
10.1828
10.2768
10.3697
10.4593
10.545
10.6272
10.7058
10.7801
10.8503
10.9146
10.9729
11.0248
11.0685
11.1047
11.1283
11.1439
1
1
1
1
1
1
1
1
1
1.00001
1.00001
1.00003
1.00004
1.00003
1.00038
1.00074
1.00123
1.00364
0.995434
1.0227
1.06055
0.954248
2.50981
3.51314
8.92258
10.014
9.81492
9.52252
9.49795
9.55888
9.70605
9.86488
9.98463
10.0822
10.1757
10.2697
10.3623
10.4517
10.5372
10.6191
10.6975
10.7717
10.8417
10.9058
10.9639
11.0156
11.059
11.0951
11.1188
11.1351
1
1
1
1
1
1
1
1
1
1.00001
1.00001
1.00002
1.00003
1.00001
1.00039
1.00077
1.00116
1.00329
0.995031
1.02189
1.05895
0.952986
2.4989
3.4822
8.86946
10.0025
9.80779
9.51458
9.48993
9.55071
9.69744
9.85559
9.97481
10.0722
10.1656
10.2593
10.3517
10.4407
10.5259
10.6075
10.6856
10.7595
10.8292
10.8929
10.9508
11.0023
11.0454
11.0814
11.1053
11.1222
1
1
1
1
1
1
1
1
1
1
1
1.00002
1.00002
0.999999
1.00041
1.00086
1.0009
1.00283
0.994507
1.02084
1.05686
0.951348
2.48453
3.44148
8.79881
9.98748
9.79859
9.50418
9.47902
9.53958
9.68576
9.84322
9.96194
10.0591
10.1523
10.2456
10.3375
10.426
10.5106
10.5917
10.6693
10.7428
10.8121
10.8754
10.933
10.9841
11.027
11.0629
11.0869
11.1042
1
1
1
1
1
1
1
1
1
1
1
1.00002
1.00003
1.00012
1.00019
1.00064
1.00059
1.00234
0.993942
1.01959
1.05432
0.949385
2.46639
3.39009
8.70867
9.96851
9.78698
9.49107
9.46495
9.52518
9.67063
9.82747
9.94574
10.0426
10.1354
10.2282
10.3194
10.4072
10.491
10.5714
10.6484
10.7212
10.7899
10.8527
10.9098
10.9605
11.0031
11.0389
11.0628
11.0805
1
1
1
1
1
1
1
1
1
1
1
1.00002
1.00002
1.00007
1.00012
1.00037
1.00023
1.00178
0.993309
1.01814
1.0513
0.94713
2.44419
3.32731
8.59705
9.94494
9.77244
9.47504
9.44738
9.50705
9.65152
9.80791
9.92585
10.0223
10.1146
10.2067
10.2969
10.3839
10.4665
10.5461
10.6221
10.6941
10.762
10.824
10.8805
10.9307
10.9728
11.0084
11.0323
11.0501
1
1
1
1
1
1
1
1
1
1
1
1.00001
1.00001
1.00003
1.00001
1.00008
0.999816
1.00113
0.992573
1.01643
1.04777
0.944576
2.41762
3.25256
8.46207
9.91596
9.75402
9.4564
9.42587
9.48462
9.62774
9.78403
9.90181
9.9979
10.0895
10.1806
10.2697
10.3555
10.4369
10.5152
10.59
10.6609
10.7277
10.7886
10.8443
10.8937
10.9352
10.9705
10.9941
11.0123
1
1
1
1
1
1
1
1
1
1
0.999998
0.999998
0.999981
0.999962
0.999861
0.99978
0.999341
1.00037
0.991706
1.01443
1.04368
0.941724
2.38643
3.16543
8.30217
9.88032
9.72937
9.4365
9.4
9.45727
9.59866
9.75534
9.8731
9.96867
10.0595
10.1495
10.2372
10.3213
10.4014
10.478
10.5512
10.6205
10.686
10.7455
10.8001
10.8485
10.8892
10.9239
10.9473
10.9656
1
1
1
1
1
1
1
1
1
1
0.999999
1
0.999992
1
1.00003
0.999399
0.998632
0.99936
0.990581
1.01201
1.03892
0.938473
2.3504
3.06601
8.1167
9.8364
9.69713
9.4135
9.36921
9.42468
9.56413
9.72153
9.83928
9.93409
10.0238
10.1125
10.1987
10.281
10.3593
10.4338
10.505
10.5724
10.636
10.6936
10.7467
10.7937
10.8332
10.8672
10.8901
10.9087
1
1
1
1
1
1
1
1
1
1
1
1.00002
1.00001
1.00005
1.00013
0.998966
0.997623
0.998236
0.989139
1.00901
1.03325
0.934629
2.30928
2.95465
7.90625
9.78105
9.65539
9.38382
9.33301
9.38675
9.52433
9.68253
9.80008
9.89377
9.98212
10.0692
10.1534
10.2336
10.3096
10.3817
10.4502
10.5152
10.5765
10.6316
10.6825
10.7274
10.7652
10.798
10.8202
10.8388
1
1
1
1
1
1
1
1
1
1.00001
1.00001
1.00003
1.00003
1.0001
1.00021
0.998526
0.996633
0.997165
0.986694
1.00456
1.02543
0.92838
2.26514
2.83105
7.67472
9.70657
9.59825
9.34591
9.29181
9.34397
9.47961
9.63841
9.75545
9.84752
9.9339
10.0189
10.1009
10.1786
10.2517
10.3208
10.3862
10.4479
10.5059
10.5579
10.6056
10.6478
10.6829
10.7138
10.7348
10.7536
1
1
1
1
1
1
1
1
1
1.00001
1.00001
1.00003
1.00004
1.00012
1.00026
0.998174
0.995936
0.996027
0.981625
0.996389
1.01108
0.909805
2.24049
2.66149
7.44221
9.6049
9.51956
9.30005
9.24713
9.29759
9.43038
9.58925
9.70548
9.79548
9.8792
9.96142
10.0404
10.1149
10.1845
10.2498
10.3112
10.3688
10.4223
10.4703
10.5136
10.5514
10.5829
10.6106
10.6297
10.6481
1
1
1
1
1
1
1
1
1
1.00001
1.00001
1.00004
1.00003
1.00009
1.00021
0.99808
0.995235
0.995616
0.975046
0.98652
0.992654
0.881041
2.23127
2.42002
7.18527
9.47498
9.42139
9.25116
9.20199
9.25045
9.37857
9.53604
9.65055
9.73774
9.81808
9.8967
9.97192
10.0422
10.1074
10.168
10.2243
10.2765
10.3245
10.366
10.4033
10.435
10.4606
10.4833
10.4989
10.5166
1
1
1
1
1
1
1
1
1
1.00001
1.00001
1.00004
1.00002
1.00007
1.00017
0.998199
0.995495
0.995752
0.975574
0.987453
0.990682
0.883539
2.16458
2.31208
6.77743
9.32409
9.3135
9.19926
9.15483
9.20265
9.32736
9.48082
9.59183
9.67507
9.75097
9.82483
9.89506
9.96013
10.0198
10.0744
10.1241
10.1692
10.2093
10.2426
10.2709
10.2935
10.3096
10.3241
10.3331
10.3485
1
1
1
1
1
1
1
1
1
1
1
1.00001
1.00001
1.00004
1.00006
0.999894
0.999667
0.999783
0.998845
1.00812
0.995131
0.931905
2.02634
2.00934
6.24964
9.25059
9.28788
9.16461
9.10863
9.15449
9.27594
9.42493
9.53058
9.60848
9.67869
9.74638
9.8101
9.86842
9.9208
9.96767
10.0091
10.0448
10.0747
10.0966
10.112
10.1205
10.1214
10.1207
10.1173
10.1265
1
1
1
1
1
1
1
1
1
1.00001
1.00001
1.00004
1.00004
1.00024
1.00027
1.00146
1.00232
1.00882
1.00632
1.02967
1.0629
1.02405
1.75595
1.95291
5.34445
9.1581
9.29285
9.151
9.07406
9.11555
9.23018
9.37004
9.46795
9.53858
9.60181
9.66187
9.71746
9.7674
9.81046
9.84766
9.87815
9.90171
9.91764
9.92407
9.92061
9.90833
9.88355
9.85536
9.82458
9.81743
1
1
1
1
1
1
1
1
1
1
1.00001
1.00001
1.00006
1.00007
1.00036
1.00038
1.0021
1.0021
1.01133
1.01531
1.06775
1.07342
1.60574
1.68985
4.71803
8.83213
9.26389
9.13821
9.05285
9.08794
9.18845
9.31451
9.40278
9.46561
9.52075
9.57165
9.61751
9.65691
9.68932
9.71428
9.73115
9.73889
9.7366
9.72341
9.69298
9.64526
9.58015
9.50038
9.40949
9.34733
1
1
1
1
1
1
1
1
1
1
1.00001
1.00001
1.00005
1.00008
1.00031
1.0004
1.00184
1.00167
1.01083
1.01096
1.06339
1.03404
1.52313
1.55121
4.23126
8.04595
9.16054
9.13304
9.06113
9.07656
9.14119
9.24943
9.33107
9.3873
9.43357
9.47421
9.50928
9.53643
9.5561
9.56679
9.56633
9.55736
9.53246
9.48648
9.4185
9.32248
9.19027
9.01276
8.78324
8.52617
1
1
1
1
1
1
1
1
1
1
1.00001
1.00001
1.00005
1.00005
1.00027
1.00031
1.0014
1.0021
1.00763
1.01003
1.05183
1.06679
1.36286
1.42977
3.43338
6.6105
9.06063
9.24279
9.16032
9.0895
9.10597
9.16209
9.23788
9.28928
9.32444
9.35147
9.37272
9.38627
9.38777
9.3817
9.36215
9.32163
9.26115
9.17414
9.0523
8.8789
8.62524
8.23318
7.56544
6.10057
1
1
1
1
1
1
1
1
1
1
1.00001
1.00001
1.00003
1.00003
1.00018
1.00018
1.00099
1.0013
1.00534
1.00679
1.0322
1.04925
1.22662
1.20639
2.66618
4.31534
8.83309
9.52633
9.38762
9.13108
9.0637
9.08134
9.12559
9.16661
9.19044
9.20234
9.20645
9.2031
9.19039
9.16007
9.10728
9.03435
8.93655
8.80277
8.61638
8.35488
7.9765
7.40927
6.56287
5.11537
1
1
1
1
1
1
1
1
1
1
1
1
1.00001
1.00001
1.00005
1.00007
1.00032
1.00007
1.00063
1.00126
0.998425
1.03002
1.09944
1.0189
2.41455
3.2078
7.98689
9.4249
9.31853
9.07595
8.93713
8.92581
8.94303
8.98172
9.01043
9.01776
9.01466
9.00199
8.97125
8.91304
8.83576
8.73484
8.60133
8.42584
8.18998
7.87266
7.44108
6.85079
6.08378
5.02735
1
1
1
1
1
1
1
1
1
1
1
1
1
1.00002
1.00003
1.00009
1.0002
0.998685
0.997001
0.997124
0.984205
0.997253
1.00589
0.901212
2.21332
2.33655
6.87094
9.12883
9.09582
8.92219
8.73054
8.70189
8.72144
8.76704
8.80334
8.81236
8.80659
8.78643
8.73995
8.66281
8.56677
8.44453
8.2864
8.08287
7.82262
7.48852
7.06206
6.52466
5.87941
5.05973
1
1
1
1
1
1
1
1
1
1
1
1
1
1.00001
1.00003
1.00004
1.00021
1.00033
1.00078
1.00069
1.00851
1.01613
1.07481
1.07695
1.73436
1.77107
5.2625
8.70165
8.91505
8.75725
8.54217
8.5028
8.52184
8.56952
8.60743
8.61197
8.60357
8.5758
8.51427
8.42346
8.31347
8.17738
8.00659
7.79324
7.5285
7.20338
6.8088
6.33311
5.79036
5.13425
1
1
1
1
1
1
1
1
1
1
1
1
1
1.00001
1.00003
1.00005
1.00016
1.0003
1.00128
1.00126
1.00851
1.01015
1.05842
1.04796
1.49154
1.44661
4.17895
7.68679
8.71502
8.63721
8.44638
8.36543
8.37315
8.4009
8.43174
8.4309
8.41801
8.38053
8.30332
8.20288
8.08412
7.94026
7.76424
7.55053
7.29391
6.98873
6.63153
6.21815
5.7516
5.20216
1
1
1
1
1
1
1
1
1
1
1
1
1.00001
1.00001
1.00003
1.00003
1.00008
1.0002
0.998322
0.996136
0.996078
0.980015
0.990829
0.994687
0.893334
2.15215
2.16489
6.37915
8.43532
8.5099
8.41098
8.27757
8.25261
8.26119
8.27828
8.27435
8.25533
8.20771
8.11721
8.00914
7.88386
7.73538
7.55921
7.35077
7.10664
6.82386
6.50059
6.13485
5.73418
5.26491
1
1
1
1
1
1
1
1
1
1
1
1
1
1.00001
1.00001
1.00005
1.00005
1.0003
1.00033
1.00148
1.00132
1.01042
1.01031
1.07109
1.0729
1.56749
1.66362
4.26031
7.70791
8.39909
8.34805
8.22553
8.15325
8.14567
8.1445
8.13519
8.1065
8.04345
7.94551
7.83266
7.70477
7.55568
7.3831
7.18376
6.95423
6.69321
6.40001
6.07266
5.71591
5.30571
1
1
1
1
1
1
1
1
1
1
1
1
1
1.00001
1.00001
1.00004
1.00006
1.00021
1.00026
1.00118
1.00116
1.00679
1.0069
1.04294
1.06405
1.31729
1.29066
3.30126
6.01601
8.03826
8.3022
8.23509
8.11215
8.05762
8.03566
8.00827
7.95868
7.88456
7.78888
7.67779
7.55209
7.40721
7.23961
7.04653
6.82832
6.58621
6.31846
6.02334
5.70519
5.34321
1
1
1
1
1
1
1
1
1
1
1
1
1
1
1
1.00002
1.00002
1.00009
1.00012
1.00043
1.0007
1.00247
1.00273
1.01406
1.03045
1.13648
1.06439
2.4063
3.29565
7.22824
8.22769
8.20502
8.12243
8.00172
7.93316
7.88308
7.82178
7.74249
7.64764
7.53779
7.41289
7.27073
7.10937
6.92829
6.72491
6.49816
6.25126
5.98388
5.6963
5.37049
1
1
1
1
1
1
1
1
1
1
1
1
1
1
1
1
1
0.999996
1.00001
1.00004
0.999514
0.998851
0.99923
0.992731
1.00738
1.01878
0.942266
1.98028
2.1036
5.25559
7.74718
8.12358
8.06611
7.92726
7.80568
7.73209
7.66982
7.59648
7.50835
7.40463
7.28527
7.14953
6.99641
6.82523
6.63561
6.4286
6.19988
5.95122
5.68968
5.39736
1
1
1
1
1
1
1
1
1
1
1
1
1
1
1
1.00001
1.00001
1.00005
1.00006
1.0003
1.00035
1.00168
1.00173
1.00929
1.01167
1.05525
1.06883
1.43366
1.52085
3.56229
6.58545
7.88868
7.95258
7.87661
7.71408
7.60251
7.52952
7.46118
7.38076
7.28564
7.17342
7.04505
6.90028
6.73914
6.56147
6.36779
6.15866
5.93285
5.69011
5.41989
1
1
1
1
1
1
1
1
1
1
1
1
1
1
0.999999
0.999998
0.999993
0.999991
0.999965
0.999955
0.999858
0.999807
0.999472
0.999648
0.996136
1.00472
0.997827
1.01584
1.69017
1.84935
4.4647
7.24288
7.7893
7.75219
7.63912
7.49908
7.41357
7.35052
7.27993
7.19178
7.08452
6.9612
6.8231
6.67025
6.5026
6.32038
6.12406
5.91326
5.69104
5.44409
1
1
1
1
1
1
1
1
1
1
1
1
1
1
1
1
1.00001
1.00001
1.00004
1.00006
1.00025
1.00031
1.00131
1.00197
1.00731
1.00947
1.04818
1.06478
1.32794
1.38922
3.04757
5.53396
7.26213
7.58433
7.54364
7.43496
7.33325
7.26086
7.19269
7.11032
7.00951
6.89182
6.75929
6.61323
6.45433
6.28284
6.09857
5.90143
5.69342
5.4633
1
1
1
1
1
1
1
1
1
1
1
1
1
1
1
0.999999
0.999998
0.999992
0.999991
0.999951
0.999937
0.999731
0.999701
0.998409
0.998739
0.998683
0.993821
1.04369
1.12204
1.06363
2.21976
2.75393
6.15836
7.29905
7.46665
7.42745
7.33724
7.23831
7.14572
7.05659
6.95699
6.84057
6.70834
6.56286
6.40796
6.24408
6.07115
5.88753
5.69453
5.48078
1
1
1
1
1
1
1
1
1
1
1
1
1
1
1
1
1
1
1.00001
1.00003
1.00003
1.00015
1.00017
1.00074
1.0012
1.00404
1.00547
1.02592
1.04061
1.17703
1.13614
2.31228
3.294
6.3832
7.31756
7.4129
7.36659
7.26274
7.13911
7.02609
6.91348
6.7929
6.66445
6.52675
6.37897
6.22278
6.05618
5.8789
5.69523
5.49362
1
1
1
1
1
1
1
1
1
1
1
1
1
1
1
1
1
1
1.00001
1.00001
1.00003
1.00004
1.00019
1.00021
1.00106
1.00143
1.00577
1.00734
1.03474
1.04508
1.23525
1.19912
2.46845
3.95214
6.5476
7.30222
7.32855
7.26916
7.13405
6.99566
6.8672
6.73998
6.61003
6.47482
6.33341
6.18522
6.03075
5.86929
5.69944
5.51225
1
1
1
1
1
1
1
1
1
1
1
1
1
1
1
1
1
1
0.999999
0.999999
0.999997
0.999997
0.999984
1.00002
0.999907
0.999634
1.00448
1.01101
1.00575
1.02549
1.04567
0.979297
1.94612
1.91539
4.88739
6.75731
7.1729
7.16225
7.09727
6.93208
6.78155
6.65527
6.53696
6.41617
6.28871
6.15349
6.01064
5.86004
5.70191
5.52563
1
1
1
1
1
1
1
1
1
1
1
1
1
1
1
1
1
1
1
1
1.00001
1.00001
1.00005
1.00008
1.00028
1.00044
1.00164
1.00211
1.00921
1.01236
1.05424
1.07977
1.35631
1.41738
2.94868
5.22808
6.62772
6.96573
6.94918
6.86869
6.71124
6.58263
6.47203
6.36583
6.25347
6.13243
6.00218
5.8615
5.71
5.54466
1
1
1
1
1
1
1
1
1
1
1
1
1
1
1
1
1
1
1
1
1
1
1.00002
1.00003
1.00011
1.00017
1.0006
1.00091
1.00324
1.0042
1.0167
1.02797
1.12866
1.07312
2.1078
2.554
5.37435
6.52742
6.80045
6.77948
6.70532
6.58461
6.46742
6.35768
6.24573
6.12951
6.00432
5.86847
5.72643
5.5701
1
1
1
1
1
1
1
1
1
1
1
1
1
1
1
1
1
1
1
1
1
1.00001
1.00001
1.00003
1.00003
1.00016
1.00016
1.00083
1.00118
1.00407
1.00506
1.02257
1.03685
1.15266
1.11655
2.12047
2.62819
5.43432
6.4632
6.68497
6.66908
6.60709
6.48354
6.37026
6.25661
6.14009
6.01739
5.88627
5.74897
5.59682
1
1
1
1
1
1
1
1
1
1
1
1
1
1
1
1
1
1
1
1
1
1
1.00001
1.00001
1.00003
1.00005
1.00017
1.0002
1.00089
1.00138
1.00437
1.00557
1.02516
1.03794
1.16688
1.12878
2.12288
2.76625
5.37089
6.37788
6.58704
6.5744
6.52274
6.4077
6.28307
6.16234
6.04202
5.91854
5.78808
5.64147
1
1
1
1
1
1
1
1
1
1
1
1
1
1
1
1
1
1
1
1
1
1
1
1.00001
1.00001
1.00003
1.00003
1.00017
1.00019
1.00082
1.00133
1.00443
1.00392
1.01871
1.02103
0.99834
1.58399
1.62066
3.2667
5.27377
6.25022
6.48279
6.47781
6.43153
6.32666
6.19804
6.07118
5.94514
5.81554
5.67154
1
1
1
1
1
1
1
1
1
1
1
1
1
1
1
1
1
1
1
1
1
1
1
1
1.00001
1.00001
1.00003
1.00003
1.00013
1.00014
1.00068
1.00106
1.00357
1.00293
1.01417
1.00776
1.02924
1.54811
1.63047
3.22406
5.27774
6.16733
6.39036
6.38889
6.34598
6.24998
6.11462
5.97895
5.84632
5.7037
1
1
1
1
1
1
1
1
1
1
1
1
1
1
1
1
1
1
1
1
1
1
1
1
1
1.00001
1.00001
1.00004
1.00004
1.00019
1.00021
1.001
1.00145
1.00507
1.00718
1.02984
1.04319
1.1921
1.16842
2.07513
2.85876
5.16524
6.08067
6.30277
6.30375
6.26571
6.1694
6.0307
5.88944
5.74367
1
1
1
1
1
1
1
1
1
1
1
1
1
1
1
1
1
1
1
1
1
1
1
1
1
1
1
1.00001
1.00002
1.00002
1.00005
1.00001
0.999852
1.00219
1.00526
1.00209
1.01345
1.01918
1.00733
1.55455
1.60137
3.09231
4.99633
5.93579
6.19036
6.20322
6.16451
6.0684
5.92852
5.78098
1
1
1
1
1
1
1
1
1
1
1
1
1
1
1
1
1
1
1
1
1
1
1
1
1
1
1
1
1.00001
1
1.00005
1.00012
1.00017
1.00015
1.00175
1.0042
1.00539
1.02678
1.03179
1.00887
1.53535
1.50719
3.06455
4.82046
5.78969
6.06083
6.08949
6.05519
5.9697
5.83206
1
1
1
1
1
1
1
1
1
1
1
1
1
1
1
1
1
1
1
1
1
1
1
1
1
1
1
1
1
1.00001
1.00002
1.00002
1.00011
1.00016
1.00013
1.00171
1.00413
1.00517
1.02705
1.03529
1.03511
1.49124
1.50146
2.90872
4.5963
5.5757
5.91077
5.97915
5.95795
5.89749
1
1
1
1
1
1
1
1
1
1
1
1
1
1
1
1
1
1
1
1
1
1
1
1
1
1
1
1
1
1
1
1.00001
1.00001
1.00006
1.0001
1.00052
1.00012
1.00163
1.00291
0.997668
1.05936
1.15427
1.15382
1.92087
2.23875
4.33027
5.41197
5.79755
5.91479
5.9493
1
1
1
1
1
1
1
1
1
1
1
1
1
1
1
1
1
1
1
1
1
1
1
1
1
1
1
1
1
1
0.999999
0.999996
0.999996
0.999976
0.999965
0.999863
0.999895
0.999201
0.999617
0.999982
0.995255
1.05194
1.12843
1.10239
1.84602
2.05279
4.02907
5.22565
5.76035
6.05224
1
1
1
1
1
1
1
1
1
1
1
1
1
1
1
1
1
1
1
1
1
1
1
1
1
1
1
1
1
1
1
1
1
1
1.00001
0.999962
0.999915
0.999924
0.999603
1.00014
1.0005
0.996619
1.04643
1.1129
1.0843
1.74635
1.94769
3.59709
5.19115
6.02084
1
1
1
1
1
1
1
1
1
1
1
1
1
1
1
1
1
1
1
1
1
1
1
1
1
1
1
1
1
1
1
1
1
1.00001
1.00001
1.00004
1.00004
1.00022
1.00023
1.00127
1.00133
1.00799
1.00888
1.04808
1.06935
1.26983
1.27886
2.27801
3.46988
5.51723
1
1
1
1
1
1
1
1
1
1
1
1
1
1
1
1
1
1
1
1
1
1
1
1
1
1
1
1
1
1
1
1
1
1
1
1.00001
1.00002
1.00002
1
1.00045
1.00037
1.00344
1.00961
1.00473
1.02607
1.04963
0.96827
2.08755
2.1737
5.89649
1
1
1
1
1
1
1
1
1
1
1
1
1
1
1
1
1
1
1
1
1
1
1
1
1
1
1
1
1
1
1
1
1
1
1.00001
1.00001
1.00002
1.00007
1.0001
1.00041
1.00047
1.00238
1.00245
1.01384
1.02044
1.09035
1.07937
2.01484
2.13661
7.36784
1
1
1
1
1
1
1
1
1
1
1
1
1
1
1
1
1
1
1
1
1
1
1
1
1
1
1
1
1
1
1
1
1
1
1
1.00001
1.00002
1.00008
1.00011
1.00058
1.00064
1.00396
1.0057
1.02738
1.01504
1.06914
1.16956
1.10598
3.08913
5.50646
1
1
1
1
1
1
1
1
1
1
1
1
1
1
1
1
1
1
1
1
1
1
1
1
1
1
1
1
1
1
1
1
1
1
1
1.00001
1.00001
1.00006
1.00007
1.00045
1.0005
1.00279
1.00459
1.01956
1.01013
1.05941
1.15073
1.06771
3.05068
5.28951
1
1
1
1
1
1
1
1
1
1
1
1
1
1
1
1
1
1
1
1
1
1
1
1
1
1
1
1
1
1
1
1
1
1
1
1.00001
1.00001
1.00008
1.00008
1.00055
1.0006
1.0036
1.00544
1.02596
1.01398
1.07173
1.1827
1.12913
3.20642
5.9526
1
1
1
1
1
1
1
1
1
1
1
1
1
1
1
1
1
1
1
1
1
1
1
1
1
1
1
1
1
1
1
1
1
1
1
1.00001
1.00001
1.00006
1.00008
1.00029
1.00024
1.00167
1.00511
0.997973
1.00775
1.01373
0.924262
2.25749
2.49987
8.36837
1
1
1
1
1
1
1
1
1
1
1
1
1
1
1
1
1
1
1
1
1
1
1
1
1
1
1
1
1
1
1
1
1
1
1
1.00001
1.00002
1.00007
1.00011
1.00037
1.00047
1.0021
1.00297
1.00847
1.02046
1.06661
1.01121
2.07714
2.38237
8.17313
1
1
1
1
1
1
1
1
1
1
1
1
1
1
1
1
1
1
1
1
1
1
1
1
1
1
1
1
1
1
1
1
1
1
1
1.00001
1.00002
1.00007
1.00008
1.00043
1.00059
1.00245
1.00309
1.0152
1.02563
1.09655
0.991651
2.17218
2.4327
8.70221
2.04768
1.02131
0.67747
0.626873
0.663937
0.79218
1.09908
1.77081
2.35731
2.97041
3.02611
3.0249
2.99344
2.95392
2.92418
2.89777
2.88116
2.87
2.85934
2.84152
2.83305
2.8305
2.83182
2.85517
2.90903
3.00652
3.14998
3.32842
3.51552
3.69615
3.86206
4.00977
4.14207
4.2531
4.3451
4.42138
4.48094
4.53665
4.57714
4.60213
4.61611
4.62155
4.61981
4.61267
4.59643
4.57255
4.54416
4.51308
4.47875
4.44188
4.40245
4.3613
4.3182
4.27401
4.22821
4.1816
4.1337
4.08522
4.0359
3.98633
3.93634
3.8864
3.8363
3.78637
3.73643
3.68667
3.63698
3.58745
3.53805
3.48883
3.43982
3.39106
3.34259
3.29447
3.24675
3.19945
3.15265
3.10634
3.0606
3.01537
2.97077
2.92668
2.88323
2.84037
2.7982
2.75662
2.71577
2.67563
2.63627
2.59756
2.55966
2.52245
2.48611
2.45055
2.41598
2.38251
2.35065
2.32123
2.29587
2.27954
2.70942
1.63014
1.19745
1.0406
1.04126
1.06088
1.14856
1.41958
2.08862
2.94404
3.05644
3.02692
2.98512
2.94632
2.92869
2.91015
2.89344
2.87928
2.86542
2.84119
2.82519
2.81962
2.82137
2.84687
2.90033
2.99395
3.12959
3.30717
3.49262
3.67127
3.8353
3.97689
4.11663
4.22937
4.32359
4.40131
4.46471
4.5203
4.56122
4.58787
4.60323
4.60927
4.60842
4.60336
4.59009
4.56539
4.53713
4.50659
4.47328
4.43714
4.39824
4.35727
4.31439
4.27018
4.22455
4.17795
4.13028
4.08191
4.03283
3.98338
3.93359
3.88371
3.83374
3.78384
3.73398
3.68424
3.63461
3.58512
3.53577
3.4866
3.43765
3.38895
3.34057
3.29251
3.24488
3.19765
3.15093
3.10467
3.059
3.01381
2.9693
2.92527
2.88188
2.83913
2.79705
2.75567
2.71486
2.67482
2.63535
2.59679
2.5588
2.52175
2.48531
2.44985
2.41516
2.38168
2.34958
2.31991
2.29389
2.27675
3.53647
2.5419
1.92027
1.52267
1.27333
1.14709
1.16689
1.29203
1.68788
2.61351
3.02225
3.02325
2.99744
2.9549
2.92758
2.9036
2.8825
2.86646
2.85512
2.83944
2.83095
2.82168
2.82244
2.84045
2.8838
2.96747
3.0945
3.27166
3.45404
3.63494
3.80141
3.95089
4.08741
4.20269
4.2986
4.37817
4.44365
4.49828
4.54014
4.56847
4.58542
4.59251
4.59212
4.58875
4.57872
4.55722
4.52805
4.49749
4.46496
4.42973
4.39156
4.35104
4.30846
4.2644
4.21896
4.1725
4.12508
4.07694
4.02816
3.97895
3.92939
3.87968
3.82985
3.78003
3.73027
3.68058
3.63102
3.58157
3.53232
3.48321
3.43437
3.38576
3.33749
3.28958
3.24205
3.19501
3.14834
3.10234
3.05672
3.01173
2.96729
2.92353
2.88019
2.8377
2.79553
2.75433
2.71348
2.67362
2.63416
2.59574
2.55775
2.5208
2.48438
2.44891
2.41417
2.38062
2.34832
2.31831
2.29168
2.27353
3.98534
3.11013
2.43762
1.94909
1.61863
1.39892
1.34731
1.38337
1.54139
1.96649
2.81368
3.01713
3.0164
2.99602
2.95372
2.92151
2.89625
2.87991
2.86708
2.85045
2.83814
2.82724
2.83005
2.84917
2.90046
2.9887
3.10493
3.25481
3.41725
3.59094
3.75599
3.90629
4.04229
4.15962
4.25829
4.34021
4.40808
4.46352
4.50689
4.53767
4.557
4.56649
4.56712
4.56526
4.55859
4.54284
4.51461
4.48392
4.4517
4.41727
4.38004
4.3403
4.29832
4.25466
4.2096
4.16348
4.11644
4.06866
4.02027
3.97138
3.92215
3.87264
3.82304
3.77336
3.72375
3.67414
3.62471
3.57535
3.5262
3.47722
3.42849
3.38007
3.33193
3.28426
3.23688
3.19008
3.14352
3.09778
3.05242
3.0078
2.9635
2.91991
2.87673
2.83434
2.7924
2.75128
2.71065
2.67086
2.63163
2.59322
2.55545
2.51847
2.48223
2.44672
2.4121
2.37838
2.34603
2.31554
2.28863
2.26948
4.27616
3.51703
2.87377
2.36263
1.98213
1.70655
1.51828
1.4928
1.53895
1.72178
2.18041
2.87223
3.0153
3.01856
3.00406
2.96917
2.93329
2.90981
2.89248
2.87917
2.87244
2.87648
2.89488
2.94158
3.01404
3.08473
3.16428
3.26856
3.39451
3.52105
3.66823
3.81877
3.96567
4.09515
4.20343
4.29108
4.36243
4.42006
4.46552
4.49925
4.52183
4.53449
4.53789
4.53671
4.53253
4.52164
4.49896
4.46817
4.43562
4.40144
4.36497
4.32612
4.28504
4.24211
4.19771
4.15215
4.10567
4.0584
4.01053
3.96209
3.91328
3.86411
3.81482
3.76534
3.71594
3.66648
3.61721
3.56798
3.51899
3.47019
3.42164
3.37345
3.32555
3.27817
3.23105
3.18461
3.13858
3.09308
3.0479
3.00346
2.95935
2.91598
2.873
2.83079
2.78905
2.74805
2.70764
2.66791
2.62891
2.59053
2.55295
2.51599
2.47988
2.44438
2.40983
2.37602
2.34356
2.3127
2.2854
2.26501
4.48806
3.83451
3.24425
2.7399
2.33209
2.01566
1.78131
1.6221
1.62801
1.69059
1.8904
2.36709
2.89738
3.01529
3.02334
3.01299
2.9865
2.95355
2.93394
2.93377
2.93941
2.96117
3.01546
3.12529
3.2155
3.26502
3.30135
3.34278
3.39469
3.4693
3.54601
3.67012
3.8305
3.98571
4.11867
4.22254
4.30391
4.36643
4.41461
4.4513
4.47756
4.4939
4.5018
4.50151
4.49929
4.49251
4.47706
4.44849
4.41593
4.38182
4.34599
4.30805
4.268
4.22604
4.18254
4.13776
4.092
4.04535
3.99806
3.95011
3.90176
3.85295
3.80398
3.75476
3.70558
3.6563
3.60719
3.55812
3.50929
3.46066
3.41234
3.3644
3.3168
3.26987
3.22318
3.17713
3.13138
3.0862
3.04131
2.99711
2.95326
2.91012
2.8674
2.8254
2.78394
2.74312
2.70299
2.66342
2.62468
2.58645
2.54909
2.51226
2.4763
2.4409
2.40643
2.37263
2.3401
2.30899
2.28146
2.25972
4.64567
4.07752
3.54468
3.06282
2.65126
2.31149
2.04419
1.83655
1.72107
1.73149
1.80204
2.00876
2.47546
2.90559
3.01499
3.03154
3.02586
3.00986
2.9957
3.00108
3.0235
3.08324
3.21487
3.40638
3.50284
3.5147
3.50792
3.48626
3.45086
3.45728
3.48561
3.5466
3.65687
3.81929
3.98131
4.11855
4.22412
4.30093
4.35699
4.39853
4.42821
4.44819
4.45987
4.46215
4.46107
4.45695
4.44675
4.42521
4.39341
4.35932
4.32388
4.28679
4.24787
4.20711
4.16477
4.121
4.07614
4.03027
3.98367
3.93632
3.88851
3.84016
3.79159
3.74269
3.69379
3.64473
3.59583
3.54694
3.49834
3.44992
3.40198
3.35465
3.30753
3.261
3.21471
3.16903
3.12358
3.07874
3.03418
2.99028
2.94673
2.90386
2.86145
2.81968
2.77853
2.73792
2.69808
2.6587
2.62021
2.58215
2.54499
2.50828
2.4725
2.43716
2.40281
2.36899
2.33642
2.3051
2.27677
2.25479
4.77251
4.26986
3.7853
3.33219
2.9291
2.58321
2.29431
2.06417
1.88439
1.80373
1.81942
1.89497
2.09965
2.54088
2.91135
3.02039
3.05127
3.05554
3.06254
3.08319
3.13784
3.26331
3.52262
3.76731
3.83593
3.82289
3.77646
3.67183
3.54361
3.47433
3.47764
3.50042
3.55062
3.64399
3.79256
3.95436
4.09525
4.20398
4.28217
4.33639
4.37326
4.39768
4.41293
4.41863
4.41818
4.41591
4.40942
4.39497
4.36686
4.33405
4.29929
4.26296
4.22502
4.1854
4.14422
4.10157
4.05769
4.0127
3.96684
3.92015
3.87289
3.82501
3.77686
3.7283
3.6797
3.63086
3.58222
3.53348
3.4853
3.4375
3.39007
3.34306
3.29642
3.25025
3.20435
3.159
3.1139
3.0694
3.0252
2.98161
2.93844
2.89587
2.85385
2.81237
2.77159
2.73125
2.69175
2.65263
2.61443
2.5766
2.53969
2.50316
2.46758
2.43238
2.39817
2.36441
2.33186
2.30042
2.2717
2.24906
4.8695
4.42134
3.9838
3.5605
3.17146
2.82738
2.53036
2.28111
2.07942
1.92706
1.87229
1.89268
1.97211
2.17176
2.58868
2.92356
3.03888
3.08696
3.12112
3.17869
3.29861
3.54729
3.95785
4.19262
4.20089
4.1679
4.07067
3.87044
3.68371
3.55758
3.49767
3.49996
3.51702
3.55763
3.63681
3.76049
3.91325
4.05523
4.16848
4.25051
4.30577
4.34061
4.36168
4.37106
4.37124
4.3701
4.36605
4.35611
4.33529
4.30483
4.27139
4.2361
4.19915
4.16063
4.12055
4.07907
4.03624
3.99228
3.94726
3.90137
3.85476
3.80749
3.75983
3.7117
3.66346
3.6149
3.56657
3.5185
3.47085
3.42349
3.37664
3.33003
3.28391
3.2381
3.1927
3.14769
3.1031
3.05896
3.01527
2.97205
2.92937
2.88715
2.84558
2.80443
2.76405
2.72404
2.68488
2.64606
2.60814
2.57056
2.5339
2.49758
2.4622
2.42715
2.39308
2.3594
2.32689
2.29536
2.26642
2.24294
4.94601
4.54511
4.14788
3.75534
3.38389
3.04684
2.74859
2.48977
2.27122
2.0938
1.96388
1.92842
1.95154
2.03305
2.22979
2.6329
2.95063
3.08105
3.18219
3.29868
3.52837
3.99216
4.47973
4.6285
4.60572
4.52197
4.33242
4.07019
3.85246
3.69279
3.58869
3.53286
3.52682
3.53683
3.5664
3.62761
3.72739
3.86545
4.0018
4.11823
4.20518
4.26411
4.29933
4.31624
4.32098
4.32026
4.31747
4.31051
4.29572
4.26992
4.23923
4.20574
4.17013
4.13281
4.09384
4.05351
4.01174
3.96884
3.92474
3.87976
3.83388
3.78733
3.74023
3.69263
3.64479
3.59676
3.5491
3.50154
3.45454
3.40769
3.3614
3.31526
3.26967
3.22426
3.1794
3.13479
3.09075
3.047
3.00386
2.96104
2.9189
2.87709
2.83602
2.79527
2.75533
2.71569
2.67692
2.63844
2.60085
2.56355
2.52718
2.49108
2.45594
2.42106
2.38717
2.35361
2.3212
2.28962
2.26063
2.23631
5.01033
4.64402
4.28386
3.92101
3.57029
3.24369
2.94829
2.6861
2.45769
2.26374
2.1076
1.99607
1.97995
2.00543
2.08899
2.28779
2.69005
3.01416
3.22938
3.45707
3.88704
4.60702
5.02966
5.04554
4.99495
4.8487
4.55347
4.2694
4.03854
3.85945
3.72481
3.62836
3.56952
3.54858
3.5535
3.57253
3.61487
3.68913
3.80383
3.93319
4.05121
4.14342
4.20703
4.244
4.26126
4.26354
4.26222
4.258
4.24831
4.22863
4.20129
4.1702
4.1365
4.10074
4.06315
4.02409
3.98353
3.94178
3.89875
3.85478
3.80979
3.76409
3.71767
3.67067
3.62346
3.57628
3.52946
3.48268
3.43638
3.39014
3.34445
3.29885
3.25382
3.20894
3.16466
3.12055
3.0771
3.03386
2.99131
2.94899
2.90742
2.86609
2.82555
2.78527
2.74581
2.7066
2.66824
2.63015
2.59291
2.55594
2.51985
2.48402
2.44909
2.41444
2.3807
2.34731
2.315
2.28342
2.25447
2.22938
5.06613
4.7301
4.3954
4.05855
3.73147
3.41961
3.13093
2.86886
2.63591
2.43207
2.25869
2.12146
2.02828
2.03187
2.06545
2.15922
2.37357
2.80628
3.22032
3.65684
4.46647
5.2878
5.50574
5.46804
5.34426
5.07909
4.75063
4.46795
4.23626
4.04473
3.88705
3.7617
3.66604
3.60046
3.56204
3.56286
3.57056
3.59412
3.64588
3.73589
3.85262
3.96762
4.06412
4.13323
4.17562
4.19519
4.19882
4.19732
4.19229
4.1809
4.15832
4.13019
4.0986
4.06466
4.02872
3.99115
3.95192
3.91144
3.86959
3.82681
3.78289
3.73821
3.69259
3.64653
3.60036
3.55423
3.50826
3.46231
3.41671
3.37114
3.32607
3.28107
3.23666
3.19235
3.14868
3.10514
3.06229
3.01961
2.97765
2.93589
2.89488
2.8541
2.81409
2.77432
2.73534
2.69661
2.65867
2.62099
2.58411
2.5475
2.5117
2.47618
2.44149
2.40709
2.37354
2.34035
2.30819
2.27666
2.24783
2.22214
5.11519
4.80101
4.49314
4.18
3.87021
3.57234
3.29344
3.03643
2.80388
2.59497
2.41196
2.25875
2.13344
2.08413
2.09648
2.14999
2.28371
2.56705
3.14711
3.86426
5.22275
5.89454
5.8848
5.80365
5.59825
5.25439
4.9362
4.66534
4.43426
4.23518
4.0638
3.91695
3.79479
3.69581
3.62178
3.5739
3.55755
3.55939
3.57056
3.60179
3.66631
3.76324
3.8712
3.96914
4.04527
4.09515
4.12078
4.12661
4.12529
4.12039
4.10889
4.08576
4.0569
4.02486
3.99066
3.95473
3.91707
3.8781
3.83769
3.79627
3.75357
3.70996
3.66538
3.62061
3.57554
3.53042
3.48528
3.44017
3.3953
3.35049
3.30611
3.26181
3.21807
3.17443
3.13141
3.08852
3.04631
3.00426
2.96292
2.92177
2.88135
2.84116
2.8017
2.7625
2.72401
2.68581
2.64831
2.61108
2.57458
2.53836
2.50288
2.46768
2.43326
2.39913
2.36581
2.33282
2.30086
2.26943
2.24078
2.21468
5.15732
4.86406
4.57566
4.28308
3.99188
3.70952
3.44093
3.19015
2.95792
2.7484
2.56033
2.39742
2.26452
2.1782
2.18294
2.21584
2.31668
2.55934
3.06684
4.10414
5.82847
6.29498
6.2408
6.08199
5.76748
5.4334
5.12817
4.86295
4.63188
4.42775
4.24561
4.08417
3.94244
3.82142
3.71978
3.6386
3.5801
3.54808
3.54047
3.54325
3.55838
3.59643
3.67333
3.77013
3.86773
3.94907
4.00585
4.03887
4.04954
4.04872
4.04455
4.0339
4.01195
3.98282
3.94999
3.91523
3.879
3.84162
3.80289
3.76303
3.7217
3.67939
3.63627
3.59283
3.5489
3.50487
3.46066
3.41648
3.37241
3.32845
3.28481
3.24129
3.19824
3.15533
3.11298
3.0708
3.02923
2.98785
2.94712
2.90662
2.8668
2.82722
2.78833
2.7497
2.71173
2.67404
2.63701
2.60025
2.56417
2.52835
2.49323
2.45837
2.42426
2.39042
2.35738
2.32464
2.29294
2.26168
2.23327
2.20696
5.19517
4.91874
4.64812
4.37311
4.09766
3.8298
3.57065
3.32849
3.10041
2.8928
2.70486
2.54059
2.40444
2.32162
2.32839
2.36401
2.46604
2.71082
3.22955
4.27781
5.72601
6.3473
6.32182
6.21126
5.97184
5.65502
5.34488
5.06947
4.82953
4.61728
4.42771
4.25637
4.10145
3.96217
3.8392
3.73356
3.64622
3.5797
3.53538
3.51771
3.50925
3.51478
3.5367
3.58679
3.67233
3.76303
3.84602
3.91019
3.95049
3.96843
3.96821
3.9652
3.95636
3.9373
3.90745
3.87363
3.83835
3.80229
3.76523
3.72701
3.68731
3.64668
3.60508
3.56304
3.52033
3.4775
3.4343
3.39118
3.34799
3.305
3.26215
3.21953
3.17718
3.1351
3.09342
3.05199
3.01108
2.97042
2.93034
2.89055
2.85135
2.81244
2.77415
2.73612
2.69871
2.66155
2.62503
2.58872
2.5531
2.51766
2.48296
2.44843
2.41471
2.38115