/*--------------------------------*- C++ -*----------------------------------*\
| =========                 |                                                 |
| \\      /  F ield         | OpenFOAM: The Open Source CFD Toolbox           |
|  \\    /   O peration     | Version:  2412                                  |
|   \\  /    A nd           | Website:  www.openfoam.com                      |
|    \\/     M anipulation  |                                                 |
\*---------------------------------------------------------------------------*/
FoamFile
{
    version     2.0;
    format      ascii;
    arch        "LSB;label=32;scalar=64";
    class       surfaceScalarField;
    location    "3.5";
    object      phi;
}
// * * * * * * * * * * * * * * * * * * * * * * * * * * * * * * * * * * * * * //

dimensions      [1 0 -1 0 0 0 0];

oriented        oriented;

internalField   nonuniform List<scalar> 
13790
(
0.00290515
-2.15085e-13
0.00290515
-1.67191e-14
0.00290515
-2.60409e-13
0.00290515
-7.36598e-13
0.00290515
-9.01132e-13
0.00290515
-4.27317e-12
0.00290515
-1.81717e-11
0.00290515
-1.39649e-12
0.00290515
-9.1366e-11
0.00290515
1.55568e-10
0.00290515
2.5154e-11
0.00290515
1.55545e-09
0.00290516
-9.39178e-10
0.00290513
1.38483e-08
0.00290516
-2.67183e-09
0.00290515
1.56792e-08
0.00290514
2.37714e-08
0.00290515
6.40996e-08
0.00290514
1.0618e-07
0.00290485
2.45796e-07
0.00290454
4.02926e-07
0.00290426
4.71873e-07
0.00290038
3.48566e-06
0.00288821
9.87584e-06
0.00282955
5.33128e-05
0.00275906
6.73444e-05
0.00268654
7.02978e-05
0.00261227
7.20451e-05
0.00253662
7.36403e-05
0.00245884
7.58706e-05
0.00237804
7.89976e-05
0.0022922
8.30215e-05
0.00220138
8.72981e-05
0.00210708
9.12873e-05
0.00201051
9.49893e-05
0.00191206
9.86834e-05
0.00180992
0.000102602
0.00170142
0.000106721
0.00158741
0.000111025
0.00147088
0.000115871
0.00135156
0.000121606
0.00122642
0.000128116
0.0010927
0.0001351
0.000946668
0.000142072
0.000795374
0.000148843
0.000639737
0.000156545
0.000478018
0.000164914
0.00031176
0.000170658
0.000147652
0.000165849
0.000148815
0.00301309
1.07034e-13
0.00301309
-2.6491e-13
0.00301309
-3.60776e-13
0.00301309
-1.90862e-12
0.00301309
-5.06451e-12
0.00301309
-1.3883e-11
0.00301309
-2.21253e-11
0.00301309
-7.4673e-11
0.00301309
-1.71662e-10
0.00301309
5.51503e-11
0.00301309
-1.07962e-09
0.0030131
3.88829e-09
0.00301309
-1.11345e-08
0.00301307
5.76778e-08
0.00301313
-3.83237e-08
0.00301309
4.47339e-08
0.00301311
2.93753e-08
0.00301311
1.34828e-07
0.00301309
2.26261e-07
0.00301276
5.227e-07
0.0030124
8.55515e-07
0.00301206
1.05645e-06
0.00300792
7.15473e-06
0.00299478
2.06485e-05
0.00293244
0.000110067
0.00285926
0.000137284
0.00278512
0.000142176
0.00270955
0.000145355
0.00263158
0.000149577
0.00255092
0.000154591
0.00246671
0.000161399
0.00237731
0.00016953
0.00228304
0.000177912
0.00218535
0.000185844
0.00208539
0.000193379
0.0019834
0.000200973
0.00187744
0.000209021
0.00176474
0.000217479
0.00164625
0.000226347
0.00152507
0.000236341
0.00140091
0.000248133
0.00127062
0.000261508
0.0011313
0.000275876
0.000979175
0.000290082
0.000821868
0.000303636
0.000661127
0.000318244
0.000496431
0.000332932
0.000329171
0.000342525
0.000161093
0.000335769
0.000311107
0.00312505
4.33802e-14
0.00312505
9.78081e-14
0.00312505
1.40202e-13
0.00312505
6.60454e-13
0.00312505
2.46762e-13
0.00312505
3.41767e-12
0.00312505
5.75383e-12
0.00312505
1.19221e-11
0.00312504
1.64577e-11
0.00312505
-2.53088e-10
0.00312504
1.25105e-09
0.00312504
-1.45618e-09
0.00312505
1.69816e-10
0.0031251
1.83144e-08
0.00312503
9.03104e-09
0.00312496
1.90711e-08
0.00312505
6.32599e-08
0.00312512
2.01412e-07
0.00312511
3.57365e-07
0.00312476
8.2604e-07
0.00312437
1.34406e-06
0.003124
1.66268e-06
0.00311963
1.10384e-05
0.00310598
3.17986e-05
0.00304102
0.000169162
0.00296528
0.000209717
0.00288914
0.000216048
0.00281182
0.000220439
0.0027316
0.000227791
0.00264809
0.000236161
0.00256065
0.00024709
0.00246773
0.000259553
0.00236981
0.000272054
0.00226839
0.00028395
0.00216462
0.000295435
0.00205873
0.000307135
0.00194865
0.000319571
0.0018315
0.00033264
0.00170826
0.000346347
0.00158218
0.000361739
0.00145297
0.000379817
0.00131743
0.000400275
0.00117255
0.000422231
0.00101456
0.000443786
0.00085146
0.000464136
0.000685424
0.000485242
0.000516319
0.000505408
0.000345135
0.000518522
0.000171339
0.000511534
0.00048372
0.00324116
-2.36978e-14
0.00324116
4.00439e-13
0.00324116
7.52957e-13
0.00324116
3.35409e-12
0.00324116
5.47188e-12
0.00324116
2.18334e-11
0.00324116
4.20676e-11
0.00324116
1.30748e-10
0.00324116
1.8096e-10
0.00324116
3.70978e-10
0.00324116
1.14185e-09
0.00324115
2.07677e-09
0.00324115
1.0536e-08
0.00324118
2.64824e-08
0.00324112
1.83815e-08
0.00324106
-7.20406e-09
0.00324115
5.33827e-08
0.00324122
2.8015e-07
0.00324122
5.08056e-07
0.00324084
1.15824e-06
0.00324043
1.86158e-06
0.00324005
2.29736e-06
0.00323556
1.50261e-05
0.00322161
4.30985e-05
0.00315467
0.000229923
0.00307641
0.000284614
0.002998
0.000292211
0.00291853
0.000297709
0.00283588
0.000308475
0.00274948
0.00032061
0.00265882
0.000336076
0.00256255
0.00035312
0.00246096
0.000369824
0.00235554
0.000385727
0.00224765
0.000401267
0.00213774
0.000417267
0.00202358
0.000434363
0.00190199
0.000452355
0.00177389
0.000471178
0.00164273
0.000492213
0.00150832
0.000516803
0.00136736
0.000544538
0.00121676
0.000574238
0.00105282
0.000603232
0.000883847
0.000630386
0.000712208
0.000657837
0.000537839
0.000683195
0.000361148
0.000700266
0.000180467
0.000694314
0.000665498
0.00336158
5.34552e-15
0.00336158
5.7123e-13
0.00336158
1.18145e-12
0.00336158
4.1323e-12
0.00336158
7.76561e-12
0.00336158
2.09577e-11
0.00336158
4.56548e-11
0.00336158
9.58562e-11
0.00336158
2.29108e-10
0.00336158
5.18935e-10
0.00336158
8.57199e-10
0.00336158
1.19631e-09
0.00336161
1.12111e-08
0.00336165
8.68694e-09
0.00336164
1.7624e-08
0.0033616
-2.15516e-09
0.00336149
1.54928e-07
0.00336147
3.99304e-07
0.00336144
6.76072e-07
0.00336107
1.49167e-06
0.0033607
2.36715e-06
0.00336039
2.90579e-06
0.0033559
1.90148e-05
0.00334192
5.42595e-05
0.00327366
0.000291634
0.00319296
0.000361915
0.00311199
0.000370975
0.00302999
0.000377545
0.00294467
0.000391861
0.00285531
0.000408024
0.00276135
0.000428401
0.00266155
0.000450271
0.00255626
0.000471283
0.00244682
0.000491267
0.00233469
0.000511007
0.00222055
0.000531518
0.00210211
0.00055351
0.00197596
0.000576671
0.00184299
0.000600873
0.00170678
0.000627816
0.00156712
0.000659171
0.00142066
0.000694388
0.00126424
0.000731999
0.00109416
0.00076862
0.000918998
0.000802726
0.000741202
0.000836623
0.000560597
0.000867288
0.000377707
0.000888428
0.000189349
0.00088491
0.000856321
0.00348648
2.0831e-14
0.00348648
4.99834e-13
0.00348648
1.05028e-12
0.00348648
3.8639e-12
0.00348648
6.89918e-12
0.00348648
2.14737e-11
0.00348648
3.74878e-11
0.00348648
1.0047e-10
0.00348648
2.74577e-10
0.00348648
4.95886e-10
0.00348649
7.22758e-10
0.00348648
1.82023e-09
0.0034865
1.76063e-09
0.00348657
-4.45481e-08
0.00348652
8.86601e-08
0.00348641
1.52036e-07
0.00348632
2.96592e-07
0.00348623
5.52948e-07
0.00348618
8.42859e-07
0.00348578
1.79157e-06
0.00348542
2.83503e-06
0.0034852
3.4375e-06
0.00348077
2.29046e-05
0.00346684
6.5168e-05
0.00339772
0.000353782
0.00331467
0.000441529
0.00323092
0.000452524
0.00314612
0.000460198
0.00305797
0.000478101
0.00296541
0.000498473
0.00286821
0.000524092
0.0027651
0.000551073
0.00265598
0.00057653
0.00254233
0.000600661
0.00242593
0.000624693
0.00230748
0.000649926
0.00218464
0.000677104
0.00205388
0.00070569
0.00191604
0.000735507
0.00177477
0.000768564
0.00162982
0.000806921
0.00147769
0.000849902
0.00131512
0.000895615
0.00113878
0.000939946
0.00095722
0.000981365
0.000772777
0.00102199
0.000585244
0.00105827
0.000394788
0.00108441
0.000198556
0.00108356
0.00105642
0.00361602
-1.78706e-14
0.00361602
4.9375e-13
0.00361602
1.00404e-12
0.00361602
3.94844e-12
0.00361602
7.1586e-12
0.00361602
2.45105e-11
0.00361602
3.50053e-11
0.00361602
1.40801e-10
0.00361602
2.00219e-10
0.00361602
8.55507e-10
0.00361602
1.30993e-09
0.00361602
5.20916e-09
0.00361601
7.24228e-09
0.00361597
1.70472e-08
0.00361599
5.98743e-08
0.00361597
2.15758e-07
0.00361592
4.07344e-07
0.00361583
7.08079e-07
0.00361577
1.01418e-06
0.00361535
2.09041e-06
0.003615
3.28619e-06
0.00361482
3.91973e-06
0.00361046
2.66887e-05
0.00359682
7.55887e-05
0.00352762
0.000415536
0.00344233
0.000523275
0.00335549
0.000537152
0.00326769
0.000545828
0.0031767
0.000567166
0.00308089
0.000592074
0.00297992
0.00062335
0.00287352
0.00065557
0.00276096
0.000685657
0.00264279
0.000714102
0.00252162
0.000742439
0.00239893
0.000772493
0.00227183
0.000805167
0.00213625
0.000839504
0.00199317
0.000875312
0.00184667
0.000914525
0.00169638
0.000959974
0.00153866
0.0010109
0.00137005
0.00106509
0.00118703
0.00111774
0.000998555
0.00116674
0.000806977
0.00121442
0.000611843
0.00125686
0.000413562
0.00128838
0.000207953
0.00129163
0.00126599
0.00375038
-3.81784e-14
0.00375038
5.6796e-13
0.00375038
1.16012e-12
0.00375038
4.70549e-12
0.00375038
8.06839e-12
0.00375038
2.85189e-11
0.00375038
5.34889e-11
0.00375038
1.69392e-10
0.00375038
3.15278e-10
0.00375038
1.023e-09
0.00375037
1.75063e-09
0.00375038
6.02724e-09
0.00375037
1.16417e-08
0.00375036
3.57156e-08
0.00375033
9.23535e-08
0.00375033
2.49642e-07
0.00375033
4.62939e-07
0.00375029
8.08651e-07
0.00375027
1.15585e-06
0.00374983
2.37195e-06
0.0037495
3.7256e-06
0.00374935
4.38076e-06
0.00374507
3.0363e-05
0.00373189
8.53249e-05
0.00366351
0.000475885
0.00357614
0.000606893
0.00348552
0.000625481
0.00339489
0.000634228
0.0033011
0.000658979
0.00320204
0.000688859
0.00309709
0.000726356
0.00298701
0.000763871
0.00287125
0.000798601
0.00274913
0.000831616
0.00262286
0.000864465
0.00249523
0.000899292
0.00236401
0.000937517
0.00222439
0.00097819
0.00207599
0.00102007
0.00192381
0.00106587
0.00176792
0.00111866
0.00160443
0.00117776
0.00142971
0.00124063
0.00124015
0.00130177
0.00104435
0.00135922
0.000844855
0.00141491
0.000641133
0.00146426
0.000433612
0.00150207
0.000218633
0.00150929
0.00148632
0.00388972
-5.84835e-14
0.00388972
6.01542e-13
0.00388972
1.28732e-12
0.00388972
4.70813e-12
0.00388972
9.18973e-12
0.00388972
3.15273e-11
0.00388972
5.13971e-11
0.00388972
1.96852e-10
0.00388972
3.0441e-10
0.00388972
1.17432e-09
0.00388972
2.69752e-09
0.00388972
7.07298e-09
0.00388971
1.85894e-08
0.00388972
4.50385e-08
0.00388974
9.94161e-08
0.0038898
2.33551e-07
0.00388984
4.7084e-07
0.00388983
8.84354e-07
0.00388982
1.29501e-06
0.00388935
2.66991e-06
0.003889
4.19169e-06
0.00388887
4.86304e-06
0.00388462
3.39677e-05
0.00387205
9.42143e-05
0.00380577
0.000533423
0.00371658
0.000691988
0.00361993
0.000719575
0.00352834
0.000723534
0.00343144
0.000753834
0.00332886
0.000789103
0.00321995
0.000833121
0.00310615
0.000875947
0.00298715
0.000915331
0.00286148
0.00095306
0.00273057
0.000990716
0.00259775
0.00103045
0.00246179
0.00107421
0.0023178
0.00112118
0.00216505
0.00116971
0.00200792
0.00122263
0.00184642
0.00128323
0.00167664
0.0013509
0.00149481
0.00142278
0.00129825
0.00149237
0.00109526
0.00155869
0.000887483
0.00162347
0.000674342
0.00168103
0.000456662
0.00172638
0.000229919
0.00173924
0.00171811
0.00403424
-4.01471e-14
0.00403424
4.94725e-13
0.00403424
8.06579e-13
0.00403424
2.56912e-12
0.00403424
4.06914e-12
0.00403424
1.14681e-11
0.00403424
2.01303e-11
0.00403424
4.88867e-11
0.00403424
1.1378e-10
0.00403424
1.67205e-10
0.00403425
-1.04094e-10
0.00403426
-8.78378e-10
0.00403428
-2.99068e-09
0.00403434
-9.60774e-09
0.0040344
-5.92971e-08
0.00403454
1.8119e-07
0.00403461
5.02702e-07
0.00403457
1.01013e-06
0.00403452
1.50127e-06
0.00403394
3.07483e-06
0.0040335
4.78107e-06
0.00403327
5.49969e-06
0.00402894
3.76421e-05
0.00401713
0.000102055
0.00395498
0.000585933
0.00386552
0.000776868
0.00376727
0.000814851
0.00366919
0.000819445
0.00356745
0.000853382
0.00346055
0.000893336
0.00334819
0.000943236
0.00323103
0.000991451
0.00310899
0.00103556
0.00298032
0.00107823
0.0028453
0.00112102
0.00270759
0.00116579
0.00256704
0.0012151
0.00241863
0.00126846
0.0022615
0.00132401
0.00209951
0.00138444
0.0019326
0.00145332
0.0017568
0.00152989
0.00156773
0.0016116
0.00136306
0.0016907
0.00115161
0.00176659
0.000934926
0.00184074
0.000711861
0.00190747
0.000482536
0.00196205
0.00024365
0.00198118
0.00196378
0.00418414
3.789e-14
0.00418414
-3.21887e-13
0.00418414
-4.31556e-13
0.00418414
-3.02545e-12
0.00418414
-4.43262e-12
0.00418414
-2.66094e-11
0.00418414
-4.29735e-11
0.00418414
-2.21427e-10
0.00418414
-3.57483e-10
0.00418414
-1.61285e-09
0.00418414
-3.29021e-09
0.00418415
-1.08685e-08
0.00418417
-1.80067e-08
0.00418419
-3.76727e-08
0.0041842
-8.39169e-08
0.00418428
1.45221e-07
0.00418428
5.77693e-07
0.00418427
1.10472e-06
0.00418424
1.719e-06
0.00418348
3.64024e-06
0.00418279
5.67254e-06
0.0041822
6.58353e-06
0.00417739
4.17768e-05
0.00416628
0.000108868
0.00411063
0.000630883
0.00402215
0.000860397
0.00392153
0.000912406
0.0038159
0.000922872
0.00370833
0.000958669
0.00359681
0.00100207
0.00348102
0.00105641
0.00336104
0.00110966
0.00323662
0.00115868
0.0031059
0.00120649
0.00296775
0.00125475
0.00282533
0.001305
0.00267991
0.00135999
0.00252728
0.00141987
0.00236617
0.00148285
0.00219975
0.00155146
0.00202736
0.00162923
0.00184519
0.00171497
0.00164914
0.00180631
0.00143738
0.00189614
0.00121659
0.00198385
0.000989338
0.00206893
0.000754469
0.00214608
0.00051291
0.00221031
0.000258799
0.00223876
0.0022248
0.0043396
1.54758e-14
0.0043396
-6.29423e-13
0.0043396
-1.64835e-12
0.0043396
-5.44893e-12
0.0043396
-1.00004e-11
0.0043396
-3.56526e-11
0.0043396
-6.19582e-11
0.0043396
-2.24327e-10
0.0043396
-3.7915e-10
0.0043396
-1.3365e-09
0.0043396
-2.39632e-09
0.00433959
-7.23743e-09
0.00433959
-1.48708e-08
0.00433958
-3.7218e-08
0.00433957
-7.70561e-08
0.00433952
1.47272e-07
0.00434015
5.82931e-07
0.00433967
1.03327e-06
0.00433957
2.16549e-06
0.00433818
4.88061e-06
0.00433643
7.68133e-06
0.00433388
9.70517e-06
0.00432851
4.64507e-05
0.00431739
0.000115318
0.00427073
0.000665861
0.00418312
0.000943215
0.00407681
0.0010161
0.00396475
0.00103295
0.00385191
0.00106927
0.00373656
0.00111462
0.00361762
0.00117208
0.00349531
0.00122971
0.00336945
0.00128352
0.00323739
0.00133668
0.00309761
0.00139102
0.00295235
0.00144728
0.00280308
0.00150814
0.00264668
0.00157469
0.00248204
0.00164536
0.00231155
0.00172271
0.00213399
0.00181004
0.00194523
0.0019061
0.00174061
0.00200795
0.00152108
0.00210892
0.00129197
0.00220863
0.00105387
0.00230734
0.000805328
0.00239807
0.000548482
0.00247464
0.000277807
0.00251269
0.00250496
0.00450084
2.89573e-14
0.00450084
-6.55308e-13
0.00450084
-9.98482e-13
0.00450084
-4.85004e-12
0.00450084
-8.50758e-12
0.00450084
-2.72009e-11
0.00450084
-5.10327e-11
0.00450084
-1.41001e-10
0.00450084
-2.57061e-10
0.00450083
-6.67758e-10
0.00450083
-1.3531e-09
0.00450083
-2.75282e-09
0.00450083
-9.40366e-09
0.0045008
-1.82762e-08
0.00450075
-3.99583e-08
0.00450078
1.29698e-07
0.00450102
4.16057e-07
0.00450109
9.38173e-07
0.00450044
3.08633e-06
0.00449798
7.15372e-06
0.00449438
1.14689e-05
0.00448691
1.80457e-05
0.00448882
4.3957e-05
0.00446449
0.000134789
0.00443614
0.000681145
0.00434249
0.00103234
0.00422715
0.00112906
0.00410917
0.00114876
0.00399281
0.00118317
0.00387539
0.00122904
0.00375547
0.00128893
0.00363204
0.00135066
0.00350593
0.00140858
0.0033753
0.00146681
0.00323572
0.00152783
0.00308785
0.00159123
0.00293492
0.00165905
0.00277504
0.00173235
0.0026073
0.00181093
0.00243353
0.00189781
0.00225174
0.00199543
0.00205817
0.00210223
0.00184711
0.00221633
0.00161803
0.00233016
0.00137855
0.00244363
0.0011291
0.00255667
0.000866943
0.0026629
0.000591846
0.00275752
0.000300077
0.00280863
0.00280757
0.00466806
9.63444e-15
0.00466806
-4.36326e-13
0.00466806
-8.75125e-13
0.00466806
-3.30071e-12
0.00466806
-5.80957e-12
0.00466806
-1.97648e-11
0.00466806
-3.30405e-11
0.00466806
-1.10678e-10
0.00466806
-2.09979e-10
0.00466806
-6.36721e-10
0.00466806
-1.31003e-09
0.00466807
-4.38197e-09
0.00466806
-4.88141e-10
0.00466803
4.98927e-09
0.00466797
1.12573e-08
0.00466804
6.94947e-08
0.00466821
3.21238e-07
0.00466847
5.18409e-07
0.00466898
3.05596e-06
0.00466884
7.07469e-06
0.00466877
1.18258e-05
0.00466914
1.97114e-05
0.00467206
3.87158e-05
0.00465411
0.000148411
0.00459956
0.000718754
0.00448173
0.00114771
0.00435805
0.00125296
0.00424035
0.00126501
0.00412459
0.00129597
0.00400913
0.00134083
0.00389231
0.00140272
0.0037708
0.00146847
0.00364454
0.00153147
0.00351473
0.00159487
0.00337892
0.0016623
0.00323461
0.00173428
0.00308111
0.00181074
0.00291866
0.00189178
0.00274883
0.0019788
0.00257256
0.00207584
0.00238677
0.00218488
0.00218745
0.0023041
0.00196943
0.00242991
0.00173411
0.00255838
0.00148407
0.00268886
0.0012208
0.00281984
0.000942047
0.00294491
0.000647517
0.00305905
0.000329708
0.003132
0.00314066
0.00484151
6.07104e-15
0.00484151
-1.37528e-13
0.00484151
-2.73077e-13
0.00484151
-6.09604e-13
0.00484151
-1.16881e-12
0.00484151
3.47161e-13
0.00484151
1.79126e-13
0.00484151
2.24665e-11
0.00484151
5.1877e-11
0.00484151
2.47926e-10
0.0048415
8.09371e-10
0.0048415
1.69369e-09
0.00484149
5.93707e-09
0.0048415
1.57105e-08
0.00484152
3.66971e-08
0.00484102
-9.63835e-08
0.00484291
-3.59614e-07
0.00483876
-6.69007e-07
0.00484758
-1.55843e-06
0.00485721
-2.42302e-06
0.00487175
-9.74314e-07
0.00490073
-6.57918e-06
0.00489696
3.73665e-05
0.00497846
8.09668e-05
0.00478898
0.000883932
0.00461459
0.0013218
0.00447878
0.00139236
0.00435938
0.00138275
0.0042409
0.00140828
0.00412526
0.00144943
0.00401287
0.00150907
0.00390109
0.0015782
0.00378354
0.00164737
0.00365883
0.00171755
0.00352734
0.00179226
0.00338714
0.00187328
0.00323592
0.00195953
0.00307351
0.00204984
0.00290318
0.00214614
0.00272649
0.00225352
0.00253964
0.0023745
0.00233819
0.00250779
0.00211464
0.00265032
0.00186975
0.00279463
0.00161146
0.00294191
0.00133577
0.00309534
0.00103731
0.00324632
0.000718548
0.00338618
0.000368124
0.00348552
0.00351097
0.00502139
-2.51253e-15
0.00502139
2.215e-13
0.00502139
3.90118e-13
0.00502139
2.31649e-12
0.00502139
4.00007e-12
0.00502139
1.90839e-11
0.00502139
3.14913e-11
0.00502139
1.48291e-10
0.00502139
2.27735e-10
0.00502139
1.01274e-09
0.00502139
1.94939e-09
0.00502138
7.43991e-09
0.00502139
5.68253e-09
0.00502142
-3.02209e-10
0.00502147
2.35626e-08
0.00502141
-6.65205e-07
0.00502425
-1.95288e-06
0.00502168
-3.29645e-06
0.00502879
-1.10578e-05
0.00504263
-1.67612e-05
0.00507921
-1.61783e-05
0.00512478
-4.34091e-05
0.00505567
3.26135e-05
0.005197
0.000128664
0.00492196
0.00100735
0.00470613
0.00150235
0.00458322
0.00152071
0.00446501
0.00151164
0.00434717
0.00152395
0.00423588
0.00155598
0.00412706
0.00160892
0.00402361
0.00167673
0.00391698
0.00175061
0.00380248
0.00182853
0.00368007
0.00191245
0.0035486
0.0020041
0.00340367
0.0021025
0.00324452
0.00220504
0.00307511
0.00231262
0.00289849
0.00243101
0.00271184
0.00256432
0.00251059
0.00271168
0.00228868
0.00287109
0.00203834
0.00303676
0.00176917
0.00320561
0.0014803
0.00338371
0.00116407
0.00356503
0.000813728
0.00374498
0.000422811
0.00387988
0.00393606
0.00520796
-5.88594e-15
0.00520796
-6.67486e-14
0.00520796
1.30917e-13
0.00520796
-5.41674e-13
0.00520796
-1.16765e-13
0.00520796
-4.66518e-12
0.00520796
-8.05158e-12
0.00520796
-4.52502e-11
0.00520796
-1.04766e-10
0.00520797
-4.03042e-10
0.00520797
-1.14823e-09
0.00520798
-4.11223e-09
0.00520799
-9.24673e-09
0.00520805
-5.39026e-08
0.00520814
-8.52797e-08
0.00520816
-6.02297e-07
0.00520802
-1.4093e-06
0.00520874
-4.08521e-06
0.00519525
-6.32485e-06
0.00520425
-1.6123e-05
0.00523688
-3.23454e-05
0.00540073
-5.17715e-05
0.00517748
5.6536e-05
0.00558217
8.39214e-05
0.00514957
0.00116539
0.00489802
0.00170102
0.00472136
0.00169607
0.00458339
0.00165221
0.00446203
0.00164175
0.00435619
0.00165584
0.00425023
0.00170094
0.0041489
0.0017689
0.00404935
0.00184392
0.00394584
0.0019273
0.00383534
0.00202017
0.00371609
0.00212266
0.003584
0.00223435
0.00343457
0.00235204
0.00327074
0.00247335
0.00309784
0.00260405
0.00291387
0.00275157
0.00271388
0.00291481
0.00249175
0.00309211
0.00224187
0.00327872
0.00196889
0.00347452
0.00166986
0.00368252
0.00133229
0.00390485
0.00095243
0.00413259
0.000502513
0.00433639
0.00444182
0.00540147
-1.67841e-13
0.00540147
2.54024e-13
0.00540147
-1.05418e-14
0.00540147
3.17833e-12
0.00540147
9.1413e-13
0.00540147
2.60329e-11
0.00540147
3.47255e-12
0.00540147
2.08256e-10
0.00540147
-1.06688e-10
0.00540146
1.27477e-09
0.00540146
-6.4311e-10
0.00540145
6.20322e-09
0.00540144
-4.55049e-09
0.00540138
3.2821e-08
0.00540124
-2.1646e-08
0.00540051
1.62446e-07
0.00539923
-8.72846e-08
0.00539422
1.01632e-06
0.00538845
-1.74562e-06
0.00537113
5.99003e-07
0.00532359
-5.60643e-06
0.00529167
-3.04594e-05
0.00532154
5.58488e-05
0.00522388
0.000136508
0.00552399
0.000910691
0.00527672
0.00195103
0.00500945
0.00195763
0.00480945
0.00185062
0.00465936
0.001788
0.00454335
0.00176761
0.004438
0.00179949
0.00432896
0.00186647
0.00421737
0.00194251
0.00410966
0.00202687
0.00400414
0.00212188
0.00389431
0.00223079
0.00377513
0.0023528
0.00363928
0.00248514
0.00348456
0.00262238
0.00331985
0.00276672
0.00314466
0.0029276
0.00295324
0.00310747
0.00274037
0.00330444
0.00249909
0.00351519
0.00222606
0.00374168
0.00192061
0.00398737
0.00157118
0.0042562
0.00115697
0.00455504
0.000639911
0.00485641
0.00508441
0.00560216
-6.23442e-13
0.00560216
7.16358e-13
0.00560216
-1.15366e-12
0.00560216
4.9356e-12
0.00560216
-4.12162e-12
0.00560216
1.98124e-11
0.00560216
-1.38233e-11
0.00560216
4.66024e-11
0.00560216
6.30104e-11
0.00560216
1.40097e-10
0.00560216
7.99762e-10
0.00560217
1.75314e-09
0.00560215
4.35066e-09
0.00560222
1.26916e-08
0.005602
2.72072e-08
0.00560228
8.25581e-08
0.00560147
2.0193e-07
0.00560228
6.14556e-07
0.00560264
9.45924e-07
0.00560264
2.75966e-06
0.00559095
3.98465e-06
0.00560843
4.96634e-06
0.00550865
4.70583e-05
0.0056804
8.61083e-05
0.00570184
0.000710483
0.00559199
0.00220203
0.00529916
0.00224664
0.00506758
0.00207059
0.00491369
0.00193729
0.0047943
0.00188469
0.00468076
0.00191014
0.00457058
0.00197348
0.00445698
0.00205171
0.00433362
0.00213638
0.00421259
0.00223148
0.0040976
0.00234
0.00398425
0.00246335
0.00386288
0.00260443
0.00372408
0.00275733
0.00357011
0.00291759
0.00340544
0.00309279
0.00323026
0.00328373
0.00303807
0.00349606
0.002813
0.00373695
0.00255129
0.0039969
0.00225606
0.00428109
0.00190793
0.00460513
0.00148282
0.0049867
0.000893516
0.00545369
0.00598032
0.00581031
-1.15593e-13
0.00581031
1.69929e-13
0.00581031
4.61563e-14
0.00581031
1.2926e-12
0.00581031
1.47373e-12
0.00581031
6.79893e-12
0.00581031
1.03102e-11
0.00581031
2.07613e-11
0.00581031
4.84351e-11
0.0058103
9.04223e-11
0.00581031
2.09714e-10
0.00581027
9.27877e-10
0.00581032
1.80527e-09
0.00581014
5.9686e-09
0.00581039
1.69987e-08
0.00580967
3.28823e-08
0.0058095
1.41432e-07
0.00581404
1.48015e-07
0.0058097
9.06765e-07
0.00582944
1.47653e-06
0.00583368
5.12716e-06
0.00597408
3.04464e-06
0.00575467
5.17884e-05
0.00596533
9.11818e-05
0.00582382
0.000639195
0.00580633
0.00221948
0.00553811
0.00250576
0.00535418
0.0022464
0.00522216
0.00206229
0.00508472
0.00201731
0.00496775
0.0020232
0.004844
0.00209429
0.0047266
0.002167
0.00460884
0.00225016
0.00448522
0.00234854
0.00435477
0.0024581
0.0042309
0.00258037
0.00411456
0.00271892
0.00399293
0.00287754
0.00386141
0.00304681
0.00372241
0.00323225
0.00356347
0.00344368
0.00338203
0.00367692
0.00318547
0.00393099
0.0029634
0.00421455
0.0027089
0.00453327
0.00240789
0.00490658
0.00202409
0.00537816
0.00143899
0.00604174
0.00742106
0.00840003
1.62795e-13
0.00840003
2.73433e-13
0.00840003
1.05848e-12
0.00840003
1.91797e-12
0.00840003
6.61536e-12
0.00840003
1.13917e-11
0.00840003
3.76587e-11
0.00840003
6.48174e-11
0.00840003
2.08423e-10
0.00840003
3.67847e-10
0.00840003
1.17913e-09
0.00840003
1.77126e-09
0.00840002
6.2933e-09
0.00840001
1.04646e-08
0.00840005
3.32192e-08
0.00839972
5.83198e-08
0.00840069
1.70726e-07
0.00839506
3.22242e-07
0.00840335
9.993e-07
0.00838469
1.76022e-06
0.00835912
6.94706e-06
0.00851436
1.00645e-05
0.00841461
4.99882e-05
0.00786959
9.5809e-05
0.00859127
0.000514259
0.00900294
0.0017693
0.00875542
0.00272982
0.00841855
0.00256242
0.00809991
0.00236582
0.00783739
0.00227019
0.007594
0.00225792
0.0073928
0.00228859
0.00719661
0.00236012
0.00700566
0.00243856
0.00682266
0.00252823
0.00664013
0.00263446
0.00644834
0.00275399
0.00626644
0.00288473
0.0061029
0.00302965
0.00594968
0.00319399
0.00579136
0.00338698
0.0056331
0.00360133
0.00546984
0.00383958
0.00529434
0.00410197
0.00510858
0.00439388
0.00492175
0.0047134
0.00477304
0.00505093
0.00476251
0.0053916
0.00516806
0.00564979
0.00533336
0.00725811
0.00840003
3.12955e-13
0.00840003
3.24428e-13
0.00840003
1.72819e-12
0.00840003
2.71681e-12
0.00840003
9.86574e-12
0.00840003
1.64432e-11
0.00840003
5.35944e-11
0.00840003
8.78453e-11
0.00840003
2.95192e-10
0.00840003
4.73575e-10
0.00840003
1.52184e-09
0.00840003
2.49346e-09
0.00840003
7.85311e-09
0.00840004
1.21617e-08
0.00839997
4.12462e-08
0.00840024
6.3022e-08
0.00840015
2.13396e-07
0.00840017
4.54718e-07
0.00839851
1.51949e-06
0.00840419
2.49934e-06
0.00838432
1.01704e-05
0.00839894
1.24366e-05
0.00839749
4.45137e-05
0.00839801
8.8164e-05
0.00864415
0.000255546
0.00977055
0.000753826
0.00988905
0.00261309
0.00957308
0.00286256
0.00915879
0.00276552
0.00878554
0.00263048
0.00843234
0.00260106
0.00812978
0.00258681
0.00784372
0.00264528
0.00757432
0.00270852
0.00733388
0.00277493
0.00711266
0.0028549
0.00691001
0.00295142
0.00671977
0.0030633
0.00653738
0.00319548
0.00636653
0.00334753
0.00622988
0.00351521
0.00612107
0.00370452
0.00603648
0.00392066
0.00597855
0.0041588
0.0059547
0.0044116
0.00598384
0.00468195
0.00610188
0.00492766
0.00638834
0.00510011
0.00694141
0.00509688
0.00462738
0.00765366
0.00840003
6.6525e-14
0.00840003
1.78282e-13
0.00840003
6.49591e-13
0.00840003
1.08847e-12
0.00840003
3.70011e-12
0.00840003
5.3605e-12
0.00840003
2.07665e-11
0.00840003
3.01431e-11
0.00840003
1.03729e-10
0.00840003
1.58287e-10
0.00840003
5.86376e-10
0.00840003
7.36311e-10
0.00840004
3.02926e-09
0.00840001
3.16429e-09
0.00840005
1.44624e-08
0.00840005
1.89214e-08
0.0084004
6.8403e-08
0.00840162
3.47132e-07
0.00839747
9.74296e-07
0.00839417
1.54492e-06
0.00842111
4.36562e-06
0.0084013
1.10041e-05
0.00843057
2.57618e-05
0.00846934
4.43321e-05
0.00856733
0.000149101
0.00893244
0.000410801
0.00953973
0.00201165
0.00955515
0.00284544
0.0093637
0.00295003
0.00913395
0.00286049
0.00890716
0.00283205
0.00862665
0.00287231
0.00836105
0.00291992
0.00810271
0.00297609
0.00785605
0.00303227
0.00762817
0.00308971
0.00742067
0.00316288
0.00722662
0.00325369
0.00705672
0.00336004
0.00690583
0.00349074
0.0067712
0.00363769
0.00667184
0.00379312
0.00661743
0.00396758
0.00661693
0.0041534
0.00668345
0.0043401
0.00683841
0.00452176
0.00709157
0.00467104
0.00743675
0.00474979
0.00782951
0.00469739
0.00427531
0.00817785
0.00840003
2.43095e-14
0.00840003
2.07163e-13
0.00840003
4.86053e-13
0.00840003
1.11007e-12
0.00840003
2.28993e-12
0.00840003
5.37281e-12
0.00840003
9.87914e-12
0.00840003
2.49477e-11
0.00840003
4.36369e-11
0.00840003
1.21528e-10
0.00840003
1.8231e-10
0.00840003
6.48962e-10
0.00840003
1.15438e-09
0.00840002
2.78964e-09
0.00840003
2.09867e-09
0.00839997
1.2812e-08
0.00839995
1.09395e-08
0.00840069
-2.21282e-07
0.00840261
-6.63188e-07
0.00840516
-9.2737e-07
0.00841639
-4.29057e-06
0.00843598
-3.80265e-06
0.00848119
-9.10041e-06
0.00856329
-3.27992e-05
0.00858791
0.000121737
0.00880377
0.000227367
0.00906403
0.0017286
0.00914573
0.00274072
0.00913964
0.00294019
0.00903217
0.00297108
0.0088947
0.00297882
0.00874307
0.00303368
0.0085781
0.00309916
0.00839996
0.00316696
0.00821464
0.00322886
0.00803042
0.00328434
0.00785801
0.00334339
0.00769833
0.00341614
0.00756092
0.00349821
0.00744839
0.00360437
0.00735274
0.00372654
0.00727868
0.00385874
0.00724051
0.00399438
0.00724905
0.00413366
0.00732056
0.00425834
0.0074695
0.00436394
0.0077077
0.00442628
0.0080221
0.0044308
0.0083552
0.00435883
0.00405077
0.00857366
0.00840003
-7.38454e-14
0.00840003
-6.07705e-14
0.00840003
-3.31206e-13
0.00840003
-3.63672e-13
0.00840003
-1.61267e-12
0.00840003
-2.13302e-12
0.00840003
-8.31422e-12
0.00840003
-1.06292e-11
0.00840003
-4.14447e-11
0.00840003
-5.86387e-11
0.00840003
-2.06581e-10
0.00840003
-2.15476e-10
0.00840003
-1.017e-09
0.00840002
2.26416e-10
0.00840001
-1.30559e-09
0.00839985
-9.1857e-10
0.00840034
1.02068e-08
0.00839923
-5.50933e-08
0.0084036
-1.49444e-07
0.00840612
-1.49062e-07
0.00836859
-8.31407e-07
0.00838191
4.71906e-07
0.00829051
3.98223e-06
0.00814933
-9.21758e-07
0.00829308
9.85539e-05
0.00844849
0.000145928
0.00909495
0.00116267
0.00904345
0.00276103
0.00895215
0.0030157
0.00884693
0.00305871
0.00877614
0.00305283
0.0087112
0.00310491
0.00863762
0.00318019
0.00854627
0.00326657
0.00842949
0.00334363
0.00830266
0.00340498
0.00817601
0.00346374
0.00806027
0.00352703
0.00796028
0.00359492
0.00788837
0.00367606
0.00784357
0.00377097
0.00782028
0.0038775
0.00782526
0.00398451
0.0078595
0.00408995
0.00792915
0.0041775
0.00804482
0.00423636
0.00820566
0.00425168
0.00842238
0.00420437
0.00867722
0.00409675
0.00385994
0.00886042
0.00840003
4.78574e-15
0.00840003
-1.44796e-14
0.00840003
-2.7075e-14
0.00840003
-1.31967e-13
0.00840003
-2.94211e-13
0.00840003
-8.44676e-13
0.00840003
-1.98898e-12
0.00840003
-5.56725e-12
0.00840003
-1.25362e-11
0.00840003
-3.36802e-11
0.00840003
-7.94351e-11
0.00840003
-1.54441e-10
0.00840003
-4.98988e-10
0.00840002
-9.72398e-10
0.00840004
-1.20436e-09
0.00839983
-5.30438e-10
0.00840022
1.72467e-08
0.00839853
1.41419e-08
0.0083984
4.89247e-07
0.00840073
1.01691e-06
0.00839673
2.50432e-06
0.00840355
6.2164e-06
0.00836434
1.69797e-05
0.00862784
1.87652e-05
0.0083237
0.000146932
0.00910834
1.80018e-05
0.00893216
0.000729299
0.0092553
0.00237689
0.009134
0.003123
0.00895243
0.00321921
0.00881768
0.00316594
0.00873179
0.00318221
0.00866685
0.00324054
0.00861618
0.00331808
0.00855883
0.00339927
0.00848544
0.00346905
0.00840604
0.00353257
0.00832994
0.00359371
0.00826641
0.0036519
0.0082256
0.00371384
0.00821231
0.00378461
0.00822543
0.00386275
0.00826466