/*--------------------------------*- C++ -*----------------------------------*\
| =========                 |                                                 |
| \\      /  F ield         | OpenFOAM: The Open Source CFD Toolbox           |
|  \\    /   O peration     | Version:  2412                                  |
|   \\  /    A nd           | Website:  www.openfoam.com                      |
|    \\/     M anipulation  |                                                 |
\*---------------------------------------------------------------------------*/
FoamFile
{
    version     2.0;
    format      ascii;
    arch        "LSB;label=32;scalar=64";
    class       volVectorField;
    location    "3.5";
    object      U;
}
// * * * * * * * * * * * * * * * * * * * * * * * * * * * * * * * * * * * * * //

dimensions      [0 1 -1 0 0 0 0];

internalField   nonuniform List<vector> 
7000
(
(3 -9.04315e-11 0)
(3 -7.20535e-12 0)
(3 -5.15647e-11 0)
(3 -8.45104e-11 0)
(3 3.35324e-10 0)
(3 -3.82897e-10 0)
(3 -2.14818e-09 0)
(3 8.83992e-09 0)
(3 -6.98071e-09 0)
(3 1.09271e-07 0)
(3 1.8994e-07 0)
(2.99999 4.53228e-07 0)
(2.99997 1.19562e-06 0)
(2.99994 2.27512e-06 0)
(2.99986 1.76512e-06 0)
(2.99973 5.46497e-06 0)
(2.99935 8.40932e-06 0)
(3.00001 2.12536e-05 0)
(2.99739 3.52096e-05 0)
(2.98878 6.7487e-05 0)
(3.00044 0.000128752 0)
(2.79652 0.000161127 0)
(2.41049 0.000815485 0)
(1.69476 0.00195212 0)
(0.733611 0.0046594 0)
(0.642528 0.00526805 0)
(0.704111 0.0056587 0)
(0.747125 0.00601328 0)
(0.744827 0.00622387 0)
(0.718811 0.00641778 0)
(0.677882 0.00662551 0)
(0.639273 0.00690042 0)
(0.608511 0.00722913 0)
(0.580738 0.00755821 0)
(0.552343 0.00786678 0)
(0.522722 0.0081666 0)
(0.492439 0.00847748 0)
(0.461808 0.00881571 0)
(0.430615 0.00919671 0)
(0.398609 0.00963642 0)
(0.365809 0.0101475 0)
(0.332256 0.0107354 0)
(0.297929 0.0114016 0)
(0.261998 0.0121515 0)
(0.2237 0.0129896 0)
(0.183337 0.0139518 0)
(0.140803 0.0150006 0)
(0.0989795 0.0157011 0)
(0.0564669 0.0152543 0)
(0.020997 0.0134783 0)
(3 -2.99653e-11 0)
(3 -9.2531e-11 0)
(3 -2.28099e-10 0)
(3 -9.47521e-10 0)
(3 -2.13071e-09 0)
(3 -6.71729e-09 0)
(3 -1.43589e-08 0)
(3 -2.80626e-08 0)
(3 -9.4632e-08 0)
(3 4.15385e-08 0)
(3 -4.0213e-07 0)
(2.99999 1.78313e-06 0)
(2.99997 -3.68668e-06 0)
(2.99994 2.14726e-05 0)
(2.99987 -1.21936e-05 0)
(2.99974 1.87349e-05 0)
(2.99936 1.56299e-05 0)
(3.00003 5.76915e-05 0)
(2.99741 9.89921e-05 0)
(2.98884 0.000198577 0)
(3.0005 0.000391466 0)
(2.79688 0.000513434 0)
(2.41187 0.00248959 0)
(1.69698 0.00605458 0)
(0.735026 0.0142417 0)
(0.642693 0.0158399 0)
(0.704191 0.016748 0)
(0.747129 0.0175871 0)
(0.744747 0.0181131 0)
(0.718745 0.0185957 0)
(0.677876 0.0191179 0)
(0.639343 0.0197968 0)
(0.608612 0.0205916 0)
(0.580832 0.0213717 0)
(0.55243 0.0220897 0)
(0.522822 0.022778 0)
(0.492556 0.023487 0)
(0.461925 0.0242558 0)
(0.430705 0.025116 0)
(0.398639 0.0260941 0)
(0.36574 0.0272031 0)
(0.332048 0.0284375 0)
(0.297552 0.0297797 0)
(0.261442 0.0312072 0)
(0.223023 0.0326789 0)
(0.182725 0.0341897 0)
(0.140633 0.0356103 0)
(0.0998056 0.0362843 0)
(0.05849 0.0352912 0)
(0.0227795 0.0322211 0)
(3 6.49311e-11 0)
(3 -5.84914e-11 0)
(3 -1.18621e-10 0)
(3 -5.95589e-10 0)
(3 -2.03833e-09 0)
(3 -4.71207e-09 0)
(3 -9.09085e-09 0)
(3 -3.07504e-08 0)
(3 -7.17196e-08 0)
(3 -1.43433e-07 0)
(3 -1.16331e-07 0)
(2.99999 3.40034e-07 0)
(2.99998 -4.39337e-06 0)
(2.99994 2.13015e-05 0)
(2.99986 -1.02177e-05 0)
(2.99975 1.92798e-05 0)
(2.99938 2.83658e-05 0)
(3.00006 0.000101218 0)
(2.99747 0.000179085 0)
(2.98896 0.000355538 0)
(3.00063 0.000693364 0)
(2.79764 0.000924416 0)
(2.41493 0.00427904 0)
(1.70202 0.0104719 0)
(0.738313 0.024497 0)
(0.643488 0.0270021 0)
(0.704738 0.0283442 0)
(0.747592 0.0296798 0)
(0.745129 0.030715 0)
(0.719175 0.0316853 0)
(0.678429 0.0327077 0)
(0.640023 0.0339208 0)
(0.609334 0.0352726 0)
(0.58152 0.0366041 0)
(0.553069 0.0378598 0)
(0.523424 0.0390881 0)
(0.493124 0.0403621 0)
(0.46244 0.0417427 0)
(0.431145 0.0432838 0)
(0.398983 0.0450285 0)
(0.365972 0.0469985 0)
(0.332158 0.049191 0)
(0.297541 0.0515839 0)
(0.261331 0.0541237 0)
(0.222895 0.0567194 0)
(0.182733 0.0592713 0)
(0.140939 0.0615003 0)
(0.100554 0.0625026 0)
(0.0596131 0.0612854 0)
(0.0236838 0.0575062 0)
(3 -2.68335e-12 0)
(3 1.47005e-10 0)
(3 2.85738e-10 0)
(3 1.27792e-09 0)
(3 2.09835e-09 0)
(3 8.41183e-09 0)
(3 1.66292e-08 0)
(3 5.05193e-08 0)
(3 8.28737e-08 0)
(3 6.80274e-08 0)
(3 8.97525e-07 0)
(2.99999 -1.00302e-07 0)
(2.99999 4.06669e-06 0)
(2.99994 1.13607e-05 0)
(2.99987 1.19139e-05 0)
(2.99976 5.57944e-06 0)
(2.99941 3.67031e-05 0)
(3.00012 0.000144036 0)
(2.99757 0.000266311 0)
(2.98917 0.000524412 0)
(3.00085 0.00101135 0)
(2.79885 0.00134644 0)
(2.41982 0.00614046 0)
(1.71013 0.0150308 0)
(0.743441 0.0351573 0)
(0.644643 0.0385044 0)
(0.705497 0.0402118 0)
(0.748304 0.0420193 0)
(0.745774 0.0436189 0)
(0.719866 0.0451296 0)
(0.679255 0.0466849 0)
(0.640996 0.0484225 0)
(0.610363 0.0502942 0)
(0.582515 0.0521471 0)
(0.554011 0.0539286 0)
(0.52433 0.0556954 0)
(0.493999 0.0575363 0)
(0.463272 0.0595335 0)
(0.431911 0.0617628 0)
(0.399664 0.0642802 0)
(0.366555 0.067113 0)
(0.332636 0.0702615 0)
(0.297916 0.0737017 0)
(0.26163 0.0773442 0)
(0.223204 0.0810395 0)
(0.183174 0.0845763 0)
(0.141568 0.0875368 0)
(0.10134 0.0888819 0)
(0.0603929 0.087691 0)
(0.0242077 0.0837088 0)
(3 -8.35498e-12 0)
(3 2.91733e-10 0)
(3 6.0476e-10 0)
(3 2.31816e-09 0)
(3 4.20644e-09 0)
(3 1.349e-08 0)
(3 2.81409e-08 0)
(3 7.41782e-08 0)
(3 1.31657e-07 0)
(3 2.89887e-07 0)
(3 6.5631e-07 0)
(2.99999 1.22525e-06 0)
(2.99999 7.2447e-06 0)
(2.99994 1.6819e-05 0)
(2.99986 1.24824e-05 0)
(2.99977 -1.37703e-05 0)
(2.99947 4.48456e-05 0)
(3.00021 0.000183155 0)
(2.99772 0.000353476 0)
(2.98946 0.000699059 0)
(3.00116 0.00133865 0)
(2.80055 0.00177835 0)
(2.42672 0.00804428 0)
(1.72166 0.0196718 0)
(0.750599 0.0461857 0)
(0.646165 0.0504004 0)
(0.70646 0.0524799 0)
(0.749273 0.0547707 0)
(0.746695 0.0569759 0)
(0.720824 0.0590803 0)
(0.680351 0.0612313 0)
(0.642243 0.0635329 0)
(0.611672 0.0659414 0)
(0.583802 0.0683313 0)
(0.555252 0.0706669 0)
(0.525538 0.0730082 0)
(0.495179 0.0754515 0)
(0.464414 0.0780987 0)
(0.433002 0.0810482 0)
(0.400691 0.0843647 0)
(0.367506 0.0880777 0)
(0.333505 0.0921872 0)
(0.298695 0.0966657 0)
(0.262334 0.101393 0)
(0.223901 0.106151 0)
(0.183951 0.110613 0)
(0.14242 0.114234 0)
(0.10217 0.115901 0)
(0.0610419 0.114843 0)
(0.0245668 0.110922 0)
(3 9.12805e-12 0)
(3 3.25893e-10 0)
(3 6.92286e-10 0)
(3 2.44828e-09 0)
(3 4.52796e-09 0)
(3 1.29035e-08 0)
(3 2.52083e-08 0)
(3 5.81685e-08 0)
(3 1.46505e-07 0)
(3 2.8987e-07 0)
(3 4.03211e-07 0)
(2.99999 6.81944e-07 0)
(3 2.86707e-06 0)
(2.99994 -1.54925e-05 0)
(2.99985 2.51552e-05 0)
(2.99978 3.27571e-05 0)
(2.99955 0.000126844 0)
(3.00033 0.000275055 0)
(2.99791 0.000461383 0)
(2.98985 0.00086958 0)
(3.00157 0.00164601 0)
(2.80279 0.00216977 0)
(2.43577 0.00993482 0)
(1.73687 0.0243352 0)
(0.759872 0.057559 0)
(0.647949 0.0627063 0)
(0.707525 0.0651975 0)
(0.750425 0.0679851 0)
(0.747847 0.0708173 0)
(0.722021 0.0735491 0)
(0.681688 0.0763472 0)
(0.64372 0.0792459 0)
(0.613213 0.0822037 0)
(0.585334 0.08514 0)
(0.556758 0.088051 0)
(0.527027 0.0910039 0)
(0.496657 0.0940935 0)
(0.465876 0.0974299 0)
(0.434438 0.101135 0)
(0.402093 0.105283 0)
(0.368863 0.109912 0)
(0.334805 0.115025 0)
(0.299921 0.120583 0)
(0.263481 0.12643 0)
(0.225021 0.132278 0)
(0.185092 0.137682 0)
(0.143527 0.141989 0)
(0.103112 0.144045 0)
(0.0616616 0.143223 0)
(0.024861 0.139476 0)
(3 3.25199e-12 0)
(3 2.96586e-10 0)
(3 5.98542e-10 0)
(3 2.27991e-09 0)
(3 4.0358e-09 0)
(3 1.33481e-08 0)
(3 2.02472e-08 0)
(3 6.85232e-08 0)
(3 1.35392e-07 0)
(3 3.87605e-07 0)
(3 5.6486e-07 0)
(2.99999 1.9984e-06 0)
(2.99998 1.64191e-06 0)
(2.99996 -1.22203e-05 0)
(2.99989 4.30951e-05 0)
(2.99984 0.000113937 0)
(2.99963 0.000223904 0)
(3.00044 0.00038792 0)
(2.99812 0.000578263 0)
(2.99031 0.00103523 0)
(3.00207 0.00193346 0)
(2.80562 0.00251138 0)
(2.44722 0.0117818 0)
(1.7562 0.0289683 0)
(0.771574 0.0692286 0)
(0.650134 0.0754079 0)
(0.708799 0.0783995 0)
(0.751867 0.0816892 0)
(0.749356 0.085166 0)
(0.72361 0.0885617 0)
(0.683427 0.0920625 0)
(0.645567 0.0955833 0)
(0.615103 0.0991002 0)
(0.58722 0.102596 0)
(0.55863 0.106104 0)
(0.52889 0.109699 0)
(0.498513 0.113476 0)
(0.467725 0.117542 0)
(0.436275 0.122054 0)
(0.403914 0.127064 0)
(0.370667 0.132641 0)
(0.336582 0.138797 0)
(0.301646 0.145484 0)
(0.265134 0.152509 0)
(0.226619 0.159513 0)
(0.186646 0.165924 0)
(0.144952 0.170987 0)
(0.104256 0.173509 0)
(0.0623611 0.173031 0)
(0.0251232 0.169563 0)
(3 -1.57854e-11 0)
(3 3.15896e-10 0)
(3 6.34971e-10 0)
(3 2.55648e-09 0)
(3 4.50117e-09 0)
(3 1.56737e-08 0)
(3 2.58578e-08 0)
(3 9.16729e-08 0)
(3 1.49405e-07 0)
(3 5.54064e-07 0)
(3 9.03322e-07 0)
(3 3.37691e-06 0)
(2.99999 5.58858e-06 0)
(2.99997 2.02395e-05 0)
(2.99994 4.6874e-05 0)
(2.99991 0.000137603 0)
(2.99974 0.000260992 0)
(3.00058 0.000453296 0)
(2.99838 0.000671286 0)
(2.99085 0.00119546 0)
(3.00264 0.00221975 0)
(2.80907 0.00284093 0)
(2.46118 0.0136116 0)
(1.77996 0.0335382 0)
(0.785872 0.081128 0)
(0.652724 0.0884833 0)
(0.710233 0.0921577 0)
(0.753537 0.0958559 0)
(0.751204 0.100014 0)
(0.725612 0.104144 0)
(0.685609 0.108429 0)
(0.647826 0.112594 0)
(0.617396 0.116673 0)
(0.589537 0.120739 0)
(0.560971 0.124866 0)
(0.53125 0.129134 0)
(0.500882 0.133632 0)
(0.470111 0.138476 0)
(0.438669 0.143819 0)
(0.406299 0.149744 0)
(0.373054 0.156316 0)
(0.33896 0.163554 0)
(0.303984 0.171415 0)
(0.267404 0.179675 0)
(0.228811 0.187915 0)
(0.188729 0.195442 0)
(0.146797 0.201377 0)
(0.105687 0.204487 0)
(0.0632267 0.204434 0)
(0.0254519 0.20131 0)
(3 -3.21717e-11 0)
(3 3.43113e-10 0)
(3 7.33924e-10 0)
(3 2.83873e-09 0)
(3 5.30182e-09 0)
(3 1.8404e-08 0)
(3 3.285e-08 0)
(3 1.14031e-07 0)
(3 1.96121e-07 0)
(3 6.88202e-07 0)
(3 1.4411e-06 0)
(3 4.22369e-06 0)
(2.99999 1.01676e-05 0)
(2.99999 2.71214e-05 0)
(2.99998 6.76439e-05 0)
(3 0.000158633 0)
(2.99987 0.000291891 0)
(3.00074 0.00050711 0)
(2.99867 0.000750918 0)
(2.9915 0.0013417 0)
(3.00331 0.00248967 0)
(2.81319 0.00314604 0)
(2.47778 0.0153994 0)
(1.80841 0.0379785 0)
(0.802928 0.0931407 0)
(0.655794 0.101919 0)
(0.71176 0.106731 0)
(0.755313 0.110461 0)
(0.753386 0.115333 0)
(0.728055 0.120281 0)
(0.688245 0.125446 0)
(0.650489 0.130283 0)
(0.620104 0.134935 0)
(0.592325 0.139588 0)
(0.563856 0.144359 0)
(0.534221 0.149335 0)
(0.503911 0.154596 0)
(0.473175 0.160264 0)
(0.44177 0.166463 0)
(0.409441 0.173343 0)
(0.376216 0.180953 0)
(0.342118 0.189334 0)
(0.307088 0.198451 0)
(0.270413 0.208022 0)
(0.231717 0.217584 0)
(0.191468 0.226332 0)
(0.149197 0.233275 0)
(0.107531 0.237112 0)
(0.064332 0.237617 0)
(0.0258375 0.234908 0)
(3 -2.9898e-11 0)
(3 3.45494e-10 0)
(3 6.97787e-10 0)
(3 2.3808e-09 0)
(3 4.47268e-09 0)
(3 1.44004e-08 0)
(3 2.51189e-08 0)
(3 8.61534e-08 0)
(3 1.58447e-07 0)
(3 5.04908e-07 0)
(3 1.0344e-06 0)
(3 2.54359e-06 0)
(3.00001 6.05347e-06 0)
(3.00002 1.28199e-05 0)
(3.00004 1.4706e-05 0)
(3.00009 0.000128394 0)
(3.00001 0.000292467 0)
(3.00093 0.000560074 0)
(2.99901 0.000855196 0)
(2.99224 0.00153459 0)
(3.00406 0.00281985 0)
(2.81799 0.00352117 0)
(2.49706 0.0172106 0)
(1.84171 0.0422604 0)
(0.822836 0.105035 0)
(0.659592 0.115574 0)
(0.713264 0.121922 0)
(0.756776 0.125709 0)
(0.75579 0.131321 0)
(0.730887 0.13709 0)
(0.691287 0.143122 0)
(0.653505 0.148634 0)
(0.623203 0.153878 0)
(0.595594 0.159144 0)
(0.567329 0.164586 0)
(0.537883 0.170301 0)
(0.507722 0.17637 0)
(0.477084 0.182902 0)
(0.445759 0.190029 0)
(0.413507 0.197901 0)
(0.380332 0.206595 0)
(0.346251 0.21618 0)
(0.311151 0.226657 0)
(0.274348 0.237656 0)
(0.235499 0.248693 0)
(0.194999 0.258821 0)
(0.152274 0.266932 0)
(0.109903 0.271649 0)
(0.0657954 0.272835 0)
(0.02639 0.270623 0)
(3 2.88688e-12 0)
(3 6.17243e-11 0)
(3 1.49218e-10 0)
(3 -4.27648e-11 0)
(3 9.73877e-12 0)
(3 -4.47976e-09 0)
(3 -6.984e-09 0)
(3 -5.39601e-08 0)
(3 -7.9201e-08 0)
(3 -4.62504e-07 0)
(3 -1.15947e-06 0)
(3 -3.98886e-06 0)
(3 -7.92622e-06 0)
(3 -1.84348e-05 0)
(3.00007 -5.58543e-05 0)
(3.00022 8.14646e-05 0)
(3.00022 0.000308631 0)
(3.0012 0.00062166 0)
(2.99945 0.000991105 0)
(2.99312 0.00178989 0)
(3.00492 0.0032482 0)
(2.8235 0.00403557 0)
(2.51893 0.0191124 0)
(1.87969 0.0463642 0)
(0.845384 0.116454 0)
(0.663986 0.129298 0)
(0.71476 0.137454 0)
(0.757968 0.141988 0)
(0.758236 0.148285 0)
(0.733897 0.154743 0)
(0.694555 0.161479 0)
(0.656749 0.167618 0)
(0.626612 0.173465 0)
(0.599306 0.179371 0)
(0.571385 0.185519 0)
(0.542271 0.192017 0)
(0.512384 0.198948 0)
(0.481954 0.206411 0)
(0.450794 0.214543 0)
(0.418676 0.223482 0)
(0.385594 0.233336 0)
(0.351561 0.244197 0)
(0.316388 0.256112 0)
(0.279438 0.268677 0)
(0.240419 0.28137 0)
(0.199575 0.293116 0)
(0.156245 0.302652 0)
(0.112964 0.30848 0)
(0.0676968 0.310521 0)
(0.0270929 0.308876 0)
(3 1.54217e-11 0)
(3 -3.09231e-10 0)
(3 -7.08103e-10 0)
(3 -2.78881e-09 0)
(3 -4.96474e-09 0)
(3 -2.03996e-08 0)
(3 -3.57646e-08 0)
(3 -1.48013e-07 0)
(3 -2.58456e-07 0)
(3 -1.00105e-06 0)
(3 -1.99532e-06 0)
(3 -6.20205e-06 0)
(2.99999 -1.13735e-05 0)
(2.99998 -2.48675e-05 0)
(3.00012 -5.17934e-05 0)
(3.00039 8.44438e-05 0)
(3.00046 0.000350814 0)
(3.0015 0.000654918 0)
(2.99998 0.00120382 0)
(2.99416 0.00225526 0)
(3.00595 0.00406338 0)
(2.82975 0.00523317 0)
(2.54314 0.0211781 0)
(1.92185 0.0504566 0)
(0.869937 0.126756 0)
(0.668651 0.143116 0)
(0.716093 0.153807 0)
(0.758671 0.159538 0)
(0.76022 0.166303 0)
(0.736627 0.173215 0)
(0.697707 0.180428 0)
(0.660018 0.187123 0)
(0.630204 0.193584 0)
(0.603378 0.200175 0)
(0.575989 0.207083 0)
(0.547398 0.214415 0)
(0.517973 0.222264 0)
(0.487911 0.230737 0)
(0.457042 0.239958 0)
(0.425159 0.250063 0)
(0.392236 0.261186 0)
(0.358293 0.273447 0)
(0.323074 0.286926 0)
(0.285971 0.301257 0)
(0.246751 0.31579 0)
(0.205506 0.329392 0)
(0.161429 0.34068 0)
(0.116985 0.347957 0)
(0.0702279 0.351104 0)
(0.0280716 0.350172 0)
(3 1.44715e-11 0)
(3 -3.90531e-10 0)
(3 -8.43676e-10 0)
(3 -3.22665e-09 0)
(3 -5.90933e-09 0)
(3 -1.95629e-08 0)
(3 -3.5424e-08 0)
(3 -1.11391e-07 0)
(3 -1.92168e-07 0)
(3 -5.81792e-07 0)
(3 -1.04728e-06 0)
(2.99999 -2.56961e-06 0)
(2.99999 -6.64117e-06 0)
(2.99996 -1.64677e-05 0)
(3.00017 -3.63503e-05 0)
(3.00057 8.03134e-05 0)
(3.00071 0.000300597 0)
(3.00193 0.000597214 0)
(3.00082 0.00162612 0)
(2.99564 0.00330686 0)
(3.00751 0.00611162 0)
(2.83654 0.0092957 0)
(2.56906 0.0216551 0)
(1.96796 0.0577683 0)
(0.895578 0.134576 0)
(0.673699 0.156653 0)
(0.716748 0.171206 0)
(0.757901 0.178277 0)
(0.760728 0.185282 0)
(0.738246 0.192406 0)
(0.700129 0.199897 0)
(0.662929 0.207038 0)
(0.63375 0.214088 0)
(0.607677 0.221386 0)
(0.581063 0.229117 0)
(0.553223 0.23738 0)
(0.524484 0.246258 0)
(0.495006 0.255844 0)
(0.464611 0.266273 0)
(0.433119 0.277685 0)
(0.40049 0.290217 0)
(0.366737 0.304011 0)
(0.331576 0.319233 0)
(0.294367 0.335535 0)
(0.254888 0.352219 0)
(0.213172 0.368026 0)
(0.16821 0.381461 0)
(0.122328 0.390615 0)
(0.0736253 0.395273 0)
(0.0293841 0.395284 0)
(3 1.10857e-11 0)
(3 -3.2657e-10 0)
(3 -5.69555e-10 0)
(3 -2.44466e-09 0)
(3 -4.34638e-09 0)
(3 -1.41914e-08 0)
(3 -2.53781e-08 0)
(3 -7.56998e-08 0)
(3 -1.41112e-07 0)
(3 -3.9265e-07 0)
(3 -8.19824e-07 0)
(2.99999 -2.1189e-06 0)
(2.99998 -2.64015e-06 0)
(2.99995 -3.11362e-06 0)
(3.00021 -6.78533e-06 0)
(3.00069 6.19808e-05 0)
(3.00092 0.000231313 0)
(3.00269 0.000450059 0)
(3.0024 0.0019864 0)
(2.99827 0.0042344 0)
(3.01119 0.0081569 0)
(2.84188 0.0142748 0)
(2.6 0.0201332 0)
(2.02309 0.069827 0)
(0.915804 0.144356 0)
(0.677069 0.172081 0)
(0.714629 0.189972 0)
(0.753561 0.197543 0)
(0.758064 0.204487 0)
(0.73746 0.211637 0)
(0.700852 0.219366 0)
(0.664779 0.226953 0)
(0.636771 0.234646 0)
(0.611896 0.242737 0)
(0.586442 0.25139 0)
(0.559704 0.260689 0)
(0.53197 0.270715 0)
(0.503363 0.281563 0)
(0.473716 0.293365 0)
(0.442844 0.306258 0)
(0.410673 0.320392 0)
(0.377272 0.335939 0)
(0.342303 0.353086 0)
(0.305106 0.371663 0)
(0.265457 0.390838 0)
(0.223218 0.409355 0)
(0.177203 0.425532 0)
(0.129531 0.437198 0)
(0.078351 0.443911 0)
(0.0312815 0.445239 0)
(3 3.89547e-12 0)
(3 -1.77116e-10 0)
(3 -3.67282e-10 0)
(3 -1.27878e-09 0)
(3 -2.35551e-09 0)
(3 -6.91736e-09 0)
(3 -1.25213e-08 0)
(3 -3.46615e-08 0)
(3 -6.48286e-08 0)
(3 -1.8226e-07 0)
(2.99999 -3.22323e-07 0)
(2.99999 -1.4693e-06 0)
(2.99998 9.46752e-07 0)
(2.99996 6.34372e-06 0)
(3.00023 1.51173e-05 0)
(3.00079 1.72338e-05 0)
(3.00107 7.37407e-05 0)
(3.00356 0.000142293 0)
(3.00432 0.00106673 0)
(3.00148 0.00245739 0)
(3.0164 0.00503642 0)
(2.84652 0.00728963 0)
(2.64142 0.0207662 0)
(2.09594 0.0583316 0)
(0.936457 0.168072 0)
(0.68036 0.194815 0)
(0.709306 0.21111 0)
(0.744612 0.216934 0)
(0.751164 0.223334 0)
(0.733094 0.230313 0)
(0.698732 0.238142 0)
(0.664561 0.246223 0)
(0.638527 0.254682 0)
(0.615548 0.263732 0)
(0.591816 0.273491 0)
(0.566635 0.284017 0)
(0.540317 0.295382 0)
(0.512971 0.307691 0)
(0.484422 0.321067 0)
(0.454494 0.335641 0)
(0.423095 0.351598 0)
(0.390273 0.369179 0)
(0.355795 0.388551 0)
(0.318848 0.409751 0)
(0.279104 0.431896 0)
(0.23644 0.453738 0)
(0.189311 0.473515 0)
(0.139446 0.488669 0)
(0.0849555 0.498343 0)
(0.033996 0.50161 0)
(3 4.4803e-13 0)
(3 6.16029e-11 0)
(3 1.22142e-10 0)
(3 9.15173e-10 0)
(3 1.62502e-09 0)
(3 8.80103e-09 0)
(3 1.56444e-08 0)
(3 7.61331e-08 0)
(3 1.36938e-07 0)
(3 5.82142e-07 0)
(2.99999 1.29028e-06 0)
(2.99999 4.34652e-06 0)
(2.99999 6.19278e-06 0)
(2.99997 1.25002e-05 0)
(3.00022 3.47228e-05 0)
(3.00074 -0.000205468 0)
(3.00104 -0.000696018 0)
(3.00363 -0.00119776 0)
(3.00456 -0.00395143 0)
(3.00212 -0.00587081 0)
(3.0156 -0.00575569 0)
(2.85668 -0.0168555 0)
(2.67209 0.018989 0)
(2.15734 0.0551077 0)
(0.98277 0.207584 0)
(0.677331 0.225732 0)
(0.698051 0.233247 0)
(0.730486 0.236505 0)
(0.739743 0.241882 0)
(0.724415 0.248134 0)
(0.692941 0.25557 0)
(0.661602 0.264009 0)
(0.638409 0.273372 0)
(0.61813 0.283623 0)
(0.59685 0.294776 0)
(0.573851 0.306845 0)
(0.549479 0.319859 0)
(0.52387 0.333905 0)
(0.496871 0.349129 0)
(0.468312 0.365676 0)
(0.438105 0.38375 0)
(0.406264 0.403652 0)
(0.372616 0.425612 0)
(0.336337 0.449787 0)
(0.296877 0.475575 0)
(0.254012 0.501641 0)
(0.205812 0.526197 0)
(0.153445 0.546368 0)
(0.0946604 0.560618 0)
(0.0381521 0.567129 0)
(3 2.03608e-12 0)
(3 3.76035e-11 0)
(3 1.54383e-10 0)
(3 3.70936e-10 0)
(3 1.04284e-09 0)
(3 2.59693e-09 0)
(3 5.06867e-09 0)
(3 1.15607e-08 0)
(3 2.28011e-08 0)
(3 1.56236e-08 0)
(3 1.11033e-07 0)
(3 3.95866e-09 0)
(2.99999 -1.85585e-06 0)
(2.99999 -2.18764e-05 0)
(3.00001 -2.6982e-05 0)
(3.00005 -0.000433556 0)
(3.00006 -0.00117573 0)
(3.00025 -0.00271045 0)
(2.99957 -0.00641716 0)
(2.99973 -0.0113608 0)
(3.00655 -0.0187332 0)
(2.87388 -0.034103 0)
(2.74202 0.0215988 0)
(2.26364 0.0530659 0)
(1.05219 0.261981 0)
(0.680413 0.266103 0)
(0.690713 0.259787 0)
(0.721797 0.257503 0)
(0.731188 0.259782 0)
(0.716462 0.263929 0)
(0.68678 0.270418 0)
(0.65792 0.279223 0)
(0.637503 0.289735 0)
(0.620071 0.301579 0)
(0.601614 0.314511 0)
(0.581306 0.328497 0)
(0.559418 0.343519 0)
(0.536099 0.359631 0)
(0.511208 0.377035 0)
(0.484565 0.395886 0)
(0.456086 0.416449 0)
(0.425758 0.439064 0)
(0.393483 0.464085 0)
(0.358473 0.491789 0)
(0.319979 0.521988 0)
(0.277539 0.553371 0)
(0.228777 0.584462 0)
(0.173783 0.612001 0)
(0.109625 0.633795 0)
(0.0449532 0.646169 0)
(3 -2.95522e-11 0)
(3 2.97248e-11 0)
(3 7.8762e-11 0)
(3 2.93475e-10 0)
(3 1.00393e-10 0)
(3 2.76873e-09 0)
(3 -4.07051e-09 0)
(3 2.74223e-08 0)
(3 -8.91755e-08 0)
(3 1.33192e-07 0)
(2.99999 -8.16684e-07 0)
(2.99999 -5.33558e-07 0)
(2.99997 -5.94261e-06 0)
(2.99994 -9.15574e-06 0)
(2.99979 -4.24123e-05 0)
(2.99956 -0.000102261 0)
(2.99868 -0.000376429 0)
(2.99824 -0.000656616 0)
(2.99563 -0.00219613 0)
(2.9891 -0.00343784 0)
(2.99278 -0.0113239 0)
(2.8997 -0.0263224 0)
(2.78011 0.0320431 0)
(2.36425 0.0630585 0)
(1.17655 0.283683 0)
(0.71536 0.307752 0)
(0.70778 0.295951 0)
(0.733492 0.286533 0)
(0.738819 0.282193 0)
(0.720574 0.281407 0)
(0.689424 0.285329 0)
(0.660255 0.293489 0)
(0.64028 0.304502 0)
(0.624113 0.31763 0)
(0.607614 0.332339 0)
(0.589749 0.348441 0)
(0.570467 0.365774 0)
(0.549794 0.38431 0)
(0.527516 0.404212 0)
(0.503403 0.425717 0)
(0.477358 0.449132 0)
(0.449319 0.474897 0)
(0.419221 0.503502 0)
(0.386442 0.535211 0)
(0.349969 0.570696 0)
(0.309223 0.609127 0)
(0.261258 0.649056 0)
(0.204559 0.6877 0)
(0.134152 0.722382 0)
(0.057101 0.74744 0)
(3 -2.61697e-10 0)
(3 3.01317e-10 0)
(3 -3.2259e-10 0)
(3 2.70694e-09 0)
(3 -5.77144e-10 0)
(3 1.57821e-08 0)
(3 3.03696e-10 0)
(3 9.55421e-08 0)
(3 1.54094e-08 0)
(3 5.55003e-07 0)
(3 3.156e-07 0)
(2.99999 3.57913e-06 0)
(2.99998 1.81465e-06 0)
(2.99995 2.25602e-05 0)
(2.99991 1.49271e-05 0)
(2.9997 0.000141692 0)
(2.99951 0.000174234 0)
(2.99835 0.000948391 0)
(2.9967 0.000400338 0)
(2.99001 0.00255927 0)
(2.98288 0.00199844 0)
(2.91724 -0.00405817 0)
(2.8505 0.0284165 0)
(2.47211 0.0657249 0)
(1.29301 0.245171 0)
(0.768265 0.343345 0)
(0.723041 0.337306 0)
(0.74671 0.321574 0)
(0.752526 0.308725 0)
(0.734546 0.302102 0)
(0.703328 0.303663 0)
(0.672806 0.310691 0)
(0.651116 0.321018 0)
(0.634026 0.334081 0)
(0.61775 0.349619 0)
(0.601151 0.367291 0)
(0.583858 0.386732 0)
(0.565645 0.407763 0)
(0.546177 0.430338 0)
(0.525125 0.454744 0)
(0.502268 0.481401 0)
(0.477458 0.510473 0)
(0.450455 0.542911 0)
(0.421271 0.579661 0)
(0.389054 0.621493 0)
(0.352238 0.668622 0)
(0.307773 0.720382 0)
(0.252682 0.775747 0)
(0.17806 0.833311 0)
(0.0821219 0.889367 0)
(3 -2.25667e-10 0)
(3 2.20785e-10 0)
(3 -3.96923e-10 0)
(3 1.64661e-09 0)
(3 -1.3077e-09 0)
(3 6.60235e-09 0)
(3 -5.02842e-09 0)
(3 7.28425e-09 0)
(3 9.87678e-09 0)
(3 -6.52047e-08 0)
(3 1.69645e-07 0)
(2.99999 2.41356e-07 0)
(2.99999 1.27472e-06 0)
(2.99995 2.58133e-06 0)
(2.99992 9.05184e-06 0)
(2.99974 1.62208e-05 0)
(2.99956 7.3605e-05 0)
(2.99849 9.42614e-05 0)
(2.99743 0.000425133 0)
(2.99094 0.00109306 0)
(2.98578 0.00242274 0)
(2.93122 0.00419847 0)
(2.87567 0.027744 0)
(2.55406 0.0484957 0)
(1.48292 0.215559 0)
(0.87336 0.391913 0)
(0.738753 0.384804 0)
(0.754609 0.35597 0)
(0.76356 0.332446 0)
(0.751647 0.321999 0)
(0.724273 0.321994 0)
(0.693068 0.329747 0)
(0.669042 0.33973 0)
(0.650237 0.351999 0)
(0.63331 0.367276 0)
(0.617019 0.385492 0)
(0.60095 0.406275 0)
(0.584724 0.429228 0)
(0.567911 0.454312 0)
(0.550257 0.481408 0)
(0.531017 0.510952 0)
(0.510222 0.543678 0)
(0.488423 0.580523 0)
(0.464986 0.622798 0)
(0.439093 0.671407 0)
(0.409949 0.727993 0)
(0.375052 0.794465 0)
(0.330659 0.874283 0)
(0.264463 0.975706 0)
(0.141453 1.13436 0)
(3 5.03869e-11 0)
(3 9.72268e-11 0)
(3 3.84411e-10 0)
(3 6.14073e-10 0)
(3 2.49302e-09 0)
(3 4.06231e-09 0)
(3 1.46105e-08 0)
(3 2.2954e-08 0)
(3 7.64905e-08 0)
(3 1.49084e-07 0)
(3 3.84845e-07 0)
(2.99999 7.6655e-07 0)
(2.99999 2.13221e-06 0)
(2.99996 4.2411e-06 0)
(2.99993 1.39496e-05 0)
(2.99978 2.54761e-05 0)
(2.9996 8.93836e-05 0)
(2.9988 0.000134127 0)
(2.99793 0.000548596 0)
(2.99258 0.000908886 0)
(2.98656 0.00338993 0)
(2.9483 0.00374678 0)
(2.91156 0.0274504 0)
(2.64118 0.0525695 0)
(1.80285 0.215593 0)
(1.12521 0.462076 0)
(0.808544 0.45816 0)
(0.78942 0.411164 0)
(0.799318 0.372195 0)
(0.795191 0.355853 0)
(0.77301 0.351838 0)
(0.741542 0.357065 0)
(0.711479 0.366301 0)
(0.687935 0.377736 0)
(0.668159 0.392089 0)
(0.650283 0.409835 0)
(0.633779 0.430907 0)
(0.618657 0.454973 0)
(0.604262 0.481805 0)
(0.590118 0.511546 0)
(0.576705 0.544691 0)
(0.563672 0.581962 0)
(0.550659 0.623924 0)
(0.537807 0.671763 0)
(0.525715 0.727537 0)
(0.516028 0.794096 0)
(0.511575 0.875635 0)
(0.520174 0.97878 0)
(0.574574 1.11303 0)
(0.65025 1.30944 0)
(3 1.55703e-10 0)
(3 2.10028e-10 0)
(3 9.27233e-10 0)
(3 1.62552e-09 0)
(3 5.50067e-09 0)
(3 9.63539e-09 0)
(3 3.03431e-08 0)
(3 5.23999e-08 0)
(3 1.6795e-07 0)
(3 2.92464e-07 0)
(3 8.98676e-07 0)
(2.99999 1.49217e-06 0)
(2.99999 4.70937e-06 0)
(2.99997 7.92521e-06 0)
(2.99996 2.48324e-05 0)
(2.99985 4.17463e-05 0)
(2.99973 0.000127146 0)
(2.9992 0.000250112 0)
(2.99863 0.000773714 0)
(2.99535 0.00131003 0)
(2.99037 0.00524549 0)
(2.96703 0.00702183 0)
(2.95109 0.0271403 0)
(2.7556 0.0551529 0)
(2.26394 0.157768 0)
(1.51177 0.396248 0)
(0.907376 0.458844 0)
(0.845755 0.439594 0)
(0.870045 0.415994 0)
(0.882184 0.402426 0)
(0.861606 0.398911 0)
(0.8267 0.40105 0)
(0.789082 0.408253 0)
(0.755669 0.41743 0)
(0.72769 0.428554 0)
(0.703703 0.442929 0)
(0.682798 0.460985 0)
(0.664756 0.482794 0)
(0.649935 0.508513 0)
(0.638727 0.53899 0)
(0.630226 0.574078 0)
(0.623562 0.613643 0)
(0.619215 0.658296 0)
(0.618351 0.709027 0)
(0.62271 0.767797 0)
(0.635898 0.837064 0)
(0.664939 0.920081 0)
(0.720168 1.02059 0)
(0.842404 1.1384 0)
(1.00744 1.26557 0)
(3 1.11063e-10 0)
(3 1.5093e-10 0)
(3 6.99412e-10 0)
(3 1.08734e-09 0)
(3 4.0038e-09 0)
(3 6.27928e-09 0)
(3 2.2211e-08 0)
(3 3.50717e-08 0)
(3 1.19286e-07 0)
(3 1.87428e-07 0)
(3 6.39866e-07 0)
(3 9.48196e-07 0)
(3 3.29795e-06 0)
(2.99999 4.39803e-06 0)
(2.99999 1.688e-05 0)
(2.99995 2.43649e-05 0)
(2.99995 8.58727e-05 0)
(2.99988 0.000272854 0)
(2.9997 0.000859892 0)
(3.00001 0.00147546 0)
(2.99607 0.00493329 0)
(2.9844 0.00827989 0)
(2.98866 0.0233645 0)
(2.80765 0.0462636 0)
(2.48895 0.0889412 0)
(1.84864 0.234117 0)
(0.961931 0.408185 0)
(0.837096 0.437781 0)
(0.872446 0.447116 0)
(0.906099 0.446762 0)
(0.907435 0.4515 0)
(0.886455 0.457803 0)
(0.856016 0.465217 0)
(0.822725 0.472535 0)
(0.792629 0.48005 0)
(0.766149 0.48962 0)
(0.742289 0.502329 0)
(0.722072 0.519028 0)
(0.707152 0.540888 0)
(0.697224 0.56865 0)
(0.691237 0.601747 0)
(0.689563 0.640253 0)
(0.69278 0.684508 0)
(0.702393 0.734944 0)
(0.720897 0.792249 0)
(0.751992 0.85747 0)
(0.802581 0.93131 0)
(0.879626 1.01308 0)
(1.01015 1.0975 0)
(1.17385 1.16323 0)
(3 2.03851e-11 0)
(3 1.19714e-10 0)
(3 3.47725e-10 0)
(3 6.62147e-10 0)
(3 1.80373e-09 0)
(3 3.13918e-09 0)
(3 8.92516e-09 0)
(3 1.57476e-08 0)
(3 3.96509e-08 0)
(3 7.22344e-08 0)
(3 2.02521e-07 0)
(3 3.35363e-07 0)
(3 1.10703e-06 0)
(3 1.19773e-06 0)
(2.99999 3.66632e-06 0)
(2.99997 6.64528e-06 0)
(3.00015 1.45918e-05 0)
(3.00049 3.22206e-06 0)
(3.00063 -5.59185e-06 0)
(3.00212 1.6626e-05 0)
(3.0017 -0.000481597 0)
(2.99822 0.00109393 0)
(3.01144 0.00272855 0)
(2.84683 -0.00092126 0)
(2.65362 0.0632597 0)
(2.12978 0.151844 0)
(1.02733 0.410466 0)
(0.809141 0.457544 0)
(0.841465 0.475623 0)
(0.889491 0.483803 0)
(0.914081 0.494567 0)
(0.909205 0.505428 0)
(0.890766 0.514976 0)
(0.866199 0.523118 0)
(0.842386 0.530303 0)
(0.820563 0.53813 0)
(0.799841 0.547629 0)
(0.782072 0.560195 0)
(0.769451 0.577517 0)
(0.761359 0.600248 0)
(0.757368 0.628526 0)
(0.759051 0.662538 0)
(0.767625 0.702405 0)
(0.784471 0.748249 0)
(0.811973 0.799829 0)
(0.853381 0.85669 0)
(0.913344 0.917621 0)
(0.995576 0.979883 0)
(1.11631 1.03799 0)
(1.25758 1.07603 0)
(3 -1.70497e-11 0)
(3 3.13465e-11 0)
(3 1.31448e-11 0)
(3 1.86299e-10 0)
(3 4.60544e-11 0)
(3 7.6601e-10 0)
(3 -3.25333e-10 0)
(3 3.09125e-09 0)
(3 -2.55723e-09 0)
(3 1.57861e-08 0)
(3 -2.40961e-08 0)
(3 1.17949e-07 0)
(3 -3.54154e-08 0)
(3 9.57306e-07 0)
(3 3.49206e-08 0)
(2.99997 3.25544e-06 0)
(2.99995 3.77109e-06 0)
(2.99985 -0.000113295 0)
(2.99972 -0.000397044 0)
(2.99922 -0.000674487 0)
(2.99784 -0.00240089 0)
(2.9898 -0.00301106 0)
(2.98595 -0.00624852 0)
(2.89968 -0.018639 0)
(2.80748 0.0452417 0)
(2.3922 0.0948303 0)
(1.23647 0.380312 0)
(0.835874 0.47422 0)
(0.827662 0.493209 0)
(0.874889 0.505359 0)
(0.908178 0.517363 0)
(0.912339 0.531154 0)
(0.902892 0.543823 0)
(0.887365 0.555545 0)
(0.87253 0.565847 0)
(0.858909 0.575717 0)
(0.845247 0.585777 0)
(0.834128 0.597478 0)
(0.82724 0.612546 0)
(0.823484 0.631381 0)
(0.822919 0.654629 0)
(0.827629 0.682748 0)
(0.839501 0.715948 0)
(0.860212 0.75418 0)
(0.891785 0.797008 0)
(0.936652 0.843361 0)
(0.998227 0.891301 0)
(1.07802 0.937814 0)
(1.18504 0.978859 0)
(1.30483 1.00388 0)
(3 -2.49302e-11 0)
(3 -4.76104e-11 0)
(3 -1.80615e-10 0)
(3 -3.2599e-10 0)
(3 -9.86308e-10 0)
(3 -1.78657e-09 0)
(3 -5.14329e-09 0)
(3 -8.99764e-09 0)
(3 -2.62194e-08 0)
(3 -4.84642e-08 0)
(3 -1.33228e-07 0)
(3 -2.17836e-07 0)
(3 -7.0209e-07 0)
(3 -6.87011e-07 0)
(2.99999 -1.737e-06 0)
(2.99997 -2.48194e-06 0)
(2.99995 6.70078e-06 0)
(2.99982 9.11627e-06 0)
(2.99969 0.000213388 0)
(2.99878 0.000572414 0)
(2.9978 0.00121035 0)
(2.99185 0.00362325 0)
(2.98645 0.0093477 0)
(2.93391 0.0126102 0)
(2.88523 0.0796951 0)
(2.56407 0.0458776 0)
(1.54604 0.368795 0)
(0.990296 0.494288 0)
(0.865665 0.519038 0)
(0.890395 0.529214 0)
(0.918068 0.534598 0)
(0.92352 0.546131 0)
(0.916426 0.559136 0)
(0.90522 0.572926 0)
(0.895277 0.586192 0)
(0.887529 0.598704 0)
(0.880535 0.610987 0)
(0.876961 0.624111 0)
(0.876982 0.639389 0)
(0.878751 0.656759 0)
(0.882841 0.676849 0)
(0.891274 0.700229 0)
(0.905944 0.72718 0)
(0.928536 0.757709 0)
(0.960885 0.791392 0)
(1.0049 0.827289 0)
(1.06285 0.86369 0)
(1.1362 0.897876 0)
(1.2306 0.926978 0)
(1.33317 0.944797 0)
(3 1.67344e-11 0)
(3 7.44244e-12 0)
(3 7.7112e-11 0)
(3 3.15133e-11 0)
(3 3.50271e-10 0)
(3 5.05552e-11 0)
(3 1.56789e-09 0)
(3 -6.44085e-10 0)
(3 7.02815e-09 0)
(3 -5.20154e-09 0)
(3 3.49737e-08 0)
(3 -1.81999e-08 0)
(3 1.88141e-07 0)
(2.99999 -6.97608e-08 0)
(2.99999 1.34547e-06 0)
(2.99999 -6.44592e-08 0)
(2.99997 8.69382e-06 0)
(3.00019 1.5734e-06 0)
(3.00066 7.04368e-05 0)
(3.00088 4.77608e-05 0)
(3.00292 0.000564498 0)
(3.00333 0.000522732 0)
(3.00076 0.00393457 0)
(3.01378 0.0027686 0)
(2.85651 0.0365113 0)
(2.68836 0.0246268 0)
(2.17837 0.204847 0)
(1.12695 0.50349 0)
(0.905329 0.55703 0)
(0.900732 0.562019 0)
(0.924674 0.560354 0)
(0.938193 0.563796 0)
(0.934934 0.573038 0)
(0.926359 0.584753 0)
(0.9185 0.59822 0)
(0.913529 0.611774 0)
(0.911057 0.625758 0)
(0.91354 0.640818 0)
(0.919679 0.657112 0)
(0.926777 0.674451 0)
(0.935697 0.693152 0)
(0.948039 0.713592 0)
(0.965366 0.735952 0)
(0.989238 0.760257 0)
(1.02116 0.786299 0)
(1.06266 0.813397 0)
(1.11542 0.84038 0)
(1.18024 0.8654 0)
(1.26171 0.886144 0)
(1.35016 0.8988 0)
(3 8.13285e-12 0)
(3 -9.19153e-12 0)
(3 1.65092e-11 0)
(3 -6.39452e-11 0)
(3 1.139e-10 0)