/*--------------------------------*- C++ -*----------------------------------*\
| =========                 |                                                 |
| \\      /  F ield         | OpenFOAM: The Open Source CFD Toolbox           |
|  \\    /   O peration     | Version:  2412                                  |
|   \\  /    A nd           | Website:  www.openfoam.com                      |
|    \\/     M anipulation  |                                                 |
\*---------------------------------------------------------------------------*/
FoamFile
{
    version     2.0;
    format      ascii;
    arch        "LSB;label=32;scalar=64";
    class       volScalarField;
    location    "11.5";
    object      Ma;
}
// * * * * * * * * * * * * * * * * * * * * * * * * * * * * * * * * * * * * * //

dimensions      [0 0 0 0 0 0 0];

internalField   nonuniform List<scalar> 
7000
(
2.25283
0.987239
0.294917
0.337715
0.400254
0.440992
0.448879
0.444127
0.437392
0.43211
0.428864
0.426164
0.423109
0.419551
0.415611
0.411398
0.406917
0.402151
0.397096
0.391737
0.386061
0.380067
0.373748
0.367065
0.360027
0.352605
0.344765
0.336538
0.32781
0.318605
0.308953
0.298785
0.288096
0.276865
0.26505
0.252653
0.239645
0.225972
0.211599
0.196499
0.180456
0.163636
0.146314
0.128327
0.109695
0.0907504
0.0718415
0.0522302
0.0306381
0.0139274
2.25289
0.987326
0.29463
0.337451
0.400058
0.440859
0.448728
0.443977
0.437244
0.431967
0.428722
0.426021
0.422965
0.419403
0.415462
0.411246
0.406764
0.401998
0.396944
0.391586
0.385913
0.379924
0.37361
0.366931
0.359904
0.352487
0.344654
0.336438
0.32772
0.318525
0.308883
0.298725
0.288051
0.276838
0.265038
0.252655
0.239665
0.226017
0.211679
0.196629
0.180651
0.163911
0.146694
0.128843
0.110399
0.0917115
0.0731923
0.054327
0.0344574
0.0208783
2.25304
0.987561
0.294832
0.337524
0.400116
0.440913
0.448767
0.444018
0.437302
0.432044
0.428813
0.426123
0.423075
0.419523
0.415592
0.411387
0.406915
0.40216
0.397119
0.391775
0.386116
0.380144
0.373848
0.367188
0.360185
0.352792
0.344986
0.336802
0.328117
0.31896
0.309359
0.299245
0.288622
0.277469
0.265732
0.253417
0.240507
0.226952
0.212722
0.197807
0.18199
0.16544
0.148462
0.130927
0.112915
0.0948263
0.0771714
0.0597489
0.042634
0.0323708
2.25325
0.987959
0.295102
0.337566
0.400203
0.441052
0.448878
0.444135
0.437443
0.432214
0.429008
0.426336
0.423306
0.419772
0.41586
0.411675
0.407224
0.402491
0.397471
0.392153
0.386521
0.380579
0.374316
0.367692
0.360729
0.353381
0.345623
0.337492
0.328868
0.319776
0.310248
0.300214
0.289678
0.278624
0.266997
0.254803
0.242029
0.228627
0.214576
0.199874
0.184312
0.168059
0.151447
0.134383
0.116998
0.0997471
0.0832354
0.0675127
0.0530065
0.0449218
2.25356
0.988538
0.295464
0.337605
0.400303
0.441211
0.449005
0.444273
0.437616
0.432429
0.429257
0.426614
0.42361
0.420102
0.416218
0.412061
0.40764
0.402938
0.397953
0.39267
0.387079
0.38118
0.374966
0.368395
0.361492
0.35421
0.346524
0.338473
0.329937
0.320941
0.31152
0.301604
0.291199
0.280288
0.268821
0.256805
0.24423
0.231053
0.217256
0.20285
0.187636
0.17179
0.155673
0.139228
0.122632
0.106391
0.0911689
0.0771535
0.0648395
0.0582259
2.25397
0.989342
0.295776
0.337602
0.400426
0.441398
0.449147
0.444437
0.437833
0.4327
0.429574
0.426969
0.423999
0.420525
0.416677
0.412558
0.408177
0.403515
0.398574
0.39334
0.387801
0.38196
0.37581
0.369309
0.362484
0.355289
0.347698
0.339752
0.331336
0.322468
0.313187
0.30343
0.293199
0.282482
0.271228
0.259447
0.247136
0.234257
0.220801
0.206784
0.192015
0.176689
0.161192
0.145495
0.129822
0.114712
0.100841
0.0884507
0.0779314
0.0723808
2.2544
0.990408
0.296207
0.337707
0.400583
0.441565
0.449317
0.444649
0.43811
0.433039
0.429968
0.42741
0.424482
0.421051
0.417248
0.413176
0.408844
0.404234
0.399348
0.394175
0.388702
0.382933
0.376864
0.370453
0.363724
0.356641
0.34917
0.341356
0.333089
0.324381
0.315283
0.305725
0.29571
0.285237
0.274255
0.262774
0.250796
0.23829
0.225255
0.211725
0.197526
0.182829
0.168061
0.153228
0.138582
0.124671
0.112141
0.10122
0.0921807
0.0874493
2.25422
0.990913
0.296711
0.338081
0.400754
0.441681
0.449517
0.444912
0.438452
0.433453
0.430448
0.427945
0.425068
0.42169
0.417941
0.413927
0.409656
0.405109
0.40029
0.395191
0.3898
0.384118
0.378147
0.371848
0.365235
0.358287
0.350964
0.343312
0.335226
0.326716
0.317834
0.308523
0.29878
0.288597
0.27794
0.266827
0.255257
0.243208
0.230684
0.217728
0.204179
0.19022
0.176306
0.162443
0.148895
0.136213
0.124993
0.115419
0.107599
0.103528
2.25416
0.990936
0.298248
0.338139
0.400727
0.4418
0.449787
0.445251
0.438871
0.433956
0.431025
0.428585
0.425769
0.422454
0.41877
0.414824
0.410625
0.406154
0.401416
0.396405
0.391112
0.385535
0.379682
0.37351
0.367044
0.360254
0.353104
0.345647
0.337779
0.329506
0.320881
0.311858
0.302436
0.292609
0.282345
0.27166
0.26057
0.249058
0.237136
0.224855
0.212076
0.198943
0.185961
0.173159
0.160781
0.149343
0.139371
0.130995
0.124255
0.120714
2.25497
0.992379
0.299303
0.338316
0.400905
0.442093
0.450157
0.445675
0.439378
0.434556
0.431708
0.429341
0.426596
0.423353
0.419746
0.415881
0.411766
0.407385
0.402742
0.397835
0.392657
0.387204
0.381487
0.37547
0.369168
0.362567
0.355621
0.348391
0.340778
0.33278
0.324459
0.315776
0.306729
0.297316
0.287506
0.277324
0.266792
0.255903
0.244676
0.233165
0.221249
0.209076
0.197134
0.18546
0.174304
0.164127
0.155377
0.148135
0.142268
0.139246
2.25593
0.994022
0.300493
0.3385
0.401132
0.442477
0.450616
0.446188
0.439984
0.435265
0.43251
0.430224
0.427559
0.424402
0.420884
0.417112
0.413096
0.408818
0.404286
0.3995
0.394454
0.389144
0.383586
0.377745
0.371636
0.365253
0.358542
0.351572
0.344254
0.336575
0.328604
0.320311
0.311694
0.302759
0.293477
0.283871
0.273979
0.263798
0.253358
0.242727
0.231787
0.220647
0.209838
0.199381
0.189483
0.180585
0.173051
0.166887
0.16194
0.159306
2.25702
0.995915
0.301845
0.338673
0.401389
0.442933
0.451162
0.446796
0.440703
0.436096
0.43344
0.431245
0.428671
0.425613
0.422198
0.418532
0.41463
0.410472
0.406066
0.401418
0.396524
0.391377
0.386
0.380361
0.374472
0.368334
0.361893
0.35522
0.348236
0.34092
0.33335
0.325501
0.317375
0.308982
0.300298
0.291352
0.282184
0.272804
0.263248
0.253591
0.243757
0.233773
0.224202
0.215064
0.20653
0.198976
0.192695
0.187646
0.183462
0.181341
2.25827
0.998092
0.303379
0.33885
0.401673
0.443454
0.451796
0.447508
0.441543
0.437061
0.434512
0.432414
0.429946
0.426999
0.423703
0.42016
0.416385
0.412364
0.408102
0.403609
0.398886
0.393927
0.38875
0.383342
0.377698
0.37184
0.365701
0.359359
0.352758
0.345849
0.338725
0.33138
0.323806
0.316022
0.308012
0.299804
0.29145
0.282966
0.274399
0.265829
0.257217
0.248546
0.240317
0.232619
0.225533
0.219421
0.214488
0.210634
0.20744
0.205686
2.2597
1.00056
0.30511
0.339049
0.401994
0.444041
0.452526
0.448334
0.442521
0.43817
0.435735
0.433747
0.431396
0.428578
0.425416
0.422011
0.418382
0.414513
0.410413
0.406095
0.401563
0.396812
0.391863
0.386708
0.38134
0.375789
0.369994
0.364017
0.357836
0.35139
0.344762
0.337973
0.331019
0.323916
0.316654
0.309271
0.301824
0.294339
0.286872
0.279504
0.272261
0.265035
0.258293
0.252192
0.246776
0.242284
0.238892
0.236423
0.234254
0.233241
2.26128
1.00334
0.307049
0.33928
0.402364
0.444701
0.453368
0.449293
0.443649
0.439439
0.437122
0.435256
0.433039
0.430367
0.427358
0.424107
0.42064
0.41694
0.41302
0.408897
0.404575
0.400058
0.395357
0.390486
0.385418
0.380212
0.374789
0.36922
0.363501
0.357565
0.351489
0.345308
0.339034
0.332688
0.326255
0.319781
0.313333
0.306952
0.300707
0.294675
0.288941
0.283349
0.278299
0.274023
0.270495
0.268
0.266513
0.265824
0.265145
0.264788
2.26304
1.00641
0.309203
0.339556
0.402778
0.445447
0.45435
0.450411
0.444946
0.440879
0.438691
0.436962
0.434899
0.432391
0.429552
0.426473
0.42318
0.419669
0.415947
0.412034
0.407947
0.403682
0.399256
0.39469
0.389961
0.385115
0.380114
0.374984
0.369766
0.364394
0.35892
0.353405
0.347871
0.342348
0.336819
0.33135
0.326001
0.320837
0.315952
0.311404
0.30734
0.303583
0.300497
0.298346
0.297077
0.296855
0.297865
0.299673
0.301048
0.302375
2.26495
1.00977
0.311581
0.339857
0.403273
0.446323
0.455483
0.451696
0.446424
0.442511
0.440465
0.438892
0.437001
0.434676
0.432023
0.42913
0.426029
0.422722
0.419215
0.415535
0.411698
0.407713
0.403584
0.399349
0.394982
0.390541
0.385976
0.381337
0.37665
0.371887
0.36707
0.362276
0.357539
0.352912
0.348363
0.343987
0.339832
0.336003
0.332601
0.329696
0.327456
0.325862
0.324947
0.325345
0.326957
0.329925
0.334233
0.339734
0.344845
0.348522
2.26701
1.0134
0.314175
0.3402
0.403845
0.447343
0.456787
0.453181
0.448125
0.444377
0.44249
0.441094
0.439392
0.437261
0.434805
0.432111
0.429214
0.426121
0.422847
0.419417
0.415847
0.41216
0.408355
0.404473
0.400492
0.396478
0.392398
0.388265
0.384166
0.38004
0.375942
0.371904
0.368038
0.364349
0.360869
0.357666
0.354812
0.352421
0.350657
0.3496
0.349366
0.350108
0.35188
0.355301
0.360333
0.36735
0.376611
0.387744
0.399182
0.409778
2.2692
1.01729
0.316955
0.340577
0.404498
0.448534
0.458281
0.454894
0.450079
0.446514
0.444802
0.4436
0.4421
0.440175
0.437928
0.435445
0.432766
0.429907
0.426882
0.42372
0.42044
0.417067
0.413606
0.410101
0.406536
0.402965
0.399399
0.395819
0.392311
0.388883
0.385531
0.382321
0.379342
0.376661
0.37431
0.372346
0.370883
0.370065
0.369996
0.370864
0.372925
0.376362
0.381419
0.388418
0.397935
0.410477
0.426527
0.447272
0.471277
0.498442
2.27149
1.02138
0.319799
0.340953
0.405275
0.449928
0.460043
0.456931
0.452405
0.449041
0.447508
0.446494
0.445192
0.443466
0.441423
0.439152
0.436696
0.434075
0.43131
0.428428
0.425454
0.422411
0.419314
0.416199
0.413074
0.409974
0.406928
0.403942
0.40106
0.398328
0.395772
0.39342
0.391379
0.389749
0.388548
0.387896
0.387861
0.388625
0.390398
0.393457
0.398048
0.404367
0.412756
0.423962
0.438748
0.458311
0.484612
0.520685
0.571815
0.664461
2.27427
1.02635
0.323051
0.341398
0.406275
0.451778
0.462501
0.459819
0.455727
0.452636
0.451339
0.450578
0.449552
0.448112
0.446361
0.444399
0.442268
0.439993
0.437601
0.435122
0.432579
0.430004
0.427422
0.424863
0.422358
0.419921
0.417604
0.415438
0.413436
0.411687
0.41022
0.409051
0.408326
0.408131
0.408466
0.409521
0.411493
0.41459
0.419054
0.425012
0.432965
0.443323
0.456731
0.473878
0.496657
0.526863
0.568779
0.631334
0.730448
0.880296
2.27734
1.03184
0.327045
0.342443
0.408211
0.454986
0.466568
0.464362
0.460679
0.457713
0.45649
0.455855
0.45501
0.453778
0.452257
0.450551
0.448708
0.446751
0.444713
0.442617
0.440495
0.438375
0.436292
0.434278
0.43236
0.430574
0.428973
0.427584
0.426442
0.425643
0.425207
0.425175
0.425658
0.426718
0.428663
0.431549
0.435561
0.440679
0.447421
0.456027
0.467035
0.481081
0.498828
0.521688
0.550926
0.590368
0.643046
0.716704
0.829337
0.967167
2.27968
1.03608
0.330191
0.343489
0.410494
0.459057
0.471781
0.470171
0.466899
0.464004
0.462846
0.462358
0.461709
0.460695
0.459392
0.457927
0.456352
0.454696
0.452976
0.451239
0.449493
0.447795
0.44616
0.444645
0.443269
0.442076
0.441129
0.44044
0.44013
0.440185
0.440645
0.441605
0.443316
0.44588
0.44929
0.453783
0.459418
0.466663
0.475421
0.486555
0.50006
0.517348
0.538397
0.565027
0.598505
0.640794
0.696579
0.766338
0.86279
0.966676
2.28183
1.04004
0.334863
0.347271
0.415535
0.465879
0.479351
0.47769
0.474139
0.470926
0.469707
0.469342
0.468894
0.4681
0.467024
0.465819
0.464563
0.463259
0.461941
0.460597
0.459293
0.458024
0.456887
0.455863
0.455039
0.454398
0.454066
0.454016
0.454339
0.455036
0.456312
0.458341
0.461105
0.464702
0.469209
0.4749
0.481916
0.490556
0.501192
0.513916
0.52963
0.548378
0.571909
0.599781
0.634882
0.676391
0.728385
0.789878
0.867607
0.948286
2.27937
1.03562
0.338286
0.357535
0.42832
0.481087
0.494886
0.492279
0.487554
0.483447
0.481833
0.481286
0.480726
0.479841
0.478698
0.47748
0.476266
0.47506
0.473874
0.472711
0.471614
0.47061
0.469752
0.469071
0.468614
0.468424
0.46852
0.468936
0.46976
0.471219
0.473322
0.476081
0.479566
0.483945
0.489362
0.495882
0.503919
0.513401
0.525103
0.538699
0.555437
0.574739
0.598507
0.626164
0.659769
0.699126
0.745594
0.799726
0.86306
0.927214
2.28674
1.0309
0.365179
0.383925
0.45076
0.501641
0.514004
0.510436
0.504898
0.500539
0.498791
0.498025
0.497243
0.496199
0.49499
0.493749
0.492534
0.491348
0.490196
0.489085
0.488049
0.487125
0.486342
0.485767
0.485414
0.485308
0.485467
0.486102
0.487337
0.489087
0.491539
0.494604
0.498604
0.503409
0.50947
0.516571
0.52524
0.535332
0.547489
0.561617
0.57841
0.597814
0.620623
0.647081
0.677875
0.713641
0.754555
0.801289
0.854296
0.907547
1.87883
0.776582
0.279827
0.345138
0.416973
0.442844
0.444216
0.440681
0.437212
0.437119
0.439194
0.441918
0.444704
0.447455
0.450272
0.453124
0.456087
0.459014
0.461999
0.464906
0.467854
0.470739
0.473718
0.476592
0.479605
0.482556
0.485863
0.489248
0.492964
0.496897
0.501314
0.506151
0.511685
0.517917
0.525083
0.533293
0.542763
0.553623
0.566254
0.580695
0.597482
0.616586
0.638546
0.663521
0.691837
0.723963
0.75996
0.800102
0.844885
0.889363
1.87132
0.776547
0.290311
0.357283
0.427623
0.448604
0.445521
0.439043
0.433297
0.431177
0.430946
0.431199
0.431608
0.432235
0.433246
0.434616
0.436432
0.438568
0.441145
0.444023
0.447304
0.450884
0.454823
0.459124
0.46378
0.468745
0.474063
0.4798
0.485878
0.49239
0.499258
0.50667
0.514484
0.523021
0.532166
0.542166
0.553175
0.565261
0.57879
0.593785
0.610703
0.629564
0.650705
0.674307
0.700547
0.72967
0.761775
0.796801
0.835037
0.872564
1.87103
0.776235
0.294258
0.368022
0.443409
0.464984
0.460341
0.452
0.44483
0.441752
0.440647
0.439899
0.439134
0.438477
0.438069
0.437984
0.438198
0.438776
0.439692
0.44102
0.442777
0.445071
0.447844
0.451244
0.455153
0.459817
0.46501
0.471004
0.477539
0.484883
0.492817
0.501467
0.510797
0.520843
0.531705
0.543307
0.555865
0.569314
0.584016
0.599848
0.617206
0.636124
0.656816
0.679458
0.704029
0.730831
0.759726
0.790811
0.824129
0.856362
1.87247
0.780021
0.301245
0.370895
0.443792
0.466012
0.462517
0.455046
0.448358
0.445726
0.445081
0.444777
0.444396
0.444056
0.443878
0.443889
0.444073
0.444474
0.445104
0.446028
0.447211
0.448767
0.450686
0.453133
0.456053
0.459678
0.463886
0.468942
0.474692
0.481357
0.48889
0.497369
0.506801
0.517098
0.528415
0.540585
0.553831
0.567982
0.583307
0.599722
0.617295
0.636291
0.65654
0.678489
0.701842
0.726948
0.753455
0.781556
0.811249
0.839827
1.87502
0.786398
0.309501
0.364622
0.428283
0.451483
0.451154
0.44563
0.440258
0.438391
0.438393
0.438889
0.439399
0.439996
0.440743
0.441628
0.442667
0.443916
0.445329
0.446915
0.44868
0.450702
0.452984
0.455621
0.458616
0.462117
0.466084
0.470725
0.475963
0.481992
0.488855
0.496617
0.50539
0.51513
0.525959
0.537803
0.550769
0.564792
0.579863
0.596139
0.613415
0.631991
0.651624
0.672599
0.694778
0.718299
0.742997
0.768741
0.795782
0.821552
1.88377
0.793745
0.3137
0.352075
0.410565
0.441956
0.446835
0.442844
0.438107
0.435808
0.435553
0.436108
0.436801
0.437647
0.438604
0.439685
0.440936
0.4424
0.444078
0.445973
0.44809
0.450474
0.453131
0.456121
0.459443
0.463192
0.467367
0.472072
0.477322
0.483185
0.489775
0.49713
0.505351
0.514491
0.524635
0.535818
0.548031
0.561412
0.575795
0.591385
0.608001
0.625773
0.644597
0.664515
0.685485
0.707456
0.7304
0.754179
0.778943
0.802513
2.27642
1.13177
0.427468
0.405915
0.463916
0.513343
0.525299
0.520495
0.513506
0.507051
0.503111
0.500334
0.497919
0.495683
0.493401
0.491174
0.489134
0.487358
0.485882
0.484718
0.483878
0.483417
0.483356
0.483756
0.48464
0.486045
0.488052
0.490679
0.494016
0.498053
0.502875
0.508543
0.515038
0.522511
0.530924
0.540426
0.550967
0.562681
0.57546
0.589417
0.604525
0.620737
0.638083
0.656442
0.675821
0.696103
0.717214
0.739067
0.761723
0.783284
2.28853
1.15932
0.413834
0.38295
0.45498
0.517571
0.537416
0.537035
0.53276
0.528799
0.527116
0.526484
0.526158
0.525792
0.52502
0.524014
0.522942
0.52191
0.520936
0.520022
0.519222
0.518557
0.518082
0.517839
0.517877
0.518257
0.519062
0.520318
0.522186
0.524625
0.527801
0.531717
0.536521
0.542164
0.548726
0.556226
0.564693
0.574187
0.584775
0.596395
0.609163
0.623007
0.63799
0.654046
0.671113
0.689148
0.708035
0.727633
0.748001
0.767402
2.31237
1.20965
0.457314
0.389892
0.452062
0.509981
0.529872
0.531485
0.529837
0.528733
0.529216
0.530446
0.532187
0.533865
0.535114
0.53607
0.536922
0.537749
0.538557
0.53936
0.540162
0.540982
0.541847
0.542792
0.543857
0.545071
0.546471
0.548098
0.550029
0.552321
0.555054
0.558219
0.562043
0.56654
0.571812
0.577815
0.584685
0.592448
0.601199
0.61093
0.621685
0.633437
0.646163
0.659835
0.674424
0.689865
0.706138
0.723184
0.741065
0.758133
1.90393
0.810527
0.317477
0.3169
0.373964
0.416099
0.431951
0.437207
0.44118
0.445813
0.451604
0.458051
0.46501
0.471866
0.478227
0.484281
0.490167
0.495954
0.501619
0.507169
0.512592
0.517904
0.523115
0.528256
0.533338
0.538345
0.543332
0.548328
0.5533
0.55831
0.563479
0.568765
0.574202
0.579927
0.586051
0.59265
0.599772
0.607456
0.615787
0.624822
0.634534
0.645053
0.656288
0.668385
0.681199
0.694867
0.709167
0.724168
0.739823
0.754817
2.32223
1.2287
0.474753
0.39366
0.44519
0.497422
0.515309
0.515738
0.512483
0.509909
0.508534
0.508285
0.508681
0.509042
0.509346
0.509859
0.510708
0.511964
0.513638
0.515695
0.51818
0.521078
0.524365
0.528113
0.532231
0.53675
0.54158
0.546794
0.552286
0.558063
0.564104
0.570524
0.577148
0.58406
0.591167
0.598636
0.606471
0.614749
0.623454
0.632671
0.642345
0.652593
0.663356
0.674724
0.686651
0.699193
0.712296
0.725956
0.740119
0.753659
2.32907
1.24211
0.458234
0.374584
0.442704
0.507262
0.530425
0.53247
0.530232
0.528658
0.528633
0.529599
0.531126
0.532382
0.533137
0.533708
0.534258
0.534919
0.535749
0.53679
0.53808
0.539664
0.541536
0.54378
0.546381
0.549409
0.552852
0.556759
0.561099
0.565906
0.571122
0.57685
0.583
0.589617
0.596672
0.604141
0.612018
0.620291
0.62895
0.638045
0.647566
0.657544
0.667976
0.678887
0.69025
0.702089
0.714376
0.727087
0.740252
0.752772
2.3316
1.24749
0.461794
0.376331
0.445931
0.51249
0.536987
0.539546
0.537449
0.536033
0.536392
0.537743
0.539833
0.541837
0.543342
0.544618
0.545882
0.547209
0.548655
0.550215
0.55191
0.553775
0.555812
0.558067
0.56056
0.563325
0.566403
0.569815
0.573568
0.577721
0.582234
0.587219
0.592619
0.598491
0.604833
0.611635
0.618896
0.626638
0.634844
0.643513
0.652641
0.662212
0.672221
0.682645
0.693476
0.704688
0.716248
0.72815
0.740462
0.752196
2.33339
1.25438
0.489597
0.395564
0.452045
0.512056
0.537013
0.541559
0.541066
0.540845
0.54169
0.543494
0.54593
0.548187
0.550136
0.551909
0.55369
0.555523
0.557466
0.559519
0.561692
0.56401
0.566478
0.569106
0.571914
0.574908
0.578135
0.581613
0.585351
0.589405
0.593715
0.598369
0.60341
0.608811
0.614609
0.620838
0.627474
0.634565
0.642087
0.650055
0.658467
0.667312
0.676587
0.686278
0.696369
0.706844
0.717677
0.72885
0.74041
0.751441
1.9062
0.816362
0.334264
0.323175
0.374539
0.412755
0.42681
0.431399
0.435125
0.439828
0.445852
0.452771
0.460392
0.468115
0.475565
0.482822
0.489994
0.497088
0.504081
0.510973
0.517729
0.524419
0.531044
0.537593
0.544114
0.550587
0.557041
0.563525
0.569996
0.576538
0.583123
0.589754
0.5965
0.603374
0.610423
0.617695
0.625169
0.632918
0.640916
0.649206
0.657786
0.666687
0.67589
0.685428
0.695271
0.705444
0.715905
0.726656
0.737738
0.748294
2.32838
1.24505
0.4908
0.411474
0.472611
0.53549
0.559136
0.561126
0.556966
0.55277
0.54978
0.547607
0.546297
0.545322
0.544123
0.543014
0.542181
0.541862
0.541938
0.542602
0.543678
0.545239
0.547352
0.549944
0.553039
0.556607
0.560609
0.565083
0.569978
0.57528
0.580999
0.587028
0.593355
0.59998
0.606836
0.613976
0.621376
0.62903
0.636984
0.645202
0.653717
0.662516
0.671601
0.680983
0.690653
0.700613
0.710841
0.721317
0.732097
0.742339
2.3105
1.2035
0.486099
0.432689
0.493878
0.556081
0.578291
0.579453
0.575903
0.572451
0.571322
0.571251
0.571853
0.572609
0.572936
0.572987
0.573013
0.573153
0.573367
0.573668
0.574123
0.574767
0.575663
0.576868
0.578426
0.580353
0.582628
0.585309
0.588388
0.591854
0.595745
0.60006
0.604763
0.609888
0.615378
0.621246
0.627479
0.63407
0.641019
0.648318
0.65595
0.66392
0.672212
0.680817
0.689736
0.698956
0.708478
0.718269
0.728387
0.738042
1.88956
0.810575
0.357008
0.358721
0.40904
0.446578
0.456516
0.456713
0.456215
0.457755
0.462052
0.467817
0.474493
0.481645
0.488659
0.495364
0.501959
0.508552
0.515045
0.521426
0.527675
0.533778
0.539757
0.545621
0.551382
0.557115
0.56283
0.568548
0.574284
0.580043
0.585854
0.591767
0.597801
0.603996
0.610366
0.61692
0.623664
0.630622
0.637781
0.645174
0.652788
0.66066
0.668776
0.677165
0.685798
0.694703
0.703849
0.713258
0.722947
0.732185
1.87552
0.801788
0.357834
0.361014
0.400121
0.427991
0.434961
0.434067
0.432493
0.431938
0.433295
0.4358
0.439567
0.443979
0.448527
0.453284
0.458418
0.464056
0.470098
0.47654
0.483259
0.490153
0.497185
0.504325
0.511586
0.518991
0.526528
0.534065
0.541668
0.549216
0.556811
0.564397
0.572023
0.579727
0.58746
0.595304
0.603221
0.611209
0.619307
0.627522
0.635855
0.644352
0.653005
0.661834
0.670853
0.680039
0.689428
0.698978
0.708782
0.718105
1.88966
0.81242
0.361304
0.378281
0.431998
0.470538
0.478593
0.474318
0.468298
0.464219
0.46273
0.462416
0.463001
0.464147
0.465332
0.466596
0.468166
0.470154
0.472631
0.475626
0.479097
0.482999
0.487279
0.491939
0.497055
0.502626
0.508579
0.514868
0.521387
0.528216
0.535243
0.542539
0.550028
0.557705
0.565574
0.573532
0.581619
0.589801
0.598066
0.606485
0.615038
0.623748
0.632641
0.641679
0.650889
0.660255
0.669785
0.679489
0.689403
0.698834
2.35719
1.15384
0.494539
0.460188
0.524059
0.587193
0.609525
0.610282
0.605604
0.600226
0.596785
0.594183
0.591613
0.589203
0.586643
0.58374
0.580719
0.577757
0.574976
0.572454
0.570178
0.568177
0.566526
0.565257
0.564415
0.564138
0.56438
0.565321
0.566676
0.56866
0.571113
0.574137
0.577665
0.581677
0.586209
0.591128
0.596448
0.602152
0.608154
0.614507
0.621197
0.628171
0.635485
0.643076
0.650951
0.659104
0.667495
0.67614
0.685051
0.693558
1.89325
0.812365
0.359255
0.366864
0.417464
0.457433
0.470444
0.472333
0.472568
0.473196
0.476229
0.480547
0.485492
0.49106
0.4968
0.502425
0.507978
0.513483
0.518935
0.524255
0.529384
0.534366
0.539146
0.543818
0.548313
0.552784
0.557176
0.561616
0.566069
0.570513
0.575017
0.579606
0.584266
0.589159
0.594205
0.599446
0.60497
0.610597
0.616507
0.622583
0.628829
0.635371
0.642092
0.649141
0.656404
0.66391
0.671693
0.679614
0.687863
0.695681
1.89137
0.811169
0.360596
0.368541
0.417754
0.455409
0.46581
0.465255
0.462676
0.460337
0.46018
0.461353
0.463153
0.465701
0.468722
0.471937
0.475477
0.479459
0.483868
0.488656
0.493715
0.499064
0.504574
0.510303
0.516116
0.522111
0.528199
0.534365
0.540596
0.54684
0.553091
0.559416
0.565679
0.572123
0.578549
0.585083
0.59176
0.598392
0.605206
0.612026
0.618969
0.626036
0.633211
0.640585
0.648025
0.655667
0.663457
0.671373
0.67957
0.687345
2.35871
1.15583
0.498683
0.463633
0.528046
0.593557
0.617961
0.619444
0.615202
0.610217
0.607242
0.605456
0.603716
0.602102
0.600386
0.598291
0.595988
0.593669
0.591418
0.589342
0.58746
0.585924
0.584652
0.583756
0.583305
0.583221
0.583719
0.584725
0.58616
0.588196
0.590579
0.593492
0.596735
0.60039
0.604423
0.60876
0.613488
0.618469
0.623744
0.629258
0.635016
0.640987
0.647187
0.653617
0.660239
0.667085
0.674133
0.681364
0.688844
0.696015
1.87305
0.800843
0.363165
0.386191
0.441096
0.481929
0.493725
0.492907
0.49009
0.48877
0.49047
0.493655
0.497545
0.502024
0.506853
0.511763
0.516675
0.52161
0.526568
0.53151
0.536406
0.54124
0.546051
0.550752
0.555429
0.560048
0.5646
0.56924
0.573807
0.578535
0.583269
0.588097
0.593054
0.598043
0.6032
0.608457
0.613825
0.619389
0.625054
0.630875
0.6369
0.642994
0.649308
0.655751
0.662347
0.669154
0.676096
0.683267
0.690617
0.697685
1.84572
0.779302
0.35218
0.380785
0.42749
0.458467
0.468079
0.468703
0.467448
0.466718
0.467215
0.468218
0.469852
0.472217
0.475029
0.478185
0.481602
0.485253
0.489198
0.493437
0.497995
0.502848
0.507981
0.513365
0.518952
0.524651
0.530437
0.536339
0.542253
0.548284
0.554354
0.560455
0.566632
0.572787
0.578982
0.585234
0.591471
0.597848
0.604223
0.610744
0.617323
0.624013
0.630787
0.637608
0.644625
0.651645
0.658888
0.666278
0.673784
0.681063
1.83929
0.773782
0.349767
0.376962
0.422181
0.453094
0.463438
0.464924
0.464074
0.463116
0.463036
0.46336
0.464322
0.465973
0.468041
0.47039
0.472754
0.475171
0.477771
0.480634
0.483853
0.48744
0.491489
0.495956
0.500695
0.505683
0.510904
0.516325
0.521946
0.527773
0.533757
0.5399
0.546096
0.552427
0.558725
0.565142
0.571529
0.578055
0.584664
0.591339
0.598162
0.604989
0.611953
0.618938
0.626029
0.633158
0.640365
0.647638
0.655071
0.66213
1.86297
0.792384
0.359563
0.364671
0.413313
0.451685
0.464514
0.46619
0.465286
0.464
0.463596
0.463719
0.464562
0.46606
0.467944
0.469983
0.471975
0.474037
0.476271
0.478738
0.481475
0.484566
0.488082
0.491921
0.49603
0.500402
0.505042
0.509937
0.515065
0.520442
0.526019
0.531817
0.537707
0.543776
0.549882
0.556126
0.562405
0.568787
0.575333
0.581889
0.588638
0.595386
0.602259
0.609211
0.61617
0.62326
0.630279
0.637317
0.644492
0.651185
2.32692
1.23565
0.51227
0.443568
0.50125
0.565996
0.594724
0.599831
0.597811
0.595459
0.594244
0.594031
0.594263
0.594823
0.595216
0.595147
0.594837
0.594411
0.593944
0.593446
0.592954
0.592608
0.592401
0.592437
0.592699
0.593319
0.59414
0.595393
0.596901
0.59888
0.601147
0.603832
0.606846
0.61013
0.613819
0.61766
0.621874
0.626278
0.63092
0.635899
0.640949
0.646314
0.651797
0.657368
0.663247
0.669122
0.675206
0.681416
0.687652
0.693671
2.34112
1.2695
0.494344
0.413956
0.488016
0.566079
0.601074
0.6083
0.607389
0.605318
0.604546
0.604984
0.605796
0.607186
0.60862
0.609606
0.610374
0.611184
0.612118
0.613213
0.614431
0.615819
0.617319
0.619018
0.620836
0.622866
0.625019
0.627411
0.629993
0.632813
0.635893
0.639156
0.642685
0.646354
0.650208
0.654248
0.658368
0.662746
0.667194
0.671874
0.676698
0.681659
0.686803
0.692039
0.697439
0.702972
0.708651
0.714455
0.720437
0.726132
2.32954
1.24316
0.515369
0.444103
0.50234
0.568252
0.598691
0.605267
0.604588
0.602946
0.602406
0.602916
0.604017
0.605732
0.607433
0.608773
0.609986
0.611278
0.612705
0.614291
0.616032
0.617956
0.620051
0.622342
0.624809
0.627488
0.630353
0.633441
0.636731
0.640235
0.643926
0.647805
0.651803
0.655972
0.660174
0.664574
0.668975
0.673565
0.67822
0.682977
0.687901
0.692848
0.69798
0.703186
0.708504
0.714017
0.719621
0.72544
0.731413
0.73714
1.88634
0.813093
0.374333
0.369873
0.419989
0.461603
0.475022
0.475631
0.474126
0.472803
0.473436
0.475125
0.4777
0.480959
0.484089
0.487043
0.490136
0.493523
0.497264
0.501426
0.506001
0.510908
0.516087
0.52148
0.527056
0.532787
0.538621
0.544577
0.550655
0.556818
0.563024
0.569247
0.575442
0.581647
0.587797
0.593986
0.600083
0.606253
0.612394
0.618563
0.624774
0.630942
0.637208
0.643475
0.649847
0.656396
0.663058
0.670024
0.677201
0.684139
1.8691
0.801694
0.374046
0.387843
0.43253
0.464959
0.47343
0.472143
0.470148
0.468978
0.468907
0.469773
0.471259
0.473011
0.474658
0.476019
0.477331
0.478749
0.480378
0.48236
0.484811
0.487668
0.490879
0.494428
0.498316
0.502556
0.50712
0.512004
0.517258
0.522811
0.528589
0.53454
0.540631
0.546841
0.55313
0.559469
0.565833
0.572295
0.578838
0.585404
0.592032
0.598469
0.605055
0.611534
0.618172
0.624984
0.631826
0.639053
0.64622
0.65325
1.86915
0.803427
0.37608
0.402947
0.454035
0.489431
0.498329
0.495918
0.492
0.489796
0.489225
0.489568
0.490665
0.491961
0.493132
0.494388
0.495579
0.496757
0.498012
0.499393
0.501025
0.503013
0.505361
0.508046
0.51106
0.514396
0.518059
0.522048
0.526349
0.530999
0.535961
0.541189
0.546644
0.55229
0.558088
0.564018
0.570043
0.576181
0.582443
0.588774
0.595268
0.601587
0.608062
0.614394
0.620786
0.627302
0.633745
0.640559
0.647225
0.653759
1.18938
1.04888
0.503681
0.183346
0.0175795
0.0893887
0.135105
0.186179
0.213769
0.221396
0.213666
0.201682
0.191281
0.181698
0.17188
0.159552
0.144654
0.126886
0.106763
0.0849572
0.0620856
0.0388364
0.0188672
0.0190525
0.0424449
0.0664095
0.0907
0.11462
0.138212
0.161466
0.184366
0.206887
0.228985
0.25063
0.271381
0.291125
0.31063
0.330797
0.351134
0.370778
0.3897
0.407989
0.425725
0.44287
0.459508
0.475597
0.491189
0.506297
0.520868
0.534953
0.548534
0.561575
0.574095
0.586085
0.59751
0.608377
0.618662
0.628324
0.637357
0.645727
0.653403
0.660353
0.666602
0.672127
0.676896
0.68095
0.684365
0.687052
0.689218
0.690656
0.691744
0.692304
0.69264
0.69276
0.692916
0.692555
0.691645
0.690511
0.689594
0.688871
0.688385
0.688199
0.688196
0.688513
0.689112
0.689925
0.690981
0.692234
0.693622
0.695068
0.696685
0.698595
0.70086
0.703089
0.705381
0.707513
0.709743
0.711656
0.713615
0.717943
1.11926
1.03475
0.80916
0.560329
0.506192
0.440484
0.391951
0.354156
0.324856
0.305932
0.280088
0.25031
0.228336
0.218984
0.221164
0.228853
0.239042
0.251287
0.26496
0.27966
0.295032
0.310763
0.326446
0.342116
0.358472
0.375352
0.392563
0.4099
0.427248
0.444583
0.461873
0.479116
0.496176
0.513078
0.529537
0.545259
0.560674
0.576686
0.593312
0.609463
0.625029
0.64002
0.654604
0.66881
0.6826
0.696044
0.709004
0.721584
0.733703
0.745414
0.75672
0.767632
0.778103
0.788176
0.797737
0.806794
0.815323
0.823258
0.830675
0.837357
0.843516
0.848892
0.853558
0.857532
0.860698
0.863171
0.86498
0.866149
0.86672
0.866797
0.86643
0.865782
0.864973
0.864123
0.863279
0.862133
0.860418
0.858607
0.857038
0.855678
0.854599
0.853632
0.853109
0.852745
0.852836
0.853098
0.853823
0.854817
0.855988
0.8576
0.859152
0.861485
0.863676
0.866507
0.868989
0.872072
0.874489
0.877488
0.87944
0.884779
1.07311
1.07438
1.00821
0.904012
0.8334
0.78452
0.750074
0.721499
0.698058
0.680146
0.66721
0.653739
0.643208
0.637641
0.635616
0.635376
0.635997
0.637064
0.638735
0.64116
0.64448
0.648599
0.653377
0.65878
0.665109
0.672228
0.6801
0.688554
0.697574
0.70705
0.716877
0.72712
0.737722
0.748528
0.759195
0.769778
0.780435
0.791472
0.80311
0.814915
0.826431
0.837711
0.848772
0.859723
0.870549
0.88126
0.891833
0.902216
0.91243
0.92241
0.932157
0.941648
0.950819
0.959711
0.968255
0.976394
0.984193
0.991508
0.998315
1.00469
1.01045
1.01568
1.02033
1.0243
1.0277
1.03037
1.03234
1.03377
1.03459
1.03492
1.03465
1.03403
1.03312
1.03209
1.03083
1.02912
1.02691
1.02442
1.02202
1.01976
1.01764
1.01567
1.01385
1.01215
1.01061