/*--------------------------------*- C++ -*----------------------------------*\
| =========                 |                                                 |
| \\      /  F ield         | OpenFOAM: The Open Source CFD Toolbox           |
|  \\    /   O peration     | Version:  2412                                  |
|   \\  /    A nd           | Website:  www.openfoam.com                      |
|    \\/     M anipulation  |                                                 |
\*---------------------------------------------------------------------------*/
FoamFile
{
    version     2.0;
    format      ascii;
    arch        "LSB;label=32;scalar=64";
    class       volScalarField;
    location    "11.5";
    object      p;
}
// * * * * * * * * * * * * * * * * * * * * * * * * * * * * * * * * * * * * * //

dimensions      [1 -1 -2 0 0 0 0];

internalField   nonuniform List<scalar> 
7000
(
1.63617
3.79654
11.5577
11.5592
11.1251
10.7209
10.6051
10.6205
10.663
10.704
10.7277
10.744
10.7616
10.7829
10.8073
10.8339
10.8622
10.892
10.9235
10.9563
10.9904
11.0257
11.0621
11.0997
11.1382
11.1778
11.2184
11.26
11.3025
11.3458
11.39
11.435
11.4809
11.5276
11.5752
11.6237
11.6728
11.7225
11.7725
11.8221
11.8702
11.9174
11.9628
12.0049
12.0436
12.0781
12.1075
12.1302
12.1464
12.1582
1.63643
3.79538
11.5571
11.5586
11.1246
10.7204
10.6047
10.6201
10.6624
10.7034
10.727
10.7433
10.7609
10.7822
10.8066
10.8331
10.8614
10.8912
10.9226
10.9554
10.9895
11.0248
11.0612
11.0987
11.1373
11.1768
11.2174
11.2589
11.3014
11.3447
11.3889
11.4338
11.4797
11.5264
11.574
11.6224
11.6716
11.7213
11.7713
11.8209
11.869
11.9163
11.9617
12.004
12.0427
12.0774
12.1069
12.1298
12.146
12.1579
1.63631
3.79436
11.5548
11.5577
11.1238
10.7195
10.6038
10.6191
10.6613
10.7022
10.7257
10.7419
10.7594
10.7807
10.805
10.8315
10.8597
10.8895
10.9208
10.9535
10.9876
11.0228
11.0591
11.0965
11.1349
11.1744
11.2149
11.2563
11.2986
11.3418
11.3859
11.4307
11.4764
11.523
11.5705
11.6188
11.6679
11.7174
11.7673
11.8168
11.8649
11.9121
11.9574
11.9996
12.0383
12.0729
12.1024
12.1253
12.1415
12.1537
1.63613
3.79296
11.551
11.5566
11.1227
10.7181
10.6022
10.6175
10.6595
10.7002
10.7236
10.7396
10.7571
10.7783
10.8025
10.8289
10.857
10.8867
10.9179
10.9505
10.9844
11.0195
11.0557
11.093
11.1313
11.1706
11.2109
11.2521
11.2943
11.3373
11.3811
11.4258
11.4713
11.5176
11.5649
11.613
11.6618
11.7112
11.7608
11.8101
11.858
11.905
11.9502
11.9922
12.0308
12.0653
12.0948
12.1178
12.134
12.1463
1.63592
3.79083
11.5454
11.5551
11.1213
10.7159
10.6
10.6151
10.657
10.6974
10.7206
10.7365
10.7539
10.7749
10.799
10.8252
10.8532
10.8827
10.9138
10.9463
10.98
11.0149
11.0509
11.088
11.126
11.1651
11.2052
11.2462
11.288
11.3307
11.3743
11.4186
11.4638
11.5099
11.5568
11.6046
11.6531
11.7021
11.7514
11.8004
11.848
11.8948
11.9397
11.9815
12.02
12.0544
12.0838
12.1069
12.1231
12.1357
1.63573
3.7877
11.5377
11.5531
11.1196
10.7131
10.597
10.612
10.6536
10.6937
10.7166
10.7324
10.7496
10.7704
10.7944
10.8204
10.8482
10.8775
10.9084
10.9406
10.9741
11.0088
11.0445
11.0813
11.1191
11.1579
11.1976
11.2382
11.2797
11.322
11.3652
11.4091
11.4539
11.4995
11.546
11.5933
11.6413
11.6899
11.7387
11.7872
11.8344
11.8809
11.9254
11.967
12.0052
12.0395
12.0688
12.092
12.1083
12.1211
1.63587
3.78241
11.5271
11.5505
11.1176
10.7097
10.5933
10.6081
10.6493
10.6891
10.7117
10.7272
10.7441
10.7648
10.7885
10.8143
10.8418
10.8709
10.9015
10.9335
10.9667
11.0011
11.0365
11.0729
11.1103
11.1487
11.188
11.2282
11.2692
11.311
11.3536
11.397
11.4412
11.4863
11.5321
11.5788
11.6262
11.6741
11.7223
11.7702
11.8169
11.8628
11.9069
11.9481
11.986
12.02
12.0493
12.0726
12.0889
12.102
1.63745
3.77597
11.5152
11.5483
11.1153
10.7061
10.5888
10.6033
10.644
10.6834
10.7056
10.7208
10.7375
10.7579
10.7814
10.8069
10.8341
10.8628
10.8931
10.9247
10.9576
10.9915
11.0266
11.0625
11.0995
11.1374
11.1761
11.2157
11.2561
11.2973
11.3393
11.382
11.4255
11.4698
11.5149
11.5608
11.6074
11.6545
11.7018
11.7489
11.7949
11.8401
11.8835
11.9242
11.9617
11.9954
12.0245
12.0478
12.0641
12.0775
1.64
3.77097
11.4937
11.5426
11.1104
10.7014
10.5831
10.5974
10.6376
10.6765
10.6984
10.7132
10.7296
10.7497
10.7728
10.7979
10.8247
10.8531
10.883
10.9142
10.9466
10.9801
11.0146
11.0501
11.0864
11.1237
11.1618
11.2007
11.2404
11.2808
11.322
11.3638
11.4064
11.4498
11.494
11.5389
11.5844
11.6304
11.6767
11.7227
11.7678
11.8121
11.8547
11.8946
11.9314
11.9647
11.9936
12.0168
12.0331
12.0469
1.63964
3.7646
11.477
11.5357
11.1043
10.6949
10.5761
10.5903
10.63
10.6684
10.6898
10.7043
10.7203
10.74
10.7627
10.7874
10.8137
10.8416
10.871
10.9017
10.9336
10.9665
11.0004
11.0353
11.071
11.1075
11.1448
11.1829
11.2217
11.2612
11.3014
11.3422
11.3837
11.426
11.4689
11.5126
11.5569
11.6015
11.6464
11.6911
11.735
11.778
11.8194
11.8583
11.8943
11.9269
11.9553
11.9785
11.9948
12.0088
1.63907
3.7571
11.4588
11.5288
11.0978
10.6874
10.5679
10.5819
10.6212
10.6591
10.68
10.694
10.7095
10.7288
10.7509
10.7751
10.8009
10.8282
10.857
10.8871
10.9184
10.9507
10.9839
11.018
11.0529
11.0886
11.125
11.1621
11.1998
11.2382
11.2772
11.3168
11.3571
11.3979
11.4394
11.4815
11.5242
11.5672
11.6104
11.6534
11.6956
11.737
11.7769
11.8144
11.8491
11.8807
11.9085
11.9314
11.9475
11.962
1.63843
3.74848
11.4382
11.5218
11.0912
10.6791
10.5587
10.5724
10.6112
10.6484
10.6688
10.6822
10.6972
10.7159
10.7374
10.761
10.7861
10.8128
10.8409
10.8703
10.9009
10.9324
10.9648
10.998
11.032
11.0667
11.102
11.138
11.1745
11.2116
11.2492
11.2873
11.326
11.3652
11.405
11.4452
11.4859
11.5268
11.5679
11.6088
11.649
11.688
11.7258
11.7614
11.7943
11.8244
11.8511
11.8734
11.8892
11.9041
1.6377
3.73861
11.4146
11.5145
11.0843
10.6701
10.5485
10.5618
10.5999
10.6364
10.6561
10.6689
10.6832
10.7012
10.722
10.7449
10.7693
10.7952
10.8226
10.8512
10.8809
10.9115
10.943
10.9752
11.0081
11.0417
11.0757
11.1104
11.1455
11.181
11.217
11.2534
11.2903
11.3275
11.3651
11.4031
11.4414
11.4798
11.5182
11.5564
11.594
11.6297
11.6648
11.6977
11.7281
11.7559
11.7808
11.802
11.8171
11.8325
1.63687
3.72742
11.3878
11.5064
11.0768
10.6603
10.5372
10.5501
10.5872
10.6229
10.6418
10.6538
10.6674
10.6846
10.7046
10.7267
10.7503
10.7753
10.8018
10.8295
10.8582
10.8878
10.9183
10.9494
10.981
11.0133
11.0459
11.0791
11.1125
11.1463
11.1804
11.2148
11.2494
11.2843
11.3194
11.3547
11.3901
11.4255
11.4605
11.4953
11.5292
11.561
11.5922
11.6213
11.648
11.6724
11.6943
11.7135
11.7271
11.7427
1.63597
3.71489
11.3579
11.4974
11.0684
10.6495
10.5246
10.5369
10.5731
10.6077
10.6257
10.6369
10.6496
10.6659
10.6851
10.7062
10.7289
10.753
10.7785
10.8051
10.8328
10.8613
10.8905
10.9203
10.9506
10.9813
11.0124
11.0438
11.0754
11.1072
11.1391
11.1711
11.2032
11.2354
11.2675
11.2995
11.3314
11.363
11.394
11.4243
11.4535
11.4803
11.5062
11.5298
11.5509
11.5699
11.5868
11.6022
11.6131
11.6289
1.63498
3.70098
11.3247
11.4872
11.0589
10.6376
10.5105
10.5222
10.5572
10.5907
10.6077
10.618
10.6297
10.6451
10.6632
10.6833
10.705
10.728
10.7524
10.7779
10.8044
10.8316
10.8595
10.8878
10.9166
10.9457
10.975
11.0044
11.0339
11.0633
11.0928
11.1221
11.1513
11.1802
11.2088
11.2371
11.2648
11.2918
11.3177
11.3423
11.3655
11.3858
11.4045
11.4204
11.4333
11.4439
11.4526
11.4609
11.4661
11.4804
1.63392
3.68572
11.2886
11.4758
11.0484
10.6243
10.4947
10.5057
10.5392
10.5715
10.5875
10.5968
10.6075
10.6218
10.6389
10.6579
10.6785
10.7004
10.7235
10.7478
10.7729
10.7987
10.8251
10.8519
10.8789
10.9062
10.9334
10.9606
10.9878
11.0147
11.0413
11.0675
11.0933
11.1186
11.1431
11.1669
11.1897
11.2111
11.2308
11.2485
11.2638
11.2761
11.2845
11.2895
11.2899
11.2874
11.2819
11.2765
11.2703
11.2803
1.6328
3.66929
11.2495
11.4632
11.0368
10.6096
10.477
10.4872
10.519
10.5499
10.5648
10.5731
10.5828
10.5959
10.6119
10.6298
10.6491
10.6698
10.6916
10.7145
10.7382
10.7625
10.7873
10.8123
10.8374
10.8626
10.8877
10.9125
10.9369
10.961
10.9844
11.0072
11.0292
11.0502
11.0701
11.0887
11.1056
11.1204
11.1327
11.1419
11.1475
11.1482
11.1442
11.1341
11.1165
11.0926
11.0631
11.0316
10.9994
10.9944
1.63161
3.6519
11.2078
11.4495
11.0241
10.5932
10.4572
10.4663
10.4962
10.5258
10.5397
10.5469
10.5555
10.5675
10.5822
10.5989
10.6169
10.6363
10.6567
10.6781
10.7002
10.7229
10.7458
10.769
10.7921
10.815
10.8376
10.8598
10.8814
10.9022
10.9222
10.9411
10.9588
10.9751
10.9896
11.0023
11.0124
11.0196
11.0229
11.0218
11.0161
11.0028
10.9811
10.9493
10.9062
10.85
10.779
10.6961
10.6042
10.5469
1.63037
3.63388
11.1642
11.4349
11.01
10.5748
10.4346
10.4425
10.4701
10.4983
10.5112
10.5175
10.5249
10.5357
10.5492
10.5646
10.5814
10.5994
10.6184
10.6382
10.6587
10.6795
10.7006
10.7216
10.7425
10.763
10.783
10.8023
10.8207
10.8381
10.8542
10.8689
10.8818
10.8928
10.9015
10.9075
10.9097
10.9082
10.9022
10.8889
10.8676
10.8366
10.7936
10.7347
10.6558
10.5508
10.4116
10.2297
9.99473
9.7393
1.62907
3.61084
11.1109
11.4168
10.9921
10.5508
10.4047
10.4107
10.4353
10.4621
10.474
10.4791
10.4852
10.4945
10.5065
10.5203
10.5354
10.5516
10.5687
10.5866
10.6049
10.6235
10.6422
10.6607
10.6787
10.6962
10.7129
10.7286
10.743
10.756
10.7672
10.7765
10.7834
10.7876
10.7882
10.7862
10.7796
10.7658
10.7449
10.7155
10.6751
10.6204
10.5472
10.4489
10.3159
10.1319
9.86715
9.4627
8.76475
7.24141
1.62799
3.58356
11.051
11.394
10.9678
10.5165
10.3617
10.3656
10.3865
10.4123
10.4239
10.4283
10.4332
10.4411
10.4517
10.4639
10.4773
10.4916
10.5067
10.5223
10.5382
10.5542
10.57
10.5854
10.6002
10.614
10.6268
10.6382
10.6479
10.6556
10.6611
10.6639
10.6635
10.6608
10.6533
10.6389
10.6192
10.5919
10.5553
10.5072
10.4441
10.3614
10.2527
10.1083
9.91352
9.64489
9.26049
8.69182
7.85208
6.47209
1.62722
3.5625
11.0051
11.3764
10.9469
10.4817
10.3152
10.3165
10.3333
10.3586
10.3701
10.3736
10.3772
10.3837
10.3927
10.4034
10.415
10.4273
10.4402
10.4535
10.4669
10.4801
10.493
10.5053
10.5167
10.5269
10.5356
10.5426
10.5474
10.5499
10.5495
10.5469
10.54
10.5269
10.5088
10.4846
10.453
10.4123
10.3602
10.2939
10.2092
10.1011
9.96186
9.78144
9.54476
9.23084
8.81058
8.24413
7.51441
6.54658
1.62633
3.54399
10.9615
11.3472
10.9127
10.4288
10.2514
10.2525
10.2704
10.2991
10.3121
10.3154
10.3181
10.3235
10.3316
10.341
10.3511
10.3615
10.3723
10.3832
10.3941
10.4047
10.4147
10.4238
10.4318
10.4383
10.4432
10.4458
10.4458
10.4443
10.4393
10.4288
10.4134
10.3929
10.3665
10.333
10.2909
10.2383
10.1727
10.0912
9.98975
9.86333
9.70522
9.5067
9.2566
8.94142
8.54654
8.05659
7.47817
6.75249
1.62616
3.57113
11.0026
11.3403
10.8779
10.356
10.1661
10.1697
10.1946
10.2302
10.2459
10.2493
10.2515
10.2562
10.2637
10.2722
10.281
10.2899
10.2988
10.3077
10.3164
10.3246
10.332
10.3383
10.3432
10.3464
10.3476
10.3469
10.3441
10.3374
10.3256
10.3095
10.2885
10.262
10.2286
10.1872
10.1364
10.0741
9.99874
9.90648
9.79473
9.65845
9.49296
9.29161
9.04737
8.75275
8.40046
7.98348
7.50465
6.95575
1.58689
3.67232
10.9785
11.2412
10.7953
10.2658
10.0856
10.0938
10.1272
10.1657
10.1817
10.1857
10.1883
10.1931
10.1997
10.2069
10.214
10.2209
10.2278
10.2344
10.2406
10.2461
10.2506
10.2539
10.2556
10.2555
10.2541
10.25
10.2418
10.2298
10.2137
10.193
10.1671
10.1351
10.0959
10.0484
9.99108
9.9224
9.84032
9.74234
9.6256
9.48674
9.32184
9.12677
8.89704
8.62852
8.31774
7.96248
7.56402
7.11777
1.54209
4.78643
11.1212
10.885
10.2772
10.0091
9.99094
10.0148
10.0608
10.0872
10.0973
10.1021
10.1071
10.1134
10.1202
10.1269
10.1333
10.1393
10.1449
10.15
10.1545
10.158
10.1604
10.1612
10.1607
10.1588
10.1543
10.1464
10.1354
10.1207
10.1018
10.0778
10.0483
10.0123
9.96885
9.91703
9.85557
9.78304
9.6977
9.59755
9.48034
9.34354
9.18441
9.00018
8.78815
8.54597
8.27224
7.96671
7.63083
7.25759
1.53978
4.78783
11.0477
10.7989
10.1943
9.94396
9.94715
9.97905
10.0266
10.0494
10.0563
10.0593
10.0631
10.0675
10.0719
10.0757
10.079
10.0818
10.0841
10.0858
10.0868
10.0867
10.086
10.0839
10.0796
10.0734
10.0647
10.0529
10.0378
10.019
9.99594
9.96833
9.93537
9.8962
9.84988
9.79539
9.73168
9.65751
9.5715
9.47202
9.35717
9.2252
9.07428
8.9026
8.70855
8.49072
8.24836
7.9808
7.69482
7.38064
1.54796
4.80145
11.0934
10.8053
10.1317
9.86056
9.86784
9.90981
9.96604
9.99238
10
10.0034
10.0075
10.0121
10.0163
10.0196
10.0221
10.0237
10.0246
10.0245
10.0237
10.0215
10.0177
10.0123
10.005
9.99553
9.98336
9.96826
9.94992
9.92795
9.90196
9.87118
9.83501
9.79279
9.74374
9.68724
9.62218
9.54745
9.46181
9.36412
9.25312
9.12752
8.986
8.82734
8.65046
8.45491
8.24111
8.0081
7.76075
7.49232
1.53566
4.77552
10.9984
10.739
10.0982
9.82646
9.83036
9.86709
9.92259
9.94885
9.95593
9.95838
9.96143
9.96483
9.9676
9.96931
9.97009
9.97005
9.9694
9.96763
9.96444
9.96005
9.95413
9.94648
9.93673
9.9247
9.90984
9.89196
9.87077
9.8459
9.81691
9.78333
9.74464
9.70028
9.64967
9.59181
9.52604
9.45156
9.36751
9.27295
9.16701
9.04857
8.91673
8.77071
8.61017
8.43465
8.24401
8.03972
7.82363
7.59131
1.50302
4.71595
10.7699
10.5957
10.0785
9.82442
9.81041
9.8356
9.88282
9.90703
9.91414
9.91609
9.91803
9.92
9.92132
9.92151
9.92117
9.92003
9.91753
9.91396
9.90921
9.90303
9.89519
9.88545
9.8735
9.8592
9.8421
9.82198
9.79855
9.77141
9.74026
9.70464
9.66409
9.61816
9.56631
9.50801
9.44252
9.36925
9.28749
9.19655
9.09565
8.98418
8.86151
8.72706
8.58042
8.4216
8.251
8.07001
7.87964
7.67637
1.48409
4.66682
10.6661
10.5916
10.1603
9.85873
9.79014
9.80563
9.84169
9.8671
9.87563
9.87648
9.87633
9.87588
9.87505
9.87386
9.87197
9.86926
9.86538
9.86034
9.85402
9.84621
9.83672
9.82529
9.81165
9.7956
9.77681
9.75496
9.72981
9.70099
9.66817
9.63105
9.58932
9.54246
9.49005
9.43167
9.36683
9.29511
9.21595
9.12882
9.03314
8.92838
8.81414
8.69011
8.55615
8.41238
8.25922
8.09726
7.92781
7.74793
1.65631
3.2052
10.2432
10.9073
10.5164
9.98919
9.78875
9.78966
9.81024
9.84351
9.85554
9.8549
9.85206
9.84725
9.84331
9.83991
9.8361
9.83137
9.82551
9.81847
9.81015
9.8004
9.78898
9.77559
9.76009
9.7422
9.72163
9.698
9.67109
9.64066
9.60633
9.5678
9.52473
9.47686
9.42381
9.36523
9.30058
9.22981
9.15257
9.06845
8.97724
8.87854
8.77202
8.65739
8.53458
8.40371
8.2651
8.11917
7.96706
7.80628
1.66248
3.0672
10.1368
11.0722
10.6439
10.0241
9.76417
9.74359
9.76004
9.792
9.80316
9.80175
9.79687
9.78925
9.78394
9.78021
9.77642
9.77169
9.76578
9.75864
9.75018
9.74021
9.72852
9.71488
9.69898
9.68055
9.65944
9.6352
9.60779
9.57666
9.54173
9.50277
9.45954
9.41179
9.35926
9.30184
9.23939
9.17135
9.0975
9.01744
8.93074
8.83718
8.73654
8.62893
8.51449
8.39358
8.26678
8.13449
7.99717
7.85247
1.63177
2.94279
9.59149
10.8964
10.5598
10.0106
9.77601
9.74938
9.7597
9.7782
9.78038
9.7768
9.7676
9.75577
9.74651
9.73932
9.73252
9.72511
9.71681
9.70754
9.69718
9.68553
9.67238
9.65745
9.64053
9.62125
9.59936
9.57457
9.54663
9.51524
9.48023
9.44141
9.3985
9.35124
9.29953
9.24318
9.18199
9.11566
9.04381
8.96632
8.88319
8.79443
8.70019
8.60047
8.49542
8.38464
8.26801
8.14659
8.02092
7.88918
1.39963
4.49558
10.0781
10.3663
10.0919
9.80337
9.69528
9.69132
9.69958
9.71075
9.71152
9.70863
9.70089
9.6906
9.6825
9.67581
9.66906
9.66152
9.65305
9.6436
9.63303
9.62114
9.60773
9.59259
9.57548
9.55608
9.53417
9.50945
9.48186
9.45107
9.4168
9.37882
9.33687
9.2908
9.24038
9.18557
9.12623
9.06215
8.99321
8.91941
8.84069
8.75704
8.66844
8.57493
8.47648
8.37356
8.26647
8.15468
8.03922
7.91872
1.62227
2.89023
9.39005
10.7691
10.4835
9.97956
9.75046
9.70912
9.71313
9.71807
9.71497
9.7053
9.68883
9.67384
9.66152
9.65063
9.63981
9.62838
9.61637
9.60377
9.59034
9.57585
9.56003
9.54266
9.5235
9.50247
9.47934
9.4539
9.42575
9.39461
9.36025
9.32246
9.28109
9.23608
9.1872
9.13404
9.07641
9.0143
8.94787
8.87721
8.80229
8.72321
8.63985
8.55215
8.46013
8.36394
8.26376
8.15997
8.05341
7.94276
1.63109
2.81278
9.37064
10.9149
10.5565
9.94818
9.67503
9.63358
9.64292
9.65858
9.65757
9.65056
9.63486
9.61846
9.60561
9.59477
9.58427
9.5734
9.56174
9.54912
9.53553
9.52084
9.5049
9.48755
9.46854
9.44766
9.42468
9.39935
9.37143
9.34068
9.30692
9.26998
9.22966
9.18572
9.13804
9.08655
9.03132
8.97227
8.90925
8.84214
8.77096
8.69565
8.61635
8.53321
8.44637
8.3559
8.26194
8.165
8.06575
7.96311
1.62952
2.79573
9.32172
10.8962
10.5329
9.90796
9.62338
9.57912
9.58949
9.60845
9.60821
9.60243
9.58809
9.57067
9.55686
9.54542
9.53432
9.52261
9.51004
9.4966
9.48228
9.467
9.45061
9.4329
9.41369
9.39275
9.36986
9.3448
9.31734
9.28728
9.2544
9.21851
9.17942
9.13699
9.09109
9.04164
8.98857
8.93181
8.87133
8.80711
8.73922
8.66771
8.5927
8.51433
8.43276
8.34823
8.26102
8.17107
8.0787
7.98273
1.61633
2.80475
9.1539
10.721
10.4417
9.89869
9.62822
9.56943
9.57302
9.58096
9.57898
9.57104
9.55446
9.53687
9.52157
9.50781
9.49431
9.48041
9.4659
9.45075
9.43494
9.41839
9.40093
9.38241
9.3626
9.34132
9.3183
9.29335
9.26621
9.23668
9.20454
9.16959
9.13172
9.09078
9.04668
8.99927
8.94846
8.89422
8.83653
8.77545
8.71101
8.64329
8.57239
8.49843
8.42159
8.34201
8.25987
8.17532
8.08859
7.99854
1.35658
4.43598
9.78042
10.1385
9.87822
9.6017
9.49705
9.48786
9.49356
9.50146
9.50106
9.49702
9.4869
9.47307
9.46017
9.448
9.43556
9.42231
9.40816
9.39315
9.3774
9.36092
9.3436
9.3253
9.30584
9.28501
9.26259
9.23841
9.21225
9.18389
9.15317
9.11984
9.08375
9.04473
9.00267
8.95753
8.90921
8.85772
8.8031
8.74533
8.68442
8.62045
8.5535
8.48369
8.4111
8.33591
8.2583
8.17848
8.0967
8.01193
1.62131
2.8285
9.2446
10.7111
10.3983
9.80541
9.52291
9.47334
9.48285
9.50272
9.50492
9.5002
9.48705
9.46699
9.44906
9.43297
9.41703
9.40044
9.38306
9.3647
9.34596
9.32676
9.30705
9.28676
9.26565
9.24348
9.22006
9.19519
9.16864
9.14024
9.10983
9.07724
9.04224
9.00465
8.96432
8.92115
8.8751
8.82607
8.77401
8.71895
8.66096
8.60011
8.53654
8.47031
8.40146
8.33022
8.2568
8.18133
8.10414
8.02427
1.62775
2.96984
9.53376
10.643
10.2914
9.67445
9.39644
9.36749
9.38454
9.41889
9.43066
9.42842
9.4204
9.40448
9.38946
9.37569
9.3619
9.34689
9.33087
9.31417
9.29681
9.27869
9.25973
9.23985
9.21908
9.19735
9.1745
9.15032
9.12467
9.09732
9.06806
9.0367
9.00304
8.96693
8.92823
8.88687
8.84279
8.79593
8.74628
8.69386
8.63874
8.58097
8.52068
8.45797
8.39299
8.32577
8.25642
8.18518
8.11214
8.03649
1.35065
4.49211
9.80431
9.98694
9.70593
9.40243
9.30588
9.31239
9.33354
9.35618
9.36503
9.36424
9.36028
9.35089
9.33965
9.32756
9.31511
9.30121
9.28599
9.26984
9.25258
9.23445
9.21547
9.19565
9.17498
9.15334
9.13067
9.1068
9.08157
9.05483
9.02637
8.996
8.96357
8.92892
8.89195
8.85252
8.81055
8.76599
8.71884
8.66912
8.61689
8.56214
8.50497
8.44551
8.38392
8.32031
8.25476
8.18728
8.11814
8.04655
1.32084
4.49875
9.67391
9.83956
9.631
9.41484
9.33603
9.33504
9.34149
9.35298
9.35668
9.35511
9.35029
9.3397
9.32739
9.31369
9.29924
9.28336
9.26619
9.24835
9.22933
9.20962
9.18927
9.16825
9.14653
9.12406
9.10079
9.07657
9.05122
9.0245
8.99621
8.96618
8.93426
8.90032
8.86423
8.82588
8.78508
8.74191
8.69644
8.64866
8.5986
8.54641
8.49203
8.43551
8.37695
8.31643
8.25404
8.18992
8.12414
8.05597
1.37443
4.51634
9.93977
9.99385
9.67356
9.33543
9.23391
9.24639
9.28034
9.30991
9.3206
9.31998
9.31654
9.30817
9.29687
9.28471
9.27132
9.25629
9.23972
9.2218
9.20273
9.18276
9.16199
9.14051
9.11833
9.09544
9.07174
9.04709
9.02139
8.99449
8.96623
8.93645
8.90499
8.87173
8.83652
8.79933
8.76016
8.71886
8.67536
8.62964
8.58174
8.53164
8.47949
8.42538
8.36938
8.31162
8.25213
8.19089
8.12821
8.06327
1.51723
3.25488
9.57501
10.5599
10.205
9.55812
9.26497
9.23483
9.25317
9.29196
9.31184
9.3127
9.31
9.30244
9.28968
9.27664
9.26286
9.24753
9.23064
9.21218
9.19259
9.172
9.15048
9.12815
9.10502
9.0811
9.05636
9.03053
9.00391
8.97622
8.94731
8.91705
8.88534
8.85201
8.81699
8.78017
8.74147
8.70087
8.65824
8.61359
8.56699
8.51844
8.46811
8.41596
8.36204
8.30626
8.24889
8.19009
8.12995
8.06792
1.35753
4.48047
9.80641
9.91724
9.63316
9.32342
9.20825
9.20842
9.2207
9.2448
9.25641
9.25671
9.25461
9.24894
9.23883
9.22834
9.21693
9.20405
9.18947
9.17314
9.15547
9.13657
9.11655
9.0955
9.0735
9.05043
9.02656
9.00184
8.97625
8.94963
8.92176
8.89246
8.86166
8.82924
8.79511
8.7592
8.72149
8.68191
8.64048
8.59719
8.55201
8.50499
8.4561
8.4055
8.35331
8.2997
8.24467
8.18824
8.13049
8.07098
1.35443
4.48069
9.79016
9.89603
9.6065
9.2913
9.17689
9.17821
9.19322
9.22015
9.23417
9.23585
9.23396
9.22842
9.21834
9.2076
9.19605
9.18309
9.16836
9.1521
9.13453
9.11577
9.09594
9.07518
9.05354
9.03104
9.00762
8.98317
8.95767
8.93102
8.90317
8.87406
8.84356
8.81158
8.77802
8.74278
8.70578
8.667
8.62642
8.58408
8.53997
8.49415
8.44665
8.39754
8.34693
8.2949
8.24152
8.18684
8.13092
8.07325
1.51572
3.24936
9.54883
10.5343
10.17
9.49191
9.17344
9.13069
9.14775
9.18598
9.20955
9.21387
9.21236
9.20767
9.19851
9.18917
9.17944
9.16825
9.15519
9.14038
9.12383
9.1059
9.08662
9.06614
9.04457
9.02193
8.99823
8.97349
8.94782
8.92106
8.89309
8.86388
8.83336
8.80138
8.76786
8.73271
8.69591
8.65744
8.61725
8.57539
8.53187
8.48673
8.44005
8.39186
8.34227
8.29133
8.23911
8.18567
8.13109
8.07491
1.36638
4.52976
9.8754
9.85984
9.51725
9.17434
9.06149
9.07081
9.10184
9.1358
9.15048
9.15295
9.15205
9.14931
9.14368
9.13732
9.1299
9.12092
9.11009
9.09748
9.08331
9.06768
9.05099
9.0329
9.01365
8.99327
8.97177
8.94911
8.92531
8.90031
8.87409
8.84651
8.81746
8.78684
8.75459
8.72068
8.68503
8.6476
8.60841
8.56748
8.52486
8.48063
8.43485
8.38761
8.33898
8.28905
8.23788
8.18552
8.13198
8.07693
1.34799
4.56092
9.76784
9.72451
9.42985
9.17561
9.09745
9.10244
9.12022
9.13948
9.14711
9.14771
9.14662
9.14345
9.13689
9.13014
9.12165
9.1116
9.10013
9.08681
9.07231
9.05649
9.03965
9.02163
9.00259
8.9826
8.96162
8.93961
8.91652
8.89223
8.86663
8.83962
8.81111
8.781
8.7492
8.71567
8.68041
8.64342
8.60468
8.56421
8.52205
8.4783
8.43301
8.3863
8.33824
8.28892
8.23835
8.1866
8.13382
8.07954
1.33673
4.56376
9.71723
9.6783
9.4044
9.16609
9.08975
9.09144
9.10251
9.11811
9.12457
9.12529
9.12449
9.12194
9.11639
9.11016
9.10231
9.09302
9.0824
9.07008
9.05641
9.04129
9.02546
9.00815
8.98988
8.97068
8.9505
8.92925
8.90693
8.88342
8.85863
8.83244
8.80478
8.77552
8.74454
8.7118
8.67729
8.64082
8.60262
8.56266
8.521
8.4777
8.43286
8.38655
8.33886
8.28989
8.23975
8.18852
8.13626
8.08264
1.33098
4.51018
9.67354
9.77202
9.49162
9.18781
9.08035
9.08216
9.09579
9.11674
9.12493
9.12532
9.12367
9.11883
9.11211
9.10399
9.09519
9.08511
9.07352
9.06038
9.04601
9.03044
9.01406
8.9966
8.97839
8.95935
8.93948
8.91868
8.89695
8.87407
8.84998
8.82455
8.79766
8.76917
8.73896
8.70699
8.67318
8.6375
8.59998
8.56063
8.51953
8.47673
8.43233
8.38644
8.33912
8.29049
8.24063
8.18967
8.13776
8.08466
1.61614
2.86543
9.19834
10.449
10.1314
9.51479
9.1867
9.1032
9.10884
9.1254
9.13735
9.13686
9.13321
9.12452
9.11383
9.10394
9.09443
9.08381
9.07171
9.05811
9.04327
9.0274
9.01065
8.99304
8.97479
8.95559
8.93575
8.91503
8.8934
8.87074
8.84691
8.8218
8.79528
8.76718
8.73745
8.70598
8.67263
8.63745
8.6004
8.56151
8.52078
8.47834
8.43423
8.38855
8.34147
8.29305
8.2434
8.19265
8.14087
8.08786
1.6246
2.72346
9.10057
10.6757
10.2955
9.55239
9.16206
9.06806
9.07734
9.10335
9.12516
9.12759
9.12477
9.1164
9.10197
9.0894
9.0781
9.06616
9.05282
9.03818
9.02254
9.00617
8.98922
8.97175
8.95381
8.93533
8.91633
8.89667
8.87625
8.8549
8.83249
8.80883
8.78377
8.75715
8.72884
8.69874
8.66674
8.63279
8.59687
8.559
8.51922
8.47759
8.43422
8.3892
8.34265
8.29467
8.24538
8.19489
8.14332
8.09039
1.61477
2.84084
9.13604
10.4382
10.1226
9.50627
9.17458
9.09108
9.09748
9.11683
9.13292
9.13276
9.12867
9.11814
9.10302
9.08959
9.07696
9.06354
9.0489
9.0332
9.01673
8.99969
8.98226
8.96446
8.94642
8.92802
8.90922
8.88995
8.87006
8.84936
8.82766
8.80477
8.78051
8.75472
8.72722
8.69789
8.66664
8.63341
8.59817
8.5609
8.52165
8.48049
8.43752
8.39285
8.34656
8.29878
8.24959
8.1991
8.14746
8.09438
1.30657
4.45436
9.56203
9.79963
9.52678
9.20372
9.07553
9.07245
9.08382
9.10328
9.11201
9.11144
9.10729
9.09832
9.08621
9.07392
9.06054
9.04576
9.02996
9.01345
8.99644
8.97915
8.96179
8.94432
8.92695
8.90964
8.89172
8.87382
8.85534
8.83617
8.81599
8.79461
8.77189
8.74758
8.72146
8.69344
8.66337
8.63117
8.59685
8.56039
8.52185
8.48131
8.43885
8.39458
8.34862
8.30108
8.25209
8.20173
8.15014
8.09697
1.30598
4.49256
9.58572
9.66524
9.41982
9.16145
9.07812
9.08351
9.10091
9.11378
9.11731
9.11582
9.11039
9.10162
9.09012
9.07748
9.06329
9.04763
9.03097
9.01337
8.99542
8.97724
8.95905
8.94101
8.923
8.90558
8.88749
8.86962
8.85135
8.83245
8.81267
8.79178
8.76956
8.74576
8.72017
8.69253
8.66298
8.63136
8.59738
8.56123
8.52298
8.48268
8.44039
8.39625
8.35038
8.30292
8.25399
8.20371
8.15226
8.09947
1.34407
4.51791
9.74561
9.72613
9.41682
9.11199
9.02486
9.03784
9.07226
9.09927
9.1079
9.10696
9.10254
9.09236
9.08217
9.07013
9.05622
9.04066
9.02388
9.00624
8.98817
8.96995
8.95182
8.93385
8.91622
8.89864
8.88141
8.86387
8.84594
8.82758
8.80832
8.78795
8.76625
8.74297
8.71788
8.69079
8.6617
8.63032
8.59673
8.56091
8.52293
8.48287
8.44078
8.39679
8.35104
8.30367
8.25483
8.20468
8.15343
8.10103
3.04053
2.45428
2.98373
4.15227
4.11622
4.11183
4.06071
4.0165
3.99576
3.99237
4.0099
4.04748
4.08373
4.11254
4.13981
4.17311
4.21579
4.26694
4.32375
4.38357
4.44423
4.50436
4.56255
4.62112
4.6736
4.72112
4.76301
4.7998
4.83142
4.85782
4.87904
4.89512
4.90626
4.9126
4.91447
4.91346
4.90951
4.90041
4.88578
4.86873
4.84944
4.8277
4.80364
4.77762
4.74997
4.72101
4.69102
4.66031
4.62917
4.59784
4.56656
4.53553
4.5049
4.47482
4.4454
4.41671
4.38881
4.36178
4.33566
4.31052
4.28644
4.26353
4.24193
4.22178
4.20327
4.18659
4.17186
4.15924
4.14881
4.14068
4.13479
4.13101
4.12913
4.12907
4.12946
4.13097
4.13459
4.14099
4.14734
4.15325
4.15879
4.16386
4.16837
4.17227
4.17547
4.17802
4.17982
4.18083
4.1811
4.181
4.18057
4.1794
4.17698
4.17351
4.17001
4.16632
4.16248
4.1583
4.15428
4.15121
4.09831
3.55007
3.7459
4.21827
4.15961
4.10287
4.04688
4.00066
3.97951
3.98578
4.01453
4.06321
4.09813
4.11872
4.13983
4.16989
4.21126
4.26185
4.31831
4.37773
4.43801
4.49777
4.55626
4.6139
4.6664
4.71367
4.75563
4.79248
4.82424
4.85082
4.87223
4.88853
4.89988
4.90641
4.90828
4.90758
4.9046
4.89708
4.88198
4.86433
4.84497
4.82357
4.79993
4.77422
4.7468
4.71802
4.6882
4.65762
4.62657
4.5953
4.56405
4.533
4.50234
4.47218
4.44267
4.41387
4.38588
4.35877
4.3326
4.30745
4.28341
4.26059
4.23912
4.21915
4.20087
4.18447
4.16995
4.15759
4.14745
4.13958
4.13403
4.1305
4.1288
4.12884
4.12936
4.13095
4.13459
4.14118
4.14781
4.15399
4.15966
4.16481
4.16938
4.17337
4.17669
4.17929
4.18107
4.18206
4.18218
4.18207
4.18162
4.18045
4.17794
4.1743
4.17059
4.16665
4.16258
4.15852
4.15411
4.15338
5.22002
4.45922
4.22367
4.25648
4.24355
4.2008
4.12246
4.06707
4.03963
4.03956
4.04607
4.06539
4.0977
4.12644
4.15326
4.18524
4.22564
4.27409
4.32788
4.38472
4.44273
4.50048
4.55688
4.6116
4.66256
4.70874
4.74985
4.78594
4.81704
4.8431
4.86415
4.88021
4.89136
4.89771
4.89924
4.89864
4.89618
4.88985
4.87653
4.85796
4.83788
4.81642
4.79309
4.76778
4.74071
4.71218
4.68257
4.65217
4.62127
4.5901
4.55888
4.52783
4.49711
4.46687
4.43724
4.40833
4.38023
4.35304
4.32683
4.30171
4.27776
4.25512
4.2339
4.21426
4.19636
4.18034
4.16639
4.15451
4.1448
4.13755
4.13242
4.1296
4.12869
4.1288
4.12944
4.13125
4.13525
4.14201
4.14889
4.15536
4.16126
4.1667
4.17159
4.17579
4.17922
4.1818
4.18351
4.18432
4.18431
4.18413
4.18356
4.18218
4.17932
4.17538
4.17139
4.167
4.16258
4.15865
4.15381
4.15393
5.82212
5.09194
4.65604
4.4606
4.42147
4.36493
4.27738
4.19677
4.14031
4.11264
4.11289
4.11894
4.13598
4.16946
4.19793
4.22623
4.25938
4.29958
4.34588
4.39656
4.44969
4.50347
4.55654
4.60801
4.65635
4.70071
4.7405
4.77548
4.80569
4.83091
4.85143
4.86715
4.87805
4.8842
4.88541
4.88488
4.88281
4.87752
4.86619
4.84761
4.82696
4.80521
4.78209
4.75727
4.73074
4.70272
4.67352
4.64347
4.61285
4.58191
4.55087
4.51993
4.48927
4.45904
4.42939
4.40045
4.37233
4.34515
4.31901
4.29401
4.27028
4.24794
4.22711
4.20794
4.19058
4.17514
4.1618
4.15063
4.14168
4.13511
4.13068
4.12854
4.12841
4.12865
4.12955
4.13182
4.13662
4.14347
4.15064
4.15749
4.16392
4.16979
4.175
4.17941
4.18294
4.18546
4.18707
4.1876
4.18755
4.18729
4.18653
4.18488
4.18154
4.17714
4.1727
4.16792
4.16317
4.15882
4.15444
4.15406
6.22345
5.59219
5.11868
4.82972
4.68169
4.57388
4.46671
4.36598
4.28585
4.23395
4.20894
4.20569
4.20892
4.21926
4.24117
4.26826
4.29806
4.33185
4.37086
4.41466
4.46173
4.51032
4.55897
4.60649
4.6516
4.69342
4.73122
4.76461
4.79362
4.81751
4.83727
4.85243
4.86287
4.86872
4.86965
4.86914
4.86728
4.86263
4.85268
4.83484
4.81416
4.79221
4.76911
4.74462
4.71857
4.69107
4.66236
4.63273
4.60246
4.57181
4.54098
4.51019
4.47963
4.44945
4.41983
4.39092
4.36285
4.33576
4.30978
4.28503
4.26165
4.23974
4.21945
4.20091
4.18423
4.16955
4.15698
4.14663
4.13854
4.13277
4.1293
4.12813
4.12823
4.12874
4.13016
4.13332
4.13911
4.14597
4.15322
4.16055
4.16751
4.17381
4.17928
4.18383
4.18735
4.18969
4.19107
4.1913
4.19119
4.19078
4.18976
4.18758
4.18375
4.179
4.17397
4.16871
4.16345
4.15883
4.1544
4.15453
6.52911
5.99792
5.54567
5.20341
4.97242
4.80933
4.67553
4.55762
4.45843
4.38313
4.3334
4.30662
4.29814
4.29965
4.30595
4.32065
4.34513
4.37213
4.40379
4.43956
4.47868
4.52013
4.56271
4.60529
4.64618
4.68492
4.72033
4.75185
4.77924
4.80215
4.82082
4.83515
4.84475
4.85028
4.85106
4.85057
4.84882
4.8445
4.8353
4.81835
4.79811
4.77626
4.75322
4.72893
4.70328
4.67631
4.64817
4.61909
4.5893
4.55905
4.52857
4.49805
4.4677
4.43771
4.40825
4.3795
4.35163
4.32479
4.29913
4.2748
4.25192
4.23063
4.21104
4.19328
4.17745
4.16367
4.15203
4.14262
4.13551
4.13072
4.12819
4.12804
4.12829
4.12917
4.13127
4.1356
4.14202
4.14923
4.15678
4.16433
4.17154
4.17808
4.18376
4.18838
4.19169
4.19399
4.19507
4.19505
4.19484
4.19423
4.19283
4.18996
4.18575
4.18072
4.17513
4.16936
4.16363
4.15859
4.15436
4.15481
6.77411
6.32728
5.91277
5.5568
5.27822
5.06846
4.9031
4.76443
4.64684
4.55099
4.47855
4.42902
4.39997
4.38625
4.38576
4.38794
4.39522
4.41117
4.43595
4.46468
4.49686
4.53167
4.56817
4.60529
4.64205
4.67704
4.70969
4.73914
4.76484
4.78645
4.80387
4.81713
4.82628
4.83097
4.83143
4.83095
4.8292
4.82492
4.81587
4.79967
4.78018
4.75875
4.7359
4.71179
4.68645
4.65995
4.63238
4.60388
4.57464
4.54487
4.5148
4.48463
4.45458
4.42486
4.39566
4.3672
4.33964
4.31317
4.28797
4.26419
4.24197
4.22144
4.2027
4.18588
4.17105
4.15831
4.14773
4.13939
4.13334
4.12961
4.12834
4.12848
4.12905
4.13049
4.13359
4.13908
4.14582
4.15322
4.16092
4.16858
4.17588
4.18252
4.18832
4.19277
4.19607
4.19819
4.19884
4.19875