/*--------------------------------*- C++ -*----------------------------------*\
| =========                 |                                                 |
| \\      /  F ield         | OpenFOAM: The Open Source CFD Toolbox           |
|  \\    /   O peration     | Version:  2412                                  |
|   \\  /    A nd           | Website:  www.openfoam.com                      |
|    \\/     M anipulation  |                                                 |
\*---------------------------------------------------------------------------*/
FoamFile
{
    version     2.0;
    format      ascii;
    arch        "LSB;label=32;scalar=64";
    class       surfaceScalarField;
    location    "11.5";
    object      phi;
}
// * * * * * * * * * * * * * * * * * * * * * * * * * * * * * * * * * * * * * //

dimensions      [1 0 -1 0 0 0 0];

oriented        oriented;

internalField   nonuniform List<scalar> 
13790
(
0.00292878
-1.66554e-07
0.00274186
8.63868e-07
0.00280078
3.70091e-06
0.00280015
6.17829e-06
0.00279408
7.31129e-06
0.00278835
8.30356e-06
0.00277956
9.21437e-06
0.00276868
1.02606e-05
0.002756
1.14351e-05
0.00274216
1.27473e-05
0.00272722
1.41254e-05
0.00271104
1.5532e-05
0.00269346
1.69712e-05
0.00267441
1.84616e-05
0.00265398
2.00197e-05
0.00263213
2.16573e-05
0.00260864
2.33799e-05
0.00258345
2.51962e-05
0.00255646
2.71169e-05
0.0025275
2.91517e-05
0.00249647
3.13097e-05
0.00246334
3.36009e-05
0.00242785
3.60363e-05
0.00238988
3.862e-05
0.00234939
4.13635e-05
0.00230605
4.42801e-05
0.00225994
4.73663e-05
0.00221059
5.06456e-05
0.00215756
5.40997e-05
0.00210133
5.77438e-05
0.00204172
6.16019e-05
0.00197838
6.56552e-05
0.00191132
6.991e-05
0.00184024
7.43749e-05
0.00176497
7.90572e-05
0.00168533
8.39727e-05
0.00160064
8.91122e-05
0.00151029
9.44515e-05
0.00141353
9.99179e-05
0.00130949
0.000105454
0.00119796
0.000110918
0.00108194
0.000116371
0.000960819
0.000121829
0.000834636
0.000127026
0.000704287
0.000132128
0.000569316
0.00013717
0.000429496
0.000141468
0.00028522
0.00014409
0.000140479
0.000146149
0.000142591
0.00303742
3.80721e-08
0.00284327
9.56511e-07
0.00290228
9.88584e-06
0.00290196
1.25425e-05
0.00289672
1.43732e-05
0.00289113
1.64955e-05
0.0028819
1.86517e-05
0.00287047
2.08572e-05
0.00285725
2.33109e-05
0.00284286
2.59967e-05
0.00282735
2.87962e-05
0.00281056
3.16607e-05
0.0027923
3.45972e-05
0.00277252
3.76368e-05
0.0027513
4.08107e-05
0.00272861
4.41426e-05
0.00270422
4.76467e-05
0.00267807
5.13408e-05
0.00265007
5.52479e-05
0.00262002
5.93876e-05
0.00258785
6.37788e-05
0.00255349
6.8443e-05
0.00251666
7.34007e-05
0.00247731
7.86607e-05
0.00243533
8.42538e-05
0.00239036
9.01915e-05
0.00234255
9.64817e-05
0.00229137
0.000103168
0.00223638
0.000110208
0.00217804
0.00011764
0.00211616
0.000125504
0.00205046
0.000133769
0.00198091
0.000142456
0.00190714
0.000151576
0.00182898
0.000161127
0.00174625
0.000171145
0.00165831
0.000181619
0.00156452
0.000192485
0.00146412
0.000203628
0.00135618
0.000214912
0.00124043
0.000226032
0.00112001
0.000237141
0.00099431
0.000248262
0.000863348
0.000258865
0.000728151
0.000269174
0.000588413
0.000279187
0.000443897
0.000287695
0.000294988
0.000292827
0.000146372
0.000296236
0.000291153
0.00315031
1.07521e-07
0.00294883
1.32727e-06
0.00301037
1.59029e-05
0.00300992
1.92466e-05
0.0030045
2.17287e-05
0.00299867
2.50222e-05
0.00298913
2.83806e-05
0.00297724
3.18448e-05
0.00296356
3.56229e-05
0.00294869
3.97161e-05
0.00293267
4.3974e-05
0.00291532
4.83443e-05
0.00289642
5.28346e-05
0.00287594
5.74833e-05
0.00285398
6.23337e-05
0.00283048
6.74212e-05
0.00280523
7.27698e-05
0.00277815
7.84075e-05
0.00274916
8.43704e-05
0.00271805
9.06888e-05
0.00268473
9.73913e-05
0.00264916
0.000104512
0.00261103
0.000112081
0.00257028
0.000120111
0.00252683
0.000128655
0.00248026
0.000137721
0.00243075
0.00014733
0.00237777
0.000157546
0.00232082
0.000168302
0.0022604
0.000179662
0.00219631
0.000191681
0.00212825
0.000204314
0.00205622
0.000217603
0.00197981
0.000231563
0.00189878
0.000246176
0.00181301
0.000261499
0.00172182
0.000277521
0.00162456
0.000294138
0.00152046
0.000311207
0.00140854
0.00032851
0.00128837
0.000345554
0.00116329
0.000362565
0.00103269
0.000379592
0.00089663
0.00039583
0.000756206
0.000411512
0.000611192
0.000426564
0.000461316
0.000439347
0.0003069
0.00044707
0.000152865
0.000451792
0.000446291
0.00326748
9.49311e-08
0.00305842
1.86665e-06
0.00312214
2.19109e-05
0.00312204
2.63084e-05
0.00311695
2.94229e-05
0.0031108
3.37772e-05
0.00310078
3.83509e-05
0.00308841
4.3122e-05
0.00307428
4.83122e-05
0.00305896
5.38646e-05
0.00304246
5.96274e-05
0.00302457
6.55557e-05
0.00300507
7.16573e-05
0.00298392
7.79758e-05
0.00296124
8.45641e-05
0.00293696
9.14689e-05
0.00291086
9.87248e-05
0.00288287
0.000106371
0.00285291
0.000114458
0.00282075
0.000123027
0.00278632
0.000132118
0.00274956
0.000141777
0.00271015
0.000152043
0.00266805
0.000162937
0.00262315
0.000174529
0.00257502
0.000186829
0.00252386
0.000199868
0.00246911
0.000213734
0.00241025
0.000228337
0.0023478
0.00024376
0.00228154
0.000260084
0.00221116
0.000277244
0.00213668
0.000295307
0.00205764
0.000314293
0.00197379
0.000334168
0.001885
0.000355014
0.00179057
0.000376816
0.00168981
0.000399426
0.00158198
0.000422694
0.001466
0.000446338
0.00134129
0.000469593
0.00121135
0.000492813
0.0010756
0.000516068
0.000934112
0.000538231
0.000788058
0.000559546
0.000637256
0.000579826
0.000481444
0.00059702
0.000320748
0.000607612
0.000160181
0.000613932
0.000608829
0.00338901
-4.67151e-09
0.00317213
2.45906e-06
0.00323799
2.80164e-05
0.00323842
3.37688e-05
0.00323376
3.75148e-05
0.00322703
4.28429e-05
0.0032165
4.85356e-05
0.00320367
5.466e-05
0.00318916
6.13379e-05
0.00317348
6.84037e-05
0.00315655
7.57266e-05
0.00313815
8.32705e-05
0.00311806
9.10437e-05
0.00309626
9.90939e-05
0.00307287
0.000107482
0.00304783
0.000116265
0.00302091
0.000125489
0.00299203
0.000135207
0.00296112
0.000145484
0.00292795
0.000156373
0.00289242
0.000167925
0.0028545
0.000180199
0.00281386
0.000193247
0.00277044
0.000207093
0.00272413
0.000221826
0.00267451
0.000237463
0.00262175
0.000254039
0.00256528
0.00027167
0.00250456
0.000290245
0.00244014
0.000309867
0.00237179
0.000330639
0.00229917
0.000352488
0.00222228
0.000375498
0.00214066
0.000399698
0.00205405
0.000425046
0.00196229
0.000451643
0.00186465
0.00047948
0.00176041
0.000508379
0.00164877
0.000538149
0.00152863
0.000568444
0.00139924
0.000598293
0.00126426
0.000628068
0.00112314
0.000657933
0.000975882
0.000686428
0.00082375
0.000713706
0.000666548
0.000739567
0.000503905
0.000761596
0.00033611
0.000775241
0.000168161
0.000783502
0.000779433
0.00351507
-3.96161e-07
0.00328962
3.28765e-06
0.00335725
3.43683e-05
0.00335941
4.19225e-05
0.00335555
4.61529e-05
0.00334765
5.19112e-05
0.00333643
5.88622e-05
0.00332318
6.64037e-05
0.00330843
7.46379e-05
0.00329247
8.32837e-05
0.00327517
9.22364e-05
0.0032563
0.000101462
0.00323565
0.000110971
0.00321323
0.000120816
0.00318915
0.000131065
0.00316337
0.000141787
0.00313564
0.00015304
0.0031059
0.00016489
0.00307405
0.00017742
0.00303989
0.000190696
0.00300331
0.000204779
0.00296427
0.000219742
0.00292242
0.000235651
0.00287772
0.00025253
0.00283007
0.000270495
0.00277899
0.000289563
0.00272467
0.000309777
0.00266658
0.000331285
0.00260409
0.000353954
0.00253774
0.000377902
0.00246735
0.000403264
0.00239258
0.000429959
0.00231339
0.000458087
0.00222929
0.000487699
0.00213996
0.000518738
0.00204526
0.000551321
0.00194448
0.000585459
0.0018368
0.000620961
0.00172138
0.000657608
0.00159697
0.000694928
0.00146276
0.000731789
0.00132254
0.000768611
0.00117571
0.000805556
0.00102226
0.000840825
0.000863489
0.000874542
0.000699304
0.000906403
0.000529314
0.000933618
0.000353375
0.000951032
0.000176999
0.000961532
0.000958951
0.00364565
-1.09101e-06
0.00341102
4.171e-06
0.00348148
3.95045e-05
0.00348577
5.06261e-05
0.00348177
5.51736e-05
0.00347246
6.10624e-05
0.00346077
6.93711e-05
0.00344729
7.83914e-05
0.00343238
8.81827e-05
0.0034162
9.84683e-05
0.00339858
0.000109127
0.00337927
0.000120102
0.00335809
0.000131413
0.00333506
0.000143117
0.00331033
0.000155288
0.00328384
0.000168007
0.00325533
0.000181346
0.00322474
0.000195386
0.003192
0.000210228
0.00315689
0.000225953
0.00311928
0.000242633
0.00307916
0.000260355
0.00303617
0.000279196
0.00299024
0.000299191
0.0029413
0.000320466
0.00288886
0.000343057
0.00283306
0.000367006
0.0027734
0.00039249
0.00270921
0.000419368
0.00264106
0.000447759
0.00256877
0.000477857
0.00249189
0.000509551
0.00241047
0.000542964
0.00232401
0.000578178
0.00223211
0.000615125
0.00213459
0.000653954
0.00203069
0.000694687
0.0019196
0.00073709
0.00180047
0.00078097
0.00167202
0.00082582
0.00153296
0.000870254
0.00138722
0.000914595
0.00123433
0.000959227
0.00107423
0.00100191
0.000908248
0.00104268
0.000736169
0.00108126
0.000557587
0.00111436
0.00037268
0.00113581
0.000186797
0.00114909
0.00114836
0.00378421
-4.95851e-07
0.00353569
3.10902e-06
0.00361302
4.74612e-05
0.0036191
5.86836e-05
0.00361219
6.40129e-05
0.00360154
7.05087e-05
0.0035897
7.99995e-05
0.00357618
9.05431e-05
0.00356124
0.000101892
0.00354492
0.000113912
0.00352702
0.000126361
0.00350731
0.000139161
0.00348564
0.000152342
0.00346204
0.000165967
0.00343668
0.000180117
0.00340952
0.000194889
0.00338028
0.000210368
0.00334888
0.000226652
0.00331528
0.000243861
0.00327927
0.000262092
0.00324069
0.000281431
0.00319953
0.000301971
0.00315549
0.000323813
0.00310841
0.000346996
0.00305824
0.000371652
0.00300453
0.00039785
0.00294736
0.000425618
0.00288624
0.000455175
0.00282046
0.000486368
0.00275058
0.000519322
0.00267651
0.000554267
0.00259777
0.00059112
0.00251424
0.000629999
0.00242545
0.000670991
0.00233109
0.000714064
0.00223092
0.000759398
0.0021241
0.000807034
0.00200974
0.000856736
0.00188689
0.000908276
0.00175415
0.000961107
0.00161014
0.0010136
0.00145892
0.00106605
0.00129981
0.00111911
0.00113257
0.00117005
0.000958704
0.00121864
0.000778141
0.00126464
0.00059023
0.00130449
0.000394669
0.00133122
0.00019803
0.00134758
0.00134908
0.00391402
2.86643e-07
0.00367256
4.65782e-06
0.00375001
5.06794e-05
0.00375216
6.42201e-05
0.00374492
7.1065e-05
0.00373521
7.9492e-05
0.00372371
9.04901e-05
0.00371029
0.000102689
0.00369531
0.000115751
0.00367889
0.000129593
0.00366077
0.000143912
0.0036407
0.000158611
0.00361858
0.000173725
0.00359445
0.00018933
0.00356851
0.000205513
0.00354073
0.000222386
0.0035108
0.000240055
0.00347865
0.000258632
0.00344425
0.000278258
0.00340739
0.000299047
0.00336791
0.000321098
0.00332581
0.000344513
0.00328076
0.000369414
0.00323264
0.000395841
0.00318138
0.000423953
0.00312646
0.000453822
0.00306803
0.000485482
0.00300562
0.000519198
0.00293843
0.000554802
0.00286697
0.000592422
0.00279123
0.000632333
0.00271074
0.000674473
0.00262535
0.000718982
0.00253452
0.000765964
0.00243785
0.000815389
0.00233514
0.000867475
0.00222553
0.00092232
0.00210804
0.000979695
0.00198168
0.00103933
0.00184491
0.00110071
0.00169582
0.00116208
0.00153867
0.00122331
0.00137306
0.00128554
0.00119838
0.00134571
0.00101595
0.00140333
0.000825663
0.00145801
0.000627101
0.00150546
0.000420373
0.00153785
0.000210743
0.00155885
0.00156261
0.00405966
2.87697e-07
0.00381047
5.24301e-06
0.00389015
5.67238e-05
0.00389187
7.04993e-05
0.00388435
7.81795e-05
0.00387473
8.81317e-05
0.00386323
0.000100859
0.00384979
0.000114788
0.00383485
0.000129718
0.00381841
0.000145489
0.00380013
0.000161757
0.00377976
0.000178421
0.00375722
0.000195527
0.00373263
0.000213162
0.00370617
0.000231425
0.00367781
0.000250446
0.00364725
0.000270348
0.00361441
0.000291261
0.00357928
0.000313348
0.00354166
0.000336739
0.00350137
0.000361546
0.0034584
0.000387883
0.00341247
0.000415887
0.0033634
0.000445613
0.00331117
0.000477225
0.00325522
0.00051083
0.00319568
0.000546442
0.00313213
0.000584381
0.00306368
0.00062448
0.00299085
0.000666852
0.00291367
0.000711834
0.00283167
0.000759391
0.00274464
0.000809676
0.00265198
0.00086283
0.00255326
0.000918826
0.00244825
0.000977928
0.0023361
0.0010403
0.00221574
0.00110574
0.00208604
0.001174
0.00194537
0.00124447
0.00179157
0.00131542
0.00162865
0.00138645
0.00145619
0.00145888
0.00127361
0.00152933
0.00108203
0.00159716
0.00088122
0.00166189
0.000670486
0.00171879
0.000449284
0.00175906
0.000226029
0.00178381
0.00179147
0.00421071
3.26603e-07
0.00395227
5.8341e-06
0.00403562
6.31556e-05
0.0040373
7.75746e-05
0.00402961
8.57468e-05
0.00401986
9.68621e-05
0.00400837
0.000111246
0.00399498
0.000126926
0.00398017
0.000143801
0.00396382
0.000161586
0.00394543
0.000179874
0.00392479
0.000198558
0.00390192
0.000217703
0.00387692
0.00023741
0.00385
0.000257793
0.00382114
0.000278999
0.00379004
0.000301173
0.00375658
0.00032446
0.0037208
0.000349042
0.00368251
0.000375071
0.0036415
0.000402671
0.00359779
0.000431961
0.0035511
0.000463106
0.00350123
0.000496164
0.00344819
0.000531315
0.00339138
0.000568695
0.00333089
0.000608302
0.00326642
0.000650511
0.00319697
0.000695168
0.00312299
0.000742363
0.00304462
0.000792499
0.00296136
0.000845575
0.00287299
0.000901764
0.00277886
0.000961259
0.00267842
0.00102405
0.00257143
0.00109042
0.00245705
0.00116064
0.00233415
0.00123452
0.00220152
0.00131189
0.00205732
0.00139227
0.00189874
0.0014736
0.00172995
0.00155529
0.0015505
0.00163916
0.00135934
0.00172141
0.00115767
0.00180094
0.00094514
0.00187752
0.000720889
0.0019457
0.000485102
0.00199487
0.000243506
0.00202724
0.00203791
0.00436738
3.59238e-07
0.00409924
6.4351e-06
0.00418645
6.95713e-05
0.00418848
8.50645e-05
0.00418079
9.3776e-05
0.00417089
0.000105876
0.00415943
0.000121785
0.0041462
0.000139188
0.00413166
0.000158025
0.00411546
0.000177875
0.00409701
0.000198232
0.00407616
0.000218976
0.00405301
0.000240193
0.0040277
0.000262005
0.00400041
0.00028454
0.00397113
0.000307964
0.00393957
0.000332441
0.00390559
0.000358134
0.00386926
0.000385241
0.00383042
0.000413932
0.00378882
0.000444348
0.00374448
0.000476614
0.0036972
0.000510914
0.00364669
0.000547328
0.00359301
0.000586033
0.00353554
0.000627206
0.00347435
0.000670834
0.00340919
0.000717332
0.003339
0.00076659
0.00326417
0.000818644
0.00318495
0.000873986
0.00310079
0.000932668
0.00301145
0.000994862
0.00291624
0.00106083
0.00281453
0.00113059
0.00270606
0.00120447
0.00258991
0.00128283
0.0024649
0.00136555
0.00232977
0.00145253
0.00218262
0.00154337
0.00201988
0.00163629
0.00184536
0.00172991
0.00165903
0.00182653
0.00145932
0.00192235
0.00124696
0.00201571
0.00102149
0.00210643
0.000781652
0.00218864
0.000526303
0.00225058
0.000265603
0.00228989
0.00230655
0.00452988
3.88359e-07
0.00425166
7.01238e-06
0.00434293
7.57626e-05
0.00434552
9.25781e-05
0.00433803
0.000101953
0.00432805
0.000115023
0.00431678
0.000132418
0.00430386
0.000151559
0.00428971
0.000172374
0.00427371
0.000194322
0.00425524
0.000216778
0.00423423
0.000239604
0.00421089
0.000262916
0.00418536
0.000286857
0.00415782
0.000311573
0.00412823
0.000337242
0.00409631
0.00036405
0.00406194
0.000392174
0.00402516
0.000421826
0.00398588
0.000453193
0.00394387
0.000486435
0.00389906
0.000521685
0.00385135
0.000559134
0.00380042
0.000598907
0.00374632
0.000641155
0.00368844
0.000686121
0.00362675
0.000733767
0.00356124
0.000784534
0.00349066
0.00083841
0.00341529
0.000895341
0.00333558
0.000955887
0.00325098
0.00102022
0.00316112
0.00108849
0.00306534
0.00116102
0.00296292
0.00123789
0.00285352
0.00131946
0.00273622
0.00140624
0.00260978
0.00149815
0.00247282
0.00159531
0.00232335
0.00169731
0.00215762
0.00180272
0.00197766
0.00190978
0.00178465
0.00202058
0.00157597
0.00213206
0.00135219
0.00224171
0.00111246
0.00234939
0.000855112
0.00244878
0.000579126
0.00252641
0.000291769
0.00257907
0.00260145
0.00469845
4.12494e-07
0.00440975
7.55372e-06
0.00450539
8.15841e-05
0.0045087
9.98318e-05
0.0045015
0.000109986
0.00449163
0.000124001
0.00448074
0.000142966
0.00446839
0.000163908
0.00445473
0.000186766
0.00443894
0.00021085
0.00442047
0.000235421
0.00439939
0.000260342
0.00437599
0.000285764
0.00435039
0.000311856
0.00432271
0.000338778
0.00429294
0.000366719
0.00426079
0.000395882
0.00422614
0.000426455
0.00418907
0.000458661
0.00414951
0.000492708
0.00410723
0.000528768
0.00406214
0.000566987
0.0040142
0.000607567
0.00396307
0.000650671
0.00390878
0.000696428
0.0038508
0.000745152
0.00378894
0.000796785
0.00372333
0.000851769
0.00365282
0.000910222
0.00357735
0.000972021
0.00349756
0.00103774
0.00341305
0.00110768
0.00332331
0.00118205
0.00322757
0.00126121
0.00312512
0.00134525
0.00301561
0.00143464
0.00289797
0.00153002
0.00277102
0.00163145
0.00263307
0.00173921
0.00248231
0.00185312
0.00231473
0.0019721
0.00213008
0.00209373
0.00193097
0.0022205
0.00171416
0.00234993
0.00147866
0.00247938
0.00122339
0.00260847
0.000945725
0.00273018
0.000643527
0.00282929
0.000327038
0.00289739
0.00293173
0.00487332
4.30074e-07
0.00457371
8.05112e-06
0.00467414
8.68625e-05
0.0046784
0.000106621
0.00467145
0.000117643
0.00466193
0.000132553
0.00465178
0.000153231
0.00464025
0.000176085
0.00462712
0.000201081
0.00461153
0.000227335
0.00459311
0.000254033
0.00457208
0.000281058
0.00454877
0.000308604
0.00452328
0.000336871
0.00449562
0.000366027
0.0044658
0.000396266
0.00443357
0.000427803
0.00439879
0.000460837
0.00436158
0.000495597
0.0043219
0.000532309
0.00427955
0.000571162
0.0042344
0.000612319
0.00418647
0.000655979
0.00413538
0.000702362
0.0040812
0.000751565
0.00402343
0.000803969
0.00396174
0.000859516
0.00389645
0.000918637
0.00382645
0.00098157
0.00375143
0.00104818
0.00367207
0.00111899
0.00358817
0.00119443
0.00349926
0.00127482
0.00340443
0.00136057
0.00330281
0.00145177
0.00319406
0.00154904
0.00307707
0.00165309
0.00295078
0.00176421
0.00281311
0.00188296
0.00266238
0.00200939
0.00249469
0.00214266
0.00230719
0.00228048
0.0021034
0.00242529
0.0018792
0.00257541
0.00163329
0.00272755
0.00136231
0.00288279
0.00106221
0.00303375
0.000729483
0.00316272
0.000371536
0.00325715
0.00330659
0.00505474
4.40813e-07
0.00474376
8.47833e-06
0.00484957
9.13518e-05
0.00485484
0.000112656
0.004848
0.000124608
0.00483963
0.000140606
0.00483057
0.00016309
0.00481997
0.000187959
0.00480728
0.000215154
0.00479186
0.000243616
0.0047736
0.000272449
0.00475282
0.000301586
0.00472982
0.00033128
0.00470462
0.000361751
0.00467719
0.000393175
0.00464746
0.000425742
0.00461528
0.000459667
0.00458055
0.000495167
0.00454335
0.000532468
0.00450375
0.000571812
0.00446155
0.000613415
0.00441657
0.000657448
0.00436889
0.000704117
0.00431818
0.000753681
0.00426437
0.000806246
0.00420718
0.0008622
0.00414612
0.000921557
0.00408151
0.000984676
0.00401256
0.00105192
0.00393863
0.00112321
0.00386032
0.00119897
0.00377771
0.00127976
0.00369039
0.00136598
0.00359731
0.00145817
0.00349761
0.00155638
0.00339086
0.00166147
0.00327589
0.00177409
0.00315182
0.00189493
0.00301635
0.0020248
0.00286741
0.00216394
0.00270175
0.00231239
0.00251425
0.00246759
0.00230831
0.00263194
0.00207873
0.00280584
0.00182216
0.0029862
0.00153631
0.00317233
0.00121264
0.00336118
0.000843459
0.00353356
0.000436508
0.00366583
0.00374655
0.00524295
4.56696e-07
0.00492018
8.77046e-06
0.00503173
9.49432e-05
0.00503812
0.00011753
0.00503234
0.000130551
0.00502547
0.000147966
0.00501753
0.000172362
0.00500784
0.000199323
0.00499557
0.000228813
0.0049804
0.0002595
0.00496252
0.000290475
0.00494225
0.00032175
0.0049198
0.000353624
0.00489511
0.000386341
0.00486805
0.000420071
0.00483858
0.000454991
0.00480662
0.000491316
0.0047721
0.000529267
0.00473513
0.000569081
0.0046958
0.000611014
0.004654
0.000655286
0.00460948
0.000702117
0.00456232
0.000751687
0.00451226
0.000804312
0.00445927
0.000860084
0.00440301
0.000919457
0.00434302
0.000982429
0.00427962
0.00104937
0.00421222
0.00112072
0.00414008
0.00119646
0.00406361
0.00127696
0.00398306
0.00136279
0.00389826
0.0014546
0.00380805
0.0015529
0.00371152
0.00165788
0.00360813
0.00177049
0.0034968
0.0018914
0.00337671
0.00202174
0.00324555
0.00216252
0.00310096
0.00231446
0.00294036
0.00247779
0.00275643
0.00265244
0.00255198
0.0028364
0.0023234
0.00303595
0.00206373
0.00324803
0.00176439
0.00347544
0.00141718
0.00371254
0.00100813
0.00394488
0.000529652
0.00414567
0.00427973
0.00543816
4.7079e-07
0.00510324
8.90815e-06
0.00522111
9.72026e-05
0.00522883
0.000120995
0.00522483
0.000135235
0.00521993
0.000154323
0.00521331
0.000180724
0.00520451
0.00020989
0.00519268
0.000241763
0.00517795
0.000274723
0.00516077
0.000307891
0.00514131
0.000341359
0.00511963
0.000375472
0.0050956
0.000410489
0.00506907
0.000446567
0.00504
0.000483865
0.00500839
0.000522588
0.00497426
0.000562966
0.00493774
0.000605246
0.00489889
0.000649693
0.0048577
0.000696542
0.00481395
0.000746042
0.00476765
0.000798382
0.00471855
0.0008539
0.00466669
0.000912703
0.0046119
0.000975248
0.00455342
0.00104166
0.00449182
0.00111213
0.00442664
0.0011873
0.00435706
0.00126718
0.00428318
0.00135213
0.00420563
0.00144261
0.00412434
0.00153957
0.00403819
0.00164345
0.00394638
0.00175479
0.00384808
0.00187429
0.00374239
0.00200301
0.00362866
0.00214206
0.00350513
0.00229317
0.00336817
0.00245747
0.00321646
0.00263446
0.00304547
0.00282605
0.0028471
0.00303492
0.00262151
0.00326239
0.00236289
0.00350848
0.0020619
0.00378001
0.00169898
0.00407993
0.00124938
0.00439749
0.000690508
0.00470575
0.00497394
0.00564062
4.64854e-07
0.00529324
8.88562e-06
0.00541787
9.77352e-05
0.00542737
0.000122721
0.00542625
0.000138413
0.00542371
0.000159176
0.00541839
0.000187747
0.00541042
0.000219221
0.0053992
0.000253637
0.0053853
0.000289014
0.00536917
0.000324484
0.00535079
0.000360229
0.00533005
0.000396654
0.00530684
0.000434024
0.00528098
0.000472484
0.00525248
0.000512168
0.00522143
0.000553274
0.00518791
0.000596038
0.00515207
0.000640716
0.005114
0.000687585
0.00507369
0.000736896
0.00503096
0.000788912
0.00498587
0.000843851
0.0049382
0.000902051
0.00488782
0.000963676
0.00483491
0.00102911
0.00477868
0.00109865
0.00471926
0.0011724
0.00465693
0.00125095
0.00459079
0.00133458
0.00452058
0.00142353
0.00444686
0.00151827
0.00437
0.00161967
0.00428931
0.0017286
0.00420362
0.00184548
0.00411232
0.00197106
0.00401453
0.00210662
0.00390964
0.00225358
0.00379763
0.00241207
0.00367537
0.00258627
0.00353589
0.00277937
0.00337685
0.00298866
0.00319631
0.00321663
0.00299027
0.00346871
0.00275014
0.00375087
0.00246251
0.00407095
0.00210694
0.00443914
0.00163709
0.00487097
0.000982577
0.00536269
0.0059604
0.00585063
3.41067e-07
0.00549003
9.0702e-06
0.00562158
9.61843e-05
0.00563482
0.000122265
0.00563785
0.000139133
0.00563775
0.000161448
0.00563396
0.000192606
0.00562702
0.000226802
0.00561691
0.000264088
0.00560428
0.000302171
0.00558944
0.000340133
0.00557222
0.000378283
0.00555244
0.000417107
0.00553
0.000456882
0.00550485
0.000497735
0.00547701
0.000539789
0.00544665
0.000583228
0.00541392
0.000628299
0.00537897
0.000675275
0.00534192
0.000724439
0.00530277
0.000776056
0.00526139
0.0008304
0.0052178
0.000887725
0.00517191
0.000948352
0.00512357
0.00101253
0.00507288
0.00108056
0.0050195
0.0011528
0.00496322
0.00122949
0.00490419
0.00131098
0.00484226
0.00139777
0.00477685
0.0014902
0.00470823
0.00158851
0.00463727
0.00169371
0.00456328
0.00180672
0.00448528
0.0019282
0.00440349
0.0020584
0.0043181
0.00219796
0.00422686
0.00235111
0.00412623
0.00251972
0.00401686
0.00270304
0.00389791
0.00290451
0.00376372
0.00312627
0.00361118
0.00337096
0.00343732
0.00364365
0.00323603
0.00395397
0.00299726
0.00431244
0.00269627
0.00474588
0.00227452
0.00529602
0.00162204
0.0060169
0.00758655
0.00845965
1.89646e-07
0.00793577
8.82103e-06
0.00813299
9.08375e-05
0.00816043
0.000115517
0.00817075
0.000133642
0.00817432
0.000159094
0.00817305
0.000194499
0.00816704
0.000233275
0.00815667
0.00027527
0.00814251
0.000317671
0.00812484
0.000359425
0.00810354
0.000401064
0.00807847
0.00044327
0.00804957
0.000486359
0.00801696
0.000530473
0.00798075
0.000575696
0.00794111
0.000622205
0.00789835
0.000670258
0.00785284
0.000720158
0.00780468
0.000772187
0.00775393
0.000826621
0.00770062
0.000883751
0.00764475
0.000943867
0.00758636
0.00100728
0.00752516
0.0010743
0.00746116
0.00114518
0.0073946
0.00122033
0.00732489
0.00130006
0.00725237
0.00138459
0.00717736
0.0014746
0.00709873
0.00157031
0.00701712
0.00167193
0.00693375
0.00178084
0.006849
0.00189624
0.00676354
0.00201959
0.00667441
0.00215495
0.00657826
0.00230165
0.00647983
0.00245838
0.00637986
0.00262956
0.00627616
0.00281639
0.00616745
0.00302245
0.00605144
0.00324999
0.00592443
0.00350121
0.00579051
0.00377983
0.00565431
0.00409129
0.00552451
0.00444465
0.00543977
0.00483593
0.00547659
0.00526742
0.005867
0.0056313
0.00544166
0.00801643
0.00846231
1.43176e-07
0.00793406
7.01039e-06
0.00814797
7.28239e-05
0.00818734
9.69642e-05
0.00820712
0.000117185
0.00821836
0.000148092
0.00822258
0.000190954
0.00822032
0.000236467
0.00821223
0.000284808
0.00819975
0.000331792
0.00818367
0.000377125
0.00816413
0.000422023
0.00814097
0.000467371
0.00811423
0.000513509
0.00808422
0.000560511
0.00805109
0.000608473
0.00801491
0.000657604
0.00797606
0.000708191
0.00793488
0.000760534
0.00789151
0.000814933
0.00784606
0.000871636
0.00779863
0.000930966
0.00774935
0.000993195
0.00769814
0.00105868
0.00764491
0.00112768
0.00758999
0.00120051
0.0075334
0.00127759
0.00747476
0.0013591
0.00741472
0.00144555
0.00735339
0.00153728
0.0072898
0.00163468
0.0072268
0.00173695
0.0071647
0.00184573
0.00710065
0.00196422
0.00703445
0.00209124
0.00697045
0.00222598
0.00690836
0.00237127
0.00684675
0.00252775
0.00678857
0.00269631
0.00673441
0.00288027
0.00668725
0.00307898
0.00664728
0.00329891
0.00661955
0.00353474
0.00660918
0.00379283
0.00663674
0.00406591
0.00673036
0.00435281
0.00693115
0.00463734
0.0073376
0.00486633
0.00796404
0.00501203
0.00466445
0.00874767
0.00846412
2.09604e-07
0.00793278
4.19511e-06
0.00816268
4.11083e-05
0.00822021
5.92523e-05
0.00825638
8.36065e-05
0.00827924
0.000125935
0.00829021
0.000181126
0.00829031
0.000237698
0.00828386
0.000292687
0.00827316
0.000343882
0.00825893
0.000392657
0.00824124
0.000440819
0.00822014
0.000489203
0.00819561
0.000538284
0.0081682
0.000587844
0.00813809
0.000638174
0.00810527
0.000689577
0.00806994
0.000742339
0.00803266
0.00079676
0.0079936
0.000853097
0.0079529
0.00091162
0.00791073
0.000972597
0.00786725
0.00103638
0.00782256
0.00110324
0.00777653
0.0011735
0.00772964
0.00124738
0.00768174
0.00132536
0.00763352
0.00140748
0.00758513
0.00149465
0.00753736
0.00158572
0.007491
0.00168149
0.00744388
0.00178501
0.007396
0.00189554
0.00735132
0.00201173
0.00731129
0.00213499
0.00727563
0.00226712
0.00724611
0.00240777
0.0072215
0.00255932
0.00720467
0.00272081
0.0071978
0.00289409
0.0072078
0.0030793
0.00723798
0.00327783
0.00729085
0.00348978
0.00738141
0.0037073
0.00751584
0.00393393
0.00772905
0.00414105
0.0080341
0.00433404
0.00845134
0.00445211
0.00897367
0.0044952
0.00423803
0.00940674
0.00846347
1.5372e-06
0.00793921
-7.25186e-06
0.00822087
-4.16874e-05
0.00830263
-2.91555e-06
0.00835125
3.7766e-05
0.00837209
0.000106344
0.00837702
0.000177669
0.00837319
0.000243021
0.0083653
0.000301999
0.00835508
0.000355229
0.00834205
0.000406647
0.00832581
0.000457753
0.00830664
0.000508731
0.00828479
0.000559994
0.00826063
0.000611544
0.00823436
0.000663732
0.00820586
0.000716975
0.0081754
0.00077152
0.00814309
0.000827664
0.00810921
0.000885577
0.00807384
0.000945594
0.00803749
0.00100788
0.00800033
0.00107288
0.00796232
0.00114071
0.00792344
0.00121182
0.007884
0.00128631
0.00784429
0.00136469
0.00780497
0.00144661
0.0077681
0.00153202
0.00773099
0.0016229
0.00769291
0.00171987
0.00765764
0.00182143
0.00762702
0.00192786
0.0076007
0.00204045
0.00757944
0.00215925
0.00756594
0.00228493
0.00756086
0.00241833
0.00756798
0.00255884
0.00758648
0.00270928
0.00762121
0.00286509
0.0076748
0.00303257
0.00775794
0.00320171
0.0078724
0.00338336
0.00802824
0.00355821
0.00822971
0.00373658
0.0084833
0.00388933
0.0088022
0.00401559
0.00917045
0.00408477
0.00961655
0.00405125
0.00392344
0.00993577
0.00845257
1.06778e-05
0.00797891
-6.32109e-05
0.0083687
-0.00023717
0.00855524
-0.000170086
0.00858671
1.01393e-05
0.00858184
0.000113656
0.00856596
0.000195328
0.00854985
0.000260541
0.00853628
0.000316606
0.008522
0.000369788
0.00850507
0.000423931
0.0084853
0.000477551
0.00846361
0.000530395
0.0084403
0.00058255
0.00841567
0.000635207
0.00838952
0.000688676
0.00836177
0.000743144
0.00833259
0.000798813
0.00830213
0.000855962
0.00827063
0.0009148
0.00823833
0.000975604
0.0082055
0.00103858
0.00817241
0.00110401
0.00813925
0.00117216
0.00810623
0.00124328
0.00807338
0.00131768
0.00804221
0.00139467
0.00801234
0.00147531
0.0079824
0.00156133
0.00795347
0.00165159
0.00792806
0.00174541
0.00790634
0.00184352
0.00788875
0.00194677
0.00787708
0.00205451
0.00787109
0.00216815
0.00787357
0.00228582
0.00788603
0.00241027
0.00791173
0.00253839
0.0079534
0.00267456
0.00801298
0.00281253
0.00809445
0.00295795
0.008202
0.00310094
0.00834446
0.00324766
0.00852401
0.00338599
0.00874977
0.00351725
0.00901494
0.00362866
0.00932451
0.00370863
0.00966549
0.00374458
0.0100073
0.00371069
0.0035971
0.0103354
0.00852055
1.78383e-05
0.00825031
-0.000395575
0.00881197
-0.000583186
0.00891473
-0.000251644
0.00890733
2.087e-05
0.00883516
0.000186462
0.00880279
0.000228049
0.00878157
0.000282049
0.00877
0.000328141
0.00875337
0.000386223
0.00873229
0.000444473
0.00870917
0.000499865
0.00868511
0.00055327
0.00866002
0.00060607
0.0086339
0.000659363
0.00860678
0.000713525
0.00857847
0.000768867
0.008549
0.000825355
0.0085184
0.000883384
0.00848688
0.000942949
0.00845466
0.00100447
0.00842195
0.00106794
0.00838908
0.00113377
0.00835637
0.00120186
0.00832428
0.00127262
0.00829387
0.00134542
0.00826365
0.00142222
0.00823433
0.00150238
0.00820828
0.00158561
0.00818697
0.00167165
0.00816954
0.00176193
0.00815724
0.00185537
0.00815053
0.0019534
0.00815137
0.00205462
0.00816032
0.0021607
0.00817839
0.00226988
0.00820753
0.00238366
0.0082502
0.00249992
0.00830929
0.00262059
0.00838683
0.00274211
0.00848496
0.00286611
0.0086056
0.00298693
0.00875393
0.00310465
0.00893229
0.00321339
0.00914653
0.00330897
0.00939439
0.00338628
0.00967369
0.00343488
0.00997752
0.00344356
0.0102775
0.00341274
0.00331147