/*--------------------------------*- C++ -*----------------------------------*\
| =========                 |                                                 |
| \\      /  F ield         | OpenFOAM: The Open Source CFD Toolbox           |
|  \\    /   O peration     | Version:  2412                                  |
|   \\  /    A nd           | Website:  www.openfoam.com                      |
|    \\/     M anipulation  |                                                 |
\*---------------------------------------------------------------------------*/
FoamFile
{
    version     2.0;
    format      ascii;
    arch        "LSB;label=32;scalar=64";
    class       volScalarField;
    location    "11.5";
    object      T;
}
// * * * * * * * * * * * * * * * * * * * * * * * * * * * * * * * * * * * * * //

dimensions      [0 0 0 1 0 0 0];

internalField   nonuniform List<scalar> 
7000
(
1.31812
2.64883
2.72575
2.67722
2.67199
2.65351
2.6491
2.65179
2.65485
2.65792
2.65965
2.66076
2.6619
2.66325
2.66473
2.6661
2.66755
2.66917
2.67084
2.67269
2.67478
2.67701
2.67931
2.68201
2.68473
2.68761
2.69085
2.69368
2.69752
2.70158
2.70501
2.70852
2.71161
2.71411
2.71618
2.71724
2.71751
2.71788
2.71902
2.72212
2.73049
2.73926
2.7455
2.7531
2.75884
2.76042
2.7631
2.77937
2.79422
2.8028
1.31816
2.64892
2.72616
2.67748
2.67191
2.65298
2.64895
2.65179
2.65495
2.65802
2.65975
2.66085
2.66197
2.66333
2.6648
2.66618
2.66764
2.66925
2.67093
2.67277
2.67487
2.67708
2.67939
2.68213
2.68478
2.68769
2.69095
2.69375
2.69758
2.70164
2.70509
2.70862
2.71166
2.71407
2.71614
2.71727
2.71756
2.71794
2.71905
2.72208
2.73039
2.73919
2.74543
2.75303
2.75873
2.76028
2.76293
2.77912
2.79376
2.80224
1.31814
2.64882
2.72607
2.67745
2.67186
2.65288
2.64889
2.65176
2.65491
2.65794
2.65964
2.66072
2.66183
2.6632
2.66466
2.66605
2.6675
2.66912
2.67079
2.67263
2.67473
2.67694
2.67924
2.68198
2.68461
2.68753
2.69078
2.69356
2.6974
2.70144
2.70489
2.70844
2.71146
2.71381
2.71588
2.71704
2.71736
2.71774
2.71881
2.72172
2.7299
2.73876
2.7451
2.75276
2.75849
2.76004
2.76268
2.77884
2.7935
2.80196
1.31808
2.64851
2.72611
2.67744
2.67147
2.65218
2.64858
2.65157
2.65477
2.65778
2.65943
2.66049
2.6616
2.66296
2.66443
2.66582
2.66727
2.66888
2.67056
2.67239
2.67448
2.67668
2.67897
2.68171
2.68431
2.68722
2.69046
2.69323
2.69704
2.70109
2.70451
2.70805
2.71107
2.71339
2.71544
2.71663
2.71695
2.71734
2.71838
2.72115
2.72915
2.73807
2.74445
2.75219
2.75798
2.75956
2.7622
2.77817
2.79277
2.80117
1.31802
2.64812
2.72617
2.67737
2.67096
2.65145
2.64831
2.65144
2.65465
2.65758
2.65917
2.66019
2.6613
2.66267
2.66414
2.66552
2.66697
2.66858
2.67025
2.67208
2.67416
2.67635
2.67863
2.68134
2.68393
2.68681
2.69003
2.69278
2.69658
2.7006
2.70401
2.70752
2.71052
2.71284
2.71488
2.71606
2.71638
2.71673
2.71773
2.72044
2.72828
2.73721
2.7436
2.75125
2.75706
2.75863
2.76118
2.77728
2.79212
2.80053
1.31797
2.64768
2.72667
2.67676
2.66962
2.65032
2.64804
2.65136
2.65452
2.65733
2.65882
2.65981
2.66091
2.66228
2.66376
2.66513
2.66658
2.66819
2.66986
2.67168
2.67374
2.67592
2.67817
2.68088
2.68344
2.68627
2.6895
2.69222
2.69594
2.69996
2.70338
2.70685
2.70981
2.71208
2.71412
2.71534
2.71567
2.71597
2.71684
2.71944
2.72726
2.7362
2.74253
2.75022
2.75616
2.75781
2.76023
2.77561
2.79059
2.79903
1.31806
2.64734
2.72726
2.67531
2.668
2.64972
2.64792
2.65128
2.65432
2.65698
2.65838
2.65932
2.66041
2.66179
2.66328
2.66465
2.66608
2.6677
2.66937
2.67116
2.67322
2.67539
2.6776
2.68027
2.68283
2.6856
2.6888
2.69151
2.69516
2.6992
2.70252
2.70596
2.70895
2.71118
2.71315
2.71435
2.71469
2.71502
2.71588
2.7182
2.7254
2.73438
2.74082
2.74858
2.75464
2.7563
2.75873
2.7743
2.78945
2.79797
1.31876
2.65013
2.72753
2.67177
2.66617
2.64981
2.64792
2.65117
2.65402
2.65653
2.65781
2.65872
2.65981
2.66119
2.66269
2.66406
2.66548
2.6671
2.66876
2.67055
2.67256
2.67473
2.67693
2.6795
2.68209
2.68479
2.68793
2.69062
2.69421
2.69821
2.70156
2.70486
2.70776
2.71007
2.71208
2.71323
2.71349
2.71372
2.71446
2.71668
2.7238
2.73279
2.7389
2.74647
2.75279
2.75461
2.75668
2.77127
2.78726
2.79557
1.31941
2.6587
2.72201
2.67075
2.66626
2.65024
2.64778
2.65089
2.65359
2.65595
2.65713
2.658
2.6591
2.66049
2.66199
2.66336
2.66476
2.66637
2.66803
2.6698
2.67178
2.67393
2.67608
2.67865
2.68115
2.68379
2.68693
2.68955
2.69304
2.697
2.70036
2.70362
2.70644
2.70865
2.71061
2.7118
2.71208
2.71224
2.71287
2.71485
2.72135
2.73072
2.73713
2.7445
2.75077
2.75271
2.75497
2.76948
2.78439
2.79388
1.31931
2.65809
2.72114
2.67065
2.66602
2.64988
2.64735
2.65045
2.65305
2.65525
2.65633
2.65717
2.65827
2.65966
2.66116
2.66252
2.66392
2.66551
2.66717
2.66892
2.67086
2.67299
2.67511
2.67759
2.68007
2.68262
2.68572
2.68829
2.69166
2.69559
2.69892
2.70209
2.70482
2.70697
2.70891
2.7101
2.71038
2.71047
2.71092
2.71268
2.7188
2.72773
2.73404
2.74143
2.74756
2.74931
2.75115
2.76485
2.78225
2.79024
1.31919
2.6573
2.7203
2.67063
2.66575
2.64938
2.64682
2.64992
2.65239
2.65442
2.65538
2.65621
2.65732
2.65871
2.6602
2.66156
2.66293
2.66452
2.66617
2.66789
2.66979
2.67188
2.67395
2.67637
2.6788
2.68125
2.68431
2.68684
2.69005
2.69391
2.69722
2.70031
2.70297
2.705
2.70685
2.70808
2.70836
2.7084
2.70868
2.70998
2.71545
2.72463
2.73094
2.73827
2.74498
2.74702
2.74868
2.76192
2.77743
2.78767
1.31907
2.65639
2.71938
2.67069
2.66548
2.64884
2.64623
2.64932
2.6516
2.65344
2.6543
2.65512
2.65625
2.65763
2.6591
2.66045
2.6618
2.66337
2.66501
2.6667
2.66854
2.67062
2.67262
2.67495
2.67733
2.67968
2.68266
2.68514
2.6882
2.69201
2.69524
2.69822
2.7008
2.70273
2.70447
2.70566
2.70593
2.70589
2.70603
2.70703
2.71141
2.72068
2.72696
2.73402
2.74052
2.74256
2.74377
2.75568
2.77394
2.78208
1.31893
2.65534
2.71832
2.67078
2.6652
2.6483
2.64558
2.6486
2.65065
2.65228
2.65308
2.65392
2.65505
2.65642
2.65786
2.65919
2.66052
2.66206
2.66369
2.66536
2.66714
2.66913
2.67114
2.67331
2.67566
2.67787
2.68078
2.68324
2.68603
2.68978
2.69302
2.69582
2.69829
2.70012
2.70174
2.70288
2.70312
2.703
2.70297
2.70356
2.70702
2.71562
2.72202
2.72874
2.73577
2.7381
2.73909
2.74972
2.76616
2.77801
1.31876
2.65414
2.71712
2.67087
2.66489
2.64776
2.64483
2.64775
2.64947
2.65097
2.65172
2.6526
2.65374
2.65505
2.65645
2.65776
2.65907
2.66058
2.66219
2.66383
2.66554
2.66748
2.66942
2.67148
2.67375
2.67585
2.67859
2.68109
2.68366
2.6872
2.69045
2.69314
2.69539
2.69708
2.69859
2.69963
2.69977
2.69955
2.6993
2.69953
2.70194
2.70985
2.71647
2.723
2.7295
2.73244
2.73339
2.74309
2.76094
2.7693
1.31858
2.65279
2.71576
2.67098
2.6645
2.64728
2.64394
2.64664
2.64806
2.64946
2.65026
2.65117
2.65229
2.65355
2.65487
2.65616
2.65744
2.65892
2.66052
2.66211
2.66378
2.66559
2.6675
2.66938
2.67165
2.67354
2.67618
2.67863
2.68099
2.68429
2.68747
2.69011
2.69219
2.69361
2.69493
2.69586
2.69594
2.69564
2.69513
2.69504
2.69647
2.70314
2.70965
2.71577
2.72242
2.72395
2.72416
2.7321
2.74905
2.7623
1.31839
2.65132
2.71421
2.67112
2.66417
2.64674
2.64273
2.64517
2.64639
2.64784
2.64871
2.64964
2.65071
2.65187
2.65311
2.65435
2.65564
2.65706
2.65863
2.66021
2.66177
2.66351
2.66533
2.6671
2.66919
2.67108
2.67341
2.67588
2.67806
2.68101
2.6841
2.68666
2.68858
2.68977
2.69093
2.69158
2.69155
2.69111
2.6902
2.68966
2.6901
2.69532
2.70115
2.70666
2.71359
2.71715
2.71615
2.72158
2.73963
2.74826
1.31818
2.64972
2.71236
2.67177
2.66356
2.64574
2.64118
2.64344
2.64458
2.64615
2.6471
2.64799
2.64897
2.65001
2.65115
2.65236
2.65363
2.65502
2.65655
2.65807
2.65958
2.66115
2.66292
2.66455
2.66653
2.66822
2.67047
2.67274
2.67485
2.67741
2.68032
2.68276
2.68457
2.68543
2.68637
2.68669
2.68657
2.68594
2.68472
2.68373
2.68344
2.68592
2.6926
2.69667
2.70126
2.70304
2.70269
2.70494
2.71864
2.73376
1.31796
2.64796
2.71033
2.67262
2.66279
2.64428
2.63931
2.64144
2.64266
2.64441
2.64541
2.64619
2.64703
2.64794
2.64899
2.65015
2.65141
2.65278
2.65425
2.6557
2.65716
2.65859
2.66022
2.66173
2.6636
2.66517
2.6671
2.66941
2.67118
2.67353
2.67601
2.67854
2.67996
2.68078
2.68122
2.68117
2.68083
2.68003
2.67811
2.67611
2.67527
2.67589
2.68057
2.68434
2.68923
2.69065
2.68669
2.68747
2.69956
2.70609
1.31772
2.64602
2.70818
2.67361
2.66177
2.64219
2.63714
2.63931
2.64075
2.64263
2.64359
2.64418
2.64486
2.64567
2.64661
2.64775
2.64899
2.65032
2.65172
2.65309
2.65446
2.65579
2.65728
2.65864
2.66031
2.66188
2.66344
2.66556
2.66738
2.66916
2.67137
2.67357
2.67509
2.67566
2.67561
2.67533
2.67472
2.67329
2.67154
2.66891
2.66627
2.66551
2.66642
2.66916
2.67048
2.66925
2.66564
2.65762
2.66041
2.6662
1.31744
2.6439
2.70612
2.67453
2.6598
2.63962
2.6349
2.63725
2.63885
2.64071
2.64151
2.64192
2.64244
2.64316
2.64406
2.64513
2.64635
2.64763
2.64895
2.65024
2.65149
2.65273
2.65406
2.65534
2.65677
2.65823
2.65966
2.66133
2.66305
2.66467
2.66631
2.66818
2.66952
2.66972
2.66948
2.66861
2.66762
2.66555
2.66303
2.65971
2.65573
2.65317
2.65308
2.65305
2.65239
2.64888
2.63783
2.62217
2.60743
2.55418
1.31725
2.64205
2.70254
2.67421
2.65697
2.63711
2.63258
2.635
2.6364
2.638
2.63857
2.63881
2.63918
2.6398
2.64063
2.6416
2.6427
2.64391
2.64511
2.64626
2.6474
2.64849
2.64959
2.65069
2.65177
2.65305
2.65428
2.65549
2.65699
2.65817
2.65928
2.66079
2.66161
2.6616
2.66118
2.6596
2.65788
2.65552
2.65119
2.64674
2.64077
2.63462
2.62862
2.6252
2.61794
2.6098
2.59286
2.55307
2.50121
2.39899
1.31726
2.64083
2.69579
2.67415
2.65449
2.63473
2.62965
2.63194
2.63291
2.63432
2.63483
2.63504
2.63535
2.63593
2.63668
2.63754
2.63851
2.63962
2.64067
2.64171
2.64268
2.64362
2.64452
2.64536
2.64627
2.64723
2.64806
2.64896
2.65001
2.65069
2.65142
2.6525
2.65249
2.6522
2.6513
2.64979
2.64634
2.64404
2.63962
2.63448
2.62774
2.6192
2.61082
2.59989
2.59025
2.56971
2.5466
2.50373
2.42217
2.33094
1.31727
2.63984
2.69044
2.67434
2.65279
2.6322
2.62614
2.62803
2.62881
2.63024
2.6308
2.63101
2.63129
2.63176
2.63245
2.63316
2.63403
2.63499
2.63603
2.63689
2.63782
2.63857
2.63938
2.64001
2.64072
2.64147
2.64204
2.64287
2.64312
2.64364
2.64381
2.64376
2.64342
2.64237
2.64094
2.63784
2.63459
2.62853
2.62418
2.61616
2.60982
2.59698
2.58672
2.57223
2.5561
2.53879
2.50509
2.47037
2.40061
2.32723
1.31719
2.63835
2.68678
2.67369
2.65044
2.62874
2.62192
2.62381
2.62457
2.62609
2.62666
2.62676
2.62693
2.62726
2.62772
2.62829
2.62887
2.62962
2.63025
2.63106
2.63166
2.6325
2.63289
2.63353
2.63389
2.63464
2.635
2.63591
2.63609
2.6364
2.63693
2.63681
2.63638
2.63524
2.63382
2.63086
2.62708
2.6218
2.61414
2.60707
2.59595
2.58609
2.56772
2.55354
2.52809
2.50899
2.4763
2.44206
2.39241
2.33463
1.31666
2.63781
2.69904
2.67074
2.64995
2.62615
2.61833
2.6209
2.62174
2.6236
2.62415
2.62415
2.62412
2.6242
2.62438
2.62461
2.62483
2.6251
2.62533
2.6256
2.62578
2.62594
2.62592
2.62585
2.62567
2.62543
2.62522
2.62478
2.62439
2.62373
2.62313
2.62224
2.62137
2.61989
2.61776
2.61588
2.61182
2.60842
2.60064
2.59504
2.58309
2.57479
2.55761
2.54263
2.51855
2.4935
2.46372
2.42768
2.38749
2.34426
1.30126
2.58249
2.69317
2.67829
2.65666
2.63274
2.62566
2.62862
2.62964
2.63134
2.63129
2.63098
2.63049
2.63005
2.62968
2.62932
2.62894
2.62859
2.62824
2.62793
2.6276
2.62721
2.62686
2.6263
2.6259
2.62521
2.62466
2.62391
2.62243
2.62127
2.61893
2.61724
2.61392
2.61155
2.60677
2.60329
2.5974
2.59246
2.58443
2.57682
2.56597
2.55565
2.54223
2.52731
2.50888
2.48561
2.45954
2.42729
2.3913
2.35357
1.72322
2.46034
2.72289
2.6989
2.68001
2.66807
2.66825
2.66931
2.67068
2.67078
2.66956
2.66823
2.66666
2.66517
2.6633
2.66177
2.65952
2.65789
2.65548
2.65369
2.65114
2.64909
2.64599
2.64412
2.64058
2.63825
2.634
2.63133
2.62762
2.62492
2.62136
2.61856
2.61468
2.6109
2.60613
2.60072
2.59416
2.587
2.57766
2.56796
2.55542
2.54279
2.52793
2.51197
2.49447
2.47376
2.45079
2.42428
2.39434
2.36285
1.73675
2.45109
2.71559
2.69194
2.67172
2.66178
2.66522
2.66657
2.66928
2.6702
2.67018
2.67
2.66954
2.66913
2.66817
2.66747
2.66593
2.66503
2.66318
2.66203
2.6602
2.65853
2.65645
2.65433
2.6518
2.64923
2.64667
2.64331
2.63991
2.63566
2.63161
2.62616
2.62158
2.61544
2.60987
2.60347
2.59598
2.5882
2.57836
2.56809
2.55528
2.54163
2.52619
2.50925
2.49101
2.47088
2.44905
2.42484
2.3987
2.37192
1.73356
2.45543
2.71638
2.69118
2.66745
2.65699
2.66163
2.6634
2.66646
2.66778
2.66815
2.66829
2.66833
2.66828
2.66807
2.66747
2.66697
2.66602
2.66527
2.66421
2.66342
2.66211
2.66101
2.6588
2.65722
2.65381
2.65158
2.64741
2.64426
2.63919
2.63473
2.62971
2.6246
2.61919
2.61262
2.60608
2.59823
2.59055
2.58063
2.57063
2.55825
2.54454
2.5291
2.51185
2.49395
2.47375
2.45304
2.43001
2.40618
2.38293
1.7375
2.44679
2.71038
2.68409
2.66318
2.65271
2.65674
2.65885
2.66206
2.66351
2.66405
2.66437
2.66473
2.66503
2.66519
2.66518
2.66503
2.6645
2.66411
2.66336
2.66283
2.6618
2.66104
2.65938
2.65817
2.65552
2.65365
2.65001
2.64695
2.64253
2.63773
2.63206
2.62566
2.61956
2.61239
2.60599
2.59824
2.59086
2.58161
2.57165
2.56091
2.54783
2.53442
2.51778
2.50074
2.4813
2.46198
2.44051
2.41858
2.39678
1.7486
2.42668
2.69619
2.67007
2.65697
2.6481
2.6491
2.652
2.65515
2.65636
2.65732
2.65759
2.65792
2.65813
2.65824
2.65823
2.65814
2.65783
2.65759
2.65713
2.65689
2.65641
2.65609
2.65534
2.65464
2.65294
2.65149
2.6486
2.64597
2.64227
2.63784
2.63276
2.6265
2.62005
2.61263
2.60531
2.59719
2.58894
2.58068
2.57099
2.56173
2.55036
2.539
2.52549
2.51096
2.49433
2.47628
2.4571
2.43658
2.4168
1.74432
2.41835
2.69049
2.66103
2.65593
2.64412
2.6441
2.64641
2.64931
2.65075
2.65224
2.65252
2.65294
2.65329
2.65358
2.6537
2.65369
2.65351
2.65327
2.65298
2.65281
2.65249
2.65224
2.65168
2.65114
2.64993
2.64858
2.64642
2.64391
2.641
2.63712
2.63263
2.62723
2.62117
2.61422
2.60657
2.59874
2.5897
2.58118
2.57135
2.56178
2.5512
2.54025
2.52834
2.51546
2.50155
2.48627
2.46989
2.45232
2.43495
1.35356
2.44429
2.66961
2.66084
2.63982
2.61673
2.60861
2.61268
2.61451
2.6172
2.61899
2.61985
2.62077
2.62153
2.62245
2.62337
2.62419
2.6248
2.62515
2.62533
2.62554
2.62558
2.62569
2.62558
2.62537
2.62508
2.62432
2.62337
2.62161
2.61965
2.61715
2.61402
2.61093
2.60683
2.60265
2.59744
2.59199
2.58521
2.57832
2.57034
2.56146
2.55208
2.54178
2.53121
2.51981
2.50784
2.49517
2.48152
2.46702
2.45252
1.35584
2.44882
2.67768
2.67085
2.64752
2.61719
2.60668
2.60713
2.60917
2.61116
2.61229
2.61251
2.61297
2.61324
2.61378
2.61439
2.61514
2.61576
2.61632
2.61691
2.61728
2.61756
2.61763
2.61756
2.61741
2.61702
2.61616
2.61519
2.61309
2.6109
2.6075
2.60349
2.59805
2.59228
2.58592
2.57928
2.57267
2.56603
2.55909
2.55274
2.54606
2.53956
2.53241
2.52461
2.51604
2.50628
2.49553
2.48412
2.47218
2.46058
1.34716
2.388
2.6518
2.66248
2.64246
2.6155
2.60487
2.60488
2.60546
2.60618
2.60589
2.60523
2.60457
2.60393
2.6035
2.60327
2.60309
2.60294
2.60288
2.60281
2.60276
2.60275
2.60272
2.60264
2.60244
2.60219
2.60195
2.60175
2.60129
2.6005
2.59911
2.59774
2.59489
2.59104
2.58575
2.5801
2.57356
2.56654
2.55879
2.55073
2.54216
2.53335
2.52441
2.51538
2.50639
2.49782
2.48902
2.47953
2.46929
2.45957
1.75107
2.37775
2.64958
2.64645
2.63417
2.62084
2.61658
2.61725
2.61754
2.61787
2.61761
2.61693
2.6161
2.6149
2.61393
2.61286
2.61183
2.61063
2.60944
2.60811
2.60681
2.60549
2.60415
2.6026
2.60095
2.59953
2.598
2.59625
2.5948
2.59346
2.59151
2.58973
2.58831
2.58646
2.58356
2.57944
2.57434
2.56865
2.56213
2.55473
2.54707
2.53844
2.52982
2.52028
2.51089
2.50041
2.49055
2.48048
2.47058
2.46101
1.34344
2.36831
2.64136
2.65754
2.64106
2.6146
2.6057
2.6033
2.60459
2.60459
2.60423
2.60382
2.60292
2.60196
2.60141
2.60066
2.60004
2.59936
2.59846
2.59775
2.5969
2.5961
2.59555
2.59443
2.59335
2.59177
2.59032
2.58816
2.58623
2.5843
2.58243
2.57944
2.57682
2.57392
2.57185
2.56933
2.56646
2.56262
2.55808
2.55239
2.54629
2.53915
2.53177
2.52368
2.51536
2.50639
2.49713
2.48723
2.47737
2.4678
1.34413
2.37696
2.64858
2.66444
2.64329
2.61305
2.60103
2.60029
2.6013
2.60194
2.60185
2.60125
2.60054
2.59955
2.59904
2.59841
2.59792
2.59729
2.59658
2.5957
2.59458
2.59313
2.59171
2.5899
2.5881
2.58591
2.58363
2.58094
2.57826
2.57529
2.57251
2.56893
2.56538
2.56143
2.55727
2.55299
2.54853
2.54404
2.53968
2.53509
2.53036
2.52529
2.51986
2.51386
2.50749
2.50057
2.49315
2.48505
2.47641
2.46811
1.34349
2.37282
2.64612
2.66264
2.64059
2.60958
2.59665
2.59589
2.59663
2.59754
2.59731
2.5966
2.59592
2.59492
2.59424
2.59362
2.59299
2.59253
2.59194
2.59137
2.59071
2.58981
2.58888
2.58773
2.58643
2.58491
2.58304
2.58084
2.57851
2.57568
2.5729
2.56935
2.56563
2.56136
2.55664
2.5516
2.54631
2.54064
2.53477
2.52868
2.52238
2.51594
2.50933
2.5026
2.49571
2.48867
2.48162
2.47444
2.46702
2.45988
1.34183
2.35065
2.62679
2.65259
2.63305
2.60468
2.59189
2.58992
2.59018
2.59034
2.58982
2.58903
2.58769
2.58645
2.58525
2.58438
2.58346
2.58275
2.58196
2.58116
2.58037
2.57949
2.5786
2.57777
2.57695
2.57625
2.57539
2.57434
2.57316
2.57146
2.56995
2.56793
2.56513
2.56193
2.5582
2.55382
2.54911
2.54378
2.53811
2.53201
2.52556
2.51885
2.51189
2.50473
2.49741
2.48995
2.4824
2.47472
2.46692
2.45953
1.76413
2.35227
2.61894
2.61653
2.60274
2.58872
2.58548
2.58639
2.58722
2.58763
2.58745
2.58757
2.5878
2.58774
2.58757
2.5872
2.58645
2.58552
2.58462
2.5836
2.58273
2.58142
2.57984
2.57831
2.57654
2.57492
2.57331
2.5714
2.56971
2.56762
2.56553
2.56359
2.56137
2.55894
2.55605
2.55247
2.54855
2.54389
2.53888
2.5334
2.52761
2.5214
2.51499
2.50823
2.50135
2.49415
2.48687
2.47937
2.47176
2.46452
1.34402
2.36121
2.63158
2.65161
2.63094
2.59849
2.58797
2.5856
2.58743
2.5876
2.5871
2.58582
2.58491
2.58346
2.58237
2.58103
2.58004
2.57819
2.57722
2.57528
2.57389
2.57255
2.57066
2.56896
2.56721
2.56554
2.56406
2.56217
2.5601
2.55767
2.55454
2.55148
2.54846
2.54534
2.54255
2.5395
2.53632
2.53303
2.52925
2.52524
2.52075
2.51589
2.51066
2.50502
2.49904
2.49266
2.48602
2.47914
2.47199
2.46524
1.34655
2.38128
2.63918
2.63996
2.6178
2.58707
2.57628
2.57657
2.5784
2.58001
2.57977
2.57929
2.57877
2.57856
2.5785
2.57826
2.57757
2.57621
2.57475
2.5734
2.57217
2.57123
2.57038
2.56936
2.56791
2.56606
2.56419
2.56187
2.55929
2.55661
2.55356
2.55017
2.54675
2.54296
2.53922
2.53534
2.53135
2.52723
2.52292
2.51839
2.51373
2.50884
2.50375
2.49849
2.49299
2.48731
2.48132
2.47516
2.46874
2.46257
1.78682
2.34019
2.60957
2.6055
2.59178
2.56711
2.56343
2.56453
2.56904
2.57311
2.57453
2.5745
2.57414
2.57406
2.57438
2.57559
2.57668
2.57689
2.57676
2.57636
2.57581
2.57528
2.57469
2.57409
2.57353
2.57245
2.57098
2.56916
2.56705
2.56483
2.56249
2.55977
2.55672
2.55317
2.54922
2.54496
2.54051
2.5358
2.53105
2.52608
2.52109
2.51585
2.51054
2.50491
2.49919
2.49318
2.48713
2.48081
2.47441
2.46832
1.8169
2.31275
2.59761
2.59581
2.58543
2.563
2.55725
2.55817
2.5618
2.56652
2.56714
2.56627
2.56363
2.56189
2.56172
2.56252
2.56348
2.56359
2.56325
2.56214
2.56083
2.55975
2.55893
2.55833
2.55751
2.55596
2.55365
2.55176
2.54959
2.54823
2.54668
2.5454
2.54393
2.54196
2.53998
2.53738
2.5346
2.53168
2.52836
2.52471
2.52083
2.51646
2.51185
2.50692
2.50166
2.49631
2.49064
2.48496
2.47899
2.47329
1.77847
2.34974
2.62664
2.60364
2.59552
2.57546
2.57003
2.5718
2.57535
2.57823
2.57857
2.57802
2.57588
2.57391
2.57296
2.57259
2.57232
2.57196
2.57108
2.56961
2.56779
2.56598
2.56456
2.5633
2.56122
2.55816
2.55466
2.55098
2.54789
2.54438
2.54133
2.53781
2.53436
2.53084
2.52707
2.52378
2.52051
2.51751
2.51485
2.51188
2.50878
2.50534
2.50135
2.49714
2.49251
2.48765
2.48257
2.47717
2.47154
2.46602
1.28136
2.46669
2.63005
2.63031
2.60591
2.57264
2.56174
2.56221
2.56532
2.5677
2.56836
2.56811
2.5675
2.56721
2.56715
2.56715
2.56708
2.56678
2.56597
2.56444
2.56272
2.5612
2.55975
2.55856
2.55762
2.55598
2.55435
2.55105
2.54864
2.54537
2.54261
2.53929
2.5359
2.53243
2.52838
2.52474
2.52115
2.51757
2.51453
2.51136
2.50799
2.50467
2.5008
2.49681
2.49255
2.48796
2.48321
2.47802
2.47254
2.46721
1.7803
2.34706
2.61132
2.59824
2.58625
2.57096
2.56738
2.56887
2.56942
2.57092
2.57063
2.57016
2.56995
2.57007
2.57057
2.57092
2.57093
2.5707
2.57008
2.56926
2.56858
2.56758
2.56688
2.5657
2.56491
2.56325
2.56149
2.55876
2.55571
2.55292
2.55015
2.5474
2.545
2.54172
2.53842
2.53491
2.53056
2.52701
2.52282
2.51904
2.51567
2.51168
2.50805
2.50353
2.49897
2.49413
2.48875
2.48385
2.47819
2.47318
1.78437
2.34434
2.60805
2.59517
2.5849
2.56751
2.56363
2.5644
2.56625
2.56778
2.56835
2.56775
2.56704
2.56681
2.56667
2.5666
2.56644
2.566
2.56537
2.56439
2.5637
2.5626
2.56194
2.56069
2.55982
2.55816
2.55642
2.55456
2.5525
2.5506
2.54879
2.54642
2.54475
2.54164
2.539
2.53581
2.53188
2.52893
2.52513
2.52207
2.51884
2.51552
2.51229
2.5085
2.50519
2.50135
2.4974
2.49352
2.48883
2.48454
1.28088
2.46417
2.62864
2.62743
2.60256
2.56483
2.55015
2.55049
2.55374
2.55745
2.55902
2.55899
2.55847
2.55736
2.55635
2.55585
2.5556
2.55538
2.55509
2.55432
2.55343
2.55159
2.55013
2.54861
2.54687
2.54598
2.54423
2.54226
2.54082
2.53836
2.53686
2.53445
2.53264
2.53051
2.52813
2.5259
2.52289
2.52011
2.51706
2.51407
2.511
2.508
2.50487
2.50153
2.49823
2.49466
2.49096
2.4872
2.48307
2.4789
1.80899
2.33682
2.60385
2.58243
2.57847
2.5655
2.55899
2.55907
2.55928
2.56108
2.56205
2.56339
2.56387
2.56393
2.56368
2.563
2.56255
2.56243
2.56238
2.56228
2.56205
2.56158
2.56046
2.55959
2.5582
2.55677
2.5556
2.55344
2.55193
2.54916
2.54675
2.54413
2.54113
2.5387
2.53573
2.53287
2.53009
2.52675
2.52366
2.52041
2.51666
2.5135
2.50977
2.50622
2.50267
2.49871
2.49493
2.49066
2.48648
2.48214
1.85936
2.30932
2.57751
2.56064
2.5612
2.55827
2.55233
2.54814
2.54596
2.54554
2.54665
2.54894
2.55052
2.55105
2.55061
2.54899
2.54763
2.54718
2.54725
2.54758
2.54773
2.5477
2.54738
2.54677
2.54579
2.545
2.54435
2.54332
2.54271
2.54144
2.54014
2.53879
2.53694
2.53545
2.53377
2.53175
2.53005
2.5274
2.52512
2.52205
2.51899
2.51559
2.51217
2.50906
2.50518
2.50212
2.49824
2.49418
2.49045
2.48598
1.87374
2.29835
2.56797
2.55534
2.55878
2.55684
2.55012
2.54366
2.54045
2.53986
2.54165
2.54502
2.54712
2.54755
2.54651
2.54363
2.54168
2.54111
2.54123
2.54155
2.54157
2.5413
2.54015
2.53841
2.53698
2.53595
2.53518
2.53467
2.53412
2.53316
2.532
2.5304
2.52913
2.52729
2.52632
2.52471
2.52375
2.52192
2.51968
2.51724
2.51391
2.51097
2.50738
2.50414
2.50059
2.49735
2.4941
2.49099
2.48751
2.48411
1.83794
2.31185
2.56809
2.56601
2.56353
2.55575
2.54677
2.54172
2.53997
2.54024
2.54278
2.54559
2.5465
2.54634
2.54446
2.54155
2.53997
2.53949
2.53941
2.53934
2.53915
2.53847
2.53692
2.53538
2.53432
2.53369
2.53328
2.53298
2.5327
2.53205
2.53131
2.52999
2.52912
2.52771
2.52689
2.52561
2.52468
2.52338
2.52112
2.51921
2.51603
2.51327
2.50986
2.50622
2.50296
2.49907
2.49617
2.49349
2.49021
2.48764
1.34227
2.35468
2.61544
2.62281
2.60074
2.56677
2.55077
2.54756
2.5487
2.54963
2.55041
2.55033
2.5501
2.54957
2.54848
2.54766
2.54652
2.54526
2.5439
2.5427
2.54174
2.54023
2.53874
2.53681
2.53505
2.5326
2.53108
2.52882
2.52745
2.52521
2.52366
2.52163
2.51976
2.51838
2.51617
2.51503
2.51295
2.51124
2.50932
2.50627
2.50404
2.50061
2.49743
2.49463
2.49049
2.48733
2.4835
2.47958
2.47635
2.4726
1.3418
2.35678
2.6284
2.64583
2.62016
2.57953
2.55918
2.55805
2.55954
2.56225
2.56341
2.56313
2.56233
2.56105
2.55953
2.55831
2.55752
2.55689
2.55628
2.55532
2.55422
2.55258
2.55098
2.54887
2.5471
2.54502
2.54353
2.54178
2.54024
2.53851
2.5364
2.53444
2.53193
2.52975
2.52746
2.52495
2.52298
2.52012
2.51772
2.51452
2.51116
2.50769
2.50376
2.50006
2.49608
2.49208
2.48798
2.48391
2.47967
2.47577
1.3419
2.3497
2.61095
2.62194
2.59973
2.56465
2.54799
2.54702
2.54846
2.55037
2.55091
2.55054
2.54959
2.54845
2.54713
2.54613
2.54545
2.54483
2.54415
2.54323
2.54212
2.5407
2.53922
2.53764
2.53627
2.5349
2.53371
2.53241
2.53109
2.52955
2.52787
2.52591
2.52408
2.52181
2.52009
2.51755
2.51563
2.51287
2.51018
2.50728
2.50369
2.50053
2.49667
2.493
2.48931
2.4851
2.48118
2.47674
2.47239
2.46818
1.80689
2.30824
2.58021
2.58055
2.57061
2.54556
2.53533
2.53534
2.53747
2.54322
2.54596
2.54622
2.54514
2.5418
2.53855
2.5367
2.53574
2.53521
2.53472
2.53366
2.532
2.53028
2.52882
2.52784
2.52745
2.52754
2.52797
2.52841
2.52861
2.52855
2.52837
2.52805
2.52777
2.5271
2.52653
2.5252
2.52422
2.52222
2.52016
2.51766
2.51468
2.5121
2.50894
2.50614
2.50305
2.49929
2.49557
2.49059
2.48548
2.48023
1.83284
2.2943
2.58091
2.57032
2.56527
2.54725
2.53817
2.53765
2.53874
2.54324
2.54708
2.54812
2.54774
2.54467
2.5404
2.53785
2.53648
2.53568
2.53505
2.5338
2.53125
2.52844
2.5261
2.52452
2.52378
2.52374
2.52416
2.5248
2.52503
2.52506
2.52517
2.52539
2.52561
2.52566
2.52561
2.52545
2.52507
2.52389
2.52204
2.5198
2.5168
2.51527
2.51237
2.51033
2.50708
2.50263
2.49832
2.49149
2.48594
2.47893
1.82159
2.31394
2.59428
2.5682
2.56497
2.55384
2.54789
2.54807
2.54805
2.54932
2.55167
2.55269
2.55335
2.55323
2.5516
2.54825
2.54544
2.54344
2.54189
2.54087
2.53971
2.53787
2.53569
2.53371
2.53223
2.53132
2.53102
2.53112
2.53144
2.53161
2.53165
2.53165
2.53161
2.53153
2.53143
2.53116
2.5308
2.52999
2.52847
2.52651
2.52318
2.52127
2.51799
2.5158
2.51302
2.50916
2.50584
2.49956
2.49453
2.48765
2.20667
2.37977
2.79955
2.90136
2.95005
2.90381
2.89892
2.89387
2.88796
2.88569
2.88612
2.88797
2.88827
2.88742
2.88622
2.88575
2.88496
2.88467
2.88476
2.88501
2.8848
2.8845
2.88396
2.88205
2.87844
2.87538
2.8719
2.86798
2.86355
2.85868
2.85347
2.84776
2.84194
2.83517
2.82896
2.82221
2.81448
2.80681
2.79858
2.79007
2.78148
2.7731
2.76439
2.75604
2.74729
2.73882
2.73021
2.72134
2.71289
2.70437
2.69594
2.68795
2.68013
2.67246
2.66511
2.65784
2.65069
2.64378
2.63695
2.63028
2.62385
2.61779
2.61179
2.60602
2.60076
2.5958
2.5908
2.58665
2.58209
2.57903
2.57512
2.57222
2.56906
2.56699
2.56406
2.56197
2.56001
2.55854
2.55693
2.55534
2.55371
2.55177
2.55052
2.54905
2.54758
2.54659
2.54584
2.5455
2.54541
2.54561
2.5459
2.54662
2.54722
2.5488
2.54973
2.5517
2.55287
2.55596
2.55713
2.56113
2.20592
2.28757
2.47864
2.65977
2.72619
2.77768
2.81149
2.84498
2.86212
2.88186
2.89494
2.90731
2.91867
2.92388
2.92333
2.92041
2.91244
2.89685
2.88083
2.86585
2.85228
2.83967
2.82702
2.81434
2.80168
2.78817
2.77406
2.76021
2.74715
2.73451
2.72207
2.70936
2.69753
2.6861
2.67508
2.66536
2.65598
2.64526
2.63221
2.62001
2.60883
2.5992
2.59016
2.58149
2.5734
2.56523
2.558
2.55091
2.54448
2.53833
2.53236
2.52646
2.52086
2.51518
2.51005
2.50525
2.50078
2.49687
2.49287
2.48992
2.48659
2.48428
2.48247
2.48098
2.48047
2.48033
2.48051
2.48099
2.4817
2.48229
2.48292
2.48322
2.48317
2.48298
2.48209
2.48088
2.48011
2.47882
2.47701
2.47502
2.47223
2.4697
2.46583
2.46237
2.45774
2.45366
2.4485
2.44336
2.43831
2.43152
2.4262
2.41839
2.41344
2.4059
2.40056
2.39216
2.38756
2.3801
2.37651
2.36669
2.24151
2.22992
2.29044
2.37586
2.4341
2.48293
2.51657
2.54919
2.57271
2.59465
2.60974
2.62338
2.6352
2.64157
2.64632
2.64865
2.64834
2.64738
2.64526
2.64164
2.6359
2.62895
2.6214
2.61358
2.60442
2.59501
2.58495
2.57477
2.56396
2.55283
2.54179
2.53006
2.51778
2.50594
2.49507
2.48322
2.47069
2.45868
2.44707
2.43547
2.42448
2.41399
2.40435
2.3951
2.38626
2.37763
2.36919
2.36112
2.35323
2.34575
2.33861
2.3318
2.32553
2.31947
2.31381
2.30868
2.30361
2.29911
2.29513
2.29117
2.28791
2.28488
2.28222
2.28024
2.27852
2.27775
2.27781
2.27817
2.27914
2.28034
2.28249
2.28472
2.28739
2.29037
2.29379
2.29773
2.30211
2.30697
2.31187
2.3167
2.32146
2.32611
2.33061
2.33519
2.33971
2.34458
2.349
2.35381
2.35837
2.3631
2.36793
2.37151
2.37411
2.37567
2.37648
2.37665
2.3766
2.37549
2.37462
2.36794
2.26701
2.23342
2.2299
2.25557
2.28719
2.31171
2.32809
2.34068
2.35202
2.3627
2.37199
2.38024
2.38714
2.39311
2.39675
2.39953
2.4012
2.40311
2.40482
2.40584
2.4067
2.40725
2.40727
2.40719
2.40666
2.40583
2.40438
2.40268
2.40053
2.39815
2.39506
2.39133
2.38754
2.3831
2.37833
2.37351
2.36892
2.36395
2.35859
2.35266
2.34659
2.34062
2.33429
2.32788
2.32124
2.31441
2.3076
2.30089
2.29413
2.28734
2.2807
2.27376
2.2673
2.26064
2.25432
2.24812
2.24199
2.23619
2.23059
2.22558
2.22085
2.21673
2.21321
2.21007
2.20761
2.20582
2.20437
2.20387
2.20397
2.20434
2.20533
2.2063
2.20807
2.20916
2.21031
2.21174
2.21278
2.21425
2.21517
2.21665
2.21743
2.21866
2.21951
2.22041
2.22119
2.22169
2.22228
2.22252
2.22302
2.22338
2.22431
2.22497
2.22544
2.22659
2.22732
2.22882
2.23017
2.23135
2.23353
2.23434
2.27776
2.2473
2.22777
2.22254
2.22994
2.23604
2.23862
2.24037
2.24133
2.24381
2.24679
2.25073
2.2533
2.25599
2.25875
2.26176
2.26477
2.26798
2.27193
2.2759
2.28048
2.28471
2.28924
2.29336
2.29706
2.30041
2.30314
2.30478
2.30683
2.307
2.30686
2.30637
2.30518
2.30322
2.30102
2.29844
2.29568
2.29247
2.28846
2.28363
2.27843
2.27312
2.26778
2.26239
2.25673
2.25091
2.2449
2.23871
2.23268
2.22677
2.22082
2.21521
2.20935
2.20367
2.19804
2.19254
2.18743
2.18245
2.17787
2.17359
2.16947
2.16588
2.16256
2.15938
2.15681
2.15438
2.15212
2.15059
2.1493
2.14832
2.14808
2.14813
2.14833
2.14893
2.14985
2.15129
2.1534
2.15534
2.1579
2.16022
2.1629
2.16524
2.16764
2.16969
2.17173
2.17326
2.17464
2.17564
2.17654
2.17712
2.17756
2.17763
2.17758
2.17747
2.17745
2.17748
2.17764
2.17802
2.17923
2.17921
2.29822
2.25908
2.23762
2.21873
2.20944
2.20333
2.19779
2.19224
2.18686
2.18343
2.18087
2.18043
2.18075
2.18153
2.18257
2.18421
2.18702
2.19037
2.19412
2.19825
2.20286
2.20754
2.21262
2.21756
2.22216
2.2267
2.23044
2.23403
2.23701
2.23976
2.24134
2.2436
2.24394
2.24389
2.24367
2.24312
2.24213
2.24039
2.23775
2.23433
2.2303
2.22578
2.22122
2.21622
2.21149
2.20632
2.20115
2.19583
2.19057
2.18537
2.18047
2.17552
2.17078
2.16599
2.1612
2.15663
2.152
2.14774
2.1436
2.13957
2.13594
2.13224
2.12897
2.1259
2.12299
2.12056
2.11827
2.11626
2.1147
2.11352
2.11251
2.11195
2.11184
2.11195
2.11228
2.11319
2.11451
2.11597
2.11771
2.11945
2.12123
2.12297
2.12452
2.12624
2.12764
2.12895
2.13024
2.1314
2.13226
2.1331
2.13356
2.13357
2.13346
2.13318
2.1327
2.13232
2.1317
2.13166
2.13187
2.131
2.31394
2.27961
2.24991
2.22907
2.21128
2.19701
2.185
2.17477
2.16516
2.15762
2.15132
2.14721
2.14459
2.14336
2.14342
2.14378
2.14441
2.14648
2.14954
2.153
2.15653
2.16057
2.16483
2.16905
2.17358
2.17759
2.18156
2.18528
2.18848
2.19118
2.19404
2.19593
2.1983
2.19941
2.20071
2.20198
2.20233
2.2021
2.2014
2.19991
2.19776
2.19476
2.19132
2.18746
2.18327
2.1789
2.17409
2.16923
2.16398
2.15894
2.15372
2.14878
2.14389
2.13909
2.13457
2.13013
2.12614
2.12232
2.11893
2.11583
2.11288
2.11031
2.10792
2.10574
2.10394
2.10227
2.10083
2.09957
2.09851
2.09749
2.09675
2.0961
2.09534
2.09492
2.09502
2.09537
2.09587
2.09652
2.09742
2.09845
2.09953
2.10054
2.10166
2.10246
2.10323
2.10386