/*--------------------------------*- C++ -*----------------------------------*\
| =========                 |                                                 |
| \\      /  F ield         | OpenFOAM: The Open Source CFD Toolbox           |
|  \\    /   O peration     | Version:  2412                                  |
|   \\  /    A nd           | Website:  www.openfoam.com                      |
|    \\/     M anipulation  |                                                 |
\*---------------------------------------------------------------------------*/
FoamFile
{
    version     2.0;
    format      ascii;
    arch        "LSB;label=32;scalar=64";
    class       volVectorField;
    location    "11.5";
    object      U;
}
// * * * * * * * * * * * * * * * * * * * * * * * * * * * * * * * * * * * * * //

dimensions      [0 1 -1 0 0 0 0];

internalField   nonuniform List<vector> 
7000
(
(2.58645 -6.24222e-05 0)
(1.60675 0.000156412 0)
(0.486902 0.00022433 0)
(0.552575 0.000377391 0)
(0.654262 0.000500215 0)
(0.718357 0.000608265 0)
(0.730595 0.000688795 0)
(0.723229 0.000764277 0)
(0.712671 0.000847441 0)
(0.704472 0.000941458 0)
(0.699407 0.0010424 0)
(0.695149 0.00114655 0)
(0.690314 0.00125307 0)
(0.684682 0.00136298 0)
(0.67844 0.00147752 0)
(0.671735 0.00159756 0)
(0.664599 0.00172368 0)
(0.657013 0.00185652 0)
(0.648958 0.00199681 0)
(0.64042 0.00214535 0)
(0.631387 0.00230293 0)
(0.621843 0.00247026 0)
(0.611767 0.00264811 0)
(0.601129 0.00283727 0)
(0.5899 0.00303834 0)
(0.578047 0.00325232 0)
(0.565533 0.00347976 0)
(0.552326 0.00372135 0)
(0.538384 0.0039779 0)
(0.523655 0.00424996 0)
(0.50811 0.00453809 0)
(0.491702 0.00484265 0)
(0.474377 0.00516364 0)
(0.456088 0.0055014 0)
(0.436785 0.00585709 0)
(0.416427 0.00623186 0)
(0.394994 0.00662664 0)
(0.37247 0.00704301 0)
(0.348834 0.00747914 0)
(0.324103 0.00793655 0)
(0.298069 0.00841777 0)
(0.270682 0.00891679 0)
(0.242252 0.00942785 0)
(0.212693 0.00994691 0)
(0.181898 0.010481 0)
(0.150373 0.0110295 0)
(0.118858 0.0115641 0)
(0.0862356 0.0120615 0)
(0.049656 0.0125377 0)
(0.019765 0.0123697 0)
(2.58656 -3.74869e-05 0)
(1.60692 0.000345194 0)
(0.486464 0.00094579 0)
(0.552169 0.00127014 0)
(0.65393 0.001549 0)
(0.718066 0.00183686 0)
(0.730326 0.00208271 0)
(0.722981 0.00231832 0)
(0.712439 0.00257637 0)
(0.704248 0.00286247 0)
(0.699183 0.0031655 0)
(0.69492 0.00347655 0)
(0.690078 0.00379393 0)
(0.684439 0.00412043 0)
(0.678193 0.00445951 0)
(0.671482 0.00481357 0)
(0.664342 0.00518428 0)
(0.656752 0.00557345 0)
(0.648695 0.0059831 0)
(0.640156 0.0064153 0)
(0.631123 0.0068721 0)
(0.62158 0.00735525 0)
(0.611505 0.00786654 0)
(0.60087 0.0084077 0)
(0.589643 0.00898004 0)
(0.577792 0.00958551 0)
(0.56528 0.0102251 0)
(0.552074 0.0108997 0)
(0.538132 0.0116106 0)
(0.523401 0.0123583 0)
(0.507853 0.0131427 0)
(0.491439 0.0139631 0)
(0.474104 0.0148178 0)
(0.455803 0.0157056 0)
(0.436484 0.0166266 0)
(0.416107 0.0175799 0)
(0.394651 0.0185636 0)
(0.372101 0.0195766 0)
(0.348439 0.0206102 0)
(0.323689 0.0216614 0)
(0.297639 0.0227304 0)
(0.270235 0.0237945 0)
(0.241789 0.0248312 0)
(0.212214 0.0258238 0)
(0.181401 0.0267701 0)
(0.149841 0.0276483 0)
(0.118304 0.0283809 0)
(0.0858271 0.0289146 0)
(0.0495821 0.0293028 0)
(0.0199981 0.0286631 0)
(2.58671 5.35366e-05 0)
(1.60727 0.000429335 0)
(0.486788 0.00183427 0)
(0.552282 0.00220769 0)
(0.654015 0.00258857 0)
(0.718137 0.00306204 0)
(0.730377 0.00350096 0)
(0.723037 0.00392046 0)
(0.71252 0.00437008 0)
(0.704352 0.00485882 0)
(0.699303 0.00537239 0)
(0.695052 0.00590022 0)
(0.690221 0.00644012 0)
(0.684594 0.00699602 0)
(0.67836 0.00757317 0)
(0.671662 0.00817556 0)
(0.664534 0.00880632 0)
(0.656957 0.00946876 0)
(0.648912 0.0101665 0)
(0.640386 0.0109032 0)
(0.631368 0.0116826 0)
(0.62184 0.0125076 0)
(0.611782 0.0133815 0)
(0.601163 0.0143073 0)
(0.589955 0.0152875 0)
(0.578124 0.0163254 0)
(0.565632 0.0174231 0)
(0.552447 0.0185823 0)
(0.538526 0.0198053 0)
(0.523818 0.0210932 0)
(0.508291 0.0224458 0)
(0.491898 0.0238621 0)
(0.474583 0.0253403 0)
(0.4563 0.0268786 0)
(0.436997 0.0284769 0)
(0.41663 0.0301337 0)
(0.39518 0.0318459 0)
(0.372629 0.033611 0)
(0.348959 0.0354198 0)
(0.324198 0.0372658 0)
(0.298132 0.0391473 0)
(0.270698 0.0410305 0)
(0.24221 0.042876 0)
(0.212587 0.0446556 0)
(0.181719 0.0463508 0)
(0.150074 0.0479174 0)
(0.118435 0.0492547 0)
(0.0859774 0.0502802 0)
(0.049792 0.050974 0)
(0.0201928 0.0502824 0)
(2.5869 5.9012e-05 0)
(1.60782 0.000590999 0)
(0.487232 0.00268136 0)
(0.552345 0.00314494 0)
(0.654106 0.00365067 0)
(0.718262 0.00432405 0)
(0.730505 0.00496157 0)
(0.723191 0.00557381 0)
(0.712717 0.0062231 0)
(0.70459 0.00691886 0)
(0.699572 0.00764749 0)
(0.695344 0.00839831 0)
(0.690536 0.00916814 0)
(0.684934 0.00996121 0)
(0.678725 0.010784 0)
(0.672052 0.011642 0)
(0.664949 0.0125398 0)
(0.657397 0.0134825 0)
(0.649378 0.0144752 0)
(0.64088 0.0155233 0)
(0.63189 0.0166318 0)
(0.622393 0.0178054 0)
(0.612367 0.0190483 0)
(0.601783 0.0203651 0)
(0.590612 0.0217595 0)
(0.57882 0.0232357 0)
(0.566369 0.0247972 0)
(0.553228 0.0264465 0)
(0.539352 0.0281868 0)
(0.524691 0.0300201 0)
(0.509212 0.0319459 0)
(0.492866 0.0339632 0)
(0.475598 0.0360699 0)
(0.457361 0.038264 0)
(0.4381 0.0405448 0)
(0.417772 0.0429106 0)
(0.396353 0.0453567 0)
(0.373823 0.0478787 0)
(0.350163 0.050468 0)
(0.325404 0.0531169 0)
(0.299326 0.0558173 0)
(0.271858 0.0585292 0)
(0.243315 0.0611953 0)
(0.213621 0.0637729 0)
(0.182666 0.0662234 0)
(0.150887 0.0684768 0)
(0.119073 0.0704158 0)
(0.086532 0.071937 0)
(0.0502332 0.0729617 0)
(0.0204102 0.0723607 0)
(2.5872 3.68574e-05 0)
(1.60865 0.000805257 0)
(0.48783 0.00355263 0)
(0.552395 0.00415473 0)
(0.654199 0.00479008 0)
(0.718412 0.00564617 0)
(0.730663 0.00646967 0)
(0.723382 0.00727706 0)
(0.712965 0.00813603 0)
(0.70489 0.00904637 0)
(0.699915 0.00999741 0)
(0.695724 0.0109793 0)
(0.69095 0.0119877 0)
(0.685383 0.0130269 0)
(0.67921 0.0141044 0)
(0.672574 0.0152271 0)
(0.665508 0.0164014 0)
(0.657993 0.017634 0)
(0.650013 0.0189321 0)
(0.641556 0.0203027 0)
(0.632609 0.0217525 0)
(0.623157 0.0232875 0)
(0.613181 0.0249134 0)
(0.60265 0.026636 0)
(0.591536 0.0284606 0)
(0.579804 0.0303922 0)
(0.567418 0.0324359 0)
(0.554344 0.0345951 0)
(0.54054 0.0368737 0)
(0.525953 0.0392747 0)
(0.51055 0.0417974 0)
(0.494281 0.0444408 0)
(0.47709 0.047203 0)
(0.458928 0.0500811 0)
(0.439742 0.0530738 0)
(0.419481 0.0561791 0)
(0.398119 0.0593913 0)
(0.375634 0.0627047 0)
(0.352003 0.0661086 0)
(0.327257 0.0695939 0)
(0.301172 0.0731468 0)
(0.273669 0.076717 0)
(0.245054 0.0802297 0)
(0.215263 0.0836247 0)
(0.184177 0.0868392 0)
(0.152202 0.089776 0)
(0.120122 0.092309 0)
(0.0873823 0.094321 0)
(0.0508325 0.0956792 0)
(0.0206463 0.095227 0)
(2.58762 -6.12245e-05 0)
(1.60982 0.00107201 0)
(0.488382 0.00443361 0)
(0.552319 0.0052212 0)
(0.654226 0.00598522 0)
(0.718551 0.00698274 0)
(0.730841 0.00799505 0)
(0.723619 0.00900837 0)
(0.713275 0.0100887 0)
(0.705266 0.0112232 0)
(0.700348 0.0124063 0)
(0.696206 0.0136288 0)
(0.691477 0.0148854 0)
(0.685957 0.0161806 0)
(0.679831 0.0175224 0)
(0.673244 0.0189192 0)
(0.666225 0.0203792 0)
(0.65876 0.0219113 0)
(0.650831 0.0235245 0)
(0.642427 0.0252277 0)
(0.633538 0.0270293 0)
(0.624147 0.0289369 0)
(0.614236 0.0309574 0)
(0.603776 0.0330983 0)
(0.592736 0.0353661 0)
(0.581086 0.0377672 0)
(0.568786 0.040308 0)
(0.555804 0.0429934 0)
(0.542096 0.045828 0)
(0.527611 0.0488162 0)
(0.512312 0.0519571 0)
(0.49615 0.0552498 0)
(0.479067 0.0586929 0)
(0.461013 0.062284 0)
(0.441932 0.0660211 0)
(0.42177 0.0699013 0)
(0.400497 0.0739184 0)
(0.378084 0.078067 0)
(0.354506 0.0823374 0)
(0.329791 0.0867133 0)
(0.303709 0.0911781 0)
(0.276168 0.0956711 0)
(0.247467 0.100093 0)
(0.217546 0.104367 0)
(0.186279 0.108405 0)
(0.154039 0.112077 0)
(0.121603 0.115244 0)
(0.0885522 0.117786 0)
(0.0516052 0.11952 0)
(0.0209176 0.119275 0)
(2.5882 -0.000432332 0)
(1.61145 0.00130802 0)
(0.489139 0.00521021 0)
(0.552328 0.00638178 0)
(0.654271 0.007275 0)
(0.718728 0.00834967 0)
(0.731085 0.00955214 0)
(0.72393 0.0107795 0)
(0.713668 0.0120861 0)
(0.705734 0.0134532 0)
(0.700883 0.0148793 0)
(0.696802 0.0163528 0)
(0.692131 0.0178676 0)
(0.686668 0.0194282 0)
(0.680602 0.0210435 0)
(0.674074 0.0227232 0)
(0.667116 0.0244776 0)
(0.659714 0.026318 0)
(0.651849 0.0282554 0)
(0.643513 0.0303008 0)
(0.634696 0.0324642 0)
(0.625382 0.0347551 0)
(0.615554 0.0371817 0)
(0.605182 0.0397529 0)
(0.594239 0.042477 0)
(0.582691 0.0453615 0)
(0.570501 0.0484146 0)
(0.557635 0.0516422 0)
(0.544051 0.0550504 0)
(0.529696 0.0586449 0)
(0.514531 0.0624253 0)
(0.498508 0.0663906 0)
(0.481566 0.0705404 0)
(0.463654 0.0748726 0)
(0.444713 0.0793861 0)
(0.424685 0.0840781 0)
(0.403533 0.0889418 0)
(0.381226 0.0939705 0)
(0.35773 0.0991575 0)
(0.333067 0.10448 0)
(0.307008 0.109917 0)
(0.279433 0.115404 0)
(0.250633 0.120816 0)
(0.220553 0.126055 0)
(0.189054 0.131001 0)
(0.156468 0.135492 0)
(0.123563 0.139373 0)
(0.0900655 0.14252 0)
(0.0525786 0.1447 0)
(0.0212457 0.144726 0)
(2.58868 -0.000374336 0)
(1.61313 0.00134556 0)
(0.489985 0.00617591 0)
(0.552558 0.00755265 0)
(0.65431 0.00852669 0)
(0.718911 0.00971064 0)
(0.731387 0.0111271 0)
(0.724314 0.0125808 0)
(0.714148 0.0141146 0)
(0.706302 0.0157249 0)
(0.701534 0.017406 0)
(0.697525 0.0191415 0)
(0.692924 0.0209248 0)
(0.687532 0.0227607 0)
(0.681538 0.0246587 0)
(0.675083 0.0266301 0)
(0.668199 0.0286878 0)
(0.660872 0.0308453 0)
(0.653087 0.0331161 0)
(0.644834 0.0355131 0)
(0.636106 0.0380484 0)
(0.626887 0.040733 0)
(0.61716 0.0435769 0)
(0.606898 0.0465903 0)
(0.596072 0.0497831 0)
(0.584651 0.0531644 0)
(0.572596 0.0567442 0)
(0.559874 0.0605299 0)
(0.546443 0.0645292 0)
(0.532249 0.0687489 0)
(0.517252 0.0731898 0)
(0.501402 0.0778516 0)
(0.484637 0.0827349 0)
(0.466904 0.0878389 0)
(0.448141 0.0931632 0)
(0.428285 0.0987055 0)
(0.407293 0.10446 0)
(0.385127 0.110422 0)
(0.361744 0.116582 0)
(0.337158 0.122919 0)
(0.311138 0.129401 0)
(0.283543 0.135961 0)
(0.25464 0.142454 0)
(0.224375 0.148755 0)
(0.192593 0.154714 0)
(0.159587 0.160127 0)
(0.126109 0.164818 0)
(0.092023 0.168668 0)
(0.0538178 0.171387 0)
(0.0216655 0.171737 0)
(2.58925 4.2693e-05 0)
(1.61577 0.00151938 0)
(0.492014 0.0070184 0)
(0.552535 0.00846309 0)
(0.654261 0.00963234 0)
(0.719143 0.0110518 0)
(0.731782 0.0127025 0)
(0.724793 0.014395 0)
(0.714731 0.016168 0)
(0.70699 0.0180365 0)
(0.702315 0.0199856 0)
(0.698391 0.0219947 0)
(0.693872 0.024057 0)
(0.688565 0.0261776 0)
(0.682657 0.0283672 0)
(0.676288 0.0306389 0)
(0.669493 0.0330079 0)
(0.662258 0.0354908 0)
(0.654568 0.0381035 0)
(0.646415 0.040861 0)
(0.637793 0.0437773 0)
(0.628688 0.0468652 0)
(0.619083 0.0501364 0)
(0.608952 0.0536027 0)
(0.598268 0.0572757 0)
(0.586999 0.0611662 0)
(0.575108 0.0652862 0)
(0.56256 0.0696448 0)
(0.549314 0.0742516 0)
(0.535316 0.079115 0)
(0.520523 0.0842372 0)
(0.504885 0.0896193 0)
(0.488339 0.0952633 0)
(0.470828 0.10117 0)
(0.452286 0.107341 0)
(0.432646 0.113776 0)
(0.411858 0.120471 0)
(0.389876 0.127423 0)
(0.366648 0.134622 0)
(0.342173 0.14205 0)
(0.316218 0.149671 0)
(0.288618 0.157407 0)
(0.25961 0.165095 0)
(0.229139 0.172585 0)
(0.197025 0.179693 0)
(0.16351 0.18617 0)
(0.129329 0.191799 0)
(0.0944976 0.196452 0)
(0.0553872 0.199803 0)
(0.0221985 0.200548 0)
(2.59008 0.000129406 0)
(1.61794 0.00184272 0)
(0.493666 0.00765102 0)
(0.552801 0.00926026 0)
(0.654508 0.0106641 0)
(0.719552 0.0123618 0)
(0.732296 0.014262 0)
(0.725385 0.0162069 0)
(0.715433 0.0182421 0)
(0.70781 0.020385 0)
(0.703243 0.0226143 0)
(0.699416 0.0249077 0)
(0.694994 0.0272588 0)
(0.689785 0.029673 0)
(0.683977 0.0321622 0)
(0.677711 0.034742 0)
(0.67102 0.0374302 0)
(0.663892 0.0402462 0)
(0.656315 0.0432087 0)
(0.648281 0.0463349 0)
(0.639785 0.0496407 0)
(0.630814 0.0531408 0)
(0.621353 0.0568485 0)
(0.611378 0.0607775 0)
(0.600862 0.0649412 0)
(0.589774 0.0693523 0)
(0.578076 0.0740249 0)
(0.565736 0.0789703 0)
(0.552711 0.0841998 0)
(0.538947 0.0897245 0)
(0.524399 0.0955483 0)
(0.509017 0.101674 0)
(0.492735 0.108106 0)
(0.475495 0.114847 0)
(0.457226 0.121902 0)
(0.437856 0.129275 0)
(0.417324 0.136964 0)
(0.395578 0.144969 0)
(0.372554 0.153281 0)
(0.34824 0.16188 0)
(0.322392 0.170739 0)
(0.294819 0.179772 0)
(0.265719 0.188792 0)
(0.235026 0.197624 0)
(0.202535 0.206046 0)
(0.168423 0.213761 0)
(0.133394 0.220508 0)
(0.09762 0.226145 0)
(0.0573619 0.230266 0)
(0.0229033 0.231465 0)
(2.59106 0.000163387 0)
(1.62037 0.00206664 0)
(0.495539 0.00855739 0)
(0.553083 0.0102169 0)
(0.654827 0.0117233 0)
(0.720085 0.0136494 0)
(0.732938 0.0158145 0)
(0.726105 0.018022 0)
(0.716276 0.0203374 0)
(0.708783 0.0227687 0)
(0.704333 0.0252897 0)
(0.700617 0.0278775 0)
(0.696306 0.030526 0)
(0.69121 0.0332416 0)
(0.685519 0.0360379 0)
(0.679372 0.038933 0)
(0.672803 0.0419476 0)
(0.665801 0.045104 0)
(0.658355 0.0484236 0)
(0.650459 0.0519258 0)
(0.64211 0.0556285 0)
(0.633296 0.0595485 0)
(0.624004 0.0637008 0)
(0.61421 0.0681008 0)
(0.603889 0.0727642 0)
(0.593013 0.0777056 0)
(0.581543 0.0829416 0)
(0.569446 0.0884859 0)
(0.556683 0.094352 0)
(0.543196 0.100554 0)
(0.528939 0.107098 0)
(0.513862 0.11399 0)
(0.497898 0.121236 0)
(0.480986 0.128845 0)
(0.46305 0.136823 0)
(0.444012 0.14518 0)
(0.423803 0.153919 0)
(0.402359 0.163043 0)
(0.379601 0.172549 0)
(0.355506 0.182422 0)
(0.329823 0.192626 0)
(0.302321 0.203102 0)
(0.273154 0.213625 0)
(0.242238 0.223996 0)
(0.209327 0.233959 0)
(0.174526 0.243152 0)
(0.138508 0.251254 0)
(0.101581 0.258078 0)
(0.0598839 0.263155 0)
(0.0237973 0.264916 0)
(2.5922 0.000181513 0)
(1.62318 0.00229338 0)
(0.497666 0.00949087 0)
(0.553351 0.0112308 0)
(0.655192 0.0128487 0)
(0.720728 0.0149738 0)
(0.733709 0.0173909 0)
(0.726965 0.0198574 0)
(0.717275 0.0224584 0)
(0.709924 0.025187 0)
(0.705604 0.028009 0)
(0.702012 0.0308992 0)
(0.697826 0.0338522 0)
(0.692861 0.0368758 0)
(0.687304 0.0399857 0)
(0.681294 0.0432025 0)
(0.674865 0.0465501 0)
(0.668009 0.0500535 0)
(0.660714 0.0537366 0)
(0.652979 0.0576212 0)
(0.644799 0.0617273 0)
(0.636166 0.0660733 0)
(0.627068 0.0706766 0)
(0.617484 0.0755542 0)
(0.607389 0.0807244 0)
(0.596758 0.0862039 0)
(0.585552 0.092012 0)
(0.573739 0.0981653 0)
(0.561279 0.10468 0)
(0.548117 0.111573 0)
(0.534204 0.118855 0)
(0.519488 0.126533 0)
(0.503904 0.134619 0)
(0.487384 0.143126 0)
(0.469853 0.152066 0)
(0.451224 0.161455 0)
(0.431417 0.171304 0)
(0.410355 0.181618 0)
(0.387951 0.192405 0)
(0.364154 0.203658 0)
(0.338722 0.215341 0)
(0.311375 0.227442 0)
(0.282191 0.239671 0)
(0.25108 0.251821 0)
(0.217737 0.263601 0)
(0.182167 0.274584 0)
(0.14497 0.284365 0)
(0.106606 0.292686 0)
(0.0631025 0.298971 0)
(0.0250023 0.301433 0)
(2.5935 0.000197913 0)
(1.62641 0.00251852 0)
(0.500081 0.0104113 0)
(0.553629 0.0122775 0)
(0.655598 0.0140214 0)
(0.721471 0.0163315 0)
(0.734609 0.0189899 0)
(0.727973 0.0217152 0)
(0.718445 0.0246047 0)
(0.711252 0.0276373 0)
(0.707073 0.0307671 0)
(0.703619 0.0339658 0)
(0.699576 0.0372288 0)
(0.69476 0.0405659 0)
(0.689356 0.0439951 0)
(0.683502 0.0475398 0)
(0.677234 0.0512266 0)
(0.670544 0.0550831 0)
(0.663423 0.0591358 0)
(0.65587 0.0634083 0)
(0.647883 0.0679227 0)
(0.639457 0.0726995 0)
(0.630581 0.0777583 0)
(0.621237 0.0831181 0)
(0.611402 0.0887998 0)
(0.60105 0.0948227 0)
(0.590149 0.101209 0)
(0.578662 0.107978 0)
(0.566554 0.11515 0)
(0.553769 0.122745 0)
(0.540257 0.130778 0)
(0.525966 0.139261 0)
(0.510831 0.14821 0)
(0.494781 0.157643 0)
(0.477737 0.167582 0)
(0.459608 0.17805 0)
(0.440299 0.189066 0)
(0.419725 0.200646 0)
(0.397781 0.212813 0)
(0.374391 0.22556 0)
(0.349338 0.238873 0)
(0.322261 0.252792 0)
(0.29314 0.266967 0)
(0.261894 0.28119 0)
(0.228132 0.295144 0)
(0.191738 0.308324 0)
(0.153198 0.320221 0)
(0.11309 0.330464 0)
(0.0672983 0.338381 0)
(0.0265688 0.341792 0)
(2.59497 0.000212188 0)
(1.63006 0.00273381 0)
(0.502806 0.0112954 0)
(0.55394 0.0133121 0)
(0.656058 0.0151957 0)
(0.722323 0.0176886 0)
(0.73565 0.0205927 0)
(0.729141 0.0235834 0)
(0.719801 0.0267682 0)
(0.712782 0.0301116 0)
(0.70876 0.0335546 0)
(0.70546 0.037066 0)
(0.701579 0.0406432 0)
(0.696931 0.0442984 0)
(0.691701 0.0480521 0)
(0.686026 0.0519302 0)
(0.67994 0.0559617 0)
(0.673439 0.0601766 0)
(0.666514 0.0646033 0)
(0.659167 0.0692675 0)
(0.651399 0.0741933 0)
(0.643206 0.0794034 0)
(0.634581 0.0849197 0)
(0.625508 0.0907637 0)
(0.615967 0.0969588 0)
(0.605935 0.103528 0)
(0.595379 0.110495 0)
(0.584267 0.117884 0)
(0.572562 0.125718 0)
(0.560213 0.134022 0)
(0.547166 0.142817 0)
(0.533371 0.152118 0)
(0.518763 0.161948 0)
(0.503271 0.172333 0)
(0.486811 0.183304 0)
(0.469288 0.194893 0)
(0.450596 0.207134 0)
(0.43064 0.220054 0)
(0.409295 0.233702 0)
(0.386457 0.24808 0)
(0.361954 0.263197 0)
(0.335315 0.279129 0)
(0.306405 0.295542 0)
(0.275157 0.312208 0)
(0.241063 0.328802 0)
(0.203833 0.344747 0)
(0.163776 0.359401 0)
(0.121564 0.372222 0)
(0.0729024 0.382348 0)
(0.0287713 0.387072 0)
(2.59662 0.000223378 0)
(1.63417 0.00293609 0)
(0.505858 0.0121211 0)
(0.554305 0.0143005 0)
(0.656586 0.016336 0)
(0.723297 0.0190073 0)
(0.73685 0.0221704 0)
(0.730487 0.0254404 0)
(0.721361 0.0289341 0)
(0.714537 0.0325969 0)
(0.710687 0.0363577 0)
(0.707559 0.0401855 0)
(0.703861 0.0440811 0)
(0.699405 0.0480598 0)
(0.694371 0.0521444 0)
(0.688895 0.0563628 0)
(0.683014 0.0607456 0)
(0.676724 0.0653245 0)
(0.670019 0.0701296 0)
(0.662902 0.0751886 0)
(0.65538 0.0805274 0)
(0.647449 0.086171 0)
(0.639106 0.0921441 0)
(0.630339 0.0984708 0)
(0.621129 0.105177 0)
(0.611456 0.11229 0)
(0.601293 0.119836 0)
(0.590604 0.127844 0)
(0.579359 0.13634 0)
(0.567508 0.145354 0)
(0.554997 0.154912 0)
(0.541778 0.165039 0)
(0.527785 0.175762 0)
(0.51295 0.187116 0)
(0.497187 0.199144 0)
(0.480396 0.211891 0)
(0.462462 0.225408 0)
(0.443286 0.239744 0)
(0.422724 0.254968 0)
(0.400636 0.271127 0)
(0.376889 0.288225 0)
(0.350932 0.306385 0)
(0.322485 0.325368 0)
(0.291472 0.344916 0)
(0.257249 0.364712 0)
(0.219293 0.384129 0)
(0.17763 0.402419 0)
(0.132919 0.418794 0)
(0.080552 0.432173 0)
(0.031816 0.43893 0)
(2.59844 0.000230481 0)
(1.63871 0.00311858 0)
(0.509244 0.0128573 0)
(0.554745 0.0152079 0)
(0.657194 0.0174037 0)
(0.724404 0.0202608 0)
(0.738229 0.0237024 0)
(0.732038 0.0272678 0)
(0.723156 0.031084 0)
(0.716546 0.0350728 0)
(0.712887 0.039154 0)
(0.709953 0.0432997 0)
(0.70646 0.0475159 0)
(0.702219 0.0518216 0)
(0.697404 0.0562416 0)
(0.69215 0.0608048 0)
(0.686496 0.065543 0)
(0.680439 0.0704888 0)
(0.673977 0.0756738 0)
(0.667117 0.0811277 0)
(0.659866 0.0868783 0)
(0.652227 0.0929533 0)
(0.644197 0.09938 0)
(0.635769 0.106186 0)
(0.62693 0.113399 0)
(0.61766 0.121051 0)
(0.607935 0.129171 0)
(0.597725 0.137792 0)
(0.586999 0.146946 0)
(0.575713 0.156665 0)
(0.563817 0.166986 0)
(0.551259 0.177938 0)
(0.537981 0.189557 0)
(0.523914 0.20189 0)
(0.508975 0.21499 0)
(0.493062 0.228921 0)
(0.476059 0.243753 0)
(0.457861 0.259568 0)
(0.438316 0.276457 0)
(0.417231 0.294517 0)
(0.394506 0.313789 0)
(0.369575 0.334397 0)
(0.341981 0.356311 0)
(0.311582 0.379257 0)
(0.277597 0.403021 0)
(0.239212 0.426871 0)
(0.196029 0.450064 0)
(0.148531 0.471536 0)
(0.0915576 0.489805 0)
(0.036482 0.499943 0)
(2.60044 0.00023753 0)
(1.64369 0.00326447 0)
(0.512971 0.0134779 0)
(0.555283 0.0159911 0)
(0.657901 0.0183509 0)
(0.725658 0.0214279 0)
(0.739808 0.0251674 0)
(0.73382 0.0290439 0)
(0.725222 0.0331987 0)
(0.718851 0.0375238 0)
(0.715403 0.0419326 0)
(0.712684 0.0464041 0)
(0.709419 0.0509511 0)
(0.705413 0.0555956 0)
(0.700837 0.0603627 0)
(0.695826 0.0652813 0)
(0.69042 0.0703829 0)
(0.684618 0.0757005 0)
(0.678424 0.0812669 0)
(0.671845 0.0871134 0)
(0.664894 0.0932707 0)
(0.657577 0.0997691 0)
(0.649894 0.106639 0)
(0.641844 0.113911 0)
(0.633414 0.121619 0)
(0.624592 0.129794 0)
(0.615356 0.138472 0)
(0.605681 0.147691 0)
(0.595537 0.157486 0)
(0.584889 0.167896 0)
(0.573688 0.178963 0)
(0.561887 0.190727 0)
(0.549431 0.203233 0)
(0.536257 0.216538 0)
(0.522284 0.23071 0)
(0.507417 0.245833 0)
(0.491544 0.262001 0)
(0.474557 0.279338 0)
(0.456305 0.297954 0)
(0.436566 0.318007 0)
(0.415208 0.339616 0)
(0.391752 0.362955 0)
(0.365602 0.388131 0)
(0.336483 0.414992 0)
(0.30342 0.443511 0)
(0.265286 0.473127 0)
(0.221115 0.50302 0)
(0.17075 0.53202 0)
(0.108028 0.558234 0)
(0.0438617 0.574576 0)
(2.60258 0.000246296 0)
(1.64906 0.00335731 0)
(0.51704 0.0139412 0)
(0.555915 0.0166038 0)
(0.658717 0.019138 0)
(0.727086 0.022476 0)
(0.741617 0.0265241 0)
(0.73589 0.0307208 0)
(0.727629 0.035223 0)
(0.721527 0.0398815 0)
(0.718311 0.0446112 0)
(0.715828 0.0494036 0)
(0.712811 0.0542795 0)
(0.709059 0.0592635 0)
(0.704739 0.0643802 0)
(0.699986 0.069657 0)
(0.694844 0.0751244 0)
(0.689317 0.0808155 0)
(0.68341 0.0867639 0)
(0.677136 0.0930026 0)
(0.67051 0.0995646 0)
(0.663543 0.106483 0)
(0.65624 0.113791 0)
(0.648602 0.121522 0)
(0.640623 0.129714 0)
(0.632293 0.138401 0)
(0.623598 0.147624 0)
(0.614515 0.157424 0)
(0.60502 0.167841 0)
(0.595084 0.178921 0)
(0.584665 0.190712 0)
(0.573722 0.203264 0)
(0.562204 0.216633 0)
(0.550057 0.230888 0)
(0.537208 0.246111 0)
(0.523574 0.262404 0)
(0.509063 0.279907 0)
(0.493559 0.29876 0)
(0.476921 0.319133 0)
(0.458932 0.341253 0)
(0.439465 0.365245 0)
(0.418052 0.391447 0)
(0.394062 0.420262 0)
(0.367176 0.451717 0)
(0.336292 0.485877 0)
(0.299766 0.522714 0)
(0.255921 0.561756 0)
(0.203656 0.602139 0)
(0.134544 0.64192 0)
(0.0570773 0.671671 0)
(2.60485 0.000252994 0)
(1.65478 0.00338934 0)
(0.521404 0.014181 0)
(0.556622 0.0169939 0)
(0.65964 0.0197304 0)
(0.728707 0.0233593 0)
(0.743695 0.027761 0)
(0.738308 0.0323204 0)
(0.730446 0.0372155 0)
(0.724629 0.0422469 0)
(0.721657 0.0473331 0)
(0.719423 0.0524789 0)
(0.716667 0.0577122 0)
(0.713182 0.0630584 0)
(0.709133 0.06854 0)
(0.704655 0.0741824 0)
(0.699796 0.0800152 0)
(0.694565 0.0860722 0)
(0.688971 0.0923888 0)
(0.683029 0.0990009 0)
(0.676758 0.105944 0)
(0.670173 0.113256 0)
(0.663283 0.120972 0)
(0.656095 0.129132 0)
(0.648607 0.137774 0)
(0.640815 0.146941 0)
(0.63271 0.156673 0)
(0.624277 0.167017 0)
(0.615497 0.17802 0)
(0.606348 0.18973 0)
(0.596798 0.202205 0)
(0.586814 0.215504 0)
(0.576355 0.229693 0)
(0.565375 0.244853 0)
(0.553813 0.261082 0)
(0.54162 0.278492 0)
(0.528712 0.297288 0)
(0.514995 0.317616 0)
(0.500375 0.339632 0)
(0.484551 0.363718 0)
(0.467475 0.39022 0)
(0.449015 0.419461 0)
(0.428404 0.452084 0)
(0.405027 0.488513 0)
(0.377987 0.529151 0)
(0.345606 0.574718 0)
(0.30533 0.625874 0)
(0.254557 0.683272 0)
(0.181185 0.747028 0)
(0.0839261 0.809539 0)
(2.6072 0.00021564 0)
(1.66077 0.00342991 0)
(0.525887 0.0141624 0)
(0.557331 0.0171139 0)
(0.660654 0.0200199 0)
(0.730601 0.0238735 0)
(0.746208 0.0285984 0)
(0.74128 0.0334916 0)
(0.733887 0.0387582 0)
(0.728364 0.0441457 0)
(0.725629 0.0495743 0)
(0.723637 0.0550651 0)
(0.721136 0.060656 0)
(0.717915 0.0663727 0)
(0.714132 0.072233 0)
(0.709929 0.0782577 0)
(0.705357 0.0844739 0)
(0.70043 0.0909146 0)
(0.695162 0.0976157 0)
(0.689571 0.104614 0)
(0.683678 0.111948 0)
(0.677502 0.119657 0)
(0.671057 0.127779 0)
(0.664354 0.136358 0)
(0.657399 0.145434 0)
(0.650191 0.155054 0)
(0.642728 0.165263 0)
(0.635004 0.176111 0)
(0.627006 0.18765 0)
(0.61872 0.199934 0)
(0.610128 0.213027 0)
(0.601207 0.226999 0)
(0.591931 0.241924 0)
(0.582263 0.257893 0)
(0.572151 0.275049 0)
(0.561613 0.293457 0)
(0.550584 0.313309 0)
(0.538879 0.33494 0)
(0.526595 0.358567 0)
(0.513688 0.384535 0)
(0.499884 0.413393 0)
(0.485076 0.445563 0)
(0.468931 0.481768 0)
(0.450957 0.522978 0)
(0.430489 0.570316 0)
(0.406259 0.625575 0)
(0.375867 0.691529 0)
(0.335945 0.773332 0)
(0.271714 0.882454 0)
(0.147379 1.05165 0)
(2.61022 0.000132743 0)
(1.66826 0.00345675 0)
(0.530896 0.0138368 0)
(0.558029 0.0169831 0)
(0.661929 0.0201579 0)
(0.73324 0.0244676 0)
(0.749825 0.0298053 0)
(0.745572 0.0353121 0)
(0.738814 0.0412001 0)
(0.733654 0.0471427 0)
(0.731216 0.0530591 0)
(0.729554 0.0589969 0)
(0.72742 0.0650152 0)
(0.724582 0.0711478 0)
(0.721193 0.0774144 0)
(0.717397 0.083836 0)
(0.713255 0.0904426 0)
(0.708787 0.0972704 0)
(0.704011 0.104359 0)
(0.698948 0.111747 0)
(0.693625 0.119477 0)
(0.688065 0.127591 0)
(0.682289 0.136134 0)
(0.676315 0.14515 0)
(0.670157 0.154687 0)
(0.663825 0.164793 0)
(0.657327 0.175517 0)
(0.650667 0.186913 0)
(0.643847 0.199037 0)
(0.636867 0.211949 0)
(0.629727 0.225714 0)
(0.622423 0.240412 0)
(0.614947 0.256145 0)
(0.607334 0.272926 0)
(0.599469 0.290928 0)
(0.591332 0.310419 0)
(0.58322 0.331513 0)
(0.57511 0.354529 0)
(0.566833 0.379821 0)
(0.558456 0.4077 0)
(0.550062 0.438708 0)
(0.541784 0.473565 0)
(0.533791 0.513227 0)
(0.526319 0.559019 0)
(0.519915 0.612736 0)
(0.515749 0.677082 0)
(0.516294 0.756473 0)
(0.530102 0.858251 0)
(0.588208 0.994252 0)
(0.661088 1.19247 0)
(2.61374 7.81039e-05 0)
(1.6768 0.00304667 0)
(0.536835 0.0120071 0)
(0.559793 0.0148436 0)
(0.66484 0.0179076 0)
(0.73818 0.0225703 0)
(0.756054 0.0285935 0)
(0.752539 0.0348347 0)
(0.746353 0.0415042 0)
(0.741331 0.048157 0)
(0.738957 0.0547252 0)
(0.737437 0.061292 0)
(0.735519 0.0679301 0)
(0.732937 0.0746732 0)
(0.729827 0.0815312 0)
(0.726341 0.0885208 0)
(0.722551 0.0956733 0)
(0.718481 0.103028 0)
(0.714147 0.110623 0)
(0.709571 0.118499 0)
(0.704783 0.126699 0)
(0.699808 0.135267 0)
(0.694675 0.144251 0)
(0.689407 0.153699 0)
(0.684027 0.163664 0)
(0.678552 0.174197 0)
(0.673003 0.185353 0)
(0.667396 0.197189 0)
(0.661747 0.209766 0)
(0.656074 0.223146 0)
(0.650394 0.237413 0)
(0.644756 0.252569 0)
(0.639039 0.268733 0)
(0.633306 0.286106 0)
(0.62792 0.304788 0)
(0.622775 0.325011 0)
(0.617788 0.346961 0)
(0.613162 0.370805 0)
(0.609007 0.396891 0)
(0.605547 0.425651 0)
(0.6031 0.45764 0)
(0.602136 0.493573 0)
(0.603362 0.534416 0)
(0.607883 0.581425 0)
(0.617518 0.636284 0)
(0.635638 0.701137 0)
(0.668191 0.778816 0)
(0.724087 0.872796 0)
(0.836299 0.98314 0)
(0.986203 1.09899 0)
(2.61644 8.80418e-05 0)
(1.68337 0.00249662 0)
(0.541503 0.0100406 0)
(0.561565 0.0132171 0)
(0.668373 0.0168469 0)
(0.74443 0.0227049 0)
(0.763946 0.0300447 0)
(0.761281 0.0374345 0)
(0.755677 0.044895 0)
(0.75072 0.0520212 0)
(0.748407 0.0589287 0)
(0.747068 0.0658045 0)
(0.745407 0.0727414 0)
(0.743099 0.0797866 0)
(0.740267 0.0869301 0)
(0.737084 0.0941931 0)
(0.733639 0.101619 0)
(0.729959 0.109253 0)
(0.726055 0.117137 0)
(0.721948 0.125308 0)
(0.717669 0.133809 0)
(0.71325 0.142682 0)
(0.708725 0.151975 0)
(0.704125 0.161738 0)
(0.699481 0.172022 0)
(0.694822 0.182881 0)
(0.69018 0.194364 0)
(0.685583 0.206535 0)
(0.681064 0.219456 0)
(0.676674 0.233127 0)
(0.672324 0.247629 0)
(0.66809 0.263107 0)
(0.664303 0.279658 0)
(0.660939 0.297463 0)
(0.657922 0.31661 0)
(0.655379 0.337129 0)
(0.653445 0.359271 0)
(0.652325 0.383269 0)
(0.652295 0.409436 0)
(0.653725 0.438152 0)
(0.657131 0.469878 0)
(0.663232 0.505171 0)
(0.673107 0.544738 0)
(0.68831 0.589427 0)
(0.711204 0.640155 0)
(0.74534 0.697805 0)
(0.796233 0.762584 0)
(0.869539 0.833474 0)
(0.983281 0.905636 0)
(1.12009 0.95921 0)
(2.61882 0.000122187 0)
(1.68933 -0.000466843 0)
(0.548886 -0.00037325 0)
(0.567833 0.00203623 0)
(0.676462 0.00665669 0)
(0.755192 0.015241 0)
(0.775767 0.025355 0)
(0.772971 0.0351385 0)
(0.766856 0.044199 0)
(0.761342 0.0523899 0)
(0.758869 0.0601622 0)
(0.757643 0.0678292 0)
(0.756214 0.0754881 0)
(0.754159 0.0831938 0)
(0.751576 0.0909305 0)
(0.748701 0.0987345 0)
(0.745642 0.106656 0)
(0.74241 0.114745 0)
(0.739001 0.123045 0)
(0.73543 0.131597 0)
(0.731725 0.140442 0)
(0.727922 0.149626 0)
(0.724058 0.159198 0)
(0.720168 0.169211 0)
(0.716291 0.179718 0)
(0.712459 0.190776 0)
(0.708723 0.20244 0)
(0.705139 0.21475 0)
(0.701635 0.22772 0)
(0.698277 0.241436 0)
(0.695344 0.25604 0)
(0.692912 0.271666 0)
(0.690933 0.288359 0)
(0.689465 0.306119 0)
(0.688606 0.325077 0)
(0.688514 0.345374 0)
(0.689421 0.367175 0)
(0.691579 0.390691 0)
(0.695332 0.416129 0)
(0.701134 0.443803 0)
(0.709588 0.473987 0)
(0.721519 0.50704 0)
(0.73804 0.543271 0)
(0.760721 0.583013 0)
(0.791591 0.62641 0)
(0.833453 0.673222 0)
(0.889892 0.722409 0)
(0.963685 0.771311 0)
(1.06557 0.815729 0)
(1.17938 0.84171 0)
(2.61547 0.00247882 0)
(1.68197 -0.00562832 0)
(0.555697 -0.00841612 0)
(0.584293 -0.00197194 0)
(0.697223 0.0058101 0)
(0.779443 0.0165715 0)
(0.800317 0.027396 0)
(0.796071 0.0375883 0)
(0.788059 0.0465952 0)
(0.781142 0.0548235 0)
(0.778004 0.0627566 0)
(0.776442 0.0705792 0)
(0.774781 0.0783557 0)
(0.772525 0.0861238 0)
(0.769773 0.0939558 0)
(0.766805 0.101906 0)
(0.763728 0.110017 0)
(0.760549 0.118325 0)
(0.757255 0.126866 0)
(0.753854 0.135674 0)
(0.750373 0.144785 0)
(0.74685 0.154238 0)
(0.743325 0.164074 0)
(0.739839 0.174338 0)
(0.736436 0.18508 0)
(0.733156 0.196352 0)
(0.730023 0.208151 0)
(0.727021 0.220524 0)
(0.724275 0.233576 0)
(0.722056 0.247439 0)
(0.720374 0.26216 0)
(0.719169 0.277728 0)
(0.718556 0.294185 0)
(0.718663 0.311619 0)
(0.719654 0.330123 0)
(0.721705 0.349829 0)
(0.725051 0.370851 0)
(0.729946 0.393325 0)
(0.736792 0.417393 0)
(0.746075 0.443217 0)
(0.758361 0.470951 0)
(0.774463 0.500719 0)
(0.795312 0.532576 0)
(0.822236 0.566429 0)
(0.856695 0.60198 0)
(0.900607 0.638488 0)
(0.956258 0.674664 0)
(1.02527 0.708134 0)
(1.11206 0.735991 0)
(1.20544 0.749884 0)
(2.60853 0.00874688 0)
(1.65506 -0.0729063 0)
(0.595316 -0.0689093 0)
(0.627054 -0.0397199 0)
(0.734704 0.000162026 0)
(0.813627 0.0227661 0)
(0.832201 0.0337306 0)
(0.826441 0.043198 0)
(0.81715 0.0511384 0)
(0.809753 0.0595955 0)
(0.80621 0.0683138 0)
(0.804145 0.0768463 0)
(0.801962 0.08511 0)
(0.799291 0.0931854 0)
(0.796278 0.101243 0)
(0.793115 0.109374 0)
(0.789883 0.117627 0)
(0.786584 0.126037 0)
(0.783207 0.134639 0)
(0.779759 0.143473 0)
(0.776266 0.15258 0)
(0.772765 0.162 0)
(0.769297 0.171776 0)
(0.765908 0.181962 0)
(0.762655 0.192582 0)
(0.759489 0.20365 0)
(0.756474 0.215217 0)
(0.753863 0.227387 0)
(0.751731 0.240242 0)
(0.750069 0.253804 0)
(0.748939 0.268045 0)
(0.748433 0.283037 0)
(0.748681 0.298846 0)
(0.749834 0.315541 0)
(0.75206 0.333188 0)
(0.75556 0.351855 0)
(0.760568 0.371615 0)
(0.767375 0.39253 0)
(0.776337 0.41469 0)
(0.787915 0.438119 0)