/*--------------------------------*- C++ -*----------------------------------*\
| =========                 |                                                 |
| \\      /  F ield         | OpenFOAM: The Open Source CFD Toolbox           |
|  \\    /   O peration     | Version:  2412                                  |
|   \\  /    A nd           | Website:  www.openfoam.com                      |
|    \\/     M anipulation  |                                                 |
\*---------------------------------------------------------------------------*/
FoamFile
{
    version     2.0;
    format      ascii;
    arch        "LSB;label=32;scalar=64";
    class       volScalarField;
    location    "9";
    object      Ma;
}
// * * * * * * * * * * * * * * * * * * * * * * * * * * * * * * * * * * * * * //

dimensions      [0 0 0 0 0 0 0];

internalField   nonuniform List<scalar> 
7000
(
2.82283
2.39824
1.55043
0.776731
0.32244
0.385614
0.456797
0.482898
0.477944
0.464574
0.450452
0.440493
0.43449
0.428046
0.420321
0.412097
0.404076
0.396608
0.387507
0.377395
0.369367
0.363021
0.356958
0.35175
0.348138
0.343571
0.337534
0.33011
0.321728
0.312743
0.303128
0.293277
0.283313
0.273117
0.261929
0.249153
0.235269
0.220354
0.204355
0.187443
0.169718
0.151208
0.131766
0.111675
0.0915931
0.0724028
0.0551027
0.0391096
0.0213542
0.00792891
2.81943
2.38425
1.54553
0.772965
0.322195
0.386856
0.458553
0.485085
0.480695
0.468137
0.454981
0.44599
0.440553
0.434016
0.425797
0.416772
0.407812
0.399382
0.389342
0.378496
0.369848
0.362873
0.356089
0.350317
0.345886
0.340458
0.333816
0.326101
0.317812
0.309196
0.3002
0.291073
0.281791
0.2722
0.261506
0.24909
0.235472
0.220784
0.205022
0.188433
0.17119
0.153419
0.135012
0.116215
0.0974788
0.0792587
0.0620589
0.0454447
0.0274705
0.0149985
2.79815
2.38208
1.55273
0.774469
0.321887
0.385233
0.456188
0.481852
0.476526
0.463189
0.44922
0.439534
0.433643
0.427173
0.419466
0.411236
0.403192
0.395686
0.386581
0.376584
0.36869
0.362437
0.356422
0.351429
0.347919
0.34342
0.337577
0.330423
0.322384
0.313733
0.304405
0.294788
0.28495
0.274795
0.263572
0.250751
0.236905
0.222154
0.206503
0.190221
0.17349
0.156473
0.139048
0.121392
0.103801
0.086509
0.0698241
0.053553
0.0366523
0.0257391
2.79704
2.38222
1.55409
0.775815
0.322152
0.385908
0.457067
0.482894
0.477908
0.464951
0.451364
0.442026
0.436536
0.430302
0.4227
0.414509
0.40647
0.398939
0.389762
0.379647
0.371609
0.3652
0.358992
0.353547
0.349615
0.344687
0.338319
0.330651
0.32217
0.313232
0.303814
0.29425
0.284582
0.274691
0.263777
0.251299
0.237839
0.2235
0.208299
0.192543
0.176444
0.160203
0.143704
0.127063
0.1105
0.094169
0.0782936
0.0628653
0.047358
0.0376092
2.79667
2.38249
1.55266
0.774984
0.320432
0.385306
0.456731
0.482647
0.477733
0.464873
0.451368
0.442144
0.436765
0.43052
0.42289
0.414694
0.406682
0.399166
0.389995
0.380006
0.372096
0.365816
0.359763
0.354402
0.350603
0.345855
0.339597
0.331969
0.323446
0.314426
0.304917
0.295275
0.285577
0.275725
0.26492
0.252664
0.239534
0.2256
0.210875
0.195677
0.180225
0.164741
0.149118
0.133428
0.117854
0.10254
0.0876886
0.0733976
0.0593679
0.050583
2.82431
2.38874
1.56029
0.773901
0.318817
0.384713
0.456384
0.482413
0.477698
0.465092
0.451882
0.442956
0.437934
0.432148
0.425007
0.417242
0.409531
0.402173
0.392938
0.38248
0.373975
0.367123
0.360615
0.354989
0.351141
0.346539
0.340592
0.33335
0.325202
0.31649
0.307169
0.29764
0.288004
0.278183
0.267412
0.255289
0.242397
0.228793
0.214491
0.199819
0.184992
0.170238
0.155465
0.140699
0.126132
0.111912
0.0982299
0.0852343
0.0726203
0.064676
2.82334
2.39306
1.55976
0.77754
0.315989
0.382416
0.454518
0.480535
0.475869
0.463265
0.450105
0.44133
0.436633
0.431434
0.425023
0.41797
0.410846
0.403937
0.394881
0.384292
0.375564
0.368408
0.3615
0.355573
0.351299
0.346222
0.339993
0.332663
0.324633
0.316207
0.307326
0.29832
0.289221
0.279938
0.269687
0.258084
0.24572
0.232662
0.218937
0.204891
0.190753
0.176768
0.162861
0.149042
0.135523
0.122464
0.110027
0.0983431
0.0870744
0.0798747
2.82111
2.3949
1.55868
0.778096
0.314506
0.383329
0.456038
0.482433
0.478256
0.465961
0.453054
0.444397
0.439791
0.434678
0.428241
0.42107
0.413781
0.406707
0.397457
0.386579
0.377637
0.370358
0.363388
0.357379
0.353112
0.348052
0.341788
0.334405
0.326338
0.317916
0.309115
0.300271
0.291408
0.282443
0.272595
0.26149
0.249698
0.237268
0.224221
0.210899
0.197539
0.184394
0.171415
0.158597
0.146185
0.134339
0.123185
0.112803
0.102711
0.0961904
2.82019
2.39379
1.56131
0.779549
0.312638
0.381727
0.454236
0.480762
0.476898
0.464947
0.452015
0.442926
0.437223
0.430747
0.423107
0.415027
0.407267
0.400137
0.391301
0.381534
0.373916
0.367936
0.362136
0.357229
0.353841
0.349431
0.343669
0.336645
0.328812
0.320555
0.311903
0.303212
0.294531
0.285789
0.276228
0.265596
0.2544
0.242656
0.230369
0.217867
0.205391
0.193189
0.181233
0.169497
0.15825
0.14764
0.137761
0.128604
0.119627
0.113691
2.81474
2.38759
1.55794
0.785855
0.310921
0.3809
0.453435
0.480097
0.476587
0.464918
0.452135
0.44311
0.437128
0.43038
0.422591
0.414447
0.406708
0.399626
0.390899
0.381407
0.374099
0.368416
0.36291
0.358278
0.355138
0.350994
0.345487
0.338706
0.331098
0.323065
0.314687
0.306293
0.297932
0.289541
0.280386
0.270326
0.259817
0.248854
0.237432
0.225859
0.214376
0.203221
0.192393
0.181832
0.171823
0.162491
0.15387
0.145921
0.137916
0.13255
2.81492
2.39564
1.57302
0.786149
0.308483
0.380877
0.453255
0.480419
0.477476
0.466056
0.453579
0.44497
0.439561
0.43338
0.426154
0.418491
0.411081
0.404128
0.395329
0.385508
0.377782
0.371693
0.365891
0.36093
0.357612
0.35348
0.348045
0.341407
0.333971
0.326141
0.318016
0.309909
0.3019
0.293898
0.285211
0.275813
0.266071
0.25597
0.245499
0.234951
0.224572
0.214578
0.204989
0.195716
0.187027
0.179005
0.171693
0.164895
0.157858
0.152972
2.7898
2.39038
1.58235
0.792624
0.30596
0.378999
0.451112
0.479327
0.477548
0.466825
0.454878
0.446835
0.441697
0.435624
0.428439
0.420797
0.413402
0.406329
0.397337
0.3875
0.379802
0.373758
0.36804
0.363148
0.359928
0.355977
0.350761
0.344369
0.337194
0.329646
0.321893
0.314168
0.30657
0.298959
0.290774
0.282124
0.273227
0.264078
0.254661
0.245242
0.236079
0.227366
0.219138
0.211277
0.204008
0.197405
0.191388
0.185789
0.17966
0.175309
2.78931
2.39781
1.59447
0.800741
0.306612
0.378934
0.449436
0.478558
0.477453
0.466707
0.454789
0.446826
0.441891
0.436154
0.429331
0.422032
0.414951
0.408034
0.399073
0.389336
0.381702
0.375682
0.370019
0.365176
0.362045
0.35827
0.353264
0.347143
0.340311
0.333152
0.325885
0.318681
0.311662
0.304617
0.29708
0.289267
0.281311
0.273213
0.26495
0.256772
0.248954
0.241656
0.234943
0.228602
0.222863
0.217791
0.213289
0.208957
0.203867
0.200023
2.78939
2.39507
1.61042
0.8117
0.310143
0.380146
0.448332
0.478762
0.47841
0.467621
0.455587
0.447579
0.442473
0.436603
0.429728
0.422478
0.415526
0.408617
0.399633
0.390106
0.38269
0.376837
0.371341
0.366686
0.363735
0.360176
0.355412
0.349607
0.343191
0.33652
0.329844
0.323294
0.316992
0.310678
0.303968
0.297134
0.290268
0.283373
0.276416
0.26962
0.263288
0.257562
0.252531
0.247955
0.24398
0.24057
0.237716
0.234956
0.230996
0.227836
2.79002
2.40751
1.62452
0.824331
0.3161
0.38088
0.446285
0.478591
0.479291
0.468591
0.456661
0.448695
0.443603
0.437869
0.431167
0.424097
0.417344
0.410485
0.401475
0.392072
0.384782
0.379026
0.373645
0.369186
0.36644
0.363085
0.358551
0.353063
0.347069
0.340895
0.33478
0.328861
0.323253
0.317633
0.311749
0.30594
0.300234
0.29463
0.289084
0.283817
0.279157
0.275174
0.272005
0.269346
0.267364
0.26607
0.265207
0.264276
0.262072
0.259708
2.7899
2.42084
1.63804
0.838293
0.323185
0.381762
0.443852
0.478071
0.480105
0.4699
0.458329
0.450456
0.444851
0.4386
0.431498
0.424225
0.417476
0.410664
0.401836
0.392895
0.386101
0.380791
0.375846
0.371886
0.369629
0.366682
0.362526
0.357476
0.351955
0.346284
0.340715
0.335409
0.330501
0.325647
0.320616
0.315827
0.311328
0.307105
0.303095
0.299474
0.296605
0.294613
0.293606
0.293262
0.293672
0.294779
0.296578
0.298372
0.298162
0.297527
2.78381
2.43095
1.64795
0.858514
0.333956
0.385038
0.442392
0.47711
0.479902
0.469973
0.458627
0.450398
0.443857
0.436949
0.429384
0.421875
0.415187
0.408475
0.399988
0.392002
0.386219
0.381821
0.377714
0.374662
0.373088
0.370656
0.367021
0.362555
0.357633
0.352581
0.347645
0.343002
0.338819
0.334757
0.330632
0.326918
0.323652
0.320844
0.318451
0.316628
0.31574
0.315925
0.317312
0.319646
0.322948
0.327254
0.332451
0.338218
0.342176
0.344004
2.79343
2.44195
1.67219
0.872049
0.341156
0.38567
0.440935
0.476398
0.479981
0.470426
0.459597
0.45151
0.444723
0.437772
0.430333
0.423051
0.416633
0.410019
0.401674
0.394078
0.388683
0.384637
0.380914
0.378368
0.377327
0.375392
0.372303
0.368475
0.364217
0.359842
0.355602
0.351689
0.348287
0.345057
0.341826
0.339187
0.337227
0.335931
0.335252
0.335367
0.336592
0.339262
0.34341
0.348898
0.355793
0.364046
0.374635
0.386395
0.396654
0.405502
2.79345
2.43758
1.68719
0.879168
0.348404
0.386449
0.440069
0.47595
0.479996
0.470841
0.460684
0.452894
0.446322
0.439683
0.432678
0.425916
0.419935
0.413539
0.40539
0.397989
0.39267
0.388667
0.385062
0.382798
0.382103
0.380581
0.378044
0.374874
0.37134
0.367732
0.364294
0.361221
0.358707
0.35647
0.354275
0.35277
0.352122
0.352357
0.353468
0.355636
0.359161
0.364511
0.371927
0.380948
0.392037
0.406093
0.423892
0.445658
0.469191
0.494632
2.81292
2.45587
1.69272
0.900831
0.358754
0.386324
0.439588
0.475898
0.48051
0.47163
0.461554
0.453388
0.446922
0.440755
0.434436
0.428436
0.423123
0.417476
0.409928
0.402668
0.397445
0.393537
0.390068
0.388149
0.387849
0.386762
0.384768
0.382233
0.379386
0.376513
0.37388
0.371674
0.370081
0.368911
0.367848
0.367484
0.368169
0.36999
0.372982
0.377296
0.383232
0.391473
0.40206
0.415042
0.431853
0.453558
0.481559
0.519181
0.569326
0.6606
2.79702
2.45849
1.72694
0.919925
0.367241
0.383916
0.437772
0.474885
0.480682
0.472312
0.462732
0.45476
0.448856
0.443576
0.438342
0.433436
0.42901
0.42417
0.417317
0.41037
0.40523
0.401406
0.398116
0.396299
0.396397
0.395996
0.394838
0.393238
0.391411
0.389616
0.38813
0.387136
0.386814
0.387236
0.387877
0.388966
0.391371
0.395301
0.400742
0.407917
0.417036
0.428675
0.443888
0.463475
0.488756
0.521013
0.564331
0.62921
0.729523
0.877143
2.8158
2.48288
1.73662
0.946401
0.374605
0.381453
0.435256
0.47327
0.479654
0.472473
0.46451
0.458275
0.45391
0.450057
0.446179
0.442334
0.438466
0.433959
0.427453
0.420622
0.415275
0.411239
0.407884
0.405866
0.406013
0.406151
0.405691
0.404933
0.404087
0.403367
0.403039
0.403322
0.404337
0.406201
0.40875
0.411646
0.415646
0.421384
0.428928
0.438424
0.450334
0.465416
0.485038
0.51032
0.542266
0.583518
0.637254
0.711592
0.826323
0.964102
2.79519
2.49162
1.7596
0.966526
0.37722
0.376919
0.430938
0.470775
0.478567
0.473724
0.468004
0.464059
0.461824
0.459922
0.457563
0.45481
0.451581
0.447479
0.441219
0.434032
0.428039
0.423355
0.419485
0.416975
0.416843
0.417094
0.416992
0.416825
0.416803
0.417109
0.417964
0.419537
0.421963
0.425322
0.429763
0.434843
0.440494
0.447919
0.457405
0.469106
0.483321
0.501361
0.523721
0.552383
0.587899
0.632898
0.690262
0.760747
0.857264
0.962712
2.79258
2.49721
1.79206
0.997999
0.38122
0.375344
0.429237
0.470986
0.481391
0.480212
0.477743
0.476499
0.476166
0.475703
0.474475
0.472322
0.469103
0.464758
0.458038
0.449938
0.443013
0.437439
0.432681
0.429595
0.429074
0.429009
0.428852
0.428937
0.429535
0.430728
0.432585
0.43535
0.439124
0.444008
0.449996
0.457011
0.464503
0.473209
0.484239
0.497639
0.513597
0.533003
0.557393
0.586693
0.623372
0.666512
0.720579
0.783458
0.862011
0.942248
2.7639
2.54567
1.87604
1.04859
0.380665
0.364417
0.417067
0.460479
0.475633
0.480636
0.484091
0.487541
0.490885
0.493232
0.493861
0.492462
0.48923
0.484195
0.476388
0.467064
0.458699
0.451589
0.445445
0.441175
0.439824
0.439237
0.438836
0.439077
0.440218
0.442222
0.445149
0.449155
0.454317
0.460681
0.468185
0.4768
0.486426
0.496846
0.508989
0.523506
0.540458
0.560278
0.584614
0.613503
0.648544
0.688892
0.736861
0.792114
0.85664
0.921445
2.75201
2.70122
1.93839
1.09712
0.399212
0.358439
0.407776
0.456602
0.477808
0.488308
0.49588
0.501794
0.507538
0.511971
0.513934
0.512819
0.509018
0.502587
0.49319
0.482685
0.473011
0.464453
0.456898
0.451882
0.449777
0.448258
0.44728
0.447376
0.448813
0.45146
0.4554
0.460585
0.467066
0.474906
0.483919
0.494079
0.505217
0.517112
0.530559
0.546008
0.563499
0.583489
0.606796
0.634194
0.666377
0.703373
0.745451
0.793342
0.847022
0.90099
3.08527
2.64831
2.03941
1.0252
0.543256
0.370217
0.418632
0.480588
0.506606
0.513064
0.513022
0.510584
0.508886
0.507382
0.505381
0.502373
0.49772
0.491423
0.484519
0.477732
0.471392
0.465497
0.460463
0.458064
0.457275
0.456435
0.456028
0.45666
0.458568
0.46168
0.466177
0.472036
0.479262
0.487876
0.497713
0.508735
0.520656
0.533517
0.547961
0.563955
0.581722
0.601677
0.624394
0.649791
0.679012
0.712105
0.74918
0.790347
0.836043
0.881
3.03673
2.78326
2.2321
1.31707
0.675795
0.346387
0.411541
0.486618
0.51684
0.52168
0.51457
0.505346
0.496853
0.489969
0.484323
0.479974
0.475989
0.471795
0.468368
0.465996
0.464499
0.463418
0.463197
0.464321
0.46552
0.466552
0.467662
0.469185
0.471464
0.474742
0.479153
0.484905
0.492099
0.500619
0.510351
0.521277
0.533321
0.54649
0.561089
0.577104
0.594732
0.614196
0.635976
0.660103
0.686998
0.716572
0.749377
0.784936
0.823932
0.86172
3.13736
2.81855
2.37441
1.5009
0.77009
0.326704
0.400994
0.471004
0.507716
0.513899
0.504527
0.49435
0.485494
0.478538
0.47317
0.469615
0.467508
0.466066
0.465774
0.466925
0.468923
0.471173
0.473355
0.475382
0.477262
0.479017
0.48098
0.483161
0.48582
0.489097
0.49308
0.498252
0.504845
0.512682
0.521708
0.531897
0.543205
0.55579
0.569817
0.58533
0.602407
0.621067
0.641726
0.664517
0.689339
0.716426
0.745633
0.776915
0.810517
0.842777
3.16176
2.83997
2.45517
1.63578
0.873586
0.365942
0.402503
0.456761
0.496655
0.503836
0.495489
0.487386
0.480923
0.476502
0.473892
0.472861
0.473033
0.474032
0.476056
0.479085
0.482351
0.485385
0.488022
0.490323
0.492414
0.494489
0.496726
0.49898
0.501414
0.504379
0.507648
0.511535
0.516577
0.523149
0.531209
0.540416
0.550658
0.562205
0.575187
0.589651
0.605642
0.623207
0.642448
0.663716
0.686643
0.71161
0.738189
0.766081
0.795697
0.824001
3.16455
2.86295
2.52488
1.74005
0.978111
0.41081
0.395419
0.442895
0.480347
0.487776
0.483141
0.479591
0.478019
0.478687
0.480863
0.483757
0.486942
0.490161
0.493727
0.4975
0.501073
0.503915
0.505846
0.507341
0.508689
0.510127
0.511668
0.513159
0.514984
0.517304
0.519781
0.522657
0.526316
0.531416
0.538192
0.546487
0.556178
0.567244
0.579278
0.592579
0.607361
0.623396
0.641005
0.660124
0.681022
0.703849
0.728002
0.753107
0.779649
0.805103
3.15673
2.86906
2.58122
1.83177
1.06878
0.451163
0.387968
0.42863
0.467113
0.478254
0.478549
0.479193
0.481719
0.486251
0.491868
0.497677
0.503411
0.508875
0.513789
0.517935
0.521227
0.523049
0.523526
0.523692
0.523885
0.524213
0.524584
0.525443
0.526808
0.528145
0.529748
0.531802
0.53452
0.538314
0.543837
0.551215
0.560217
0.570525
0.582028
0.594927
0.60889
0.624233
0.640627
0.658123
0.6769
0.696851
0.718117
0.740808
0.764756
0.787571
2.96114
2.86901
2.61773
2.05193
1.07725
0.577257
0.406863
0.44262
0.484632
0.503978
0.508027
0.507612
0.507123
0.507509
0.508945
0.511369
0.514237
0.517022
0.519398
0.52145
0.522578
0.522529
0.522445
0.522629
0.523137
0.523741
0.524726
0.526447
0.528321
0.530243
0.532402
0.534931
0.538053
0.542044
0.54758
0.555067
0.563972
0.573918
0.584936
0.597101
0.610353
0.624809
0.640484
0.657171
0.675007
0.693404
0.712547
0.732479
0.753764
0.774134
2.94281
2.92923
2.71674
2.22739
1.33253
0.72877
0.415572
0.446382
0.498994
0.527427
0.532175
0.527083
0.521002
0.515503
0.511397
0.508763
0.507125
0.505659
0.504515
0.504119
0.504096
0.503926
0.504492
0.506002
0.50821
0.510857
0.514158
0.51784
0.521481
0.525212
0.529173
0.533437
0.538124
0.543594
0.5505
0.558715
0.567854
0.577876
0.588713
0.60046
0.613084
0.626666
0.641356
0.656982
0.673596
0.690932
0.709097
0.727735
0.747048
0.765327
2.91863
3.11148
2.78242
2.34582
1.45507
0.754093
0.362816
0.421599
0.491775
0.526084
0.532921
0.527175
0.519394
0.511831
0.505607
0.500757
0.497121
0.49379
0.490902
0.489098
0.488578
0.488945
0.490279
0.492861
0.496385
0.500678
0.505547
0.510765
0.516226
0.521768
0.527205
0.533167
0.539627
0.546523
0.554147
0.562916
0.57253
0.582846
0.593806
0.605466
0.617825
0.630858
0.644711
0.659197
0.674581
0.690574
0.707292
0.724531
0.742168
0.759065
2.95784
2.93985
2.76742
2.33883
1.56238
0.57733
0.306823
0.39025
0.467361
0.50786
0.522978
0.525759
0.523825
0.520414
0.516498
0.512381
0.509012
0.505704
0.50219
0.499198
0.497123
0.496108
0.496406
0.497945
0.500526
0.504104
0.508576
0.513777
0.51958
0.525845
0.532476
0.539075
0.545543
0.552422
0.560135
0.568485
0.577389
0.587055
0.597455
0.608587
0.620601
0.633317
0.646853
0.661
0.675755
0.691036
0.70653
0.722505
0.738707
0.754141
2.94343
3.13522
2.83963
2.45465
1.61419
0.85261
0.375581
0.412904
0.465688
0.509964
0.523046
0.522592
0.519938
0.517386
0.515726
0.514419
0.513337
0.512039
0.511041
0.510337
0.509825
0.509816
0.510528
0.511914
0.513972
0.516764
0.520337
0.524639
0.529606
0.535141
0.541191
0.547719
0.554613
0.561395
0.568218
0.575944
0.584446
0.5935
0.603027
0.613114
0.623913
0.635377
0.647684
0.660896
0.674712
0.689353
0.704208
0.719635
0.734952
0.749456
2.95449
3.13707
2.87182
2.51172
1.7133
0.943846
0.391276
0.396422
0.450928
0.496749
0.509766
0.508549
0.506388
0.505413
0.506108
0.507464
0.509867
0.51227
0.514286
0.516425
0.518629
0.520921
0.523394
0.52607
0.528981
0.532226
0.535844
0.539852
0.544257
0.549089
0.554359
0.560035
0.566147
0.572534
0.579024
0.585894
0.593495
0.601836
0.6107
0.620076
0.629928
0.640396
0.65145
0.663361
0.675617
0.6891
0.702673
0.717053
0.731304
0.744888
2.96665
3.1415
2.89709
2.56149
1.79843
1.02181
0.408667
0.379521
0.431564
0.47665
0.489897
0.490605
0.491677
0.494638
0.499535
0.50542
0.511924
0.518024
0.523561
0.528665
0.533418
0.537958
0.542261
0.546355
0.550297
0.554183
0.558066
0.561983
0.565981
0.570096
0.574358
0.578828
0.583601
0.588515
0.593594
0.599281
0.605703
0.612739
0.620275
0.628497
0.63738
0.646759
0.656352
0.666801
0.67759
0.689328
0.701291
0.714008
0.72714
0.739742
2.98032
3.13711
2.89292
2.63346
1.88876
1.10301
0.427729
0.370493
0.422251
0.471162
0.487781
0.491688
0.495591
0.501023
0.508062
0.516
0.524769
0.533363
0.541145
0.548219
0.554657
0.560566
0.565989
0.57098
0.575642
0.580029
0.584145
0.587998
0.591621
0.595063
0.598331
0.601563
0.604707
0.607528
0.610728
0.61471
0.619401
0.624642
0.630501
0.637242
0.644697
0.652826
0.661306
0.670379
0.679835
0.689978
0.700585
0.711743
0.723377
0.734588
2.99193
2.93219
2.93794
2.63839
2.04797
1.07009
0.569604
0.393733
0.439401
0.495434
0.519751
0.524594
0.524507
0.524751
0.525949
0.528397
0.532625
0.537768
0.542682
0.547531
0.55251
0.557655
0.562888
0.56815
0.573393
0.578624
0.583828
0.588841
0.593551
0.597895
0.601947
0.60548
0.608396
0.611481
0.61503
0.619149
0.623704
0.628691
0.634299
0.64053
0.64726
0.654778
0.662833
0.671494
0.680541
0.689936
0.699785
0.710056
0.720786
0.731065
2.98882
2.99369
2.93127
2.82691
2.10934
1.30974
0.476745
0.327833
0.399972
0.473022
0.50594
0.519164
0.525814
0.530413
0.534244
0.538039
0.542838
0.54778
0.551655
0.555012
0.55832
0.561742
0.565427
0.569369
0.573462
0.577577
0.581608
0.585489
0.589302
0.593077
0.596605
0.599888
0.603283
0.607008
0.61114
0.61578
0.620868
0.626313
0.632157
0.638497
0.645154
0.652493
0.660358
0.669009
0.67809
0.687653
0.697555
0.707707
0.718201
0.728142
2.99026
2.96277
2.93036
2.71581
2.26168
1.40998
0.54455
0.324097
0.394813
0.467126
0.504174
0.523079
0.533847
0.542226
0.549501
0.556413
0.563599
0.570141
0.574717
0.577792
0.580001
0.581625
0.583005
0.584553
0.5863
0.588056
0.589685
0.591225
0.592777
0.594528
0.59652
0.598748
0.601639
0.605141
0.60924
0.613998
0.619216
0.624758
0.630588
0.636744
0.64323
0.650101
0.657417
0.665603
0.674569
0.684057
0.693842
0.703878
0.714346
0.724178
2.99626
2.93166
3.14048
2.81206
2.37625
1.50075
0.773148
0.342646
0.3985
0.462533
0.506653
0.521908
0.524437
0.525339
0.528134
0.53266
0.538152
0.543168
0.547477
0.551167
0.55417
0.557162
0.560164
0.563229
0.566511
0.569787
0.573059
0.576321
0.579553
0.582871
0.586507
0.5905
0.594796
0.599514
0.604539
0.610011
0.615654
0.621612
0.627852
0.634519
0.641457
0.648629
0.655941
0.663773
0.672355
0.681532
0.691149
0.701046
0.711268
0.721042
3.00288
2.94673
3.14154
2.85455
2.46269
1.63716
0.866261
0.351778
0.392827
0.449593
0.495298
0.507122
0.502909
0.498127
0.49612
0.497108
0.499865
0.50302
0.50668
0.510653
0.515012
0.519857
0.525092
0.530633
0.536381
0.542203
0.548138
0.55417
0.56024
0.566296
0.57239
0.578692
0.585176
0.5918
0.598433
0.605173
0.611852
0.618696
0.62578
0.633159
0.640751
0.648575
0.656585
0.664933
0.673541
0.682483
0.691741
0.701298
0.711178
0.72058
3.00568
2.95055
3.14029
2.86516
2.50591
1.68605
0.916181
0.367555
0.376382
0.432759
0.480375
0.494751
0.492088
0.487359
0.484678
0.48404
0.484641
0.485977
0.487882
0.490607
0.494307
0.49898
0.504543
0.51081
0.517553
0.524737
0.532253
0.540019
0.54796
0.55597
0.564027
0.572088
0.580149
0.588273
0.596305
0.604232
0.612015
0.619754
0.627452
0.635219
0.64299
0.650971
0.659038
0.667409
0.675978
0.684797
0.69385
0.703026
0.712494
0.721459
2.99355
2.9729
2.94019
2.84742
2.49568
1.82439
0.831684
0.424098
0.392936
0.453511
0.509901
0.535396
0.543386
0.545147
0.545018
0.54418
0.5428
0.540585
0.537855
0.535445
0.533764
0.532909
0.533174
0.534675
0.537137
0.540573
0.544962
0.550279
0.556368
0.563033
0.57013
0.577562
0.585252
0.593089
0.600955
0.608785
0.616556
0.624321
0.631836
0.639028
0.646264
0.653665
0.661325
0.669162
0.677115
0.685256
0.693788
0.702395
0.711357
0.719825
3.00898
2.96179
3.13478
2.89007
2.57492
1.80533
1.03765
0.431646
0.380778
0.432229
0.482857
0.502905
0.507532
0.509342
0.511869
0.515277
0.519232
0.522847
0.525736
0.528256
0.530726
0.533297
0.536238
0.539625
0.543512
0.547943
0.552886
0.5583
0.564209
0.5706
0.577356
0.584357
0.591556
0.598914
0.606371
0.613836
0.621234
0.62857
0.635901
0.642945
0.6497
0.656755
0.664099
0.671665
0.679352
0.687106
0.695194
0.703532
0.712127
0.720167
3.01276
2.96956
3.14352
2.90466
2.59778
1.84932
1.07592
0.433833
0.372447
0.424913
0.474876
0.491466
0.491209
0.488602
0.488208
0.490622
0.494986
0.500511
0.506294
0.512076
0.517852
0.523782
0.529945
0.536333
0.543007
0.549919
0.556933
0.56405
0.571261
0.578537
0.585878
0.593285
0.600686
0.607991
0.615125
0.622099
0.628913
0.63559
0.642186
0.648643
0.655076
0.661729
0.668532
0.675511
0.682895
0.690531
0.698396
0.706214
0.714226
0.721837
2.99381
2.97912
2.95577
2.82722
2.64301
1.95874
1.03573
0.556345
0.425879
0.473621
0.528946
0.556225
0.558809
0.552168
0.545853
0.541689
0.539465
0.53873
0.539119
0.540202
0.541902
0.544392
0.547669
0.5515
0.555763
0.560384
0.565362
0.570669
0.576258
0.5821
0.588182
0.594468
0.600901
0.607381
0.61386
0.620342
0.626627
0.632762
0.639087
0.645623
0.652341
0.65916
0.666154
0.673564
0.681372
0.689177
0.6971
0.704978
0.712986
0.720552
3.01086
2.97913
3.13964
2.90406
2.65142
1.93098
1.16373
0.462258
0.370631
0.425059
0.483254
0.505343
0.509052
0.508709
0.508729
0.511533
0.516004
0.521041
0.526728
0.53253
0.538214
0.543954
0.549698
0.555377
0.560975
0.566481
0.57188
0.577194
0.582454
0.587659
0.59282
0.597995
0.603208
0.608449
0.613796
0.61927
0.62474
0.630465
0.636565
0.64294
0.649551
0.656518
0.663965
0.671612
0.679545
0.687524
0.695559
0.703601
0.711658
0.719244
3.01575
2.9826
3.13827
2.93135
2.67604
1.9741
1.21464
0.498409
0.387174
0.430976
0.479202
0.496027
0.497869
0.497889
0.499115
0.503845
0.510541
0.518207
0.526845
0.535822
0.544706
0.553412
0.561854
0.570018
0.577795
0.585069
0.591828
0.598168
0.603991
0.609242
0.613964
0.618161
0.621951
0.625484
0.62879
0.632161
0.635905
0.640021
0.644476
0.649531
0.655302
0.661552
0.668275
0.675145
0.682277
0.689478
0.69673
0.704166
0.711688
0.719006
3.00875
3.0012
3.04316
2.98319
2.80639
2.07504
1.28321
0.478617
0.366808
0.413175
0.464602
0.485664
0.492094
0.496261
0.500579
0.506959
0.51488
0.523639
0.53348
0.543761
0.554023
0.564117
0.573917
0.583382
0.592288
0.600525
0.60813
0.615019
0.620992
0.626051
0.630231
0.633737
0.636531
0.638427
0.64019
0.642321
0.644909
0.647903
0.651279
0.655582
0.660891
0.666521
0.672449
0.678498
0.684701
0.690985
0.697364
0.703904
0.710646
0.717146
3.00158
3.00056
3.04862
2.95464
2.83012
2.10624
1.34048
0.51492
0.356284
0.400469
0.456951
0.482695
0.491051
0.49521
0.499105
0.504646
0.511551
0.519359
0.528277
0.537649
0.546977
0.556266
0.565481
0.574511
0.583227
0.591472
0.599119
0.606079
0.612291
0.617844
0.622564
0.62609
0.628932
0.631791
0.634919
0.638317
0.641836
0.645769
0.650537
0.655814
0.661247
0.666875
0.672572
0.678316
0.684055
0.689807
0.695665
0.701632
0.707972
0.713981
2.98312
2.98397
2.92147
3.00984
2.78615
2.30161
1.40391
0.728888
0.394305
0.43586
0.499523
0.542058
0.554179
0.551445
0.546528
0.542117
0.539251
0.538113
0.53824
0.53871
0.539421
0.540838
0.543184
0.546385
0.550216
0.554496
0.55914
0.564174
0.569682
0.575169
0.580212
0.585395
0.590903
0.596787
0.603051
0.609569
0.616149
0.623156
0.630703
0.638417
0.646022
0.653616
0.661114
0.668486
0.675748
0.682986
0.690252
0.697598
0.705224
0.712461
2.98833
2.99643
2.9289
3.13454
2.82064
2.39367
1.53746
0.807762
0.349733
0.413906
0.488488
0.541994
0.558605
0.556047
0.549868
0.544443
0.540415
0.537987
0.536218
0.534148
0.531911
0.529849
0.528193
0.52714
0.526927
0.527807
0.529731
0.532544
0.536378
0.541219
0.547038
0.553678
0.561058
0.569138
0.577738
0.586679
0.595906
0.605496
0.615185
0.62494
0.634583
0.644208
0.653659
0.663153
0.672395
0.681791
0.690961
0.700175
0.709386
0.717906
2.98919
2.99731
2.93214
3.13357
2.82761
2.42765
1.58152
0.830647
0.359892
0.418459
0.484872
0.537339
0.55473
0.554832
0.550578
0.547627
0.545892
0.544546
0.542958
0.540864
0.538355
0.535743
0.533347
0.531391
0.530038
0.529419
0.529685
0.530953
0.533173
0.536447
0.540888
0.54644
0.553029
0.56055
0.568848
0.577774
0.587207
0.59704
0.607159
0.617501
0.628
0.638623
0.649308
0.660032
0.670714
0.681376
0.691898
0.702402
0.712744
0.722515
2.99344
2.98735
2.95516
2.94029
2.78677
2.41571
1.6578
0.631091
0.315076
0.375239
0.443265
0.491169
0.513367
0.521193
0.524904
0.528781
0.533198
0.537574
0.541604
0.545331
0.548893
0.552395
0.555892
0.559409
0.562967
0.566618
0.57012
0.573398
0.576978
0.580983
0.585461
0.590332
0.595549
0.601455
0.607937
0.614453
0.620952
0.627398
0.63378
0.640119
0.646432
0.652755
0.659182
0.665992
0.673272
0.681146
0.689244
0.697812
0.706278
0.714564
2.99335
2.98983
2.95816
2.94276
2.72842
2.4763
1.74763
0.70982
0.36646
0.393519
0.449256
0.498447
0.520992
0.529084
0.533606
0.538638
0.54446
0.550439
0.556246
0.561854
0.567229
0.572387
0.57744
0.582389
0.586934
0.59041
0.593139
0.595957
0.599007
0.602374
0.605928
0.609529
0.613735
0.618565
0.623245
0.627759
0.632129
0.636368
0.640511
0.644619
0.648755
0.652973
0.657342
0.66201
0.667212
0.673104
0.679488
0.686472
0.693752
0.700868
2.99306
2.98872
2.95797
2.93796
2.76822
2.47038
1.74643
0.709623
0.36801
0.397326
0.455235
0.506957
0.531202
0.539905
0.544603
0.549834
0.555869
0.561964
0.567771
0.573061
0.577705
0.58184
0.58569
0.589143
0.591367
0.5925
0.593909
0.595814
0.598307
0.601223
0.604342
0.608241
0.612929
0.617587
0.622181
0.626702
0.631138
0.635492
0.639783
0.644053
0.648353
0.652728
0.657215
0.661889
0.666931
0.672529
0.678576
0.685115
0.692002
0.698712
1.18337
1.03102
0.482306
0.187167
0.0131863
0.121863
0.158884
0.192963
0.207518
0.205375
0.19242
0.178589
0.16414
0.148873
0.133424
0.117182
0.0997077
0.0811151
0.0617635
0.0414196
0.0219975
0.0133786
0.0313887
0.0540199
0.0768464
0.0997805
0.122646
0.145412
0.168116
0.190704
0.21312
0.235358
0.257245
0.278259
0.298358
0.318565
0.33954
0.360372
0.380424
0.39982
0.418689
0.437023
0.454836
0.472107
0.488867
0.505116
0.520869
0.536158
0.550977
0.565362
0.579289
0.59276
0.605769
0.61829
0.630334
0.641829
0.652815
0.663242
0.673089
0.682371
0.691037
0.699098
0.70654
0.713325
0.719472
0.724949
0.729789
0.733924
0.737411
0.740279
0.74246
0.744147
0.745281
0.745982
0.746395
0.746765
0.746995
0.746945
0.746371
0.74564
0.745135
0.744909
0.744891
0.745235
0.745888
0.74682
0.748062
0.749622
0.751422
0.75336
0.755466
0.757732
0.760169
0.762785
0.765545
0.768273
0.770814
0.773028
0.775138
0.779789
1.11479
1.02627
0.795247
0.534288
0.493013
0.422594
0.367113
0.327754
0.304087
0.284737
0.265164
0.254703
0.249909
0.249725
0.253902
0.261641
0.272235
0.284503
0.297481
0.310537
0.323376
0.336928
0.351792
0.366878
0.382186
0.397606
0.413199
0.428965
0.444916
0.460969
0.477105
0.493342
0.509595
0.525692
0.541547
0.557507
0.574172
0.591163
0.607539
0.623363
0.638828
0.653977
0.668837
0.683423
0.697727
0.711752
0.725466
0.738896
0.751976
0.764739
0.777152
0.789202
0.800907
0.812214
0.82314
0.833682
0.843785
0.85346
0.862705
0.871448
0.879666
0.887399
0.894571
0.901068
0.907018
0.912395
0.916977
0.920926
0.924211
0.926883
0.928769
0.930194
0.930827
0.931127
0.930904
0.930718
0.930153
0.929355
0.927941
0.926333
0.924758
0.923421
0.922308
0.921445
0.92096
0.920897
0.921323
0.922136
0.923161
0.924471
0.925922
0.927901
0.929832
0.932277
0.934575
0.937185
0.939347
0.941507
0.943162
0.947753
1.07068
1.06917
1.00061
0.890396
0.822138
0.77236
0.733356
0.70074
0.677309
0.661112
0.644876
0.63129
0.623449
0.620771
0.623491
0.629477
0.637233
0.645966
0.654979
0.663719
0.67148
0.678805
0.685609
0.691438
0.696277
0.700637
0.704968
0.709582
0.714624
0.720182
0.726274
0.732889
0.739848
0.74691
0.75484
0.764157
0.774615
0.785967
0.79727
0.808157
0.818799
0.829318
0.839777
0.850249
0.860752
0.871225
0.881661
0.892083
0.90249
0.912851
0.92313
0.933283
0.94326
0.953019
0.962516
0.971714
0.980577
0.989083
0.997203
1.00494
1.01227
1.01919
1.0257
1.03178
1.03746
1.04265
1.04737
1.05167
1.05551
1.05879
1.06157
1.06398
1.06598
1.06758
1.06892
1.07017
1.0714
1.07231
1.07273
1.07295
1.07323
1.07366
1.07425
1.07491
1.07563
1.07646
1.07744
1.07853
1.07967
1.08071
1.08156
1.08246
1.0832
1.08391
1.08464
1.08473
1.08558
1.08471
1.08521
1.08595
1.04219
1.07895
1.07633
1.04248
1.00042
0.970432