/*--------------------------------*- C++ -*----------------------------------*\
| =========                 |                                                 |
| \\      /  F ield         | OpenFOAM: The Open Source CFD Toolbox           |
|  \\    /   O peration     | Version:  2412                                  |
|   \\  /    A nd           | Website:  www.openfoam.com                      |
|    \\/     M anipulation  |                                                 |
\*---------------------------------------------------------------------------*/
FoamFile
{
    version     2.0;
    format      ascii;
    arch        "LSB;label=32;scalar=64";
    class       volScalarField;
    location    "9";
    object      p;
}
// * * * * * * * * * * * * * * * * * * * * * * * * * * * * * * * * * * * * * //

dimensions      [1 -1 -2 0 0 0 0];

internalField   nonuniform List<scalar> 
7000
(
1.19565
1.18358
2.94466
5.39598
11.1231
10.8568
10.2319
9.89215
9.85748
9.88953
9.9568
10.0088
10.0405
10.0625
10.0904
10.1199
10.1512
10.1826
10.1991
10.2216
10.2407
10.2551
10.2641
10.2752
10.2795
10.2802
10.2796
10.2761
10.2726
10.2721
10.2728
10.2776
10.293
10.3233
10.3669
10.4254
10.5018
10.594
10.6993
10.8121
10.9257
11.0339
11.1315
11.2171
11.2893
11.3484
11.3949
11.4292
11.4511
11.4646
1.18281
1.2428
2.92754
5.37009
11.1179
10.8546
10.2305
9.89134
9.85672
9.88882
9.95559
10.0088
10.0393
10.0618
10.0898
10.1193
10.1507
10.1821
10.1984
10.221
10.2401
10.2544
10.2634
10.2751
10.2782
10.2794
10.2789
10.2753
10.2719
10.2712
10.2721
10.2768
10.2922
10.3224
10.366
10.4244
10.5008
10.5931
10.6983
10.8112
10.9248
11.033
11.1306
11.2163
11.2885
11.3478
11.3946
11.4292
11.4512
11.4651
1.20271
1.2688
2.85195
5.38119
11.1195
10.8525
10.2283
9.88893
9.85478
9.88672
9.95323
10.0066
10.0369
10.0596
10.0877
10.1173
10.1486
10.1802
10.1966
10.2191
10.2382
10.2526
10.2617
10.2733
10.2763
10.2775
10.277
10.2733
10.2698
10.2692
10.27
10.2748
10.29
10.3201
10.3635
10.4218
10.498
10.59
10.695
10.8076
10.921
11.029
11.1265
11.2119
11.2841
11.3438
11.3911
11.4263
11.4487
11.4632
1.20524
1.26798
2.84612
5.37828
11.1178
10.8481
10.2245
9.88562
9.85182
9.88368
9.94999
10.0033
10.0339
10.0566
10.085
10.1146
10.146
10.1776
10.194
10.2166
10.2356
10.25
10.2592
10.2699
10.274
10.2746
10.274
10.2703
10.2667
10.2661
10.2668
10.2714
10.2865
10.3163
10.3593
10.4175
10.4933
10.5849
10.6896
10.8019
10.9149
11.0226
11.1198
11.2051
11.2772
11.3371
11.3849
11.4209
11.4438
11.459
1.20709
1.26307
2.8545
5.37349
11.1129
10.8392
10.2197
9.88148
9.84768
9.87949
9.94556
9.9992
10.0294
10.0524
10.0809
10.1105
10.1421
10.1738
10.19
10.2127
10.2318
10.2461
10.2553
10.2654
10.2702
10.2703
10.2696
10.2659
10.2621
10.2616
10.2621
10.2667
10.2814
10.3109
10.3533
10.4113
10.4865
10.5777
10.6819
10.7936
10.9063
11.0136
11.1105
11.1954
11.2675
11.3276
11.3758
11.4126
11.4359
11.4519
1.18405
1.21356
2.92394
5.38646
11.1088
10.8274
10.2119
9.8756
9.84196
9.87384
9.93992
9.9936
10.0241
10.0472
10.0759
10.1058
10.1374
10.169
10.1854
10.208
10.2271
10.2413
10.2503
10.2603
10.2647
10.2647
10.2639
10.2599
10.256
10.2554
10.2559
10.2602
10.2746
10.3037
10.3454
10.403
10.4775
10.568
10.6715
10.7827
10.8948
11.0016
11.0981
11.1827
11.2545
11.3146
11.3632
11.4007
11.4243
11.4411
1.19089
1.18955
2.94444
5.36599
11.1089
10.8204
10.2026
9.86884
9.83556
9.8675
9.93372
9.98701
10.0178
10.0411
10.0698
10.0998
10.1313
10.1629
10.1792
10.2019
10.2209
10.2349
10.2436
10.2544
10.257
10.2576
10.2565
10.2523
10.2483
10.2474
10.2479
10.2519
10.2657
10.2943
10.3353
10.3922
10.4659
10.5556
10.6584
10.7688
10.8802
10.9863
11.0823
11.1663
11.2377
11.2976
11.3463
11.3843
11.4082
11.4257
1.19653
1.17666
2.96083
5.33947
11.1062
10.8119
10.1938
9.86148
9.82812
9.86008
9.92636
9.97931
10.0108
10.0341
10.063
10.093
10.1244
10.1559
10.1721
10.1947
10.2136
10.2274
10.2357
10.246
10.2488
10.2489
10.2475
10.243
10.2388
10.2377
10.238
10.2417
10.2549
10.2828
10.3229
10.3788
10.4516
10.5402
10.642
10.7515
10.862
10.9673
11.0625
11.1457
11.2165
11.2759
11.3244
11.3627
11.387
11.405
1.19665
1.18126
2.96464
5.30016
11.1022
10.8021
10.1863
9.85381
9.81973
9.85159
9.91725
9.97205
10.002
10.0263
10.0553
10.085
10.1163
10.1475
10.1632
10.1857
10.2043
10.2181
10.226
10.2363
10.238
10.2382
10.2365
10.2316
10.2271
10.2259
10.226
10.2294
10.2419
10.269
10.3078
10.3627
10.4342
10.5216
10.622
10.7303
10.8397
10.9439
11.0381
11.1202
11.19
11.2487
11.2968
11.3352
11.3596
11.3782
1.19485
1.21031
2.97289
5.20556
11.101
10.7966
10.1772
9.84585
9.81037
9.84184
9.90683
9.96335
9.99246
10.0172
10.046
10.0755
10.1063
10.1375
10.1529
10.1754
10.1938
10.2073
10.2149
10.2245
10.2259
10.2257
10.2234
10.218
10.2132
10.2118
10.2117
10.2146
10.2263
10.2526
10.29
10.3435
10.4135
10.4992
10.5981
10.7048
10.8128
10.9155
11.0083
11.0889
11.1574
11.215
11.2624
11.3007
11.325
11.3441
1.19841
1.18025
2.97308
5.19119
11.0975
10.7831
10.1716
9.83875
9.80042
9.83138
9.89567
9.95282
9.98192
10.0067
10.0353
10.0644
10.0947
10.1256
10.1412
10.1637
10.1819
10.195
10.2022
10.2105
10.2124
10.2113
10.2081
10.2021
10.1969
10.1953
10.1948
10.1973
10.2081
10.2332
10.2692
10.3211
10.3891
10.4728
10.5697
10.6744
10.7805
10.8813
10.9722
11.0506
11.1174
11.1735
11.2198
11.2576
11.2818
11.3014
1.21559
1.23435
2.87868
5.11475
11.0936
10.7714
10.1682
9.83292
9.78929
9.81956
9.8827
9.94122
9.97019
9.99476
10.023
10.0517
10.0816
10.1125
10.1277
10.1504
10.1683
10.1811
10.1877
10.1949
10.1965
10.1947
10.1902
10.1835
10.1779
10.1759
10.175
10.1771
10.1869
10.2106
10.2451
10.295
10.3607
10.4419
10.5362
10.6384
10.742
10.8402
10.9286
11.0042
11.0686
11.1226
11.1673
11.2044
11.2282
11.2483
1.21596
1.22642
2.87116
5.0268
11.0757
10.7552
10.1728
9.83117
9.77912
9.80815
9.86978
9.92842
9.95731
9.98146
10.0091
10.0373
10.0666
10.0975
10.1126
10.1355
10.1531
10.1654
10.1713
10.1772
10.1783
10.1757
10.1697
10.1623
10.1561
10.1535
10.1522
10.1538
10.1625
10.1845
10.2174
10.2649
10.3278
10.406
10.4972
10.596
10.6963
10.7912
10.8762
10.9482
11.0093
11.0603
11.1028
11.1385
11.1615
11.1821
1.20579
1.23875
2.86438
4.91577
11.0464
10.7411
10.1879
9.83377
9.76985
9.79729
9.8567
9.9153
9.94371
9.96718
9.99401
10.0216
10.0501
10.0809
10.0959
10.1189
10.136
10.1478
10.1526
10.1572
10.1575
10.1539
10.1462
10.138
10.1313
10.1276
10.1263
10.1273
10.1349
10.1547
10.1859
10.2305
10.29
10.3645
10.4518
10.5464
10.6423
10.7328
10.8133
10.8806
10.9373
10.984
11.0233
11.0567
11.0781
11.099
1.2046
1.22969
2.84982
4.83135
10.9853
10.7187
10.2091
9.84061
9.76207
9.78756
9.84417
9.90154
9.92926
9.95177
9.97743
10.0043
10.032
10.0624
10.0775
10.1005
10.1169
10.1279
10.1316
10.1348
10.134
10.129
10.1196
10.1105
10.1032
10.0986
10.0967
10.0975
10.1039
10.1211
10.1502
10.1914
10.2469
10.317
10.3993
10.4887
10.5789
10.6636
10.7381
10.7994
10.8499
10.8908
10.9248
10.9539
10.9727
10.9936
1.20649
1.21614
2.83321
4.74198
10.911
10.6855
10.229
9.84931
9.75642
9.77939
9.83203
9.88719
9.91397
9.93556
9.95994
9.98626
10.0129
10.0424
10.0577
10.0802
10.0956
10.1054
10.1078
10.1095
10.1076
10.1006
10.0896
10.0797
10.0716
10.0663
10.0637
10.064
10.0691
10.084
10.11
10.1475
10.1982
10.2627
10.3389
10.4217
10.5047
10.5821
10.6483
10.7019
10.7437
10.7757
10.8014
10.8231
10.8365
10.8561
1.20446
1.23608
2.81018
4.59237
10.8559
10.646
10.2385
9.85816
9.7526
9.77196
9.82125
9.87103
9.89725
9.91794
9.94102
9.96675
9.99216
10.0204
10.0359
10.0577
10.0717
10.08
10.081
10.0816
10.0777
10.0683
10.0562
10.0454
10.0366
10.0306
10.0273
10.0268
10.0305
10.0426
10.0652
10.0982
10.1434
10.2012
10.2699
10.3444
10.4184
10.4865
10.5422
10.5851
10.6148
10.6337
10.6456
10.6531
10.6554
10.6703
1.20684
1.18169
2.79614
4.58815
10.7423
10.6016
10.2355
9.85734
9.74459
9.76108
9.80839
9.85229
9.87776
9.89762
9.91966
9.94503
9.96943
9.99629
10.0123
10.033
10.0454
10.0517
10.0516
10.0506
10.0446
10.0324
10.0195
10.0079
9.99837
9.99152
9.98734
9.98581
9.98798
9.9969
10.0155
10.0434
10.082
10.132
10.1916
10.2559
10.3188
10.375
10.4176
10.4455
10.4583
10.4568
10.4457
10.4264
10.404
10.4046
1.19436
1.20826
2.7871
4.50501
10.6071
10.5841
10.2328
9.85035
9.73162
9.74605
9.79252
9.83189
9.85573
9.87468
9.89579
9.92091
9.94438
9.97042
9.98662
10.0057
10.0162
10.0202
10.0191
10.0165
10.008
9.99389
9.98005
9.96762
9.95721
9.94938
9.9441
9.94105
9.94155
9.94723
9.96045
9.98292
10.014
10.0548
10.1035
10.1556
10.205
10.2464
10.2721
10.28
10.2709
10.2399
10.1839
10.1148
10.0362
9.98689
1.18282
1.15514
2.86103
4.36156
10.5033
10.5807
10.2282
9.8366
9.71575
9.72916
9.77083
9.80813
9.83089
9.84905
9.86955
9.89397
9.91717
9.94344
9.95788
9.9756
9.98435
9.98581
9.98356
9.97944
9.96859
9.95314
9.93825
9.92485
9.91336
9.90425
9.8974
9.89246
9.89113
9.89346
9.90047
9.91629
9.93911
9.96935
10.0054
10.0431
10.0764
10.0995
10.1039
10.091
10.0496
9.96595
9.84378
9.68127
9.46567
9.22895
1.19041
1.19107
2.73195
4.30832
10.3636
10.5615
10.2091
9.81201
9.69016
9.70339
9.74129
9.7772
9.79845
9.81541
9.83512
9.85874
9.88151
9.90758
9.92053
9.93634
9.94267
9.9424
9.93859
9.93161
9.91854
9.90203
9.88622
9.8717
9.85878
9.84775
9.83853
9.83103
9.82635
9.82469
9.82515
9.83031
9.84224
9.85856
9.87763
9.89595
9.90673
9.90416
9.88678
9.83825
9.73948
9.58114
9.34125
8.96881
8.31258
6.87708
1.17799
1.13235
2.80262
4.14823
10.2411
10.5263
10.1682
9.76742
9.64668
9.66153
9.70104
9.73668
9.7582
9.77505
9.79493
9.8175
9.83891
9.86342
9.87527
9.88806
9.8914
9.89002
9.88423
9.87418
9.86154
9.84352
9.82654
9.81043
9.7953
9.78147
9.76889
9.75782
9.7477
9.74022
9.73417
9.72736
9.72547
9.72469
9.72368
9.71962
9.70689
9.67761
9.62052
9.5223
9.36686
9.13231
8.78206
8.25206
7.46511
6.16873
1.18672
1.18076
2.68427
4.01233
10.1158
10.4424
10.0887
9.69772
9.58976
9.60827
9.65465
9.69397
9.71698
9.73484
9.75246
9.77333
9.79288
9.81535
9.8252
9.83564
9.83737
9.83541
9.82851
9.81764
9.80481
9.78556
9.76699
9.74884
9.73106
9.71406
9.69756
9.68197
9.6669
9.65193
9.63727
9.62049
9.6044
9.5876
9.56739
9.541
9.50242
9.44508
9.35523
9.22217
9.02832
8.75381
8.3717
7.84568
7.15888
6.24564
1.17769
1.16835
2.64781
3.86382
9.99997
10.3814
10.0307
9.64511
9.54212
9.56096
9.60892
9.65262
9.6779
9.69562
9.71192
9.72926
9.74596
9.76583
9.77363
9.78287
9.78407
9.78189
9.77475
9.76529
9.75043
9.73045
9.71011
9.68961
9.66919
9.64788
9.62734
9.60696
9.58635
9.56487
9.54219
9.51824
9.48757
9.45648
9.41889
9.37218
9.31151
9.23008
9.12183
8.96888
8.76231
8.48821
8.13247
7.68155
7.14286
6.45783
1.15023
1.16471
2.58984
3.68767
9.88435
10.3242
9.96346
9.5781
9.48079
9.50107
9.55411
9.60463
9.63652
9.65562
9.66945
9.68326
9.69667
9.71358
9.71972
9.72846
9.72998
9.72819
9.72191
9.71176
9.69693
9.67532
9.65356
9.63081
9.60762
9.58237
9.55865
9.53348
9.50832
9.48165
9.45221
9.4195
9.38185
9.33577
9.28393
9.22107
9.14369
9.04731
8.92664
8.76808
8.56606
8.31215
7.99829
7.61772
7.17146
6.6606
1.13738
1.09157
2.50124
3.34761
9.60198
10.3539
9.98842
9.57977
9.45146
9.46497
9.5088
9.56581
9.60333
9.62385
9.63506
9.64415
9.65406
9.66575
9.67052
9.67804
9.67962
9.67775
9.67071
9.66219
9.64461
9.62237
9.59919
9.57413
9.54816
9.51978
9.49328
9.46394
9.43497
9.40374
9.36916
9.3295
9.28358
9.22804
9.16527
9.09067
9.00211
8.89676
8.76893
8.61236
8.42185
8.19217
7.91838
7.59795
7.23411
6.82151
1.13731
1.37133
1.2786
4.35525
8.46566
10.5382
10.2423
9.69004
9.45929
9.45537
9.48278
9.54223
9.58172
9.59879
9.60516
9.60995
9.61266
9.61849
9.62402
9.62747
9.62802
9.62589
9.61833
9.61075
9.59224
9.56993
9.54617
9.51997
9.49183
9.46196
9.4329
9.4009
9.36835
9.33294
9.29337
9.2486
9.195
9.13396
9.06332
8.981
8.88577
8.77506
8.64578
8.49402
8.31638
8.10938
7.87065
7.59959
7.2962
6.95525
1.13512
1.23154
1.24622
3.37799
6.66427
10.9995
10.6643
9.92497
9.54532
9.47104
9.4894
9.53455
9.56975
9.58225
9.58373
9.58379
9.58238
9.58291
9.58414
9.58466
9.58365
9.57975
9.57242
9.56083
9.54298
9.52164
9.49688
9.46931
9.43993
9.40882
9.37686
9.34292
9.30715
9.26815
9.22468
9.17456
9.11803
9.05195
8.97661
8.89057
8.79227
8.67986
8.55251
8.40735
8.24225
8.05487
7.84389
7.60885
7.35323
7.06962
1.05337
1.143
1.0574
3.06207
5.32209
11.1276
10.7918
10.1235
9.67728
9.52923
9.53452
9.55854
9.57952
9.58287
9.58079
9.57522
9.57081
9.56482
9.56256
9.5586
9.55266
9.54415
9.53189
9.51722
9.49885
9.47724
9.45291
9.42592
9.39637
9.3642
9.33004
9.2939
9.25467
9.21175
9.16411
9.11046
9.04978
8.98131
8.90381
8.81654
8.71828
8.60786
8.48494
8.34741
8.19419
8.02467
7.83801
7.63076
7.41079
7.1708
1.00109
1.07898
0.973971
2.83217
4.46106
10.7194
10.6347
10.2233
9.75267
9.57614
9.56946
9.57802
9.58449
9.58219
9.57498
9.56258
9.5545
9.54447
9.53755
9.52922
9.51941
9.50792
9.49452
9.47861
9.45985
9.43833
9.41405
9.38682
9.35706
9.32446
9.28833
9.2495
9.20742
9.16155
9.11075
9.0546
8.99232
8.92215
8.84434
8.75738
8.66126
8.5549
8.43672
8.30815
8.16692
8.01228
7.84366
7.6624
7.47027
7.26305
0.953378
1.07933
0.959989
2.6591
3.92933
9.89478
10.4608
10.1474
9.74132
9.58536
9.57764
9.58251
9.58259
9.57805
9.56556
9.54952
9.53541
9.52265
9.51188
9.5003
9.48867
9.47409
9.45903
9.44216
9.42319
9.40167
9.37806
9.35069
9.32202
9.28857
9.25167
9.21116
9.16711
9.11873
9.06629
9.0086
8.9454
8.87605
8.79954
8.71522
8.62289
8.52001
8.40763
8.28621
8.15514
8.01355
7.86032
7.69967
7.53003
7.34833
0.948338
1.05055
0.944138
2.54511
3.58117
9.29225
10.3567
10.1026
9.72554
9.57699
9.56453
9.56957
9.56945
9.56468
9.54911
9.52702
9.50789
9.49214
9.47869
9.46575
9.45419
9.43799
9.42289
9.40627
9.38757
9.36738
9.34326
9.31927
9.28947
9.25635
9.21951
9.17878
9.13401
9.08428
9.03157
8.97313
8.90988
8.84108
8.76594
8.68402
8.5948
8.49787
8.39316
8.28028
8.15757
8.02494
7.88608
7.73936
7.58676
7.42523
1.03829
1.0237
1.42982
1.45427
4.06762
8.02658
10.3172
10.1711
9.78567
9.55863
9.51309
9.51939
9.53175
9.53047
9.52188
9.50222
9.48118
9.46227
9.44662
9.4335
9.41718
9.40221
9.38663
9.36951
9.3515
9.33105
9.3101
9.28627
9.25819
9.22672
9.19099
9.15101
9.10665
9.05717
9.00444
8.94692
8.88411
8.81639
8.74317
8.66397
8.57845
8.48621
8.38705
8.28075
8.16605
8.04565
7.91929
7.78506
7.64555
7.49768
1.01236
1.04888
1.31551
1.27135
3.44721
6.59818
10.6127
10.4565
9.93133
9.55364
9.44923
9.45525
9.47497
9.48501
9.48193
9.47039
9.44919
9.43047
9.41477
9.40088
9.38518
9.36849
9.35303
9.336
9.31879
9.29918
9.28051
9.25697
9.23038
9.20031
9.1663
9.12756
9.0849
9.03621
8.98519
8.92784
8.86622
8.79987
8.72837
8.65145
8.569
8.4808
8.3867
8.28544
8.17892
8.06647
7.9481
7.82401
7.69515
7.55983
0.99249
1.08781
1.1978
1.15789
3.0487
5.65799
10.8032
10.5718
9.92403
9.5166
9.4004
9.40759
9.4317
9.45156
9.45144
9.44532
9.42966
9.41121
9.39502
9.37917
9.36346
9.34496
9.32828
9.31097
9.29309
9.2743
9.25455
9.23288
9.20788
9.17914
9.14624
9.1091
9.0673
9.02121
8.96955
8.91427
8.85382
8.78911
8.71966
8.64523
8.56559
8.48047
8.39031
8.2954
8.19524
8.08954
7.97862
7.86296
7.74366
7.61864
1.0043
1.0826
1.04466
1.83072
1.96058
6.6511
10.651
10.3733
9.78333
9.45779
9.35869
9.3669
9.39447
9.42199
9.42692
9.42355
9.41346
9.39645
9.38043
9.36346
9.34525
9.32637
9.30828
9.29019
9.27192
9.25357
9.23402
9.21258
9.18822
9.16026
9.12885
9.09154
9.05075
9.00565
8.95518
8.90018
8.84097
8.77714
8.70835
8.63538
8.55831
8.47717
8.39126
8.30062
8.20568
8.10649
8.00294
7.89534
7.78423
7.66831
0.992965
1.04574
1.1131
1.01965
2.86729
4.64974
10.5724
10.4096
10.0066
9.56163
9.39403
9.38819
9.40082
9.42136
9.42276
9.41821
9.40607
9.3867
9.36874
9.34862
9.32879
9.30903
9.29026
9.27139
9.25323
9.23468
9.21487
9.19314
9.16856
9.14066
9.10922
9.07346
9.03431
8.98782
8.9396
8.88632
8.82827
8.76616
8.70041
8.63025
8.55599
8.47756
8.39541
8.30958
8.21961
8.12565
8.02809
7.92699
7.82306
7.71488
0.993277
1.02812
1.07841
0.972482
2.70203
4.087
10.1531
10.4375
10.063
9.59745
9.4148
9.4036
9.41255
9.42736
9.42721
9.42031
9.40531
9.38377
9.3626
9.34192
9.32027
9.29931
9.27904
9.25928
9.23962
9.21948
9.19824
9.17522
9.14977
9.12119
9.08922
9.05305
9.01402
8.96925
8.92097
8.86947
8.81365
8.75367
8.68957
8.62204
8.55036
8.47505
8.39606
8.31411
8.22882
8.14011
8.04808
7.95322
7.8558
7.75474
0.986645
1.01392
1.05426
0.948861
2.58535
3.71155
9.68802
10.3893
10.0522
9.60423
9.42906
9.41823
9.42643
9.43759
9.4367
9.42795
9.40989
9.38667
9.3633
9.33919
9.31537
9.29183
9.26914
9.24719
9.22553
9.20355
9.18053
9.15582
9.12871
9.09885
9.06558
9.02914
8.98981
8.94525
8.8984
8.84798
8.79379
8.73587
8.67465
8.61042
8.54215
8.47072
8.39572
8.31785
8.23672
8.15258
8.06584
7.97649
7.88502
7.7908
0.982702
1.00103
1.02381
0.923032
2.51967
3.38588
9.44211
10.4701
10.1187
9.63895
9.43729
9.41307
9.42019
9.43407
9.43429
9.42823
9.41194
9.38532
9.35853
9.33202
9.30587
9.28068
9.25597
9.23207
9.20845
9.18465
9.1598
9.13337
9.10453
9.07346
9.03877
9.00246
8.96214
8.91743
8.87188
8.8229
8.77061
8.71565
8.65717
8.59679
8.53212
8.46453
8.39394
8.31991
8.24315
8.16362
8.08168
7.99749
7.91134
7.82251
1.01569
1.01806
1.12588
1.36625
1.30339
4.25205
8.31673
10.5844
10.3366
9.78039
9.48192
9.41537
9.42016
9.43418
9.43801
9.43336
9.4177
9.38521
9.35237
9.32213
9.29316
9.26512
9.23791
9.21163
9.18553
9.15958
9.13269
9.10439
9.07458
9.04178
9.00812
8.96923
8.92934
8.88726
8.84248
8.79546
8.74559
8.69358
8.63913
8.58138
8.52073
8.45705
8.39032
8.32104
8.24869
8.17382
8.09644
8.01667
7.93502
7.8508
1.00342
1.02391
1.00049
0.902435
2.29647
2.41944
8.49531
10.6977
10.3336
9.72676
9.44841
9.38923
9.39676
9.41694
9.42714
9.42338
9.40774
9.37286
9.33527
9.30191
9.27096
9.24161
9.21323
9.18555
9.15821
9.13092
9.10338
9.07433
9.04376
9.01113
8.97509
8.93781
8.89854
8.85713
8.81382
8.7684
8.72093
8.67146
8.61981
8.56587
8.50887
8.44931
8.38694
8.32173
8.25347
8.1827
8.10934
8.03379
7.95639
7.87659
1.0098
1.01728
1.07066
1.02578
2.01492
2.30502
7.6586
10.8208
10.4378
9.78236
9.48701
9.4038
9.40729
9.42251
9.42948
9.42372
9.4039
9.36407
9.32356
9.28652
9.25206
9.22011
9.18887
9.15945
9.13094
9.10284
9.07457
9.04535
9.01428
8.9818
8.94606
8.90907
8.87075
8.82965
8.78844
8.74538
8.70048
8.65376
8.60515
8.55406
8.5003
8.44379
8.38409
8.32292
8.25802
8.19063
8.12112
8.04938
7.9757
7.89941
1.01662
1.00699
1.05452
1.14382
1.06448
3.0745
5.41398
11.0064
10.745
10.1354
9.66864
9.47702
9.44261
9.44263
9.4377
9.42081
9.38512
9.34117
9.29894
9.25845
9.22128
9.18803
9.15659
9.12751
9.09933
9.07135
9.04324
9.0142
8.98378
8.95209
8.91846
8.88315
8.84632
8.80788
8.76815
8.72686
8.68391
8.63916
8.59257
8.5438
8.49258
8.43883
8.38279
8.32399
8.26258
8.19808
8.13162
8.06315
7.99277
7.91967
1.00769
0.998842
1.03542
1.09813
0.994293
2.84001
4.4881
10.8051
10.6407
10.2088
9.70169
9.48266
9.44005
9.43635
9.42616
9.40261
9.3633
9.32178
9.28108
9.24183
9.20562
9.17191
9.14026
9.11025
9.0813
9.05294
9.02457
8.99555
8.96569
8.93456
8.90156
8.86767
8.8317
8.79435
8.75568
8.71545
8.67374
8.63035
8.58531
8.53808
8.48867
8.43699
8.38296
8.32656
8.26779
8.20659
8.14292
8.07702
8.00915
7.93857
1.00439
0.996142
1.02969
1.08264
0.979038
2.73959
4.2153
10.3324
10.5687
10.1858
9.6983
9.47626
9.42479
9.41526
9.39932
9.37141
9.33501
9.29561
9.25646
9.21894
9.18396
9.15159
9.12142
9.09283
9.06531
9.03859
9.01176
8.98432
8.95572
8.9256
8.89396
8.86032
8.82535
8.78882
8.75046
8.71085
8.66967
8.62695
8.58202
8.53542
8.48698
8.43644
8.38382
8.32923
8.27243
8.21335
8.15209
8.08876
8.0236
7.95591
1.00697
1.00761
1.05918
1.02086
1.60489
1.65083
4.95844
9.68637
10.4313
10.1549
9.68938
9.45738
9.39388
9.38359
9.37252
9.35089
9.31872
9.28195
9.24527
9.21035
9.17767
9.14722
9.11866
9.0908
9.0639
9.03743
9.01048
8.98279
8.95397
8.92382
8.8922
8.85894
8.82407
8.78753
8.74931
8.70962
8.6681
8.6259
8.58032
8.53421
8.48618
8.43637
8.38477
8.33105
8.27551
8.21786
8.15938
8.09827
8.03566
7.9708
1.00088
0.991645
1.01855
1.05682
0.954584
2.55873
3.68992
9.42715
10.3634
10.0631
9.59532
9.38286
9.33876
9.33929
9.33707
9.32672
9.30269
9.26802
9.23326
9.20036
9.1698
9.14142
9.11459
9.08841
9.06248
9.03629
9.0097
8.9824
8.95407
8.92434
8.893
8.85997
8.82518
8.78859
8.75019
8.71005
8.66827
8.62488
8.58089
8.53307
8.48576
8.43653
8.38547
8.33303
8.2786
8.22256
8.16624
8.10716
8.04665
7.98413
1.00224
0.982072
1.00714
1.04112
0.936956
2.49913
3.47397
9.24305
10.3452
10.0319
9.54252
9.31508
9.27158
9.27599
9.28293
9.27919
9.26667
9.24117
9.21242
9.18507
9.1594
9.13493
9.11107
9.08717
9.06293
9.03789
9.01207
8.98525
8.95701
8.92713
8.8955
8.86197
8.82658
8.7893
8.7504
8.70987
8.66748
8.62384
8.57945
8.53218
8.48478
8.43609
8.3857
8.33402
8.28209
8.2275
8.17202
8.11518
8.05692
7.99674
1.00625
1.007
1.04996
1.07028
1.38664
1.54108
4.08771
8.37805
10.3108
10.1281
9.65889
9.3401
9.24311
9.24765
9.25972
9.26458
9.25837
9.2417
9.21387
9.18654
9.16068
9.13672
9.11319
9.08962
9.06564
9.04076
9.01475
8.98732
8.95835
8.92775
8.89546
8.86132
8.82546
8.78772
8.74844
8.70833
8.66507
8.62197
8.57744
8.53148
8.48442
8.43625
8.38653
8.33681
8.28488
8.23193
8.17793
8.12268
8.06617
8.00782
1.00043
0.98004
0.996555
1.01613
0.913847
2.43294
3.15025
8.80555
10.1872
9.8989
9.39811
9.17482
9.1444
9.16012
9.19352
9.21299
9.21318
9.20794
9.19321
9.16951
9.14674
9.12491
9.10358
9.08197
9.05937
9.03536
9.00981
8.98262
8.95377
8.92311
8.89075
8.85647
8.82084
8.78307
8.74461
8.70435
8.66217
8.61964
8.5758
8.53059
8.48447
8.43733
8.38925
8.33983
8.28936
8.23779
8.18505
8.13115
8.07611
8.01928
1.00052
0.974461
0.988146
1.00297
0.895185
2.33528
2.91576
8.30061
9.9902
9.76964
9.3407
9.16254
9.15393
9.17033
9.20166
9.21694
9.21607
9.20984
9.19422
9.16928
9.1446
9.12091
9.09842
9.0762
9.05291
9.02827
9.00177
8.97415
8.94469
8.91373
8.88134
8.84729
8.81194
8.77577
8.73699
8.69804
8.65782
8.61606
8.5734
8.53044
8.48554
8.43955
8.39248
8.34435
8.29515
8.24487
8.19352
8.14113
8.08766
8.03254
0.999938
0.986354
0.991794
0.967944
0.910481
2.25835
2.43009
8.23689
9.95727
9.73941
9.32715
9.16118
9.15079
9.16395
9.18948
9.20394
9.20321
9.19738
9.18226
9.15703
9.13222
9.10798
9.08541
9.06274
9.03908
9.01345
8.98714
8.95876
8.92908
8.89864
8.86614
8.83431
8.79985
8.76372
8.72807
8.69075
8.65232
8.61242
8.5709
8.53083
8.48717
8.4425
8.39707
8.3505
8.30274
8.25385
8.20389
8.15289
8.10096
8.04763
0.999953
0.992613
0.987029
0.979348
0.877148
2.23579
2.27898
7.91715
10.0898
9.85424
9.39307
9.17027
9.12831
9.13648
9.15686
9.17207
9.17168
9.1658
9.14975
9.12518
9.10156
9.0795
9.05804
9.03555
9.01185
8.98661
8.96015
8.93265
8.90419
8.8756
8.84613
8.81403
8.78322
8.75118
8.71776
8.68321
8.6464
8.60966
8.57197
8.53164
8.49026
8.4477
8.40385
8.35867
8.31221
8.26457
8.21581
8.16602
8.11533
8.06354
1.00072
1.02837
1.03086
1.07809
1.24975
1.26221
3.17745
6.12584
10.4588
10.3105
9.78994
9.34864
9.17576
9.15907
9.16669
9.17449
9.17075
9.15734
9.13011
9.10318
9.07976
9.05795
9.03589
9.01246
8.98757
8.96147
8.93454
8.90723
8.88058
8.85234
8.82426
8.79658
8.76812
8.73876
8.70832
8.67647
8.64242
8.60916
8.57258
8.53439
8.49507
8.45422
8.41186
8.36803
8.32285
8.27637
8.22865
8.17982
8.13006
8.07897
1.00005
1.02154
1.01118
1.05734
1.14039
1.04777
2.96244
4.9955
10.7848
10.5438
9.97884
9.4246
9.18166
9.13706
9.14073
9.14077
9.1337
9.11407
9.08608
9.06214
9.04196
9.02263
9.00235
8.98048
8.95711
8.9331
8.90783
8.88284
8.85819
8.83329
8.80899
8.78371
8.75841
8.73194
8.70407
8.67436
8.64299
8.61068
8.57566
8.53906
8.50086
8.46102
8.4196
8.37669
8.33237
8.28664
8.23963
8.19136
8.14187
8.09067
0.999894
1.02138
1.00834
1.05349
1.12843
1.03467
2.92059
4.77684
10.7148
10.5247
10.0525
9.50702
9.25539
9.19094
9.1827
9.16977
9.14534
9.11588
9.08682
9.06065
9.03709
9.01483
8.99265
8.96993
8.94622
8.92221
8.8974
8.87327
8.84871
8.82494
8.80122
8.77729
8.75291
8.7278
8.70112
8.67294
8.64313
8.61154
8.57812
8.54291
8.50594
8.4673
8.427
8.38514
8.34175
8.29685
8.25063
8.20302
8.15416
8.10276
0.999613
1.01239
1.02418
1.07668
1.04359
1.73782
1.79838
5.96402
10.3816
10.222
9.77587
9.40691
9.22763
9.17196
9.15687
9.13944
9.1131
9.08347
9.05511
9.0295
9.00637
8.98491
8.96417
8.94341
8.92228
8.90134
8.87883
8.85698
8.83511
8.81301
8.79078
8.76806
8.74426
8.72138
8.69522
8.6678
8.63879
8.60783
8.57488
8.53996
8.5033
8.46488
8.42498
8.3837
8.34104
8.29703
8.25178
8.20534
8.15787
8.10861
1.00035
1.01343
1.01572
1.08052
1.05966
1.67893
1.70241
5.39684
10.1885
10.1679
9.86085
9.45767
9.25179
9.18622
9.16577
9.1457
9.11809
9.08724
9.05733
9.03
9.00522
8.98222
8.96055
8.93901
8.9188
8.89542
8.87489
8.85359
8.83196
8.8101
8.78799
8.76447
8.74364
8.71896
8.69322
8.66632
8.63769
8.60713
8.57462
8.54021
8.504
8.46609
8.42672
8.38585
8.34376
8.3004
8.25587
8.21024
8.16366
8.116
0.999775
1.01264
1.01703
1.07797
1.04753
1.68682
1.73531
5.39356
10.2485
10.2011
9.86828
9.44677
9.23232
9.16771
9.15074
9.13287
9.106
9.07521
9.04535
9.01823
8.99367
8.9714
8.94987
8.93098
8.90747
8.88826
8.86865
8.84818
8.8275
8.80643
8.78337
8.76399
8.74063
8.71638
8.6912
8.66447
8.63592
8.60545
8.57304
8.53871
8.50256
8.46473
8.42537
8.38465
8.34263
8.29951
8.25534
8.21022
8.16431
8.11758
2.90959
2.38388
2.93861
4.02991
3.96449
3.94645
3.91196
3.90283
3.90338
3.92277
3.96168
4.00857
4.05661
4.10534
4.15417
4.20331
4.25392
4.30561
4.35851
4.4109
4.46218
4.51358
4.56057
4.60297
4.64065
4.67374
4.70254
4.72728
4.74803
4.76506
4.77836
4.78825
4.79391
4.7957
4.79473
4.79084
4.78172
4.76615
4.74758
4.72644
4.70278
4.67673
4.64871
4.61918
4.5884
4.5567
4.52439
4.4917
4.45887
4.42607
4.39346
4.36116
4.32928
4.29793
4.2672
4.23721
4.20804
4.17981
4.15262
4.12658
4.1018
4.07839
4.05645
4.0361
4.01741
4.00049
3.98543
3.97229
3.96106
3.95186
3.94462
3.9393
3.93579
3.93396
3.93378
3.93403
3.93481
3.93664
3.94042
3.94581
3.95146
3.95649
3.96101
3.96508
3.9685
3.97133
3.9734
3.9745
3.97449
3.97434
3.97391
3.97295
3.97103
3.96814
3.96476
3.96137
3.95849
3.95657
3.95609
3.9563
3.92209
3.42762
3.62779
4.07564
3.98416
3.92985
3.90275
3.89606
3.90145
3.92241
3.96253
4.00988
4.05817
4.10777
4.15681
4.2053
4.2543
4.30402
4.35507
4.40609
4.45655
4.50697
4.55362
4.59664
4.63472
4.66818
4.69731
4.7223
4.74319
4.76022
4.77333
4.78288
4.78832
4.78984
4.78912
4.78602
4.77799
4.76161
4.74227
4.72116
4.69786
4.67218
4.64448
4.61531
4.58484
4.5534
4.52132
4.48881
4.45613
4.42345
4.39093
4.35871
4.32689
4.29559
4.2649
4.23493
4.20578
4.17756
4.15037
4.12433
4.09953
4.07611
4.05415
4.03377
4.01507
3.99817
3.98313
3.97002
3.95871
3.94975
3.94255
3.9374
3.93408
3.93253
3.93262
3.93296
3.9338
3.93571
3.93964
3.94536
3.95118
3.9565
3.9612
3.96534
3.96882
3.97168
3.9738
3.97484
3.97481
3.97464
3.97415
3.97322
3.97128
3.96834
3.96491
3.96139
3.95842
3.9566
3.95633
3.95687
4.99554
4.28559
4.08312
4.11154
4.08997
4.03509
3.97702
3.95105
3.95149
3.95982
3.98349
4.03088
4.0812
4.13032
4.17826
4.22418
4.27127
4.31878
4.36767
4.41636
4.464
4.51144
4.55603
4.59715
4.63427
4.66695
4.69547
4.71983
4.74008
4.75642
4.76869
4.77752
4.78205
4.78196
4.78147
4.77876
4.77167
4.75618
4.73551
4.71372
4.69033
4.66484
4.63724
4.60856
4.57844
4.54724
4.51544
4.48327
4.45088
4.41845
4.38615
4.35411
4.32246
4.29131
4.26074
4.23088
4.20182
4.17368
4.14655
4.12057
4.09583
4.07245
4.05053
4.03021
4.01156
3.9947
3.97974
3.96671
3.95565
3.94671
3.93977
3.93483
3.93176
3.93074
3.93088
3.93135
3.93244
3.9347
3.93909
3.94484
3.95086
3.95656
3.96158
3.96574
3.96947
3.97238
3.97447
3.97551
3.97544
3.97519
3.97462
3.9735
3.97137
3.9685
3.96507
3.96136
3.95861
3.95665
3.95683
3.95781
5.58124
4.89543
4.49561
4.31114
4.27278
4.2093
4.1327
4.07596
4.04683
4.04434
4.05035
4.06935
4.10976
4.16057
4.20822
4.2507
4.29269
4.33415
4.37792
4.42199
4.46635
4.51064
4.55332
4.59327
4.63014
4.66217
4.69052
4.7146
4.73459
4.75052
4.7622
4.77019
4.77378
4.77363
4.77264
4.76956
4.7622
4.74696
4.72624
4.70377
4.67998
4.65462
4.62698
4.59871
4.56969
4.53862
4.50725
4.47548
4.44344
4.41132
4.3793
4.34753
4.31611
4.28517
4.25481
4.22513
4.19624
4.16825
4.14127
4.11542
4.09082
4.06757
4.04579
4.02559
4.00709
3.99039
3.97558
3.96274
3.9519
3.94317
3.93649
3.93185
3.92912
3.92867
3.92888
3.92952
3.93094
3.9338
3.93848
3.94416
3.95036
3.95611
3.96138
3.96593
3.96974
3.9727
3.97478
3.97574
3.97568
3.97543
3.97482
3.97354
3.97127
3.96842
3.9651
3.96114
3.95846
3.95672
3.95708
3.95872
5.97362
5.38056
4.94121
4.67218
4.53229
4.42565
4.32645
4.24391
4.18643
4.15634
4.15265
4.15675
4.17099
4.20271
4.24635
4.28837
4.32502
4.36076
4.39756
4.43537
4.47488
4.51467
4.55382
4.59127
4.62577
4.65711
4.68453
4.70716
4.72638
4.74154
4.75239
4.75928
4.76158
4.76126
4.75996
4.75661
4.74926
4.73438
4.71417
4.69151
4.66723
4.64158
4.61469
4.58671
4.55751
4.52728
4.49649
4.46516
4.43355
4.40186
4.37025
4.33886
4.30781
4.2772
4.24716
4.21778
4.18918
4.16146
4.13475
4.10916
4.08481
4.06181
4.04029
4.02034
4.00212
3.9857
3.97119
3.95866
3.94815
3.93986
3.93342
3.92913
3.92691
3.92695
3.92729
3.92814
3.92997
3.93345
3.93827
3.94387
3.95003
3.95601
3.96151
3.96609
3.97005
3.9731
3.97517
3.97603
3.97596
3.97569
3.97501
3.97362
3.97119
3.96813
3.96463
3.96088
3.95787
3.95649
3.95692
3.95896
6.27323
5.77746
5.35552
5.03734
4.82234
4.66709
4.54132
4.43763
4.35543
4.30122
4.26982
4.25866
4.26043
4.26858
4.2883
4.3238
4.35714
4.38893
4.41939
4.45126
4.48484
4.51894
4.55392
4.58817
4.62025
4.64994
4.67649
4.6979
4.71647
4.73087
4.74096
4.74693
4.74816
4.74774
4.74621
4.74244
4.73443
4.71922
4.69947
4.67685
4.65253
4.6268
4.59998
4.57226
4.54348
4.51393
4.48375
4.45303
4.42193
4.39074
4.35965
4.32875
4.29816
4.26799
4.23836
4.20939
4.18118
4.15386
4.12752
4.1023
4.0783
4.05566
4.0345
4.01491
3.99706
3.98103
3.96692
3.95483
3.94465
3.93683
3.93085
3.92673
3.9253
3.92545
3.92595
3.92709
3.9294
3.93335
3.93832
3.94367
3.9495
3.95602
3.9613
3.96606
3.97002
3.9731
3.97515
3.97594
3.97588
3.9756
3.9749
3.97343
3.97087
3.96767
3.964
3.96029
3.95685
3.95583
3.95626
3.9586
6.51012
6.09643
5.7116
5.38089
5.12075
4.9254
4.77182
4.64597
4.54319
4.46442
4.40806
4.37469
4.35699
4.35597
4.3589
4.369
4.39086
4.41804
4.44484
4.47121
4.4986
4.52702
4.55632
4.58632
4.61519
4.64229
4.66666
4.68742
4.70469
4.71806
4.72734
4.73241
4.73268
4.73215
4.73035
4.72606
4.71715
4.70189
4.68263
4.6601
4.63626
4.61087
4.58384
4.55639
4.52813
4.49901
4.4695
4.43918
4.40882
4.37823
4.34767
4.31733
4.28726
4.25762
4.22853
4.20004
4.17236
4.14556
4.11973
4.09502
4.07155
4.04943
4.02876
4.00968
3.99231
3.97678
3.96319
3.95156
3.94195
3.93449
3.92889
3.92558
3.9247
3.9249
3.92548
3.9269
3.92972
3.93392
3.93884
3.94426