/*--------------------------------*- C++ -*----------------------------------*\
| =========                 |                                                 |
| \\      /  F ield         | OpenFOAM: The Open Source CFD Toolbox           |
|  \\    /   O peration     | Version:  2412                                  |
|   \\  /    A nd           | Website:  www.openfoam.com                      |
|    \\/     M anipulation  |                                                 |
\*---------------------------------------------------------------------------*/
FoamFile
{
    version     2.0;
    format      ascii;
    arch        "LSB;label=32;scalar=64";
    class       surfaceScalarField;
    location    "9";
    object      phi;
}
// * * * * * * * * * * * * * * * * * * * * * * * * * * * * * * * * * * * * * //

dimensions      [1 0 -1 0 0 0 0];

oriented        oriented;

internalField   nonuniform List<scalar> 
13790
(
0.00285656
1.3894e-06
0.00291471
-2.19369e-05
0.00288996
8.74976e-06
0.0029252
1.4738e-05
0.00289576
1.71379e-05
0.00284909
2.13291e-05
0.00279342
2.54967e-05
0.00274202
2.96629e-05
0.00268873
3.30859e-05
0.00264571
3.63365e-05
0.00260531
4.00266e-05
0.00258559
4.23188e-05
0.00256621
4.49983e-05
0.00253732
4.52344e-05
0.00250082
4.44667e-05
0.00246023
4.29631e-05
0.0024186
4.11512e-05
0.00236854
3.93983e-05
0.00229602
3.74776e-05
0.00223321
3.57192e-05
0.00218578
3.47252e-05
0.00215088
3.45275e-05
0.00212069
3.4665e-05
0.00210975
3.52722e-05
0.00209603
3.73368e-05
0.00207192
3.88921e-05
0.00203465
4.072e-05
0.00198637
4.27072e-05
0.001933
4.45496e-05
0.00187456
4.69916e-05
0.00181477
4.93269e-05
0.00175638
5.23404e-05
0.00170015
5.59706e-05
0.00164006
6.03131e-05
0.00157047
6.53705e-05
0.0014944
7.10471e-05
0.00141388
7.74355e-05
0.00132819
8.46899e-05
0.00123676
9.27513e-05
0.00113882
0.000101552
0.00103322
0.000110881
0.000919363
0.000120148
0.000798555
0.000128796
0.000673094
0.000135662
0.000546707
0.00013877
0.000422379
0.000135519
0.000305161
0.00012661
0.000194123
0.000116359
8.98259e-05
0.000111396
9.78112e-05
0.00300076
-3.74725e-06
0.00304682
-3.05437e-06
0.00291555
1.24985e-05
0.00301625
1.72725e-06
0.0030058
2.13226e-05
0.0029647
3.85345e-05
0.00291026
5.05685e-05
0.0028598
5.74906e-05
0.00280825
6.29442e-05
0.00276903
6.89867e-05
0.00273338
7.61555e-05
0.0027187
8.36215e-05
0.00269989
8.97403e-05
0.00266806
9.34377e-05
0.00262602
9.43793e-05
0.00257843
9.28709e-05
0.00252915
8.9749e-05
0.00247078
8.57531e-05
0.00239017
8.1039e-05
0.00232119
7.72013e-05
0.0022688
7.5148e-05
0.00222904
7.47934e-05
0.00219462
7.57483e-05
0.00217936
7.78116e-05
0.00215898
8.03475e-05
0.00212834
8.26815e-05
0.00208578
8.48021e-05
0.00203445
8.68172e-05
0.00198024
8.92028e-05
0.00192256
9.22242e-05
0.00186516
9.65309e-05
0.00180905
0.000102476
0.00175477
0.000110218
0.00169588
0.0001197
0.00162625
0.000130871
0.00154903
0.000142868
0.00146674
0.000156494
0.00137891
0.000171462
0.00128536
0.00018765
0.00118577
0.000204899
0.00107946
0.000222715
0.000966183
0.000240118
0.000847163
0.000255943
0.000724619
0.000268681
0.000600627
0.000275599
0.000474951
0.000273062
0.000349489
0.000261984
0.0002253
0.000246091
0.000108637
0.000235301
0.000214734
0.00314133
-4.06674e-07
0.00281112
2.88565e-06
0.00307108
-2.03232e-06
0.00313803
1.02984e-05
0.00311008
4.08994e-05
0.00305911
6.41387e-05
0.00299782
7.98032e-05
0.00294141
9.04914e-05
0.0028838
9.94099e-05
0.00283773
0.000108464
0.00279508
0.000118781
0.00277472
0.000128186
0.00275283
0.000136339
0.00272124
0.000140994
0.00268174
0.000141693
0.00263799
0.000138959
0.00259312
0.000133976
0.00253928
0.000128044
0.00246229
0.00012137
0.00239633
0.000115658
0.00234683
0.000112506
0.00231024
0.000111713
0.00227917
0.000112962
0.00226888
0.00011594
0.00225437
0.000119241
0.00222899
0.0001231
0.00218991
0.000126781
0.00213958
0.000130569
0.00208412
0.000135121
0.0020228
0.000140677
0.00196006
0.000148141
0.00189805
0.00015799
0.00183765
0.000170337
0.00177245
0.000185045
0.00169644
0.000201871
0.00161366
0.000219969
0.00152654
0.000240131
0.00143465
0.000262166
0.00133785
0.000285783
0.00123588
0.000310726
0.00112814
0.000336205
0.00101434
0.000360955
0.000895283
0.000383191
0.000773108
0.000401513
0.00064871
0.000413117
0.000520437
0.000414083
0.000388177
0.000404754
0.000253024
0.000387042
0.000124072
0.000371629
0.000347402
0.00325899
-1.39243e-06
0.00289725
-7.15534e-07
0.00319542
-5.83016e-06
0.00325777
1.69894e-05
0.00322847
6.16359e-05
0.00317652
9.22331e-05
0.00311415
0.000109299
0.00305788
0.00012244
0.00300003
0.000134548
0.00295429
0.000146923
0.00291235
0.00016083
0.00289491
0.000173465
0.00287561
0.000184337
0.00284473
0.000190242
0.00280454
0.000190894
0.0027594
0.000187021
0.00271276
0.000180156
0.0026562
0.000172019
0.00257496
0.000163008
0.00250472
0.000155448
0.00245153
0.000151338
0.00241187
0.000150705
0.00237688
0.00015282
0.00236283
0.000157391
0.00234529
0.000162903
0.00231587
0.000168694
0.00227201
0.000174077
0.00221669
0.000179305
0.00215666
0.000185205
0.00209192
0.000192487
0.00202657
0.000202192
0.00196272
0.000215148
0.00190113
0.000231592
0.0018349
0.000251328
0.00175751
0.00027391
0.00167332
0.000298253
0.0015846
0.000325295
0.00149089
0.000354653
0.00139218
0.000385819
0.00128841
0.000418449
0.00117912
0.000451456
0.00106405
0.000483396
0.000943498
0.000512009
0.000819816
0.000536044
0.000693208
0.00055307
0.000561379
0.000559629
0.000422681
0.000554598
0.000277856
0.00053797
0.000137289
0.000519736
0.000493609
0.00337593
4.45715e-06
0.00300812
5.24255e-06
0.00331914
-1.73478e-05
0.00336655
2.08363e-05
0.00333773
8.08099e-05
0.00328891
0.000119226
0.00322642
0.000140173
0.00316894
0.000155176
0.00310943
0.000170458
0.00306224
0.000186652
0.00301914
0.000204256
0.00300225
0.000220648
0.00298248
0.000233944
0.00295013
0.000241072
0.0029081
0.000241578
0.00286128
0.000236357
0.00281298
0.000227321
0.00275409
0.000216503
0.00267025
0.000205249
0.00259836
0.000195592
0.00254397
0.000190449
0.00250361
0.000190027
0.00246769
0.000193243
0.00245356
0.000199245
0.00243682
0.00020762
0.00240753
0.000215738
0.00236278
0.000223245
0.00230549
0.000230359
0.00224271
0.000237951
0.00217487
0.000247261
0.00210613
0.000259305
0.00203904
0.000275305
0.00197453
0.000295673
0.00190554
0.000320198
0.00182534
0.000348224
0.00173879
0.000378752
0.00164784
0.000412612
0.0015519
0.000449323
0.00145093
0.000488103
0.00134492
0.000528498
0.0012334
0.000569115
0.0011161
0.000608363
0.000992864
0.000643667
0.00086614
0.000673854
0.000735707
0.000697159
0.000599402
0.000710568
0.000454153
0.000711675
0.000300654
0.000698018
0.000149452
0.00067872
0.000652358
0.00344613
-1.29466e-06
0.00348401
5.00588e-06
0.00348588
-9.08567e-06
0.00347993
2.60487e-05
0.00345157
9.52976e-05
0.00340194
0.000146353
0.00334205
0.000172454
0.00328419
0.000188091
0.00322362
0.000206285
0.00317625
0.000226214
0.00313327
0.000247565
0.00311801
0.000267449
0.00310083
0.00028298
0.00307131
0.000291008
0.0030316
0.000291293
0.00298605
0.000285155
0.00293794
0.00027496
0.00287786
0.000263267
0.00278879
0.00025122
0.00271004
0.000240571
0.00264918
0.000234993
0.0026035
0.000234633
0.00256354
0.000238
0.00254749
0.000244297
0.00253017
0.000254139
0.00250131
0.000263267
0.00245724
0.000272188
0.00240041
0.000281051
0.00233745
0.000290732
0.0022683
0.000302724
0.00219725
0.000317765
0.00212751
0.000337596
0.00205992
0.000362483
0.00198739
0.000392187
0.00190338
0.000425808
0.00181341
0.000462485
0.0017192
0.000503101
0.00162008
0.00054711
0.00151597
0.00059349
0.00140687
0.000641697
0.00129223
0.000690066
0.00117169
0.000736879
0.00104464
0.000779377
0.000913634
0.00081632
0.000778164
0.000846685
0.000636416
0.000867843
0.000484441
0.000876186
0.000322144
0.000867508
0.000160729
0.000847967
0.000822751
0.00355455
-2.1198e-06
0.00362823
3.65392e-06
0.00362854
-7.91083e-06
0.00360446
3.85047e-05
0.00355783
0.000125789
0.00350477
0.000177356
0.00344917
0.000202377
0.00339082
0.000221707
0.00332794
0.000243867
0.00327849
0.000267587
0.0032341
0.00029221
0.00321931
0.000314258
0.00320501
0.000330697
0.00317989
0.0003386
0.00314479
0.000338048
0.00310283
0.000331023
0.00305702
0.000320569
0.00299726
0.000309358
0.00290429
0.000297501
0.00282096
0.000287356
0.00275589
0.000282666
0.00270612
0.000283171
0.00266248
0.000287352
0.00264339
0.000294601
0.00262092
0.000304401
0.00258722
0.000314188
0.00253916
0.000323578
0.00247985
0.000333061
0.0024157
0.00034395
0.00234636
0.000357732
0.00227599
0.000375526
0.00220685
0.000399084
0.00213975
0.000428714
0.00206729
0.000464071
0.00198242
0.000503917
0.00189106
0.000547373
0.00179496
0.000595346
0.00169347
0.000647184
0.00158655
0.000701637
0.00147428
0.000758105
0.00135614
0.000814712
0.00123168
0.000869642
0.00110001
0.000919956
0.000963744
0.000964381
0.000822253
0.00100276
0.000674009
0.00103246
0.00051439
0.00104906
0.000343909
0.00104579
0.000171781
0.00102821
0.00100458
0.00367635
-1.48166e-06
0.00377521
-2.3346e-06
0.00376326
7.1645e-08
0.0037205
5.82467e-05
0.00368825
0.000145157
0.00364447
0.000203805
0.00358942
0.000233023
0.00353169
0.000254784
0.0034684
0.000280913
0.00341864
0.000308927
0.00337386
0.000337408
0.00335907
0.000362021
0.00334578
0.000380468
0.00332051
0.000388135
0.00328383
0.000386971
0.00323931
0.000379285
0.00319044
0.000368713
0.00312683
0.000358003
0.00302756
0.000345846
0.002938
0.000336075
0.00286829
0.000332076
0.00281545
0.000333366
0.00276929
0.000338084
0.00274932
0.000346124
0.00272659
0.000357168
0.00269184
0.000367522
0.00264163
0.00037759
0.00257971
0.00038787
0.00251273
0.000399939
0.00244073
0.000415312
0.00236802
0.000435557
0.00229684
0.000462506
0.00222805
0.000496583
0.00215411
0.00053744
0.00206758
0.000583399
0.00197451
0.000633718
0.00187652
0.000689322
0.00177279
0.000749374
0.00166316
0.000812385
0.00154771
0.000877675
0.00142586
0.000943192
0.00129709
0.00100702
0.00116022
0.00106609
0.00101799
0.0011189
0.000869735
0.00116613
0.000714325
0.00120521
0.000546503
0.001231
0.000366035
0.00123499
0.000183385
0.00121911
0.00119839
0.00381775
-1.56769e-06
0.00394001
-7.89335e-06
0.00388863
4.35608e-06
0.00384777
7.43756e-05
0.00381233
0.000173735
0.00376476
0.000236679
0.00370644
0.000266721
0.00364755
0.000288335
0.00358434
0.00031893
0.00353368
0.000352896
0.00348588
0.000387713
0.00346308
0.000417659
0.00343654
0.000438685
0.00339813
0.000446882
0.00335028
0.000444004
0.00329806
0.00043303
0.00324507
0.000418623
0.00318011
0.000404257
0.00308454
0.000389129
0.00300299
0.0003777
0.00294225
0.00037362
0.00289767
0.000375976
0.00285919
0.000382414
0.00284691
0.000392905
0.00282969
0.000406139
0.00279863
0.000418768
0.00275006
0.000430888
0.00268828
0.000443082
0.00262004
0.000457186
0.00254624
0.000474888
0.00247112
0.000497919
0.00239736
0.000528444
0.00232585
0.000566912
0.00224891
0.000613052
0.00215964
0.000664749
0.00206449
0.000721833
0.00196452
0.000785109
0.0018586
0.000853594
0.00174638
0.000925572
0.00162786
0.00100025
0.00150238
0.00107548
0.00136925
0.00114917
0.00122693
0.00121815
0.00107815
0.0012805
0.000922268
0.00133768
0.000758676
0.00138698
0.000581409
0.001423
0.000391028
0.00143468
0.000195737
0.00142294
0.00140491
0.00398776
-7.34433e-07
0.00415813
7.50461e-06
0.00393203
1.23646e-06
0.00398085
7.3967e-05
0.00394615
0.000212392
0.00389253
0.000278214
0.0038357
0.000300047
0.00377619
0.000322432
0.00371166
0.000358432
0.00365995
0.000399091
0.00361177
0.000441214
0.00358633
0.000476608
0.00355495
0.000500862
0.00351268
0.000509428
0.00346194
0.000504236
0.00340788
0.00048923
0.00335367
0.000470154
0.00328711
0.00045158
0.00319039
0.000433179
0.00310889
0.000419574
0.00304875
0.000415072
0.00300477
0.000418221
0.00296683
0.000426391
0.00295554
0.000439208
0.00293944
0.000454681
0.00290896
0.000469871
0.00286011
0.000484393
0.00279782
0.000498825
0.00272836
0.000515307
0.00265347
0.000535531
0.00257705
0.000561657
0.00250174
0.000595796
0.00242842
0.00063869
0.00234925
0.000690142
0.00225789
0.000747458
0.00216108
0.000811363
0.00205949
0.000882414
0.00195178
0.000959562
0.00183732
0.00104093
0.00171598
0.00112562
0.00158699
0.00121141
0.00144953
0.001296
0.00130164
0.0013762
0.00114596
0.00144949
0.000981895
0.00151794
0.000809017
0.00157875
0.000621445
0.00162618
0.000418669
0.00164793
0.000210206
0.0016402
0.00162637
0.00410533
-2.72724e-06
0.00426764
-6.90019e-06
0.00418532
2.14957e-05
0.00411253
8.73848e-05
0.0040844
0.000240017
0.00404164
0.000316434
0.00398042
0.00033612
0.00391984
0.000357397
0.00385302
0.000399126
0.00380005
0.00044645
0.00375285
0.000494825
0.00373131
0.000535322
0.0037041
0.00056199
0.00366565
0.000570453
0.00361796
0.000563008
0.00356592
0.000544551
0.00351224
0.000522176
0.0034437
0.000500996
0.00334139
0.000480159
0.00325272
0.000465238
0.00318574
0.000460505
0.00313622
0.000464392
0.0030932
0.000473712
0.00307817
0.000487998
0.00306067
0.000505732
0.00302871
0.000523043
0.00297875
0.000539706
0.00291562
0.000556354
0.00284467
0.000575112
0.00276864
0.000598025
0.00269037
0.00062711
0.00261337
0.000664844
0.00253831
0.000712048
0.00245696
0.000768653
0.00236412
0.000831286
0.0022661
0.000902068
0.00216326
0.000980963
0.00205403
0.001067
0.00193757
0.00115816
0.00181371
0.00125349
0.00168147
0.0013508
0.00153979
0.00144747
0.00138647
0.00154026
0.00122357
0.00162628
0.00105071
0.00170778
0.000867914
0.00178155
0.000668108
0.00184266
0.000451994
0.00187536
0.000226719
0.00187458
0.00186459
0.00433165
9.40879e-08
0.00391468
2.09589e-06
0.00431836
1.26082e-05
0.00426206
0.000105453
0.004218
0.000281162
0.0041687
0.000357168
0.00411608
0.000364839
0.00405816
0.000388757
0.00399304
0.000438588
0.00394234
0.000493546
0.00389956
0.000548983
0.00388192
0.000594988
0.00385483
0.000623919
0.00381479
0.000631892
0.00376495
0.000622082
0.00371116
0.000600425
0.00365508
0.00057494
0.00358173
0.000551277
0.00347472
0.000528075
0.00338287
0.000511865
0.00331363
0.000507006
0.0032624
0.000511579
0.00321794
0.000521885
0.00320234
0.000537591
0.00318509
0.000557427
0.00315294
0.000577027
0.00310299
0.000595871
0.0030396
0.000614706
0.00296779
0.000635799
0.00289142
0.000661505
0.00281255
0.000693859
0.00273433
0.000735279
0.00265743
0.000786693
0.00257324
0.000848025
0.00247943
0.000916291
0.00238069
0.000993698
0.00227718
0.00108036
0.00216706
0.00117543
0.00204918
0.0012768
0.00192329
0.00138337
0.00178822
0.00149318
0.00164265
0.00160323
0.00148424
0.00171022
0.00131405
0.0018107
0.00113204
0.0019072
0.000937556
0.0019969
0.000724091
0.00207351
0.000491176
0.00212048
0.000247212
0.00212759
0.00212359
0.00448964
2.44523e-06
0.00406995
-3.91804e-06
0.00448165
1.73341e-05
0.00442472
0.000111577
0.00437599
0.000322937
0.00432141
0.000400719
0.00426693
0.000399463
0.00420388
0.000425262
0.00413295
0.000483022
0.0040779
0.00054526
0.00403349
0.000606339
0.00401605
0.00065626
0.00399047
0.000685962
0.00395245
0.000692221
0.00390424
0.000679415
0.00385194
0.000654548
0.00379641
0.000626527
0.00372056
0.000601085
0.00361052
0.000576126
0.00351594
0.000559286
0.00344432
0.000554563
0.00339107
0.000559873
0.00334477
0.000571073
0.00332815
0.000587962
0.0033109
0.000609785
0.00327832
0.000631459
0.00322833
0.000652227
0.00316508
0.000673194
0.00309322
0.000696589
0.00301752
0.000725092
0.00293922
0.000760711
0.00286125
0.000805843
0.00278426
0.00086155
0.00269883
0.000927545
0.00260487
0.00100143
0.0025061
0.00108541
0.00240263
0.00117985
0.00229233
0.00128414
0.00217371
0.00139609
0.00204659
0.00151452
0.00190946
0.0016378
0.00176069
0.00176267
0.00159747
0.00188587
0.00141956
0.00200292
0.00122801
0.00211682
0.00102191
0.00222454
0.000792377
0.00232147
0.000540414
0.00238587
0.000272256
0.00240531
0.00240816
0.00465769
5.01299e-07
0.0043118
3.00055e-06
0.00464248
1.77565e-05
0.0046071
9.72162e-05
0.004554
0.000359804
0.00449928
0.000444698
0.00443571
0.000440454
0.00436362
0.00047026
0.00428672
0.000535669
0.00422682
0.000604305
0.00418087
0.000670114
0.00416144
0.000722528
0.00413257
0.000751381
0.00409137
0.0007545
0.00404078
0.000737701
0.00398749
0.000709146
0.00393077
0.000678245
0.00385087
0.000650743
0.00373825
0.000624151
0.00364248
0.000606723
0.00357019
0.000602153
0.00351618
0.000608207
0.00346939
0.000620281
0.00345285
0.000638349
0.00343603
0.000662105
0.00340324
0.0006858
0.0033535
0.000708322
0.00329087
0.000731272
0.00321993
0.000756913
0.00314582
0.000788142
0.00306948
0.000827016
0.00299306
0.000875707
0.00291739
0.000935591
0.00283254
0.00100616
0.0027399
0.0010855
0.00264256
0.00117599
0.00254065
0.00127828
0.00243168
0.00139193
0.00231371
0.00151487
0.00218651
0.00164587
0.00204843
0.00178361
0.0018976
0.00192463
0.00173116
0.00206571
0.00154663
0.00220219
0.00134483
0.002337
0.00112488
0.00246613
0.000878234
0.00258701
0.000602179
0.00267567
0.000305011
0.00271215
0.00272535
0.00483044
-3.34821e-07
0.00449026
5.4296e-06
0.00481594
1.89513e-05
0.00474914
9.46352e-05
0.00472597
0.000370463
0.00467872
0.000478546
0.00460965
0.000488226
0.00452919
0.000525152
0.00444598
0.000596001
0.00438124
0.000669988
0.00433382
0.000738741
0.00431309
0.000792727
0.00428416
0.000818906
0.00424343
0.000817321
0.004193
0.000795587
0.00414004
0.000763053
0.00408277
0.000729602
0.00399883
0.000700558
0.00388285
0.000672782
0.00378459
0.000654964
0.0037107
0.000650573
0.00365527
0.000657162
0.00360783
0.000669836
0.00359198
0.00068898
0.00357531
0.000714647
0.00354199
0.000740275
0.00349256
0.000764433
0.00343069
0.000789369
0.00336117
0.000817338
0.00328874
0.000851116
0.00321456
0.000893108
0.00313988
0.000945261
0.00306497
0.00100897
0.00298024
0.00108371
0.00288907
0.00116822
0.00279375
0.00126489
0.00269417
0.0013748
0.00258749
0.00149779
0.00247154
0.00163187
0.00234603
0.00177584
0.00220877
0.00192911
0.00205703
0.0020876
0.00188787
0.00224895
0.00169767
0.00240717
0.00148739
0.00256578
0.00125344
0.00272318
0.000986245
0.00287369
0.000684003
0.00299252
0.000348078
0.00305688
0.00308576
0.00500654
7.81527e-07
0.00465767
-3.63479e-07
0.00499054
2.50938e-05
0.00492307
9.03815e-05
0.00490718
0.000370522
0.004859
0.000507046
0.00478252
0.000540859
0.00469853
0.000584486
0.00461456
0.000661606
0.00454695
0.000742146
0.00450166
0.000814405
0.00447595
0.000869682
0.00443917
0.000891715
0.0043908
0.000884123
0.00433464
0.000856028
0.00427881
0.000818165
0.00421987
0.000780659
0.00413309
0.000749077
0.00401714
0.000718524
0.0039202
0.000700004
0.00384846
0.000695568
0.00379501
0.000702717
0.00375005
0.000716127
0.00373807
0.000736837
0.00372449
0.000764815
0.00369288
0.000792407
0.00364529
0.000818709
0.00358496
0.000846149
0.00351697
0.000876781
0.00344605
0.000913322
0.00337364
0.000958409
0.00330073
0.00101386
0.00322785
0.00108116
0.00314458
0.00115995
0.00305519
0.00124913
0.00296252
0.00135152
0.00286646
0.00146855
0.00276374
0.0016005
0.00265136
0.00174565
0.00252901
0.00190269
0.00239467
0.00207151
0.00224561
0.00224896
0.00207684
0.00243236
0.00188373
0.00261643
0.00166507
0.00280332
0.00141818
0.00299159
0.00113054
0.00318212
0.000791858
0.00334734
0.000410034
0.00344823
0.00350805
0.00523384
1.20233e-06
0.00481947
1.12105e-05
0.00504866
1.32992e-05
0.00522434
6.87001e-05
0.00509625
0.000408681
0.00501887
0.000515787
0.00495231
0.000585154
0.00486399
0.000647878
0.00477615
0.000735186
0.0047008
0.000824349
0.00465486
0.000901318
0.00461602
0.000955229
0.00456832
0.000972109
0.00451192
0.000956832
0.00445051
0.000920205
0.00439243
0.000874422
0.00433308
0.000829955
0.00424341
0.000792166
0.0041325
0.000757609
0.00404358
0.000737143
0.00398058
0.000732351
0.00393423
0.000740399
0.00389647
0.000755546
0.00389151
0.000778819
0.00388152
0.000809715
0.00385294
0.000840181
0.00380855
0.000869716
0.00375134
0.000900538
0.00368638
0.000934568
0.00361832
0.000974451
0.00354867
0.00102274
0.00347842
0.00108149
0.00340802
0.00115214
0.00332722
0.00123447
0.003241
0.00132767
0.00315205
0.00143503
0.00306038
0.00155847
0.00296289
0.00169863
0.00285624
0.00185419
0.00273967
0.00202413
0.00261085
0.00220881
0.0024672
0.00240543
0.00230181
0.00261183
0.00211003
0.00282404
0.00188796
0.00304313
0.00162954
0.00327142
0.00132412
0.0035097
0.000950465
0.00373679
0.000499372
0.00390948
0.00401959
0.00535204
1.82306e-06
0.00493841
-5.78327e-06
0.0054353
1.58247e-05
0.00537604
8.32731e-05
0.00522717
0.000427706
0.00518546
0.000536331
0.00512284
0.000623732
0.00503493
0.000710569
0.00494364
0.000813163
0.00486348
0.000912839
0.00481973
0.000994517
0.00477518
0.0010452
0.00472362
0.00105457
0.00466635
0.00102957
0.00460634
0.000982965
0.00455056
0.00092856
0.00449275
0.000876911
0.00440048
0.000832695
0.00429035
0.0007942
0.00420278
0.000771648
0.00414192
0.000766077
0.00409709
0.000774444
0.00406131
0.000791193
0.00405926
0.00081682
0.0040527
0.00085066
0.0040281
0.000884273
0.00398757
0.000917735
0.00393425
0.000952495
0.00387312
0.000990364
0.00380867
0.00103391
0.00374264
0.00108563
0.00367609
0.00114761
0.00360885
0.00122137
0.00353101
0.00130679
0.00344816
0.00140337
0.00336425
0.00151467
0.00327913
0.00164341
0.00318923
0.00179062
0.00309098
0.00195539
0.00298325
0.00213715
0.0028636
0.00233628
0.00273062
0.00255239
0.00257431
0.00278283
0.00239011
0.00302463
0.00217272
0.00327869
0.00191801
0.00354665
0.00159729
0.00385409
0.00118122
0.00416905
0.000653698
0.00444694
0.00468553
0.00557336
1.489e-06
0.00526315
7.44176e-06
0.00559135
1.25763e-05
0.00541853
8.8179e-05
0.00542563
0.000430271
0.00537925
0.000555661
0.0053013
0.000665029
0.00520472
0.000775286
0.00511035
0.000895847
0.00503326
0.00100615
0.00499003
0.00109089
0.00494474
0.00113366
0.00489466
0.00113172
0.00484076
0.00109485
0.00478602
0.00103765
0.00473537
0.000975225
0.0046802
0.000917701
0.00458689
0.000868686
0.00447588
0.000828904
0.00438633
0.000804532
0.00432358
0.000798328
0.00427746
0.000806954
0.00424095
0.000825307
0.00424039
0.000853082
0.00423618
0.000889456
0.00421518
0.000926215
0.00417869
0.000963437
0.00412989
0.00100207
0.00407357
0.00104376
0.00401409
0.00109082
0.00395342
0.00114579
0.00389255
0.00121082
0.00383053
0.00128738
0.00375854
0.00137549
0.00368113
0.00147504
0.00360361
0.00158943
0.00352602
0.00172173
0.0034456
0.00187411
0.00335857
0.00204637
0.00326321
0.00223819
0.00315716
0.00244987
0.00304149
0.00268251
0.00290311
0.0029364
0.00274082
0.00320245
0.0025456
0.00349008
0.00229584
0.00381536
0.00198518
0.00418579
0.00155427
0.00461828
0.000933935
0.0050785
0.0056311
0.00570254
4.66652e-07
0.0062255
-5.778e-07
0.00571415
2.84142e-05
0.00563431
7.09781e-05
0.00564467
0.000436714
0.00557036
0.000581582
0.00548008
0.000719617
0.00537889
0.000851532
0.00528905
0.000993176
0.00521046
0.00110924
0.00515375
0.00118809
0.00510278
0.001217
0.00505525
0.00119933
0.00500894
0.00114839
0.00496398
0.00108048
0.00492278
0.00101098
0.00487599
0.000949499
0.00479115
0.000899362
0.00467919
0.000858686
0.00458708
0.000834237
0.00452223
0.000828359
0.00447528
0.000837466
0.0044391
0.000857344
0.00444271
0.000887294
0.00444241
0.000926106
0.00442506
0.000965887
0.00439244
0.00100654
0.00434769
0.00104873
0.00429554
0.00109377
0.00424075
0.00114404
0.0041858
0.00120197
0.00413149
0.00126971
0.00407625
0.00134866
0.00401203
0.00143902
0.00394107
0.00154123
0.00387115
0.00165733
0.0038033
0.00179161
0.00373536
0.0019472
0.00366291
0.00212464
0.00358382
0.00232374
0.00349658
0.00254441
0.00340579
0.00278918
0.00330309
0.00305515
0.00317236
0.00334765
0.00300426
0.00367375
0.00280392
0.00403355
0.00254922
0.00446383
0.00216409
0.00501993
0.00154578
0.00570744
0.00718836
0.00834135
1.77521e-06
0.00786265
8.04484e-06
0.00842178
1.69321e-05
0.00814557
7.6186e-05
0.0081146
0.000425564
0.00800813
0.000638999
0.00786411
0.000828939
0.0077246
0.000988781
0.00760413
0.00113951
0.00750198
0.00124835
0.00741923
0.0013054
0.00735371
0.00130773
0.00730188
0.00126508
0.00725728
0.00119523
0.00721605
0.00111583
0.00717711
0.00104105
0.00712595
0.00097818
0.00701979
0.00092934
0.00686573
0.000890815
0.00673386
0.000868855
0.00663821
0.00086479
0.00657004
0.000875868
0.00651424
0.000897876
0.00651829
0.000929797
0.00652626
0.000970936
0.00651346
0.00101453
0.00648042
0.00105914
0.00643121
0.00110529
0.00637176
0.0011542
0.00630884
0.00120792
0.0062471
0.00126879
0.00618704
0.00133901
0.00613004
0.00142049
0.00606588
0.00151352
0.00598088
0.00161734
0.00590306
0.00173336
0.0058336
0.00186728
0.00576822
0.00202275
0.00570365
0.0021999
0.00563654
0.00239933
0.00557023
0.00262042
0.00551167
0.00286674
0.00544215
0.00314649
0.0053569
0.00345294
0.00526746
0.00378192
0.0051829
0.00413986
0.00514542
0.00452671
0.00523401
0.00496271
0.00561796
0.00534003
0.00516567
0.00764743
0.00821867
5.86273e-07
0.00901294
-6.4245e-07
0.00828421
2.88352e-05
0.00813743
7.77017e-05
0.0080587
0.000469103
0.00791852
0.000742055
0.00776186
0.000969071
0.00762848
0.00113685
0.00752384
0.00126979
0.007455
0.00134964
0.00741057
0.00137388
0.00738245
0.00134775
0.00736334
0.00128502
0.0073459
0.00120518
0.00732741
0.00112389
0.007301
0.00105192
0.00725526
0.000994471
0.00715554
0.00095178
0.00700614
0.00092
0.00687179
0.000902439
0.00677028
0.000901355
0.00669604
0.000915108
0.00663363
0.000939113
0.00662939
0.000971874
0.00664061
0.00101455
0.00663613
0.0010598
0.00661481
0.00110595
0.0065798
0.00115349
0.00653632
0.00120376
0.0064902
0.00125867
0.00644667
0.0013207
0.0064072
0.0013918
0.00637142
0.00147353
0.00633777
0.00156701
0.00628982
0.00167233
0.0062317
0.00179004
0.00618199
0.00192034
0.00614365
0.00206966
0.00611522
0.00224056
0.00609163
0.00243339
0.00607422
0.00264779
0.0060707
0.00288445
0.00609277
0.00314439
0.00613843
0.00342972
0.00621278
0.00372759
0.00633209
0.0040344
0.00654852
0.00432586
0.0069708
0.00455829
0.00760923
0.0047217
0.00441469
0.00837202
0.0083694
2.57858e-06
0.00806052
5.87548e-06
0.00812463
3.06708e-05
0.00824084
0.000111006
0.00791385
0.000588015
0.00774323
0.000917137
0.00761778
0.00113994
0.00752798
0.00127671
0.00747178
0.00136144
0.0074581
0.00139261
0.00746566
0.00137757
0.00748205
0.0013257
0.00750054
0.00125232
0.00750814
0.00117369
0.00750422
0.0011021
0.00748689
0.0010444
0.00744469
0.00100177
0.00735186
0.000973248
0.00719956
0.000953362
0.00705421
0.000943686
0.00693906
0.000948024
0.00685223
0.000965287
0.00677942
0.000990718
0.00676497
0.00102293
0.00677297
0.00106473
0.00677064
0.00110786
0.00675592
0.00115121
0.0067318
0.00119595
0.00670254
0.00124384
0.00667341
0.00129703
0.00664814
0.00135735
0.00662977
0.0014271
0.0066176
0.00150782
0.00660925
0.00160101
0.0065996
0.00170611
0.00657086
0.00182086
0.00654702
0.0019471
0.0065379
0.00208809
0.00654285
0.0022486
0.00655766
0.00242826
0.00658674
0.00262486
0.00664614
0.00284111
0.00673401
0.00307313
0.00686709
0.00331724
0.0070468
0.00356887
0.00729788
0.00380339
0.00761574
0.0040193
0.00802926
0.00415434
0.0085521
0.00421133
0.00398231
0.00899573
0.00829482
5.25192e-06
0.00802048
1.10745e-05
0.00812758
4.88074e-05
0.00817889
0.000162046
0.00780356
0.000839822
0.00759713
0.00116741
0.0075107
0.00130937
0.00750258
0.00135055
0.00753424
0.00135812
0.00759308
0.00133758
0.00766077
0.00129415
0.00771692
0.00123669
0.00775461
0.00117342
0.00777377
0.00111545
0.00777412
0.00106954
0.0077523
0.00103696
0.00770039
0.0010175
0.00759943
0.00100907
0.00743133
0.00100397
0.00726836
0.00100491
0.00713711
0.00101584
0.00703496
0.00103584
0.00695146
0.00106043
0.00693216
0.00109021
0.00693271
0.00112698
0.00692643
0.00116337
0.00691248
0.0011986
0.00689513
0.00123521
0.0068786
0.00127621
0.00686321
0.00132321
0.00685429
0.00137846
0.00685405
0.0014444
0.00686267
0.00152209
0.00687817
0.00161181
0.00689801
0.00171364
0.00690968
0.00182651
0.00690722
0.00194802
0.00692111
0.00208065
0.0069542
0.0022275
0.00700124
0.00238984
0.00706577
0.00256492
0.00716515
0.00275123
0.0073058
0.00295213
0.00748725
0.00315234
0.00771507
0.00335767
0.0079978
0.00353518
0.00834267
0.00368999
0.00872163
0.00378339
0.00916252
0.00377398
0.00367117
0.00947815
0.00823693
3.64294e-06
0.00765608
4.14625e-06
0.00841312
0.000121021
0.00799679
0.000201927
0.00753735
0.00122536
0.00729517
0.00146559
0.00726766
0.00139861
0.00735632
0.00129894
0.00750207
0.00122296
0.00767187
0.00115987
0.00782728
0.00111241
0.00794689
0.00107241
0.00802876
0.00104345
0.00807459
0.00102769
0.00808124
0.00102519
0.00805332
0.00103346
0.0079865
0.00104891
0.00786414
0.00106867
0.0076759
0.00108256
0.00749044
0.00109683
0.00733346
0.00111417
0.00720663
0.00113398
0.00710162
0.00115309
0.00706544
0.00117444
0.00705673
0.0012016
0.007046
0.00122496
0.00703379
0.00124628
0.00702516
0.00126956
0.00702119
0.00129873
0.00702216
0.00133538
0.00703153
0.00138253
0.00705068
0.00144155
0.00708156
0.00151371
0.00712161
0.00159931
0.00716677
0.00169732
0.00721502
0.00180655
0.00725299
0.00192497
0.00728904
0.00204934
0.00734217
0.00218387
0.0074117
0.00232913
0.00749824
0.00248185
0.00761201
0.00264008
0.00777407
0.00280559
0.00797498
0.00296851
0.00821816
0.00312886
0.00849901
0.00326728
0.00882346
0.00337577
0.00917748
0.0034386
0.00952549
0.00343106
0.00334611
0.00984982
0.00835519
2.53654e-06
0.00826914
-4.65924e-05
0.00800722
0.000347475
0.0077635
4.56597e-05
0.00709002
0.00187376
0.00702855
0.00164973
0.00719007
0.00130462
0.0074127
0.00109871
0.00764752
0.000989868
0.00787699
0.000920515
0.00806424
0.000882797
0.00821171
0.000876376
0.00831905
0.000895993
0.00837905
0.000936548
0.00838153
0.000990477
0.00833063
0.00105042
0.00823224
0.00110953
0.00806849
0.00115872
0.00785719
0.00119557
0.00765251
0.00122428
0.00747791
0.0012463
0.00733126
0.00126179
0.00721812
0.00127018
0.0071815
0.00128055
0.00716463
0.00129092
0.00714902
0.00129409
0.00713708
0.00129484
0.00713568
0.00129852
0.00714373
0.00130999
0.00716196
0.00133146
0.00719073
0.00136648
0.00722901
0.00141606
0.00728167
0.00148139
0.00734484
0.00156195
0.00741434
0.00165592
0.00748666
0.00176106
0.00755035
0.00187421
0.00761261
0.0019924
0.00768832
0.00211825
0.00777607
0.00224936
0.00787808
0.00238347
0.00800009
0.00251915
0.00815594
0.00265498
0.00835224
0.00278492
0.00858806
0.00290821
0.00885348
0.00301416
0.00914875
0.00309231
0.00946301
0.00313219
0.00977283
0.00312792
0.00305475
0.0100642
0.00814021