/*--------------------------------*- C++ -*----------------------------------*\
| =========                 |                                                 |
| \\      /  F ield         | OpenFOAM: The Open Source CFD Toolbox           |
|  \\    /   O peration     | Version:  2412                                  |
|   \\  /    A nd           | Website:  www.openfoam.com                      |
|    \\/     M anipulation  |                                                 |
\*---------------------------------------------------------------------------*/
FoamFile
{
    version     2.0;
    format      ascii;
    arch        "LSB;label=32;scalar=64";
    class       volScalarField;
    location    "9";
    object      T;
}
// * * * * * * * * * * * * * * * * * * * * * * * * * * * * * * * * * * * * * //

dimensions      [0 0 0 1 0 0 0];

internalField   nonuniform List<scalar> 
7000
(
1.09437
1.30954
1.86657
2.48306
2.71757
2.70231
2.69813
2.70198
2.72008
2.73567
2.73668
2.72488
2.69447
2.66887
2.65468
2.64911
2.64875
2.65507
2.68421
2.7289
2.75895
2.77085
2.77025
2.7544
2.71926
2.69065
2.67212
2.66293
2.66087
2.66256
2.66697
2.66833
2.66843
2.66982
2.67659
2.69195
2.70688
2.71837
2.72637
2.73008
2.73194
2.73449
2.74041
2.74132
2.7364
2.72876
2.72858
2.75537
2.78313
2.7709
1.09449
1.32176
1.87325
2.48382
2.71822
2.70128
2.69637
2.70043
2.71896
2.73446
2.73473
2.7212
2.69002
2.6657
2.65241
2.64724
2.64702
2.65381
2.68417
2.72847
2.75717
2.76737
2.76543
2.74582
2.71128
2.68545
2.66965
2.66276
2.66186
2.66437
2.66828
2.6689
2.66872
2.66983
2.67628
2.69166
2.70672
2.71821
2.72628
2.72993
2.73175
2.73399
2.73984
2.74131
2.73694
2.72847
2.72735
2.75199
2.78197
2.77113
1.11124
1.3234
1.85598
2.48611
2.71771
2.70243
2.6979
2.70163
2.7199
2.73411
2.73451
2.72236
2.69348
2.67
2.6568
2.65157
2.65125
2.65756
2.68646
2.72955
2.75763
2.76788
2.7663
2.74778
2.71239
2.68502
2.6676
2.65942
2.65793
2.66018
2.66499
2.66632
2.66645
2.66798
2.67521
2.69118
2.70637
2.71792
2.72612
2.72977
2.73158
2.73359
2.73952
2.74189
2.73823
2.72889
2.7266
2.74876
2.78101
2.77155
1.11221
1.32347
1.85515
2.4889
2.71885
2.70287
2.6976
2.70133
2.71964
2.73468
2.73508
2.72175
2.69003
2.66491
2.65116
2.64585
2.64561
2.65228
2.68208
2.72684
2.75688
2.76874
2.76811
2.752
2.71659
2.68811
2.66996
2.66122
2.65941
2.66127
2.66544
2.66643
2.66647
2.66796
2.67528
2.69128
2.70627
2.71759
2.72579
2.72941
2.73118
2.73297
2.73879
2.74238
2.73955
2.72956
2.72586
2.7457
2.77989
2.77182
1.11259
1.32267
1.85912
2.49698
2.72047
2.7035
2.69729
2.70086
2.71893
2.73393
2.7342
2.72006
2.68745
2.66265
2.64957
2.64477
2.64483
2.65214
2.68296
2.72749
2.75762
2.76988
2.7696
2.75446
2.71899
2.68952
2.67048
2.6611
2.65902
2.66072
2.66485
2.66589
2.66599
2.66766
2.67537
2.69136
2.70611
2.71721
2.72537
2.72893
2.73062
2.73226
2.73789
2.74239
2.74029
2.73024
2.72531
2.74332
2.77878
2.77166
1.09145
1.31776
1.85721
2.51492
2.72225
2.70381
2.6964
2.69996
2.71786
2.73297
2.73318
2.71904
2.68611
2.66041
2.6465
2.64124
2.64104
2.64764
2.67731
2.72262
2.75341
2.76593
2.76566
2.75056
2.71535
2.68617
2.66718
2.65768
2.65556
2.65743
2.66232
2.66394
2.66435
2.66652
2.67507
2.69116
2.70573
2.71666
2.72481
2.72835
2.73001
2.73149
2.73674
2.74203
2.74039
2.7305
2.72445
2.74009
2.77725
2.77121
1.09311
1.31269
1.86364
2.51897
2.7254
2.70619
2.69573
2.69896
2.71634
2.73139
2.73166
2.71791
2.68521
2.65875
2.64372
2.63769
2.63722
2.64359
2.67359
2.72011
2.75116
2.76307
2.76209
2.74503
2.71036
2.68345
2.66618
2.65773
2.65598
2.65788
2.66227
2.66347
2.66374
2.66584
2.67445
2.69053
2.70501
2.71585
2.72401
2.7276
2.72918
2.7305
2.73544
2.7413
2.74007
2.7304
2.72373
2.73836
2.77507
2.77039
1.09521
1.30965
1.87073
2.53326
2.72931
2.70701
2.69355
2.69653
2.71316
2.72857
2.72903
2.71563
2.68255
2.65524
2.63986
2.6338
2.63337
2.63975
2.67013
2.71873
2.75168
2.76472
2.76411
2.74751
2.7118
2.68365
2.66568
2.65691
2.65505
2.65691
2.66123
2.66236
2.66267
2.66485
2.67357
2.68956
2.70396
2.7147
2.72285
2.7265
2.72809
2.7293
2.7339
2.74023
2.73936
2.72998
2.72226
2.73472
2.77288
2.76887
1.09554
1.31015
1.87452
2.54907
2.72991
2.70727
2.69328
2.69648
2.71274
2.72617
2.72567
2.71204
2.68231
2.65904
2.64611
2.64125
2.64126
2.64848
2.67998
2.72616
2.75658
2.76802
2.76675
2.74849
2.71154
2.68277
2.66405
2.6546
2.65239
2.65401
2.65813
2.65927
2.65981
2.66266
2.67266
2.68869
2.70293
2.71352
2.72161
2.72538
2.72685
2.7278
2.73178
2.73839
2.7379
2.72922
2.72066
2.73198
2.76921
2.76726
1.0987
1.31434
1.89295
2.54957
2.73217
2.70816
2.69189
2.69519
2.71127
2.72362
2.72219
2.70736
2.67956
2.65812
2.64604
2.6415
2.64159
2.64906
2.68084
2.7261
2.75556
2.76649
2.7652
2.74722
2.71059
2.6819
2.66307
2.65339
2.65099
2.6524
2.65603
2.65691
2.65754
2.66085
2.67174
2.68783
2.70193
2.71231
2.72024
2.724
2.72533
2.72609
2.7294
2.73619
2.73599
2.72789
2.71914
2.7282
2.76608
2.76457
1.09958
1.30603
1.87956
2.58721
2.73446
2.70677
2.68947
2.69254
2.70797
2.72104
2.71959
2.70398
2.67474
2.65292
2.64073
2.63608
2.63609
2.64328
2.67467
2.72116
2.75211
2.76429
2.76369
2.7475
2.71156
2.6825
2.66307
2.65248
2.64931
2.65018
2.65351
2.65453
2.6554
2.65924
2.6708
2.68666
2.70047
2.71065
2.71852
2.72241
2.72358
2.7241
2.72685
2.73352
2.7336
2.72643
2.71618
2.72387
2.76037
2.76139
1.11852
1.30994
1.8726
2.59864
2.73487
2.70655
2.68913
2.69244
2.7067
2.71869
2.71581
2.69679
2.66728
2.64675
2.63609
2.6324
2.63279
2.64102
2.67396
2.72038
2.75108
2.76313
2.7626
2.74687
2.71128
2.68213
2.66213
2.65087
2.64719
2.64764
2.64995
2.65082
2.6522
2.65736
2.67007
2.68556
2.69898
2.70876
2.71633
2.72024
2.72121
2.72147
2.72363
2.72987
2.7299
2.72276
2.71301
2.71882
2.75543
2.75721
1.11933
1.30293
1.87225
2.61681
2.73419
2.70517
2.68808
2.69129
2.70444
2.71689
2.71382
2.69448
2.66472
2.64384
2.63308
2.62951
2.63001
2.63882
2.67276
2.71925
2.74995
2.76208
2.76165
2.7464
2.71115
2.68198
2.66172
2.65007
2.64584
2.64586
2.64723
2.64785
2.64922
2.655
2.66847
2.68388
2.69706
2.7066
2.714
2.71803
2.71865
2.71856
2.71993
2.7263
2.72705
2.72053
2.7084
2.71303
2.74784
2.75224
1.11864
1.30452
1.86775
2.6239
2.73475
2.70578
2.68932
2.69203
2.70354
2.7142
2.70989
2.68853
2.6593
2.63994
2.63055
2.62771
2.62853
2.63844
2.67388
2.71987
2.74988
2.76153
2.76096
2.74561
2.7106
2.68158
2.66123
2.64939
2.64474
2.64425
2.64477
2.6452
2.64665
2.65294
2.66679
2.68214
2.69501
2.70412
2.71107
2.71508
2.71549
2.71506
2.71554
2.72028
2.72077
2.71594
2.70339
2.70468
2.73926
2.74473
1.11895
1.29393
1.86427
2.63124
2.73614
2.70543
2.68924
2.69116
2.70122
2.71123
2.70647
2.68459
2.65543
2.63592
2.62658
2.62398
2.62508
2.636
2.67292
2.71905
2.74876
2.75996
2.75916
2.74334
2.70844
2.6797
2.65942
2.64744
2.64218
2.64065
2.64017
2.64018
2.64175
2.64914
2.66381
2.67924
2.69209
2.70113
2.708
2.71189
2.71159
2.71085
2.71096
2.71564
2.71658
2.71058
2.69791
2.69865
2.72695
2.73699
1.12007
1.283
1.86128
2.63636
2.73553
2.70288
2.69026
2.6913
2.69869
2.70579
2.69901
2.67494
2.64814
2.63157
2.62434
2.62269
2.62414
2.63584
2.6735
2.71912
2.74818
2.75892
2.75792
2.74162
2.70631
2.67726
2.65678
2.64465
2.63924
2.63746
2.63675
2.63662
2.63799
2.64521
2.6602
2.6759
2.68866
2.69728
2.70365
2.70773
2.7075
2.70568
2.70429
2.70672
2.70756
2.70345
2.68851
2.68555
2.71645
2.72427
1.12489
1.27414
1.86655
2.6163
2.73141
2.70116
2.69308
2.69386
2.69851
2.70179
2.69235
2.66824
2.64505
2.63044
2.62413
2.62292
2.62481
2.63842
2.67814
2.72175
2.74846
2.75756
2.75581
2.73824
2.70358
2.67534
2.65523
2.6431
2.63738
2.63503
2.63386
2.63353
2.63478
2.64186
2.6565
2.67184
2.68456
2.6932
2.69925
2.70306
2.70254
2.70026
2.69798
2.69868
2.69923
2.69498
2.6808
2.67324
2.69386
2.70941
1.11949
1.26657
1.8415
2.63847
2.73267
2.69523
2.69037
2.69054
2.69455
2.69642
2.68417
2.65917
2.63873
2.62625
2.62103
2.62025
2.62251
2.63732
2.67789
2.72036
2.74585
2.7542
2.75244
2.73515
2.70059
2.67236
2.65245
2.64025
2.63422
2.63151
2.63005
2.62952
2.63063
2.63758
2.65265
2.66808
2.68029
2.68827
2.69383
2.69715
2.69673
2.69279
2.68934
2.68835
2.68733
2.68313
2.66453
2.6544
2.67437
2.68286
1.11821
1.27034
1.83554
2.67721
2.72561
2.6822
2.687
2.68878
2.691
2.68986
2.67397
2.64913
2.63041
2.62008
2.61651
2.61644
2.6194
2.6354
2.67645
2.71822
2.74331
2.75131
2.74948
2.7321
2.69766
2.66951
2.64972
2.63752
2.63128
2.62824
2.62651
2.62568
2.62639
2.63228
2.64681
2.66219
2.67463
2.68267
2.68789
2.6907
2.69011
2.68555
2.67912
2.6759
2.673
2.66766
2.65134
2.62898
2.6322
2.64285
1.10432
1.25587
1.85444
2.66068
2.71468
2.69244
2.69281
2.69003
2.68184
2.67696
2.66137
2.64275
2.62785
2.61918
2.61627
2.61628
2.61883
2.6328
2.6719
2.71437
2.73974
2.74742
2.74517
2.72593
2.69045
2.66224
2.64278
2.631
2.62532
2.62287
2.62152
2.62076
2.62125
2.62612
2.63979
2.6555
2.66831
2.67641
2.68092
2.68316
2.68261
2.67744
2.66863
2.66215
2.65716
2.64903
2.62796
2.59305
2.58465
2.53555
1.11721
1.2561
1.81365
2.67216
2.71167
2.70579
2.69407
2.68522
2.66527
2.65776
2.64351
2.63144
2.62135
2.61529
2.61342
2.61356
2.616
2.62879
2.66545
2.70753
2.73396
2.74279
2.74153
2.72519
2.69025
2.66116
2.64077
2.62798
2.62132
2.61828
2.61658
2.61538
2.6151
2.61717
2.62772
2.64428
2.65747
2.66534
2.66955
2.67052
2.66924
2.66378
2.65122
2.64047
2.6291
2.61736
2.59418
2.53269
2.46901
2.37686
1.10443
1.2368
1.83114
2.65487
2.71522
2.71347
2.69212
2.67483
2.65334
2.6448
2.63093
2.62029
2.61334
2.61033
2.60995
2.61084
2.61436
2.62695
2.66071
2.69992
2.72557
2.73479
2.73427
2.72143
2.68945
2.66046
2.63985
2.62654
2.61905
2.61536
2.61328
2.61155
2.6104
2.61076
2.61537
2.62874
2.64348
2.65353
2.65867
2.66013
2.65847
2.65321
2.64083
2.62248
2.60323
2.57991
2.55629
2.50881
2.40822
2.31275
1.12045
1.23087
1.81651
2.65576
2.72342
2.71004
2.67531
2.6441
2.62567
2.61891
2.61157
2.60667
2.60456
2.60534
2.60815
2.6109
2.6149
2.62578
2.65522
2.69245
2.71804
2.72787
2.72768
2.71633
2.68653
2.65821
2.63789
2.62446
2.61647
2.61235
2.60993
2.60807
2.60622
2.60509
2.60595
2.61282
2.62697
2.63717
2.64216
2.64337
2.64246
2.6351
2.62558
2.60514
2.58319
2.55376
2.51564
2.47958
2.40746
2.32202
1.12473
1.22948
1.80581
2.66723
2.71612
2.70083
2.6643
2.61977
2.59965
2.5946
2.59439
2.596
2.60091
2.60605
2.60989
2.61216
2.61533
2.62405
2.64973
2.68529
2.70926
2.71767
2.71661
2.7032
2.67306
2.64641
2.62776
2.61546
2.60778
2.60381
2.60264
2.60184
2.6007
2.59918
2.59875
2.60096
2.61093
2.62263
2.62823
2.62931
2.62835
2.62332
2.60799
2.59264
2.56362
2.53998
2.49819
2.45819
2.40465
2.34747
1.15185
1.19162
1.74367
2.6842
2.71504
2.69408
2.64976
2.60841
2.59261
2.59023
2.59181
2.59701
2.60414
2.60978
2.61278
2.61489
2.61709
2.62435
2.6469
2.6782
2.69968
2.70767
2.70702
2.69499
2.66556
2.63909
2.62081
2.60867
2.60095
2.59743
2.5971
2.5975
2.59724
2.59628
2.59514
2.59506
2.5975
2.60553
2.61227
2.61414
2.61355
2.61069
2.59845
2.58297
2.55543
2.52979
2.49488
2.45574
2.40976
2.36196
1.17025
1.07842
1.73323
2.69092
2.68396
2.6518
2.61966
2.58954
2.586
2.58851
2.59742
2.61093
2.61979
2.62362
2.62463
2.62606
2.62857
2.63643
2.65711
2.68221
2.69774
2.70193
2.699
2.68107
2.64831
2.62182
2.60395
2.59234
2.58472
2.58174
2.58199
2.584
2.58585
2.58619
2.58586
2.58567
2.58725
2.59276
2.59705
2.59778
2.59697
2.59431
2.58758
2.57392
2.55158
2.52489
2.49547
2.45894
2.42007
2.37858
0.910017
1.2309
1.61049
2.25242
2.69029
2.7516
2.73259
2.67938
2.64541
2.6327
2.62935
2.63037
2.63035
2.63021
2.63064
2.63341
2.64257
2.65908
2.67673
2.69049
2.69703
2.69752
2.69113
2.66678
2.6357
2.61298
2.59818
2.58838
2.58171
2.57915
2.57912
2.5802
2.58125
2.58137
2.58128
2.58165
2.58414
2.58821
2.58942
2.589
2.58715
2.58293
2.57409
2.56414
2.54664
2.52398
2.49715
2.46625
2.43174
2.39758
0.952269
1.13208
1.4338
2.03822
2.67611
2.8294
2.79157
2.70568
2.67627
2.65238
2.64596
2.63299
2.62202
2.61536
2.6139
2.61593
2.62607
2.64574
2.6639
2.67587
2.68002
2.67928
2.6713
2.65239
2.63413
2.62047
2.61191
2.60719
2.60441
2.60257
2.60112
2.59828
2.59392
2.58958
2.58659
2.58533
2.58579
2.58754
2.5876
2.58676
2.58444
2.57977
2.57023
2.5578
2.54116
2.52253
2.49881
2.47304
2.44296
2.41456
0.901693
1.12248
1.31449
1.97407
2.70485
2.81423
2.76115
2.69384
2.67495
2.64898
2.64159
2.62343
2.60458
2.59054
2.58431
2.58362
2.58692
2.59858
2.61181
2.62064
2.62572
2.6292
2.6323
2.63529
2.63777
2.63997
2.63996
2.63931
2.63741
2.63476
2.63155
2.62469
2.61411
2.60344
2.59495
2.58953
2.58765
2.58754
2.58718
2.5861
2.58373
2.57967
2.57112
2.55812
2.54229
2.52271
2.50242
2.4798
2.45401
2.42995
0.895856
1.11434
1.25742
1.89772
2.69082
2.75415
2.71402
2.6891
2.66648
2.63739
2.62864
2.61069
2.59334
2.58047
2.57401
2.57205
2.573
2.57756
2.58262
2.58654
2.59254
2.6021
2.61446
2.62756
2.63885
2.64617
2.64841
2.64814
2.6461
2.64103
2.63627
2.63095
2.62245
2.60966
2.59537
2.58473
2.57992
2.57871
2.57904
2.57927
2.5785
2.5762
2.57088
2.55965
2.54614
2.52809
2.5084
2.48734
2.46404
2.44206
0.896825
1.09871
1.21372
1.83446
2.64287
2.6991
2.69527
2.67911
2.65658
2.63167
2.61843
2.60257
2.59013
2.58038
2.57506
2.57411
2.57539
2.5789
2.58184
2.58404
2.58792
2.59677
2.61082
2.62539
2.63688
2.64298
2.64437
2.64368
2.64015
2.63364
2.62821
2.62408
2.61952
2.61022
2.59633
2.58169
2.56866
2.5583
2.55441
2.55399
2.55457
2.55685
2.55664
2.55342
2.54502
2.53072
2.51334
2.49488
2.47404
2.45308
0.903349
1.09529
1.17591
1.77568
2.59849
2.67263
2.67337
2.64446
2.60697
2.5889
2.58329
2.58021
2.5781
2.57911
2.58407
2.59085
2.59584
2.59839
2.59934
2.60016
2.60271
2.61096
2.62445
2.63612
2.64315
2.6451
2.64392
2.63864
2.63026
2.62375
2.61849
2.61445
2.61155
2.60695
2.59635
2.5809
2.56361
2.54881
2.53802
2.52943
2.52518
2.52145
2.51997
2.5199
2.51918
2.51591
2.50765
2.49364
2.47604
2.45868
1.01979
1.05345
1.23126
1.5924
2.2031
2.58182
2.66891
2.65164
2.64357
2.63751
2.62467
2.61412
2.60718
2.60581
2.60653
2.60677
2.60577
2.60452
2.60435
2.60571
2.61238
2.6256
2.63733
2.6446
2.64697
2.64649
2.64281
2.63462
2.62649
2.62038
2.61585
2.61254
2.60979
2.60527
2.59465
2.57669
2.5567
2.53931
2.52518
2.5139
2.50571
2.49903
2.49291
2.48873
2.48362
2.48002
2.47672
2.47236
2.46303
2.45243
1.03298
1.01942
1.17286
1.44459
1.99775
2.46599
2.7068
2.70864
2.70258
2.68532
2.66531
2.65983
2.65376
2.64704
2.63504
2.62096
2.6083
2.60082
2.59829
2.59875
2.60332
2.61448
2.62426
2.62944
2.63058
2.62955
2.62558
2.62037
2.61654
2.61353
2.61088
2.60855
2.60586
2.60003
2.58707
2.56927
2.55084
2.53372
2.51936
2.50726
2.49777
2.49008
2.48298
2.47685
2.47
2.46406
2.45761
2.45197
2.44568
2.43944
1.05038
0.90996
1.13892
1.3391
1.9641
2.5568
2.77947
2.75106
2.70029
2.67964
2.65902
2.65466
2.64606
2.63415
2.61607
2.5969
2.58014
2.56907
2.56407
2.56311
2.56444
2.56934
2.5759
2.58032
2.58279
2.58338
2.58305
2.58297
2.5836
2.58592
2.59138
2.59384
2.59337
2.59114
2.58555
2.57343
2.55828
2.54247
2.52783
2.51461
2.50325
2.49391
2.48511
2.47801
2.47041
2.46404
2.45734
2.45076
2.44524
2.43896
1.02199
1.03102
1.09356
1.43974
2.14742
2.54053
2.6612
2.65014
2.63186
2.63394
2.63933
2.63817
2.63507
2.62834
2.62072
2.61247
2.59808
2.5811
2.56875
2.56169
2.55841
2.55774
2.55754
2.5576
2.55825
2.55884
2.55907
2.55911
2.55915
2.55947
2.56085
2.56563
2.57379
2.58148
2.58423
2.58376
2.5816
2.57646
2.56869
2.55869
2.5459
2.53253
2.51824
2.50466
2.49162
2.47961
2.47052
2.46175
2.45519
2.44874
1.0359
0.904567
1.1094
1.25526
1.91543
2.67715
2.73514
2.68879
2.66275
2.62607
2.6151
2.61567
2.61796
2.61983
2.61908
2.61812
2.61675
2.61248
2.60211
2.59045
2.58151
2.57478
2.56926
2.56543
2.56319
2.56188
2.56049
2.55901
2.55761
2.55658
2.5562
2.55648
2.55845
2.56505
2.57484
2.58089
2.58296
2.58283
2.58174
2.57928
2.57422
2.56712
2.55667
2.54283
2.52841
2.51171
2.49716
2.48184
2.47082
2.46104
1.02954
0.907134
1.091
1.22061
1.84953
2.65884
2.72286
2.71103
2.6821
2.63906
2.60733
2.59322
2.58709
2.58754
2.59128
2.60173
2.6076
2.60789
2.6059
2.60059
2.59429
2.58816
2.58255
2.57791
2.57438
2.57125
2.56828
2.56545
2.56288
2.56051
2.55856
2.55744
2.55751
2.55923
2.56361
2.56923
2.57278
2.57356
2.57325
2.57215
2.57023
2.56601
2.55975
2.54943
2.53943
2.52322
2.5092
2.49206
2.47887
2.46621
1.02312
0.907778
1.07639
1.19015
1.80172
2.65297
2.71049
2.6995
2.6657
2.62365
2.59107
2.57553
2.5678
2.5659
2.56762
2.57394
2.57936
2.58254
2.58347
2.58304
2.58165
2.57902
2.57614
2.57349
2.57115
2.56876
2.56628
2.56379
2.56141
2.55939
2.55796
2.55738
2.5577
2.55958
2.56355
2.56692
2.56822
2.56815
2.56747
2.56506
2.56098
2.55607
2.5525
2.54514
2.53796
2.52618
2.51524
2.50123
2.48693
2.47277
1.01438
0.912423
1.08213
1.133
1.75674
2.65064
2.6887
2.66394
2.61486
2.57081
2.5551
2.55421
2.55601
2.56221
2.57034
2.57963
2.5864
2.58961
2.59093
2.59116
2.59083
2.58978
2.5882
2.58619
2.58337
2.57971
2.57564
2.57156
2.56767
2.56441
2.56227
2.56188
2.56365
2.56898
2.57418
2.57674
2.57705
2.57661
2.57503
2.57069
2.5648
2.55728
2.55094
2.54358
2.53644
2.52707
2.517
2.50554
2.49355
2.4816
1.00276
1.03823
1.00734
1.23155
1.58495
2.20612
2.63347
2.73865
2.72169
2.67695
2.63648
2.6124
2.60218
2.59604
2.59333
2.59181
2.58971
2.58539
2.58136
2.57855
2.57675
2.5755
2.57476
2.57434
2.5737
2.57225
2.56958
2.56654
2.56398
2.56276
2.56327
2.56678
2.57427
2.58124
2.58574
2.58728
2.58718
2.5861
2.58326
2.57854
2.57288
2.56413
2.55435
2.54322
2.53239
2.52208
2.51155
2.50077
2.48967
2.47924
1.00541
1.00024
1.04836
1.0116
1.643
2.50671
2.62519
2.66688
2.65395
2.63207
2.62011
2.61704
2.61716
2.61707
2.61627
2.61323
2.60696
2.59974
2.59378
2.58815
2.5828
2.5779
2.57274
2.56723
2.56175
2.55696
2.55359
2.55203
2.55187
2.55286
2.55612
2.5619
2.56825
2.57362
2.57763
2.5796
2.57988
2.57949
2.5783
2.57541
2.57211
2.56549
2.55731
2.54574
2.53357
2.52045
2.50746
2.49512
2.48313
2.47263
1.00467
1.01815
1.04008
1.11945
1.4873
2.39341
2.5845
2.63894
2.62377
2.60152
2.59906
2.60423
2.61265
2.61696
2.61804
2.61769
2.61598
2.61136
2.6078
2.60601
2.60417
2.6021
2.5984
2.59098
2.58113
2.5714
2.56393
2.55938
2.55745
2.55735
2.55852
2.56111
2.56247
2.56246
2.56151
2.55931
2.55698
2.55551
2.55509
2.55514
2.55511
2.55447
2.55217
2.54545
2.53536
2.52324
2.51112
2.49947
2.48736
2.4773
1.00089
1.04265
0.89939
1.12668
1.3109
1.98449
2.69697
2.76523
2.70699
2.66468
2.63386
2.62319
2.61687
2.61188
2.60457
2.59979
2.59546
2.59275
2.5925
2.59409
2.59785
2.59938
2.59912
2.59764
2.59438
2.59111
2.58806
2.58546
2.58366
2.58213
2.57922
2.57514
2.57095
2.56597
2.56161
2.55676
2.5536
2.55078
2.54847
2.54529
2.54242
2.54
2.53854
2.53557
2.52941
2.52065
2.51047
2.50032
2.49038
2.48119
0.997801
1.03411
0.90294
1.10155
1.25194
1.90135
2.70338
2.77218
2.72791
2.70067
2.65824
2.62837
2.61595
2.60221
2.59197
2.5841
2.5762
2.57085
2.56687
2.56552
2.56564
2.56608
2.56706
2.56863
2.57064
2.57329
2.57541
2.57647
2.57667
2.57649
2.57552
2.57273
2.56866
2.56376
2.55955
2.55529
2.55249
2.54945
2.54576
2.54104
2.53598
2.53068
2.52559
2.51968
2.51368
2.5072
2.5004
2.49331
2.48606
2.47945
0.996341
1.03193
0.904867
1.09502
1.22164
1.87036
2.66894
2.73946
2.72488
2.69059
2.64216
2.60548
2.58825
2.57415
2.56234
2.55359
2.54671
2.5407
2.53781
2.53688
2.53668
2.53668
2.53693
2.53788
2.54012
2.54265
2.54521
2.54745
2.54914
2.55044
2.55111
2.55106
2.55029
2.54836
2.54634
2.54446
2.54339
2.54238
2.54138
2.53955
2.53784
2.53484
2.53161
2.52675
2.52142
2.51548
2.50905
2.50286
2.49597
2.48962
1.0031
1.01279
1.03217
1.05537
1.31712
1.83875
2.33321
2.64483
2.67744
2.66512
2.63784
2.62064
2.60795
2.60047
2.59626
2.59289
2.58855
2.58422
2.58066
2.57534
2.56877
2.56314
2.55795
2.55256
2.54918
2.54753
2.54671
2.54546
2.54366
2.54169
2.53965
2.53739
2.53487
2.53239
2.53044
2.52928
2.5289
2.52927
2.53147
2.53574
2.53983
2.54273
2.54381
2.54371
2.54303
2.54124
2.53699
2.53258
2.52606
2.51974
0.994758
1.02549
0.910836
1.08004
1.18054
1.79366
2.60935
2.68267
2.67948
2.65455
2.62578
2.60752
2.59787
2.59382
2.59203
2.59195
2.59229
2.59189
2.59082
2.58859
2.58499
2.58119
2.5769
2.57276
2.569
2.56537
2.5619
2.55867
2.55507
2.55069
2.54597
2.54145
2.53708
2.53287
2.52899
2.52592
2.52404
2.52344
2.52394
2.52667
2.53169
2.53536
2.53724
2.53778
2.5377
2.53702
2.53435
2.5303
2.52447
2.5191
0.992926
1.02177
0.907655
1.07199
1.16693
1.77181
2.61873
2.67731
2.67104
2.64097
2.60737
2.5836
2.57101
2.56584
2.56416
2.56281
2.56353
2.56505
2.56625
2.56736
2.56881
2.56957
2.56944
2.5689
2.56753
2.56558
2.56396
2.56256
2.56114
2.55951
2.55723
2.55395
2.55001
2.54608
2.54283
2.54038
2.53866
2.5379
2.53805
2.53906
2.54051
2.54111
2.54103
2.54011
2.53718
2.53302
2.52745
2.52261
2.51692
2.5111
1.00312
1.00968
1.02174
1.08616
1.21028
1.70976
2.18146
2.6007
2.67118
2.64265
2.61958
2.62018
2.62356
2.62751
2.62328
2.61219
2.59942
2.59057
2.58357
2.57705
2.57223
2.56773
2.56301
2.55913
2.55636
2.55455
2.55302
2.55143
2.54976
2.54799
2.54602
2.54386
2.54176
2.54018
2.53958
2.53996
2.54191
2.54525
2.54782
2.5491
2.54935
2.54913
2.54787
2.54427
2.53831
2.53256
2.52636
2.52089
2.51503
2.50939
0.994129
1.01545
0.911489
1.07471
1.12667
1.72189
2.58005
2.63365
2.64252
2.61989
2.59381
2.5908
2.59406
2.59625
2.59615
2.59395
2.59024
2.58764
2.58511
2.58232
2.57958
2.57661
2.57369
2.57111
2.56864
2.56592
2.56278
2.55906
2.5548
2.55047
2.54661
2.54326
2.54079
2.53942
2.53918
2.53982
2.54177
2.54349
2.54415
2.5441
2.54349
2.5415
2.53709
2.53216
2.52589
2.52005
2.5144
2.50917
2.50448
2.50025
0.99146
1.01437
0.913539
1.05687
1.1169
1.68565
2.5261
2.61594
2.62796
2.59906
2.55901
2.54708
2.54837
2.55109
2.55703
2.56087
2.56376
2.56728
2.56908
2.56889
2.56859
2.5687
2.56894
2.56879
2.56837
2.56768
2.56616
2.56288
2.55874
2.5546
2.55101
2.54867
2.54784
2.54825
2.55005
2.55213
2.55305
2.55309
2.55257
2.55037
2.54577
2.53988
2.53259
2.52625
2.51979
2.5144
2.50993
2.50519
2.50098
2.49585
0.995355
1.00103
0.974397
1.02097
1.02918
1.65569
2.53449
2.57549
2.60769
2.59465
2.56578
2.54996
2.54923
2.54986
2.55359
2.55812
2.56088
2.5639
2.56483
2.56447
2.56441
2.5649
2.56553
2.56551
2.56534
2.56454
2.56222
2.55859
2.55508
2.55242
2.55106
2.5512
2.55357
2.55983
2.56636
2.57049
2.57211
2.57218
2.571
2.56608
2.55687
2.5473
2.53796
2.53025
2.52358
2.51818
2.51365
2.50923
2.50465
2.49987
0.99919
0.999876
0.969609
1.04051
1.01824
1.63946
2.44844
2.5537
2.60012
2.58577
2.56333
2.55208
2.55269
2.55517
2.55876
2.56132
2.56319
2.56513
2.56576
2.56555
2.56554
2.56555
2.56543
2.5651
2.56437
2.56329
2.56199
2.56079
2.56016
2.56036
2.56275
2.56992
2.57932
2.5868
2.59091
2.59211
2.59165
2.58877
2.58137
2.57137
2.56146
2.55167
2.54305
2.53561
2.52953
2.52449
2.51966
2.51487
2.50829
2.50199
1.00897
1.00631
1.04545
0.969545
1.12647
1.37617
1.98353
2.55609
2.73842
2.69975
2.65461
2.61355
2.59189
2.59022
2.5895
2.59018
2.5903
2.58994
2.58824
2.58501
2.58114
2.57484
2.56598
2.55615
2.54761
2.54188
2.53914
2.53855
2.53931
2.54338
2.55267
2.56267
2.57112
2.57685
2.57965
2.58025
2.57956
2.57614
2.56932
2.56072
2.55293
2.54538
2.53865
2.53286
2.5278
2.5228
2.51747
2.51145
2.50358
2.49568
1.00617
1.00011
1.04397
0.902123
1.11978
1.30144
1.94582
2.63454
2.75451
2.69851
2.65665
2.62377
2.60524
2.60257
2.60136
2.59961
2.59772
2.59484
2.58981
2.5839
2.5778
2.57166
2.56555
2.55923
2.55207
2.54373
2.53602
2.53121
2.52871
2.52798
2.52824
2.52948
2.53099
2.53186
2.53211
2.53194
2.53107
2.52861
2.52592
2.52256
2.51989
2.51697
2.51485
2.51172
2.50975
2.50588
2.5029
2.49886
2.49434
2.49059
1.00569
0.999782
1.04207
0.903695
1.1158
1.27382
1.93032
2.6748
2.73835
2.68029
2.65775
2.62102
2.60665
2.59842
2.59661
2.59285
2.58864
2.58423
2.5804
2.57783
2.5761
2.57366
2.56912
2.56218
2.55344
2.54393
2.53461
2.52636
2.52076
2.51754
2.5157
2.51479
2.51443
2.51427
2.51403
2.51352
2.51276
2.51171
2.51051
2.50903
2.50735
2.50539
2.50334
2.50109
2.49905
2.49682
2.49512
2.49298
2.49179
2.49
1.00344
1.00576
1.02263
1.0298
1.08614
1.37721
2.05186
2.46181
2.6244
2.6091
2.60076
2.583
2.5753
2.57259
2.57074
2.56812
2.56476
2.56163
2.5594
2.55781
2.55652
2.55541
2.55456
2.55409
2.55401
2.55451
2.55721
2.56291
2.56821
2.5719
2.57359
2.57373
2.57264
2.56836
2.56114
2.55424
2.54831
2.54352
2.53978
2.53684
2.5346
2.53296
2.53132
2.52789
2.52244
2.51432
2.50653
2.49742
2.49134
2.48466
1.00343
1.0047
1.02083
1.02764
1.13806
1.31846
1.93139
2.38474
2.62439
2.61139
2.6047
2.58419
2.57313
2.56864
2.56567
2.562
2.558
2.55477
2.55213
2.54955
2.54783
2.54732
2.54743
2.54822
2.55172
2.56184
2.57625
2.58888
2.59769
2.60204
2.60288
2.60149
2.59559
2.58496
2.5746
2.56551
2.55795
2.55199
2.5475
2.54416
2.54171
2.53989
2.53843
2.53639
2.53222
2.52503
2.51651
2.50602
2.496
2.48626
1.00368
1.00519
1.02085
1.03097
1.10504
1.32532
1.9413
2.37266
2.61993
2.60713
2.59954
2.57746
2.56425
2.55993
2.55871
2.55628
2.55298
2.55001
2.54644
2.54305
2.54124
2.5409
2.54134
2.54449
2.55523
2.57289
2.5887
2.59979
2.60538
2.60661
2.60513
2.5989
2.58784
2.57698
2.56726
2.55902
2.55229
2.54703
2.54308
2.54019
2.53803
2.53634
2.53499
2.53348
2.53054
2.52494
2.51763
2.50841
2.4986
2.48878
2.19012
2.37814
2.79329
2.89024
3.03877
3.08036
3.00755
2.9987
2.98819
2.98664
2.9858
2.98406
2.98217
2.9808
2.98041
2.97927
2.97933
2.97647
2.97099
2.96396
2.95526
2.94401
2.9354
2.92644
2.91727
2.9073
2.89634
2.88556
2.87426
2.86271
2.85141
2.83986
2.82855
2.81829
2.80989
2.8019
2.79414
2.78553
2.77687
2.7687
2.76073
2.75324
2.74606
2.73947
2.73307
2.72687
2.72087
2.71487
2.70909
2.70323
2.69754
2.69199
2.68654
2.68136
2.67622
2.67164
2.66713
2.663
2.65926
2.65567
2.6525
2.64955
2.6468
2.64445
2.64227
2.64042
2.63863
2.63744
2.63635
2.6353
2.63499
2.63435
2.63418
2.63402
2.63403
2.63366
2.63346
2.63307
2.63321
2.63305
2.63239
2.63147
2.63071
2.62918
2.62727
2.62533
2.6233
2.62125
2.61925
2.61745
2.61562
2.61396
2.6126
2.61135
2.61
2.60899
2.60863
2.60908
2.60883
2.60925
2.18891
2.27567
2.46705
2.67153
2.73659
2.82055
2.87134
2.87634
2.86464
2.83401
2.8199
2.82195
2.83803
2.86516
2.89936
2.93667
2.96461
2.97932
2.98513
2.98608
2.98236
2.96265
2.92582
2.89046
2.85771
2.82779
2.79932
2.77208
2.74605
2.722
2.69957
2.67802
2.65711
2.63616
2.61448
2.59289
2.57353
2.55531
2.53804
2.52183
2.50663
2.49248
2.47922
2.46683
2.45518
2.44407
2.43364
2.42362
2.41436
2.40558
2.39738
2.38974
2.38244
2.37567
2.36923
2.36301
2.35722
2.3517
2.34637
2.34152
2.33718
2.33305
2.32944
2.32687
2.32459
2.32264
2.32215
2.32235
2.32319
2.32443
2.32714
2.32975
2.33413
2.33815
2.34354
2.34819
2.35393
2.35931
2.36571
2.3719
2.37814
2.38383
2.38909
2.39382
2.39743
2.39976
2.40058
2.40054
2.40024
2.399
2.39765
2.39431
2.39217
2.38816
2.3854
2.38112
2.37859
2.37505
2.37313
2.3676
2.22533
2.21881
2.27779
2.37304
2.43437
2.48599
2.52402
2.54851
2.55636
2.55539
2.5526
2.5463
2.53134
2.52065
2.50653
2.49483
2.48743
2.48289
2.48162
2.48329
2.48843
2.49282
2.49737
2.50558
2.51849
2.53357
2.54847
2.56148
2.57202
2.57989
2.58497
2.58753
2.58791
2.58554
2.57588
2.5582
2.53838
2.51775
2.4976
2.47901
2.46196
2.44602
2.43083
2.41628
2.40219
2.38861
2.37554
2.36286
2.35046
2.33838
2.32667
2.31539
2.30466
2.29453
2.28503
2.27619
2.26803
2.2605
2.25357
2.24713
2.24109
2.23545
2.23003
2.22483
2.21974
2.21496
2.21047
2.20597
2.20167
2.19794
2.19467
2.19142
2.18842
2.18585
2.18382
2.18199
2.17995
2.17835
2.1777
2.17745
2.17731
2.17726
2.1774
2.17798
2.17912
2.1807
2.18249
2.18477
2.18743
2.19085
2.19542
2.20029
2.2063
2.21277
2.21936
2.2284
2.23361
2.24479
2.24927
2.26072
2.26589
2.22465
2.22381
2.24925
2.28279
2.30938
2.32986
2.34407
2.35465
2.36061
2.36171
2.36221
2.36222
2.35998
2.35392
2.34851
2.34097
2.33456
2.32882
2.32324
2.31923
2.31715
2.31607
2.31554
2.31567
2.31669
2.31896
2.32138
2.32404
2.32678
2.3299
2.33313
2.33589
2.33873
2.34245
2.34691
2.35336
2.36083
2.36692
2.37098
2.37319
2.37387
2.37351
2.37136
2.36552
2.35703
2.34767
2.33762
2.32697
2.31595
2.30464
2.29321
2.2818
2.2706
2.25973
2.24924
2.23944
2.23032
2.22211
2.21482
2.20843
2.2031
2.19841
2.19431
2.19066
2.18729
2.18387
2.18059
2.17735
2.17413
2.17088
2.16748
2.16432
2.16117
2.15779
2.15417
2.1508
2.1477
2.14473
2.14186
2.13913
2.13632
2.13358
2.13092
2.12819
2.12571
2.12334
2.12126
2.11931
2.11772
2.11643
2.11555
2.11483
2.11454
2.11452
2.11497
2.11577
2.11855
2.11947
2.12405
2.29747
2.25156
2.22799
2.21928
2.22632
2.23145
2.23671
2.23897
2.241
2.24364
2.24471
2.24492
2.2456
2.24639
2.24614
2.24432
2.24194
2.24011
2.23746
2.23486
2.233
2.2318
2.23114
2.23068
2.23018
2.22984
2.22986
2.23028
2.23134
2.23276
2.23468
2.23751
2.24134
2.24613
2.25119
2.25564
2.26002
2.2638
2.26591
2.26654
2.26653
2.26623
2.26526
2.26364
2.26146
2.25865
2.25515
2.25097
2.24608
2.24061
2.23455
2.22794
2.22085
2.2133
2.20542
2.19721
2.18889
2.18052
2.17216
2.16404
2.15636
2.14916
2.14279
2.13753
2.13333
2.13039
2.12845
2.12748
2.127
2.12698
2.12714
2.12745
2.12769
2.12771
2.12749
2.12683
2.12542
2.12411
2.12235
2.12016
2.1173
2.11442
2.1109
2.10698
2.10306
2.0992
2.09524
2.09146
2.08795
2.08491
2.08213
2.07968
2.07755
2.07586
2.07437
2.07352
2.0733
2.07406
2.07394
2.07606
2.32021
2.28051
2.25507
2.22753
2.21634
2.20927
2.20306
2.19714
2.1902
2.18767
2.18489
2.18209
2.17989
2.1793
2.17968
2.18013
2.17962
2.1783
2.17749
2.17648
2.17486
2.17345
2.17291
2.17243
2.17175
2.1714
2.17162
2.17306
2.17609
2.17939
2.18313
2.1864
2.19009
2.19387
2.19698
2.19978
2.20257
2.20467
2.20642
2.20841
2.2107
2.21287
2.21436
2.21492
2.2149
2.21465
2.21386
2.21206
2.20944
2.20618
2.2023
2.19783
2.19276
2.18711
2.181
2.17445
2.16753
2.16038
2.15308
2.14567
2.13819
2.13079
2.12359
2.11651
2.11003
2.10452
2.09982
2.09624
2.09454
2.0944
2.09472
2.09578
2.0979
2.10044
2.10297
2.10499
2.1068
2.10835
2.10922
2.10936
2.10909
2.10792
2.10553
2.10291
2.09898
2.0949
2.09046
2.08576
2.08077
2.07586
2.07108
2.06666
2.06246
2.0589
2.05582
2.05346
2.0513
2.05111
2.05014
2.05096
2.34196
2.30691
2.27493
2.25493
2.22996
2.21291
2.19919
2.18781
2.17625
2.16841
2.15803
2.15431
2.14989
2.1466
2.14442
2.143
2.14123
2.13978
2.13853
2.13673
2.135
2.13395
2.1336
2.13397
2.13519
2.13803
2.14191
2.14674
2.15177
2.15662
2.1615
2.16579
2.16966
2.17331
2.17572
2.17666
2.17697
2.17674
2.17616
2.17533
2.17504
2.17533
2.17651
2.17799
2.17863
2.17864
2.17847
2.17791
2.17647
2.17351
2.16954
2.16484
2.15968
2.1543
2.14891
2.14372
2.13874
2.13397
2.12941
2.12495
2.12042
2.11579
2.11106
2.10607
2.10069
2.09517
2.0899
2.08484
2.07998
2.07594
2.07367
2.07317
2.07336
2.07399
2.07567
2.07855
2.08203
2.0857
2.08922
2.09236
2.09491
2.09655
2.09707
2.09702
2.09642
2.09424