/*--------------------------------*- C++ -*----------------------------------*\
| =========                 |                                                 |
| \\      /  F ield         | OpenFOAM: The Open Source CFD Toolbox           |
|  \\    /   O peration     | Version:  2412                                  |
|   \\  /    A nd           | Website:  www.openfoam.com                      |
|    \\/     M anipulation  |                                                 |
\*---------------------------------------------------------------------------*/
FoamFile
{
    version     2.0;
    format      ascii;
    arch        "LSB;label=32;scalar=64";
    class       volVectorField;
    location    "9";
    object      U;
}
// * * * * * * * * * * * * * * * * * * * * * * * * * * * * * * * * * * * * * //

dimensions      [0 1 -1 0 0 0 0];

internalField   nonuniform List<vector> 
7000
(
(2.95302 5.99807e-05 0)
(2.74441 -0.00782731 0)
(2.11823 0.00235296 0)
(1.22395 0.00259422 0)
(0.53154 0.00169534 0)
(0.633894 0.00229484 0)
(0.750327 0.00285943 0)
(0.793764 0.00336483 0)
(0.788245 0.00383741 0)
(0.768385 0.00426363 0)
(0.745162 0.00459227 0)
(0.727114 0.00463072 0)
(0.713193 0.00452376 0)
(0.69927 0.00414916 0)
(0.684826 0.00371544 0)
(0.670722 0.00331921 0)
(0.657624 0.00301005 0)
(0.64624 0.00279739 0)
(0.634867 0.00264187 0)
(0.623427 0.00250268 0)
(0.613515 0.0023821 0)
(0.604275 0.00228442 0)
(0.594118 0.00220157 0)
(0.583773 0.00216755 0)
(0.57408 0.00230844 0)
(0.563558 0.0024929 0)
(0.551746 0.0027785 0)
(0.538679 0.00314148 0)
(0.524795 0.0035249 0)
(0.510297 0.00393764 0)
(0.495014 0.00430048 0)
(0.479045 0.00464868 0)
(0.462772 0.00497984 0)
(0.44623 0.00531703 0)
(0.428484 0.00568949 0)
(0.408743 0.0061182 0)
(0.387022 0.00661173 0)
(0.363236 0.00718876 0)
(0.337333 0.00785452 0)
(0.309591 0.00860899 0)
(0.28036 0.00944565 0)
(0.249828 0.0103261 0)
(0.21784 0.0111917 0)
(0.184518 0.0118684 0)
(0.151029 0.012108 0)
(0.119031 0.0116683 0)
(0.0903879 0.0107146 0)
(0.0641559 0.00992566 0)
(0.0342399 0.00983573 0)
(0.0101652 0.00841824 0)
(2.94962 -0.000627044 0)
(2.74111 -0.00689889 0)
(2.1153 0.00493125 0)
(1.2182 0.00216661 0)
(0.531196 0.00263774 0)
(0.635805 0.00408776 0)
(0.752951 0.00548825 0)
(0.79711 0.00651536 0)
(0.792595 0.00721104 0)
(0.774078 0.00788715 0)
(0.752352 0.00866752 0)
(0.735645 0.00939787 0)
(0.722491 0.0100761 0)
(0.708538 0.010423 0)
(0.693381 0.0105143 0)
(0.678021 0.0103716 0)
(0.663418 0.0100668 0)
(0.65054 0.00969549 0)
(0.637805 0.00933316 0)
(0.625135 0.00908187 0)
(0.614055 0.00898587 0)
(0.603584 0.00904066 0)
(0.592088 0.00919078 0)
(0.580417 0.0093879 0)
(0.569451 0.00965748 0)
(0.557832 0.00984645 0)
(0.54533 0.0100234 0)
(0.532031 0.0102035 0)
(0.518411 0.0104065 0)
(0.504583 0.0107133 0)
(0.490246 0.0111341 0)
(0.475373 0.0117404 0)
(0.460168 0.0125438 0)
(0.444558 0.0135459 0)
(0.427551 0.0147579 0)
(0.408345 0.0161195 0)
(0.386998 0.0176301 0)
(0.363497 0.0192458 0)
(0.337872 0.0209397 0)
(0.31051 0.0226843 0)
(0.281884 0.0244483 0)
(0.252322 0.0261513 0)
(0.221754 0.0277068 0)
(0.190238 0.0288601 0)
(0.158586 0.0292752 0)
(0.127769 0.0285511 0)
(0.0988974 0.026891 0)
(0.0710964 0.025075 0)
(0.039034 0.0239936 0)
(0.0130595 0.0212796 0)
(2.94967 -0.000803809 0)
(2.74031 0.00127756 0)
(2.11535 0.00269386 0)
(1.22113 0.00123876 0)
(0.530629 0.00427741 0)
(0.633242 0.007292 0)
(0.749233 0.0100438 0)
(0.79191 0.0120496 0)
(0.785775 0.0134832 0)
(0.765744 0.0148337 0)
(0.742666 0.0162381 0)
(0.724998 0.0175154 0)
(0.711446 0.0184746 0)
(0.697747 0.0189633 0)
(0.683452 0.0189444 0)
(0.669384 0.0184829 0)
(0.656263 0.0177286 0)
(0.644827 0.0168669 0)
(0.633417 0.0160507 0)
(0.621974 0.015445 0)
(0.612062 0.015102 0)
(0.602797 0.0150014 0)
(0.592614 0.0151192 0)
(0.582339 0.0153886 0)
(0.572784 0.0156239 0)
(0.562502 0.0159334 0)
(0.551117 0.0162766 0)
(0.538585 0.0166824 0)
(0.525304 0.0172171 0)
(0.511385 0.0179046 0)
(0.496576 0.0188537 0)
(0.480934 0.0200866 0)
(0.464798 0.0216202 0)
(0.448234 0.0234415 0)
(0.430341 0.0255662 0)
(0.410403 0.027899 0)
(0.388541 0.0304571 0)
(0.36474 0.0331601 0)
(0.339053 0.0359644 0)
(0.311876 0.0388231 0)
(0.28369 0.0416805 0)
(0.254863 0.0444215 0)
(0.225315 0.0469012 0)
(0.194994 0.0488018 0)
(0.164414 0.0497111 0)
(0.134188 0.0491528 0)
(0.105091 0.0474237 0)
(0.0763836 0.0452629 0)
(0.0427999 0.0436362 0)
(0.0150675 0.0401139 0)
(2.94978 -0.000710682 0)
(2.74055 0.000592445 0)
(2.11672 -0.00130365 0)
(1.22394 0.00359899 0)
(0.531139 0.00751315 0)
(0.634335 0.0118812 0)
(0.750549 0.0151541 0)
(0.793477 0.0175177 0)
(0.787896 0.0193352 0)
(0.768592 0.0210539 0)
(0.746119 0.0228036 0)
(0.728836 0.024272 0)
(0.715526 0.0253567 0)
(0.701971 0.0258543 0)
(0.687774 0.0257448 0)
(0.673773 0.0251285 0)
(0.660694 0.0241837 0)
(0.64929 0.0231536 0)
(0.637927 0.0222245 0)
(0.626545 0.0215351 0)
(0.616649 0.0211663 0)
(0.607308 0.0210939 0)
(0.596897 0.0212883 0)
(0.586102 0.0216843 0)
(0.575815 0.0220316 0)
(0.56468 0.0225116 0)
(0.552331 0.0230541 0)
(0.538877 0.0237043 0)
(0.524811 0.0245469 0)
(0.510345 0.0256158 0)
(0.495274 0.0270397 0)
(0.479619 0.0288491 0)
(0.463663 0.0310615 0)
(0.447412 0.0336562 0)
(0.429881 0.036641 0)
(0.410321 0.0399125 0)
(0.38884 0.0434602 0)
(0.365408 0.0471826 0)
(0.340096 0.0510122 0)
(0.313329 0.0548793 0)
(0.285624 0.0587071 0)
(0.257394 0.0623652 0)
(0.228572 0.0656746 0)
(0.199019 0.0683117 0)
(0.169036 0.0698377 0)
(0.139059 0.069768 0)
(0.109699 0.0683758 0)
(0.0803844 0.066253 0)
(0.0457216 0.0643754 0)
(0.0165302 0.0603931 0)
(2.94991 0.000904893 0)
(2.74003 0.00054446 0)
(2.11704 -0.00485549 0)
(1.2246 0.00515796 0)
(0.528411 0.0104857 0)
(0.633336 0.0157105 0)
(0.749852 0.0195728 0)
(0.792873 0.0225533 0)
(0.787341 0.0250612 0)
(0.768154 0.027507 0)
(0.745753 0.0299513 0)
(0.728504 0.0320423 0)
(0.71522 0.0335399 0)
(0.701672 0.0342092 0)
(0.687516 0.0340355 0)
(0.67359 0.0331379 0)
(0.66062 0.0317477 0)
(0.649354 0.0301943 0)
(0.63815 0.0288342 0)
(0.626965 0.0278359 0)
(0.617299 0.0273417 0)
(0.608209 0.0273689 0)
(0.598073 0.0278272 0)
(0.587491 0.0285582 0)
(0.577376 0.0293345 0)
(0.56639 0.0301371 0)
(0.554093 0.0309261 0)
(0.540604 0.0317495 0)
(0.52641 0.0327189 0)
(0.511756 0.0339554 0)
(0.496479 0.0356291 0)
(0.480625 0.0378244 0)
(0.464515 0.0405916 0)
(0.448194 0.0439065 0)
(0.430678 0.0477583 0)
(0.411227 0.0520192 0)
(0.389949 0.0566297 0)
(0.366767 0.0614413 0)
(0.341745 0.0663472 0)
(0.315298 0.0712481 0)
(0.287941 0.0760463 0)
(0.260104 0.0806084 0)
(0.231728 0.0847479 0)
(0.202608 0.0881604 0)
(0.172881 0.0904081 0)
(0.142902 0.0910257 0)
(0.113214 0.0902125 0)
(0.083442 0.0884092 0)
(0.0480118 0.0865374 0)
(0.0176422 0.0823432 0)
(2.95061 0.00119376 0)
(2.74211 0.00281456 0)
(2.12635 -0.00501377 0)
(1.22727 0.00651693 0)
(0.52587 0.0126666 0)
(0.632296 0.0193373 0)
(0.74902 0.0242709 0)
(0.79219 0.0278073 0)
(0.786921 0.0308939 0)
(0.768125 0.0339466 0)
(0.746152 0.0369159 0)
(0.729342 0.039484 0)
(0.716559 0.0412296 0)
(0.703613 0.0419867 0)
(0.690142 0.0417536 0)
(0.676874 0.0406875 0)
(0.66439 0.0390638 0)
(0.653335 0.037262 0)
(0.641949 0.0357441 0)
(0.630154 0.0346044 0)
(0.619618 0.0340163 0)
(0.609614 0.0340244 0)
(0.598718 0.0345123 0)
(0.587684 0.0352725 0)
(0.577482 0.0362718 0)
(0.566736 0.0372721 0)
(0.554914 0.0383293 0)
(0.542003 0.039482 0)
(0.528369 0.0408306 0)
(0.514174 0.0425223 0)
(0.499198 0.0446907 0)
(0.483471 0.0474551 0)
(0.467343 0.0508685 0)
(0.450925 0.0549167 0)
(0.43329 0.0595881 0)
(0.413755 0.0647731 0)
(0.392459 0.0703752 0)
(0.369318 0.0762239 0)
(0.344391 0.0821763 0)
(0.318079 0.0881024 0)
(0.290881 0.0938801 0)
(0.263222 0.0993722 0)
(0.235045 0.104395 0)
(0.20609 0.108667 0)
(0.176373 0.11176 0)
(0.146207 0.113228 0)
(0.116102 0.113175 0)
(0.0859123 0.111917 0)
(0.0498493 0.110279 0)
(0.0184957 0.106065 0)
(2.95185 -0.000971932 0)
(2.74179 0.00319484 0)
(2.1293 -0.00364683 0)
(1.23402 0.00815365 0)
(0.521416 0.0159272 0)
(0.628622 0.0242992 0)
(0.745664 0.0297128 0)
(0.788735 0.0334729 0)
(0.783416 0.0370632 0)
(0.764547 0.0407628 0)
(0.742599 0.0443059 0)
(0.72604 0.0472936 0)
(0.7138 0.049158 0)
(0.701714 0.0498247 0)
(0.689301 0.0493608 0)
(0.677122 0.0480265 0)
(0.665591 0.0461955 0)
(0.655268 0.0443115 0)
(0.644253 0.042805 0)
(0.632424 0.0417623 0)
(0.621561 0.0413119 0)
(0.610979 0.041438 0)
(0.599325 0.041998 0)
(0.58756 0.0427889 0)
(0.576688 0.0437854 0)
(0.56538 0.0448272 0)
(0.553247 0.0459763 0)
(0.540257 0.0472909 0)
(0.526794 0.048901 0)
(0.512986 0.0509667 0)
(0.498571 0.053624 0)
(0.483512 0.0570083 0)
(0.468057 0.0611616 0)
(0.452266 0.0660566 0)
(0.435178 0.0716582 0)
(0.416107 0.0778578 0)
(0.395195 0.0845245 0)
(0.372353 0.0914648 0)
(0.347659 0.0985072 0)
(0.321519 0.105499 0)
(0.294438 0.112302 0)
(0.266852 0.118781 0)
(0.23872 0.124764 0)
(0.209749 0.129996 0)
(0.17987 0.134059 0)
(0.149376 0.136513 0)
(0.118752 0.137373 0)
(0.0881007 0.136828 0)
(0.0514711 0.135614 0)
(0.0192072 0.131552 0)
(2.95234 -0.00117777 0)
(2.74071 -1.46079e-05 0)
(2.13187 -0.00180736 0)
(1.23836 0.013151 0)
(0.519195 0.0200617 0)
(0.630041 0.0286003 0)
(0.747661 0.0343615 0)
(0.791254 0.0388533 0)
(0.786582 0.0431823 0)
(0.768223 0.0474878 0)
(0.746662 0.0514501 0)
(0.730288 0.0546154 0)
(0.71809 0.0565177 0)
(0.706002 0.0570332 0)
(0.693495 0.0564384 0)
(0.68113 0.0550662 0)
(0.669346 0.0533483 0)
(0.65876 0.051717 0)
(0.647503 0.0504427 0)
(0.635472 0.0497019 0)
(0.624469 0.0495302 0)
(0.613789 0.0498375 0)
(0.602041 0.0504827 0)
(0.590149 0.0513148 0)
(0.579137 0.0522425 0)
(0.567682 0.0532337 0)
(0.555379 0.0543553 0)
(0.542227 0.0556907 0)
(0.528635 0.0574161 0)
(0.514754 0.0596911 0)
(0.500351 0.0627163 0)
(0.485392 0.0666243 0)
(0.470108 0.0714717 0)
(0.454556 0.0772219 0)
(0.437772 0.0838041 0)
(0.419053 0.0910917 0)
(0.398501 0.0989204 0)
(0.375988 0.107051 0)
(0.351569 0.11528 0)
(0.325629 0.123432 0)
(0.298663 0.131356 0)
(0.271106 0.138926 0)
(0.242937 0.145983 0)
(0.213847 0.152298 0)
(0.183699 0.157462 0)
(0.152774 0.161021 0)
(0.121528 0.16291 0)
(0.0903105 0.163223 0)
(0.0530375 0.162602 0)
(0.0198699 0.158822 0)
(2.95182 -0.000917829 0)
(2.73997 -0.00308158 0)
(2.13764 0.00113215 0)
(1.24447 0.01876 0)
(0.516037 0.0230874 0)
(0.627255 0.0322569 0)
(0.744441 0.0388815 0)
(0.788224 0.044078 0)
(0.783921 0.0492526 0)
(0.765748 0.0543952 0)
(0.743912 0.0591131 0)
(0.726712 0.0627947 0)
(0.713117 0.064991 0)
(0.69934 0.0654781 0)
(0.685215 0.0646802 0)
(0.671547 0.063011 0)
(0.659069 0.0610153 0)
(0.648491 0.0591986 0)
(0.63797 0.0578075 0)
(0.62736 0.0570866 0)
(0.618184 0.0570305 0)
(0.609441 0.0574952 0)
(0.599531 0.0582968 0)
(0.589258 0.0592942 0)
(0.579526 0.0603552 0)
(0.569027 0.0614596 0)
(0.557415 0.0627187 0)
(0.54472 0.0642289 0)
(0.5314 0.0662 0)
(0.51767 0.0687884 0)
(0.503363 0.0722318 0)
(0.488473 0.0766794 0)
(0.473261 0.0822037 0)
(0.457811 0.0887815 0)
(0.441194 0.0963123 0)
(0.422737 0.104674 0)
(0.402504 0.113675 0)
(0.380315 0.123035 0)
(0.356195 0.132517 0)
(0.330486 0.141921 0)
(0.303657 0.151079 0)
(0.27613 0.159869 0)
(0.247899 0.168143 0)
(0.218639 0.175695 0)
(0.188149 0.182112 0)
(0.156695 0.186913 0)
(0.124705 0.189951 0)
(0.0927885 0.191244 0)
(0.0547636 0.191389 0)
(0.0205492 0.188006 0)
(2.95037 -0.000371722 0)
(2.73724 -0.00040258 0)
(2.14348 0.000332212 0)
(1.25463 0.0206584 0)
(0.513134 0.0285632 0)
(0.62563 0.0387101 0)
(0.742599 0.0447791 0)
(0.786602 0.0497887 0)
(0.782765 0.0556825 0)
(0.764766 0.0619345 0)
(0.742885 0.0678672 0)
(0.725481 0.0724988 0)
(0.711585 0.0752092 0)
(0.697574 0.0757788 0)
(0.683354 0.0745824 0)
(0.66971 0.0721637 0)
(0.657382 0.069259 0)
(0.647011 0.0665742 0)
(0.636766 0.0645327 0)
(0.626533 0.0634311 0)
(0.617765 0.0632884 0)
(0.609435 0.063906 0)
(0.599963 0.0650267 0)
(0.590105 0.0664499 0)
(0.580742 0.0678522 0)
(0.570607 0.0693316 0)
(0.559315 0.0709446 0)
(0.546902 0.0727933 0)
(0.533827 0.0751282 0)
(0.520318 0.0781141 0)
(0.506252 0.0820309 0)
(0.491611 0.0870433 0)
(0.476649 0.0932569 0)
(0.461449 0.100669 0)
(0.445119 0.109135 0)
(0.427029 0.118582 0)
(0.407198 0.128774 0)
(0.385402 0.139404 0)
(0.361645 0.150208 0)
(0.336225 0.160965 0)
(0.30958 0.171487 0)
(0.282111 0.181649 0)
(0.253826 0.191313 0)
(0.224381 0.200298 0)
(0.19351 0.208156 0)
(0.161449 0.214381 0)
(0.128577 0.218737 0)
(0.0957769 0.221174 0)
(0.0567911 0.222234 0)
(0.0213459 0.219354 0)
(2.95173 -0.000812908 0)
(2.73777 0.000229303 0)
(2.15656 0.0038845 0)
(1.2643 0.0226963 0)
(0.50902 0.0333799 0)
(0.625045 0.0444948 0)
(0.741623 0.050188 0)
(0.786357 0.0555312 0)
(0.783242 0.0624494 0)
(0.765611 0.0697762 0)
(0.744064 0.0766698 0)
(0.727098 0.0818999 0)
(0.713862 0.0848239 0)
(0.700711 0.085259 0)
(0.687445 0.083622 0)
(0.674663 0.0806061 0)
(0.66296 0.0771196 0)
(0.652858 0.0739925 0)
(0.642551 0.0716778 0)
(0.632013 0.0704802 0)
(0.622753 0.0704027 0)
(0.613868 0.0711872 0)
(0.603928 0.0725322 0)
(0.593639 0.0742185 0)
(0.583965 0.0758633 0)
(0.573716 0.077604 0)
(0.56238 0.0794933 0)
(0.550003 0.0816376 0)
(0.537015 0.084313 0)
(0.523643 0.0876994 0)
(0.509783 0.0920878 0)
(0.495389 0.0976656 0)
(0.480715 0.104568 0)
(0.465794 0.112823 0)
(0.449801 0.122209 0)
(0.432154 0.132754 0)
(0.412786 0.144165 0)
(0.391448 0.156115 0)
(0.368119 0.168323 0)
(0.343052 0.180547 0)
(0.316651 0.192584 0)
(0.28929 0.2043 0)
(0.260989 0.215564 0)
(0.23137 0.226217 0)
(0.200094 0.235756 0)
(0.167354 0.243628 0)
(0.133457 0.249515 0)
(0.0995364 0.253289 0)
(0.0593093 0.255476 0)
(0.0223007 0.253219 0)
(2.95049 -0.000944328 0)
(2.73584 -0.000951292 0)
(2.16531 0.00700023 0)
(1.27742 0.0280507 0)
(0.504531 0.0382398 0)
(0.621499 0.0500587 0)
(0.737707 0.0550407 0)
(0.784162 0.0607254 0)
(0.782643 0.0688148 0)
(0.765827 0.077335 0)
(0.744757 0.0852962 0)
(0.728087 0.0912776 0)
(0.715152 0.0945098 0)
(0.702329 0.0948796 0)
(0.689384 0.0928872 0)
(0.676855 0.0893553 0)
(0.665325 0.0853598 0)
(0.65524 0.0818483 0)
(0.644882 0.079261 0)
(0.634351 0.0779617 0)
(0.625114 0.0779295 0)
(0.616258 0.0788601 0)
(0.606416 0.0803831 0)
(0.596219 0.0822766 0)
(0.586646 0.0841738 0)
(0.576585 0.0861729 0)
(0.565443 0.0883308 0)
(0.553288 0.0907648 0)
(0.540546 0.0937719 0)
(0.527436 0.0975727 0)
(0.513888 0.102431 0)
(0.49985 0.108575 0)
(0.485566 0.116157 0)
(0.470979 0.125232 0)
(0.455385 0.135556 0)
(0.438279 0.147192 0)
(0.419452 0.159829 0)
(0.398652 0.173139 0)
(0.375837 0.186828 0)
(0.351211 0.200639 0)
(0.325136 0.214356 0)
(0.297957 0.227832 0)
(0.26971 0.240933 0)
(0.239959 0.253524 0)
(0.208259 0.265036 0)
(0.174768 0.274878 0)
(0.139673 0.282606 0)
(0.104353 0.288022 0)
(0.0625146 0.2916 0)
(0.0235414 0.290145 0)
(2.95105 0.000735613 0)
(2.737 -0.000971266 0)
(2.18171 0.00563781 0)
(1.29491 0.0323976 0)
(0.504999 0.0449267 0)
(0.620637 0.0569666 0)
(0.734397 0.0602597 0)
(0.782283 0.0662099 0)
(0.781525 0.0756576 0)
(0.764507 0.0854883 0)
(0.743225 0.0944575 0)
(0.726465 0.10103 0)
(0.71375 0.104355 0)
(0.701443 0.104468 0)
(0.689153 0.10202 0)
(0.677305 0.0979748 0)
(0.666405 0.0935325 0)
(0.656727 0.0897143 0)
(0.646611 0.0869199 0)
(0.636291 0.0855634 0)
(0.627162 0.0855851 0)
(0.618322 0.0866447 0)
(0.608529 0.0883162 0)
(0.598389 0.0903908 0)
(0.588901 0.0925284 0)
(0.579019 0.0948033 0)
(0.568079 0.0972398 0)
(0.556198 0.099986 0)
(0.543817 0.103348 0)
(0.531118 0.10759 0)
(0.518054 0.112943 0)
(0.504565 0.119673 0)
(0.490873 0.127942 0)
(0.476828 0.137818 0)
(0.461816 0.149112 0)
(0.445401 0.161837 0)
(0.427267 0.175713 0)
(0.40715 0.190427 0)
(0.384986 0.20568 0)
(0.360932 0.221205 0)
(0.33531 0.236777 0)
(0.308429 0.252247 0)
(0.280344 0.267474 0)
(0.250529 0.282327 0)
(0.218436 0.296196 0)
(0.184148 0.308434 0)
(0.147692 0.31843 0)
(0.110639 0.325911 0)
(0.0667051 0.331293 0)
(0.0251605 0.33088 0)
(2.95021 0.000939466 0)
(2.73554 -0.000525644 0)
(2.20087 0.00709476 0)
(1.31444 0.0318398 0)
(0.510374 0.0506994 0)
(0.622044 0.0638382 0)
(0.732235 0.0662473 0)
(0.782142 0.072788 0)
(0.782172 0.0835553 0)
(0.764577 0.0944999 0)
(0.742695 0.104242 0)
(0.725415 0.111153 0)
(0.712439 0.114344 0)
(0.700165 0.114012 0)
(0.688078 0.110998 0)
(0.676525 0.106414 0)
(0.66598 0.101563 0)
(0.656524 0.0975131 0)
(0.646592 0.0946215 0)
(0.636562 0.0933029 0)
(0.627688 0.0934359 0)
(0.619026 0.0946511 0)
(0.609436 0.0964733 0)
(0.599522 0.0987005 0)
(0.590261 0.101054 0)
(0.580641 0.103572 0)
(0.569975 0.106243 0)
(0.558462 0.109275 0)
(0.546565 0.112973 0)
(0.534423 0.117639 0)
(0.52201 0.12348 0)
(0.509282 0.130783 0)
(0.496404 0.139741 0)
(0.483151 0.150424 0)
(0.468971 0.162688 0)
(0.453476 0.176521 0)
(0.436268 0.191674 0)
(0.417058 0.207854 0)
(0.395753 0.224766 0)
(0.372471 0.242151 0)
(0.347499 0.259775 0)
(0.321102 0.277497 0)
(0.293343 0.295169 0)
(0.263614 0.312657 0)
(0.231225 0.32938 0)
(0.196107 0.344563 0)
(0.1581 0.357448 0)
(0.11895 0.367642 0)
(0.0723012 0.375415 0)
(0.0273858 0.376466 0)
(2.95129 -8.77905e-05 0)
(2.73856 0.00262345 0)
(2.21807 0.00789686 0)
(1.33682 0.0296556 0)
(0.520033 0.0543807 0)
(0.622613 0.0694704 0)
(0.728205 0.0730154 0)
(0.780926 0.0809942 0)
(0.782208 0.0931214 0)
(0.764392 0.105019 0)
(0.742372 0.115264 0)
(0.724934 0.122266 0)
(0.711976 0.125027 0)
(0.700004 0.123998 0)
(0.688354 0.120248 0)
(0.677282 0.115034 0)
(0.667221 0.10973 0)
(0.658063 0.105411 0)
(0.648336 0.102399 0)
(0.638555 0.10109 0)
(0.629849 0.101301 0)
(0.621258 0.102638 0)
(0.611774 0.104592 0)
(0.602053 0.10697 0)
(0.593028 0.10955 0)
(0.58365 0.112326 0)
(0.573247 0.11523 0)
(0.562102 0.118544 0)
(0.550675 0.122573 0)
(0.539052 0.127627 0)
(0.527223 0.133938 0)
(0.515197 0.141789 0)
(0.503109 0.151408 0)
(0.490655 0.162882 0)
(0.477359 0.176116 0)
(0.462888 0.191072 0)
(0.446758 0.207541 0)
(0.428645 0.225251 0)
(0.408418 0.243927 0)
(0.386145 0.263323 0)
(0.362072 0.283221 0)
(0.33641 0.303471 0)
(0.309203 0.323986 0)
(0.279796 0.344565 0)
(0.247305 0.364732 0)
(0.211464 0.38363 0)
(0.171828 0.400288 0)
(0.130139 0.414175 0)
(0.0799863 0.425314 0)
(0.0305275 0.42857 0)
(2.95263 -2.18121e-05 0)
(2.74207 0.00129846 0)
(2.23473 0.00898028 0)
(1.3608 0.0295196 0)
(0.531654 0.0553661 0)
(0.623275 0.0738281 0)
(0.723516 0.0807268 0)
(0.779051 0.0904341 0)
(0.781867 0.103587 0)
(0.764166 0.116203 0)
(0.74223 0.126727 0)
(0.724498 0.133691 0)
(0.711049 0.135842 0)
(0.69877 0.133985 0)
(0.68693 0.129426 0)
(0.675811 0.123584 0)
(0.665921 0.117893 0)
(0.656999 0.113446 0)
(0.647697 0.110378 0)
(0.638615 0.10913 0)
(0.630641 0.109416 0)
(0.622707 0.110828 0)
(0.613881 0.112838 0)
(0.604868 0.11531 0)
(0.596494 0.118088 0)
(0.587632 0.121073 0)
(0.577701 0.124203 0)
(0.567114 0.12782 0)
(0.556281 0.13221 0)
(0.545265 0.137658 0)
(0.534067 0.144438 0)
(0.522745 0.15282 0)
(0.511433 0.163047 0)
(0.4998 0.175253 0)
(0.487424 0.189399 0)
(0.474032 0.20544 0)
(0.459102 0.223211 0)
(0.442262 0.242472 0)
(0.423339 0.262981 0)
(0.402354 0.284522 0)
(0.379478 0.306899 0)
(0.354917 0.329967 0)
(0.328627 0.35373 0)
(0.299904 0.377943 0)
(0.267726 0.402282 0)
(0.231391 0.425878 0)
(0.19018 0.447557 0)
(0.14564 0.466766 0)
(0.0909539 0.482928 0)
(0.0352689 0.48981 0)
(2.95252 0.000597106 0)
(2.74399 0.00340092 0)
(2.25145 0.00716547 0)
(1.38841 0.025383 0)
(0.548838 0.0583064 0)
(0.628115 0.0769988 0)
(0.720638 0.0879883 0)
(0.77664 0.100213 0)
(0.779912 0.114959 0)
(0.761695 0.128741 0)
(0.739436 0.139776 0)
(0.720957 0.146606 0)
(0.706521 0.14807 0)
(0.693637 0.145194 0)
(0.681435 0.13949 0)
(0.670255 0.132584 0)
(0.660748 0.126003 0)
(0.652381 0.120925 0)
(0.64396 0.117435 0)
(0.636225 0.115997 0)
(0.629649 0.116256 0)
(0.62301 0.117789 0)
(0.615437 0.120009 0)
(0.607696 0.122775 0)
(0.600388 0.125927 0)
(0.592319 0.129275 0)
(0.583122 0.132805 0)
(0.573314 0.136872 0)
(0.563236 0.141732 0)
(0.55296 0.147656 0)
(0.542507 0.154934 0)
(0.531965 0.16385 0)
(0.5215 0.174657 0)
(0.510763 0.187544 0)
(0.499389 0.202515 0)
(0.48718 0.219564 0)
(0.473592 0.238578 0)
(0.458223 0.259364 0)
(0.440866 0.281728 0)
(0.421493 0.305504 0)
(0.400203 0.33054 0)
(0.377198 0.356692 0)
(0.352324 0.384079 0)
(0.324854 0.412556 0)
(0.293648 0.441913 0)
(0.257494 0.471502 0)
(0.215253 0.499956 0)
(0.167797 0.526915 0)
(0.107502 0.551225 0)
(0.0428761 0.564613 0)
(2.95561 0.000825002 0)
(2.74822 0.00129187 0)
(2.26918 0.00500122 0)
(1.41629 0.0239201 0)
(0.56038 0.0634258 0)
(0.628107 0.0798318 0)
(0.71706 0.0943083 0)
(0.773629 0.110126 0)
(0.77752 0.127413 0)
(0.75915 0.142855 0)
(0.736953 0.15451 0)
(0.718485 0.160869 0)
(0.704163 0.161361 0)
(0.691817 0.157137 0)
(0.680365 0.149933 0)
(0.669997 0.141608 0)
(0.661302 0.133794 0)
(0.653507 0.127678 0)
(0.645589 0.123562 0)
(0.638463 0.121769 0)
(0.632424 0.121925 0)
(0.626257 0.12358 0)
(0.619239 0.126124 0)
(0.612245 0.129325 0)
(0.605655 0.132965 0)
(0.598217 0.136821 0)
(0.589735 0.140939 0)
(0.580754 0.145601 0)
(0.571511 0.151042 0)
(0.562075 0.157524 0)
(0.552484 0.16534 0)
(0.542841 0.174796 0)
(0.533338 0.186154 0)
(0.523624 0.199647 0)
(0.513382 0.215376 0)
(0.502508 0.233327 0)
(0.490461 0.253486 0)
(0.476811 0.275716 0)
(0.46134 0.299891 0)
(0.443996 0.325908 0)
(0.424765 0.353691 0)
(0.403898 0.383149 0)
(0.381212 0.414524 0)
(0.355871 0.447893 0)
(0.326755 0.48313 0)
(0.292029 0.519915 0)
(0.250181 0.558012 0)
(0.200829 0.596632 0)
(0.134075 0.63466 0)
(0.0563473 0.661792 0)
(2.95394 0.000669035 0)
(2.74738 -0.000201024 0)
(2.28583 0.00547429 0)
(1.43822 0.0287813 0)
(0.571393 0.0660193 0)
(0.627473 0.0827149 0)
(0.714344 0.100382 0)
(0.771103 0.120344 0)
(0.774769 0.140453 0)
(0.75597 0.157557 0)
(0.733976 0.169626 0)
(0.716043 0.175075 0)
(0.702612 0.174127 0)
(0.691519 0.168267 0)
(0.681466 0.159497 0)
(0.672437 0.149874 0)
(0.664847 0.141049 0)
(0.657807 0.134084 0)
(0.650423 0.129607 0)
(0.643649 0.127542 0)
(0.637738 0.127588 0)
(0.63159 0.129276 0)
(0.624684 0.132063 0)
(0.618029 0.13559 0)
(0.611854 0.139634 0)
(0.604917 0.143982 0)
(0.597136 0.148717 0)
(0.589007 0.154016 0)
(0.580693 0.160089 0)
(0.57224 0.167176 0)
(0.563685 0.175562 0)
(0.555127 0.185559 0)
(0.54677 0.197433 0)
(0.538307 0.211446 0)
(0.529417 0.227856 0)
(0.520082 0.246605 0)
(0.509833 0.267761 0)
(0.49821 0.291296 0)
(0.485003 0.317166 0)
(0.470157 0.345343 0)
(0.453606 0.375837 0)
(0.435652 0.408693 0)
(0.416158 0.444311 0)
(0.394132 0.482689 0)
(0.36851 0.524423 0)
(0.338213 0.570559 0)
(0.300241 0.621497 0)
(0.251896 0.677267 0)
(0.180759 0.739443 0)
(0.0835807 0.799758 0)
(2.956 0.000513102 0)
(2.75218 0.00219917 0)
(2.30509 0.00837005 0)
(1.46914 0.0274961 0)
(0.587228 0.067469 0)
(0.627995 0.0863588 0)
(0.713225 0.107978 0)
(0.769325 0.1318 0)
(0.771554 0.154631 0)
(0.75203 0.17291 0)
(0.729962 0.184692 0)
(0.712488 0.188685 0)
(0.700254 0.185813 0)
(0.690742 0.178015 0)
(0.682414 0.167598 0)
(0.675027 0.156759 0)
(0.668738 0.147122 0)
(0.662843 0.139634 0)
(0.656326 0.134992 0)
(0.649966 0.132866 0)
(0.644281 0.132954 0)
(0.638233 0.134732 0)
(0.631428 0.137773 0)
(0.625006 0.141606 0)
(0.619198 0.14597 0)
(0.612782 0.150754 0)
(0.605728 0.156035 0)
(0.598476 0.161919 0)
(0.591143 0.168581 0)
(0.583748 0.17624 0)
(0.576337 0.185166 0)
(0.568988 0.195671 0)
(0.561905 0.208009 0)
(0.554906 0.222441 0)
(0.547606 0.23942 0)
(0.539995 0.258872 0)
(0.531796 0.280851 0)
(0.522553 0.305481 0)
(0.512046 0.332813 0)
(0.500232 0.362932 0)
(0.487056 0.39593 0)
(0.472972 0.431991 0)
(0.457557 0.4712 0)
(0.440322 0.514485 0)
(0.421726 0.563647 0)
(0.400051 0.620403 0)
(0.371629 0.68652 0)
(0.333541 0.766616 0)
(0.271259 0.874176 0)
(0.147438 1.04151 0)
(2.95639 0.000590125 0)
(2.75537 0.00201803 0)
(2.32568 0.00867265 0)
(1.50356 0.0251856 0)
(0.601108 0.0661728 0)
(0.624871 0.0913477 0)
(0.708422 0.120164 0)
(0.763697 0.149411 0)
(0.76493 0.175228 0)
(0.745229 0.193698 0)
(0.724354 0.203318 0)
(0.708885 0.204157 0)
(0.699244 0.19795 0)
(0.692461 0.187293 0)
(0.686725 0.174807 0)
(0.681556 0.162726 0)
(0.676918 0.15249 0)
(0.672299 0.144864 0)
(0.666731 0.140229 0)
(0.660922 0.138336 0)
(0.655518 0.138714 0)
(0.649703 0.140785 0)
(0.643214 0.144206 0)
(0.637135 0.148514 0)
(0.631833 0.153314 0)
(0.626203 0.158653 0)
(0.620166 0.164562 0)
(0.614086 0.171107 0)
(0.608074 0.17843 0)
(0.602148 0.186739 0)
(0.596362 0.196279 0)
(0.590749 0.207341 0)
(0.585481 0.220216 0)
(0.580666 0.235104 0)
(0.57584 0.252476 0)
(0.570787 0.272516 0)
(0.565598 0.295203 0)
(0.559986 0.32079 0)
(0.55373 0.349422 0)
(0.546824 0.381243 0)
(0.539298 0.416397 0)
(0.5312 0.455329 0)
(0.523413 0.498421 0)
(0.517371 0.547286 0)
(0.513258 0.603827 0)
(0.511278 0.670138 0)
(0.51321 0.750185 0)
(0.527954 0.850861 0)
(0.586765 0.98474 0)
(0.659524 1.18056 0)
(2.95917 0.000462065 0)
(2.76124 0.00155061 0)
(2.34996 0.00930513 0)
(1.54181 0.0268557 0)
(0.61343 0.0687499 0)
(0.619805 0.103277 0)
(0.700391 0.13952 0)
(0.754596 0.172344 0)
(0.755899 0.197642 0)
(0.738237 0.213083 0)
(0.721137 0.218251 0)
(0.710051 0.214777 0)
(0.70453 0.205112 0)
(0.701261 0.192237 0)
(0.698316 0.178688 0)
(0.695098 0.166347 0)
(0.691495 0.156358 0)
(0.687346 0.1492 0)
(0.681979 0.145111 0)
(0.676025 0.143756 0)
(0.670165 0.144611 0)
(0.66396 0.14716 0)
(0.657334 0.151026 0)
(0.651169 0.155789 0)
(0.646076 0.161029 0)
(0.641118 0.166822 0)
(0.635996 0.173168 0)
(0.63105 0.180136 0)
(0.626386 0.187867 0)
(0.622007 0.196567 0)
(0.617951 0.206487 0)
(0.614284 0.217876 0)
(0.611054 0.231044 0)
(0.60841 0.246188 0)
(0.606207 0.263584 0)
(0.604066 0.28381 0)
(0.602123 0.306819 0)
(0.600366 0.332763 0)
(0.5985 0.36185 0)
(0.596535 0.394288 0)
(0.594938 0.430332 0)
(0.594531 0.470368 0)
(0.596334 0.515433 0)
(0.601871 0.566314 0)
(0.613036 0.624235 0)
(0.632854 0.691328 0)
(0.666851 0.770321 0)
(0.723286 0.864418 0)
(0.834579 0.973564 0)
(0.983317 1.08755 0)
(2.95874 0.00084001 0)
(2.76432 0.0015536 0)
(2.37151 0.0122058 0)
(1.57476 0.0324369 0)
(0.617202 0.0811716 0)
(0.607871 0.124499 0)
(0.685211 0.16525 0)
(0.739818 0.196664 0)
(0.744645 0.216446 0)
(0.732836 0.225101 0)
(0.722312 0.224205 0)
(0.717316 0.21634 0)
(0.716765 0.204327 0)
(0.717411 0.190848 0)
(0.7172 0.177974 0)
(0.71567 0.166979 0)
(0.712816 0.158541 0)
(0.708812 0.152848 0)
(0.703132 0.150022 0)
(0.6963 0.149594 0)
(0.689308 0.151144 0)
(0.681999 0.15424 0)
(0.674441 0.158465 0)
(0.66752 0.163392 0)
(0.662044 0.168819 0)
(0.657205 0.174703 0)
(0.652596 0.181104 0)
(0.648528 0.188125 0)
(0.645098 0.19594 0)
(0.642306 0.204789 0)
(0.640123 0.214893 0)
(0.638553 0.22649 0)
(0.637602 0.239806 0)
(0.637322 0.255099 0)
(0.637974 0.272571 0)
(0.639089 0.292607 0)
(0.640427 0.315555 0)
(0.642378 0.341242 0)
(0.644913 0.369967 0)
(0.648137 0.402018 0)
(0.652459 0.437687 0)
(0.659253 0.477229 0)
(0.669841 0.521021 0)
(0.685739 0.569786 0)
(0.709539 0.623992 0)
(0.744723 0.684337 0)
(0.796662 0.750955 0)
(0.87073 0.822705 0)
(0.984089 0.894877 0)
(1.11941 0.948157 0)
(2.96161 0.00227794 0)
(2.76894 0.00410269 0)
(2.40812 0.015961 0)
(1.6291 0.0507929 0)
(0.617794 0.114282 0)
(0.595422 0.161155 0)
(0.672379 0.196945 0)
(0.730453 0.218114 0)
(0.742323 0.226696 0)
(0.739742 0.226058 0)
(0.737665 0.219062 0)
(0.738952 0.208262 0)
(0.742489 0.196015 0)
(0.745531 0.184155 0)
(0.746509 0.174007 0)
(0.74507 0.166164 0)
(0.74139 0.160821 0)
(0.736105 0.157929 0)
(0.728811 0.157297 0)
(0.720062 0.158528 0)
(0.711146 0.161215 0)
(0.70202 0.16492 0)
(0.692777 0.169236 0)
(0.68458 0.17387 0)
(0.678356 0.178754 0)
(0.673233 0.183909 0)
(0.668864 0.189472 0)
(0.665523 0.195671 0)
(0.663332 0.20279 0)
(0.662197 0.211113 0)
(0.662004 0.220859 0)
(0.662701 0.232271 0)
(0.664249 0.245485 0)
(0.666663 0.260706 0)
(0.670001 0.278089 0)
(0.674259 0.297665 0)
(0.678968 0.31991 0)
(0.684351 0.344873 0)
(0.690993 0.372577 0)
(0.698937 0.403261 0)
(0.708679 0.437128 0)
(0.721271 0.474371 0)
(0.73845 0.514739 0)
(0.761806 0.558621 0)
(0.793203 0.605828 0)
(0.835578 0.655866 0)
(0.892484 0.707539 0)
(0.966528 0.758069 0)
(1.06836 0.803378 0)
(1.18145 0.829656 0)
(2.96632 0.00295042 0)
(2.77887 0.009283 0)
(2.47709 0.0299335 0)
(1.7163 0.0753901 0)
(0.60667 0.159295 0)
(0.566459 0.192081 0)
(0.645937 0.208982 0)
(0.712248 0.213987 0)
(0.735965 0.211827 0)
(0.745868 0.20506 0)
(0.754103 0.196723 0)
(0.762888 0.187882 0)
(0.771492 0.179755 0)
(0.777769 0.17313 0)
(0.78031 0.168426 0)
(0.778927 0.16562 0)
(0.774151 0.16455 0)
(0.7668 0.165168 0)
(0.75685 0.166965 0)
(0.745227 0.169941 0)
(0.733391 0.173667 0)
(0.721529 0.177699 0)
(0.710011 0.18169 0)
(0.700083 0.185533 0)
(0.692675 0.189313 0)
(0.686939 0.193051 0)
(0.682549 0.197061 0)
(0.679864 0.201758 0)
(0.678937 0.207571 0)
(0.679567 0.214804 0)
(0.681592 0.223754 0)
(0.684811 0.234632 0)
(0.689071 0.247506 0)
(0.694339 0.26247 0)
(0.700497 0.27955 0)
(0.707608 0.298737 0)
(0.715613 0.32014 0)
(0.72446 0.344013 0)
(0.734622 0.370251 0)
(0.746513 0.398924 0)
(0.760541 0.430093 0)
(0.777453 0.463777 0)
(0.798916 0.499813 0)
(0.826453 0.537741 0)
(0.861229 0.577165 0)
(0.905363 0.617155 0)
(0.961186 0.65631 0)
(1.03042 0.69214 0)
(1.11692 0.721683 0)
(1.20951 0.736569 0)
(2.97708 0.000820044 0)
(2.80508 -0.0158456 0)
(2.54969 0.106738 0)
(1.79917 0.0443583 0)
(0.589701 0.282832 0)
(0.515092 0.274551 0)
(0.616054 0.236801 0)
(0.705066 0.206781 0)
(0.745232 0.187112 0)
(0.76631 0.173159 0)
(0.782047 0.164614 0)
(0.794926 0.15973 0)
(0.80611 0.158209 0)
(0.813773 0.159562 0)
(0.816475 0.163106 0)
(0.813833 0.168173 0)
(0.806699 0.174057 0)
(0.795948 0.180028 0)
(0.782215 0.185586 0)
(0.76712 0.190888 0)
(0.751928 0.195425 0)
(0.737077 0.198914 0)
(0.723132 0.201268 0)
(0.711578 0.202786 0)
(0.702988 0.203854 0)
(0.696394 0.204575 0)
(0.691866 0.205581 0)
(0.689772 0.207499 0)
(0.690054 0.210879 0)
(0.692459 0.216099 0)
(0.696792 0.223505 0)
(0.702672 0.233273 0)
(0.709835 0.245429 0)
(0.718135 0.259921 0)
(0.727338 0.276632 0)
(0.737494 0.29546 0)
(0.748544 0.316322 0)
(0.760469 0.339118 0)
(0.773731 0.363849 0)
(0.788719 0.390358 0)
(0.805855 0.418582 0)
(0.825918 0.448457 0)
(0.849994 0.479847 0)
(0.879232 0.512039 0)
(0.914672 0.544444 0)
(0.957698 0.576154 0)
(1.00977 0.605875 0)
(1.07177 0.631623 0)
(1.14554 0.651143 0)
(1.22238 0.660819 0)
(2.94318 0.0023948 0)
(2.93817 -0.00764023 0)