/*--------------------------------*- C++ -*----------------------------------*\
| =========                 |                                                 |
| \\      /  F ield         | OpenFOAM: The Open Source CFD Toolbox           |
|  \\    /   O peration     | Version:  2412                                  |
|   \\  /    A nd           | Website:  www.openfoam.com                      |
|    \\/     M anipulation  |                                                 |
\*---------------------------------------------------------------------------*/
FoamFile
{
    version     2.0;
    format      ascii;
    arch        "LSB;label=32;scalar=64";
    class       volScalarField;
    location    "22.5";
    object      Ma;
}
// * * * * * * * * * * * * * * * * * * * * * * * * * * * * * * * * * * * * * //

dimensions      [0 0 0 0 0 0 0];

internalField   nonuniform List<scalar> 
7000
(
2.25601
0.99423
0.300564
0.338439
0.401064
0.442393
0.450601
0.446132
0.439777
0.434867
0.432021
0.429749
0.42715
0.424062
0.420591
0.416816
0.41275
0.408371
0.40366
0.398599
0.393178
0.38738
0.381194
0.374602
0.367589
0.360136
0.352227
0.343841
0.33496
0.325562
0.315628
0.305136
0.294066
0.282397
0.27011
0.257187
0.243613
0.229375
0.214467
0.198885
0.182635
0.165728
0.148191
0.130055
0.111369
0.0921936
0.0725916
0.0528476
0.0319235
0.0155246
2.25607
0.994291
0.300362
0.338274
0.400909
0.442245
0.450454
0.445987
0.439639
0.434736
0.431894
0.429626
0.42703
0.423946
0.42048
0.41671
0.412649
0.408276
0.403571
0.398518
0.393103
0.387314
0.381137
0.374554
0.367552
0.36011
0.352214
0.343841
0.334976
0.325594
0.315679
0.305207
0.294159
0.282514
0.270254
0.25736
0.243818
0.229616
0.214748
0.19921
0.183012
0.166166
0.148703
0.130661
0.112104
0.0931183
0.0738199
0.0546563
0.0351577
0.0220575
2.2562
0.994488
0.300494
0.338308
0.400939
0.442278
0.450487
0.446027
0.439696
0.434804
0.431977
0.429712
0.427128
0.42405
0.420597
0.416835
0.41279
0.408426
0.403739
0.398697
0.393304
0.387529
0.381376
0.374813
0.367838
0.360421
0.352558
0.344216
0.33539
0.326047
0.31618
0.305756
0.294766
0.283181
0.270992
0.258174
0.24472
0.230616
0.21586
0.200453
0.184405
0.167743
0.150501
0.132746
0.114566
0.0961176
0.0776346
0.0598404
0.0430414
0.0335726
2.25637
0.994794
0.300765
0.338386
0.40102
0.442378
0.45059
0.446144
0.439827
0.434963
0.432146
0.429901
0.427323
0.424268
0.420825
0.417089
0.413056
0.408723
0.404051
0.399043
0.393669
0.387935
0.381805
0.375289
0.368345
0.360983
0.353159
0.344883
0.336106
0.326841
0.317037
0.306706
0.295796
0.284324
0.272237
0.259555
0.246235
0.232298
0.217719
0.202525
0.186721
0.170348
0.153464
0.136149
0.118556
0.100897
0.0835513
0.0674581
0.0533033
0.0461809
2.25662
0.995225
0.301115
0.338455
0.401105
0.442499
0.45072
0.446295
0.439989
0.435167
0.43236
0.430148
0.427579
0.424558
0.42113
0.417433
0.413419
0.409127
0.404481
0.399519
0.394179
0.388496
0.382411
0.375953
0.369067
0.361771
0.35402
0.345821
0.337136
0.327962
0.318272
0.308049
0.297282
0.285941
0.274031
0.261512
0.248411
0.234685
0.220381
0.205467
0.190018
0.174039
0.157641
0.140922
0.124073
0.10741
0.0913726
0.0770299
0.0651089
0.0594948
2.25695
0.995797
0.301558
0.338527
0.401201
0.442644
0.450889
0.446465
0.440219
0.435402
0.432655
0.430441
0.427929
0.424909
0.421545
0.417852
0.413909
0.409627
0.405059
0.400115
0.394861
0.389206
0.383219
0.376801
0.370025
0.362787
0.355161
0.347041
0.338498
0.32943
0.319902
0.309821
0.29924
0.288084
0.276391
0.264113
0.251272
0.237854
0.223872
0.209362
0.194334
0.178895
0.163089
0.147118
0.131167
0.115613
0.100985
0.088298
0.0781884
0.0736203
2.25737
0.996524
0.302101
0.338602
0.401308
0.442822
0.451093
0.446697
0.44048
0.435713
0.432995
0.430825
0.428338
0.425368
0.422033
0.4184
0.41449
0.410278
0.405748
0.400886
0.395679
0.390122
0.384191
0.377892
0.371185
0.364089
0.35655
0.348599
0.340167
0.3313
0.321915
0.312071
0.301676
0.290798
0.279349
0.267397
0.254875
0.241847
0.228283
0.214248
0.199774
0.18494
0.169889
0.154752
0.139834
0.12548
0.112235
0.101079
0.0924452
0.0886257
2.25788
0.997415
0.302753
0.338683
0.401428
0.443032
0.451341
0.446978
0.440799
0.436088
0.433409
0.431288
0.42884
0.425922
0.422634
0.419061
0.415208
0.411063
0.406602
0.401817
0.396695
0.391228
0.385402
0.379207
0.372631
0.365656
0.358279
0.350472
0.342241
0.333547
0.324409
0.314775
0.304684
0.294068
0.282989
0.271369
0.259292
0.246694
0.233667
0.220193
0.206377
0.192284
0.17805
0.163897
0.150054
0.136959
0.125075
0.115264
0.107843
0.104623
2.2585
0.998485
0.303523
0.338771
0.401564
0.443278
0.451637
0.447307
0.441189
0.436529
0.433909
0.431834
0.429444
0.426579
0.423358
0.419846
0.416069
0.411997
0.407624
0.402928
0.397909
0.392549
0.386846
0.380783
0.374353
0.367541
0.360338
0.352732
0.344708
0.336262
0.327373
0.318047
0.308253
0.298018
0.287298
0.276152
0.264521
0.252504
0.240043
0.227277
0.21419
0.200958
0.187672
0.174548
0.161897
0.150029
0.139453
0.13089
0.124493
0.121716
2.25922
0.999744
0.30442
0.338869
0.401718
0.443567
0.451985
0.447708
0.441641
0.437061
0.434489
0.432488
0.430148
0.427363
0.424202
0.42078
0.417076
0.413106
0.408821
0.404243
0.399332
0.394111
0.388541
0.382641
0.376375
0.369758
0.362758
0.355385
0.347611
0.339446
0.330865
0.321878
0.312466
0.302639
0.292394
0.281739
0.270698
0.259277
0.247546
0.235514
0.223323
0.211002
0.198787
0.186795
0.175339
0.164785
0.15544
0.147991
0.142491
0.140146
2.26006
1.00121
0.305453
0.338977
0.401894
0.443899
0.452396
0.448164
0.44219
0.437668
0.435185
0.433236
0.430987
0.428263
0.425204
0.421856
0.418264
0.414384
0.410228
0.40576
0.401
0.395914
0.390521
0.384789
0.378733
0.372324
0.365573
0.358457
0.350983
0.343134
0.334914
0.326316
0.317341
0.307995
0.29828
0.288218
0.277818
0.267129
0.256174
0.24504
0.233782
0.222547
0.211439
0.200705
0.190518
0.181223
0.173165
0.166808
0.162135
0.160099
2.26102
1.00288
0.30663
0.339101
0.402094
0.444287
0.452872
0.448716
0.442812
0.438396
0.435974
0.434126
0.431941
0.429327
0.426344
0.423119
0.419618
0.415877
0.411833
0.407526
0.402902
0.398006
0.392782
0.387274
0.381426
0.375283
0.368791
0.361992
0.354837
0.347369
0.339544
0.331404
0.322916
0.314123
0.30501
0.295616
0.285958
0.276075
0.266029
0.25586
0.245698
0.2356
0.225772
0.216328
0.20754
0.199609
0.192764
0.18749
0.183631
0.182025
2.2621
1.00478
0.30796
0.339244
0.402324
0.444727
0.453425
0.449342
0.443555
0.439223
0.436906
0.435135
0.43306
0.430533
0.427673
0.424549
0.421189
0.417567
0.413686
0.409524
0.405092
0.400372
0.395377
0.390083
0.384509
0.378629
0.372464
0.365989
0.359228
0.352157
0.344807
0.337156
0.329243
0.321051
0.312633
0.303978
0.29516
0.286183
0.277142
0.268078
0.259098
0.250317
0.241832
0.233866
0.226515
0.220066
0.214646
0.210545
0.207569
0.206266
2.26331
1.0069
0.309444
0.339398
0.402596
0.445223
0.45406
0.450072
0.444404
0.440188
0.437967
0.436303
0.434329
0.431922
0.429176
0.426189
0.422961
0.419499
0.415773
0.411801
0.407555
0.403062
0.39829
0.39327
0.387967
0.382416
0.376582
0.370503
0.364147
0.357554
0.350701
0.343627
0.336325
0.328831
0.321162
0.313355
0.305451
0.2975
0.289566
0.281733
0.274079
0.266731
0.259806
0.253423
0.247781
0.24293
0.239023
0.236289
0.234367
0.233714
2.26464
1.00923
0.311083
0.339557
0.402922
0.445782
0.454789
0.450915
0.445381
0.441297
0.439181
0.437636
0.435774
0.4335
0.430883
0.428043
0.424966
0.421674
0.418129
0.414355
0.410329
0.406071
0.401567
0.396826
0.39185
0.386634
0.381197
0.375523
0.36965
0.363549
0.357283
0.35081
0.344218
0.337464
0.330652
0.323757
0.316886
0.310056
0.303366
0.296887
0.290718
0.284971
0.279766
0.275238
0.27148
0.268669
0.266695
0.265723
0.265192
0.265157
2.26611
1.01181
0.312886
0.339754
0.403286
0.446428
0.455633
0.451886
0.44653
0.442567
0.440587
0.43915
0.437433
0.43528
0.432826
0.430126
0.427234
0.424107
0.420779
0.417205
0.413434
0.40942
0.405219
0.400778
0.396162
0.391315
0.386308
0.381088
0.375727
0.370188
0.364532
0.358754
0.352897
0.346997
0.341077
0.335225
0.32945
0.323882
0.318545
0.313586
0.309076
0.305155
0.301927
0.299523
0.298082
0.297583
0.298079
0.299508
0.301153
0.302678
2.26769
1.0146
0.314847
0.339983
0.403706
0.447181
0.456615
0.45302
0.447866
0.444037
0.442198
0.440881
0.439314
0.4373
0.435014
0.432474
0.429772
0.426838
0.423729
0.42039
0.416877
0.41315
0.409255
0.405165
0.400913
0.396493
0.391925
0.387223
0.382395
0.377482
0.37248
0.367455
0.362405
0.357411
0.352494
0.347733
0.343201
0.33896
0.335151
0.331832
0.32918
0.327315
0.326394
0.326518
0.327918
0.330658
0.334524
0.339629
0.344729
0.348727
2.26937
1.0176
0.31695
0.340248
0.404194
0.448066
0.457765
0.454365
0.449411
0.44576
0.44404
0.442879
0.441442
0.439605
0.437465
0.435126
0.432595
0.429893
0.426992
0.423927
0.42067
0.417267
0.413687
0.409981
0.406118
0.402154
0.398064
0.393905
0.389667
0.385401
0.381125
0.37688
0.372721
0.36868
0.364852
0.361272
0.358066
0.35531
0.353124
0.351689
0.351064
0.35151
0.353203
0.356413
0.361332
0.368071
0.376903
0.387636
0.399371
0.409975
2.27114
1.02075
0.319174
0.340564
0.404775
0.449111
0.459123
0.455942
0.45122
0.447744
0.446156
0.445144
0.443858
0.442194
0.440231
0.438084
0.435762
0.433283
0.430635
0.427833
0.424882
0.421792
0.418582
0.415252
0.411836
0.408326
0.404774
0.401166
0.397573
0.393982
0.390481
0.387067
0.383838
0.380826
0.378124
0.375822
0.374001
0.372847
0.372426
0.372926
0.374591
0.377708
0.38263
0.389498
0.398925
0.411253
0.42695
0.44711
0.470993
0.4986
2.27296
1.02399
0.321454
0.340943
0.405484
0.450372
0.460767
0.45783
0.453395
0.450063
0.448622
0.447727
0.446613
0.445095
0.44333
0.441355
0.439262
0.436997
0.434621
0.432086
0.429458
0.426699
0.423873
0.42095
0.417989
0.414977
0.411966
0.408966
0.40602
0.403169
0.400447
0.397934
0.395654
0.393735
0.392208
0.391246
0.390887
0.391316
0.392701
0.395387
0.399593
0.40569
0.413895
0.425056
0.439623
0.459161
0.485086
0.520599
0.571931
0.664909
2.27504
1.02772
0.323984
0.341215
0.406282
0.45197
0.462919
0.460354
0.456268
0.453164
0.451881
0.451208
0.450309
0.449067
0.447548
0.445887
0.444081
0.442182
0.440153
0.438052
0.435844
0.433599
0.431281
0.428967
0.426622
0.424333
0.422068
0.419927
0.417887
0.416058
0.41444
0.413147
0.412219
0.411777
0.411919
0.412691
0.414253
0.417019
0.42121
0.426901
0.434593
0.444563
0.457835
0.474821
0.497608
0.527615
0.569598
0.631153
0.729831
0.881487
2.27725
1.0317
0.326994
0.342166
0.408012
0.454839
0.466508
0.464323
0.460556
0.457509
0.456269
0.455686
0.454948
0.453882
0.452583
0.451148
0.449624
0.448021
0.446353
0.444626
0.442866
0.441081
0.439307
0.437551
0.43586
0.43424
0.432758
0.431418
0.43031
0.429443
0.428935
0.428804
0.429168
0.43005
0.431687
0.434276
0.437989
0.442907
0.449472
0.457796
0.468596
0.482309
0.499816
0.522627
0.551797
0.59136
0.643918
0.718041
0.828988
0.967149
2.27853
1.03401
0.328866
0.343226
0.410176
0.458585
0.471233
0.469546
0.466106
0.463081
0.461876
0.461411
0.460838
0.459951
0.45884
0.457612
0.456322
0.454985
0.453617
0.452227
0.450842
0.449478
0.448169
0.446933
0.445811
0.44483
0.444039
0.443477
0.443207
0.443296
0.443754
0.444658
0.446243
0.448649
0.45187
0.456158
0.461593
0.468583
0.477199
0.488166
0.5015
0.518498
0.539216
0.565774
0.599049
0.641718
0.697377
0.767762
0.864177
0.967494
2.27969
1.03613
0.33218
0.346924
0.41504
0.464999
0.478243
0.476428
0.472638
0.469264
0.467985
0.467625
0.467214
0.466503
0.465598
0.4646
0.463595
0.462569
0.461557
0.460545
0.459582
0.458662
0.457839
0.457116
0.456551
0.456161
0.456016
0.456129
0.456546
0.457357
0.45873
0.460712
0.463361
0.46685
0.471243
0.476845
0.483684
0.492273
0.502623
0.515409
0.53089
0.549722
0.572843
0.600705
0.635329
0.677103
0.728933
0.790956
0.868878
0.949927
2.27613
1.02973
0.334321
0.356827
0.427463
0.479826
0.493329
0.49053
0.485528
0.48128
0.479622
0.479067
0.478494
0.477625
0.476565
0.475472
0.474408
0.473384
0.472408
0.471497
0.470671
0.469961
0.469383
0.468984
0.468789
0.468827
0.469098
0.469767
0.470846
0.472449
0.474544
0.477332
0.48078
0.485176
0.490486
0.497081
0.504982
0.514561
0.526089
0.539795
0.55636
0.575917
0.599485
0.627371
0.660597
0.70006
0.746342
0.800711
0.864217
0.928798
2.28205
1.02258
0.358774
0.382364
0.448483
0.498377
0.51029
0.506538
0.500796
0.496413
0.494711
0.494022
0.493323
0.492374
0.491308
0.490231
0.489199
0.488202
0.487265
0.486385
0.485608
0.484934
0.484421
0.484038
0.483908
0.484063
0.484609
0.485474
0.486865
0.488712
0.491263
0.494408
0.498493
0.503357
0.509468
0.516594
0.525362
0.535466
0.547714
0.56183
0.57865
0.598181
0.621064
0.647793
0.678653
0.714598
0.755569
0.802443
0.855637
0.909198
1.87634
0.772032
0.273292
0.34412
0.417746
0.441223
0.441133
0.437152
0.433509
0.433414
0.435589
0.438477
0.441478
0.444521
0.44766
0.450908
0.454227
0.45757
0.460908
0.464224
0.467499
0.470679
0.473822
0.476962
0.480155
0.483336
0.486627
0.489948
0.493571
0.49738
0.501682
0.506373
0.511807
0.517906
0.525028
0.533163
0.542614
0.553552
0.566091
0.580731
0.597307
0.616696
0.638465
0.663793
0.69207
0.724544
0.760531
0.801006
0.845815
0.890559
1.86891
0.77142
0.282194
0.355352
0.428329
0.447789
0.44332
0.435961
0.430303
0.428407
0.428319
0.428722
0.429322
0.430227
0.431574
0.433356
0.435614
0.438221
0.441298
0.444724
0.448609
0.452676
0.457153
0.461798
0.466831
0.471986
0.477525
0.483254
0.489346
0.495671
0.502403
0.509475
0.517035
0.525172
0.533969
0.543718
0.554319
0.566341
0.579533
0.594604
0.611252
0.630232
0.651273
0.675031
0.701369
0.730677
0.76299
0.798116
0.836519
0.874195
1.86795
0.770107
0.284327
0.365066
0.443615
0.463692
0.457509
0.448135
0.441128
0.438395
0.437496
0.436898
0.43631
0.435907
0.43582
0.43609
0.43672
0.437724
0.439256
0.44124
0.443728
0.446645
0.450163
0.454167
0.458799
0.463943
0.46967
0.475923
0.482714
0.490085
0.497961
0.50655
0.515638
0.525591
0.536011
0.547455
0.559513
0.572785
0.586954
0.602629
0.619556
0.638289
0.658706
0.681206
0.705741
0.732551
0.761592
0.792795
0.82641
0.858939
1.86943
0.773388
0.29012
0.367281
0.443686
0.464289
0.45907
0.450552
0.443973
0.441608
0.441133
0.440955
0.440738
0.440627
0.440712
0.441017
0.441605
0.442513
0.443701
0.445184
0.446987
0.449222
0.451862
0.455073
0.458759
0.463139
0.468052
0.473772
0.480045
0.487243
0.494988
0.503748
0.513053
0.523425
0.534436
0.54657
0.55948
0.57358
0.588576
0.604832
0.622194
0.640933
0.661019
0.682668
0.705851
0.730699
0.757147
0.785243
0.815032
0.843682
1.87254
0.780068
0.297802
0.361239
0.429062
0.450302
0.448019
0.441954
0.436345
0.43447
0.434507
0.435038
0.435625
0.43634
0.437232
0.438404
0.439864
0.441549
0.443419
0.445527
0.447871
0.450534
0.453492
0.456862
0.460599
0.464876
0.469592
0.475001
0.480928
0.4877
0.495079
0.503403
0.51244
0.522486
0.533355
0.545267
0.558091
0.572009
0.586947
0.603049
0.620275
0.638759
0.658404
0.679348
0.701468
0.724942
0.749552
0.775276
0.802292
0.82813
1.88112
0.786648
0.300052
0.349027
0.412192
0.441238
0.44421
0.439524
0.434372
0.43209
0.431845
0.432368
0.433087
0.434006
0.435103
0.436436
0.438032
0.439887
0.442001
0.444397
0.447072
0.450079
0.453389
0.457089
0.461126
0.465644
0.47055
0.476051
0.482011
0.488685
0.49593
0.503988
0.512755
0.522412
0.532898
0.544365
0.556741
0.57016
0.584555
0.600046
0.616561
0.634209
0.652909
0.672759
0.69366
0.715645
0.738569
0.762393
0.787211
0.810861
2.26311
1.10605
0.407225
0.39919
0.45937
0.508066
0.519358
0.514467
0.507544
0.501495
0.497979
0.495507
0.493395
0.491377
0.489349
0.487377
0.485652
0.484163
0.483015
0.482168
0.481739
0.48169
0.482144
0.483077
0.484558
0.486623
0.489307
0.492667
0.496708
0.501518
0.507076
0.513489
0.520733
0.528926
0.538021
0.548148
0.559236
0.571405
0.584579
0.598864
0.614154
0.630549
0.647925
0.666335
0.68569
0.70598
0.727106
0.748986
0.771699
0.793307
2.27253
1.12794
0.391701
0.377135
0.449999
0.510716
0.529116
0.528234
0.524011
0.520208
0.518766
0.51839
0.518374
0.518335
0.51792
0.517291
0.516619
0.51599
0.515422
0.514947
0.51458
0.514385
0.514383
0.514656
0.515238
0.516209
0.517605
0.519537
0.522001
0.525152
0.528939
0.533553
0.538912
0.545196
0.552335
0.560466
0.569561
0.579715
0.590913
0.603185
0.616558
0.630979
0.646477
0.662955
0.680384
0.698696
0.717798
0.737594
0.758152
0.777718
2.29745
1.17666
0.434281
0.384001
0.447096
0.503389
0.521868
0.522896
0.521071
0.519886
0.520305
0.521537
0.523332
0.525133
0.526541
0.527741
0.528865
0.530012
0.531161
0.532341
0.533528
0.534772
0.536065
0.537467
0.538981
0.540679
0.542576
0.544748
0.54724
0.550119
0.553452
0.557289
0.561731
0.566804
0.572632
0.579222
0.586694
0.595032
0.604338
0.614584
0.625817
0.638007
0.651183
0.665328
0.680415
0.696415
0.713229
0.730703
0.748926
0.766309
1.90075
0.805038
0.305824
0.31689
0.374005
0.41489
0.429172
0.432999
0.435822
0.439474
0.444406
0.450153
0.456591
0.463086
0.469264
0.475261
0.481227
0.48719
0.493135
0.49902
0.504844
0.510582
0.516257
0.521844
0.527381
0.532843
0.538299
0.543719
0.549197
0.554721
0.560365
0.566173
0.572209
0.578541
0.585219
0.592345
0.599943
0.608134
0.616907
0.626397
0.63656
0.647534
0.659229
0.671753
0.68499
0.698957
0.71359
0.728915
0.74493
0.760246
2.30596
1.1938
0.449624
0.386646
0.440669
0.492241
0.509242
0.509303
0.506157
0.50368
0.502422
0.502237
0.502692
0.503088
0.503412
0.503916
0.504741
0.506017
0.507713
0.509871
0.512445
0.515486
0.518948
0.522875
0.527188
0.531947
0.537032
0.542535
0.548295
0.554431
0.560816
0.567557
0.574536
0.581876
0.589468
0.597451
0.605741
0.614468
0.623573
0.633171
0.643229
0.653831
0.66496
0.676651
0.688911
0.701724
0.715096
0.728939
0.743341
0.757061
2.3112
1.20377
0.432924
0.369737
0.438378
0.500637
0.522091
0.523504
0.521285
0.519814
0.519942
0.521073
0.522803
0.524307
0.525332
0.526179
0.527013
0.527962
0.529037
0.530325
0.531834
0.533649
0.535756
0.538241
0.541089
0.544364
0.548059
0.552213
0.556826
0.56191
0.567466
0.57348
0.57996
0.586879
0.594271
0.602076
0.610346
0.619004
0.628131
0.637631
0.647608
0.657953
0.668789
0.679992
0.691683
0.703737
0.716249
0.729083
0.742364
0.754967
2.31392
1.2096
0.4371
0.371778
0.441505
0.50536
0.527737
0.529418
0.527254
0.525907
0.526379
0.527896
0.530166
0.532359
0.534078
0.535607
0.537134
0.538766
0.540497
0.542359
0.544347
0.546494
0.548815
0.551344
0.554112
0.557146
0.560487
0.564149
0.568184
0.572593
0.577433
0.582689
0.58842
0.594593
0.601262
0.608388
0.616014
0.624097
0.632665
0.641684
0.651162
0.661078
0.671419
0.682175
0.693308
0.704829
0.716669
0.728846
0.741349
0.753239
2.31691
1.21732
0.46347
0.387837
0.447103
0.506231
0.528791
0.532022
0.531144
0.530773
0.531666
0.533594
0.536133
0.538431
0.540457
0.542361
0.544319
0.54636
0.548538
0.550819
0.55325
0.555801
0.558526
0.561398
0.564475
0.567734
0.571237
0.574963
0.578976
0.583261
0.587879
0.592824
0.598145
0.603843
0.609947
0.616465
0.62341
0.630801
0.63863
0.64692
0.655638
0.664813
0.674396
0.684413
0.694801
0.705578
0.71667
0.728079
0.739822
0.750999
1.90563
0.81359
0.324724
0.323678
0.376479
0.414371
0.427259
0.430301
0.432592
0.435933
0.440704
0.446615
0.453342
0.46016
0.46687
0.47353
0.480264
0.487059
0.493924
0.500803
0.507701
0.51458
0.521456
0.528306
0.53515
0.541979
0.548818
0.555664
0.562543
0.569464
0.576446
0.583518
0.590692
0.59801
0.605478
0.613148
0.621015
0.629136
0.6375
0.646149
0.655073
0.6643
0.673813
0.683637
0.693747
0.704153
0.714829
0.725765
0.737011
0.747687
2.312
1.20863
0.464987
0.403508
0.466211
0.527396
0.549324
0.550252
0.546108
0.542276
0.540069
0.538697
0.538102
0.537706
0.536972
0.53625
0.535684
0.535531
0.535719
0.536407
0.53752
0.539133
0.541214
0.543803
0.546862
0.550419
0.554432
0.558928
0.563848
0.569217
0.574978
0.581139
0.587647
0.594514
0.601699
0.609208
0.617013
0.625116
0.633495
0.642161
0.651097
0.660311
0.669793
0.679539
0.689536
0.699772
0.710233
0.720897
0.731825
0.742188
2.29405
1.16961
0.460088
0.4227
0.485806
0.546203
0.566089
0.566128
0.562408
0.559171
0.558415
0.558818
0.559904
0.561168
0.56204
0.562679
0.56327
0.563928
0.564664
0.565487
0.566408
0.567472
0.568724
0.570208
0.571956
0.574014
0.576398
0.579141
0.582259
0.585774
0.589689
0.594027
0.598791
0.60399
0.609619
0.615678
0.622156
0.629045
0.636332
0.644001
0.652034
0.660413
0.669117
0.67813
0.687446
0.697032
0.706888
0.716975
0.727346
0.737199
1.88784
0.805076
0.340789
0.355368
0.406344
0.443123
0.452857
0.452686
0.45175
0.452602
0.455916
0.46054
0.46608
0.472145
0.478235
0.484356
0.490573
0.496894
0.50327
0.509658
0.51602
0.522346
0.528623
0.534853
0.541029
0.547163
0.553264
0.559355
0.565457
0.571601
0.577812
0.584112
0.590532
0.597093
0.603822
0.610736
0.617859
0.625201
0.632779
0.640596
0.648671
0.656998
0.66559
0.674426
0.683507
0.692821
0.702354
0.712094
0.722081
0.731575
1.87402
0.796329
0.339531
0.356663
0.398325
0.426966
0.43488
0.434834
0.433827
0.433315
0.434047
0.435681
0.438238
0.441446
0.444938
0.44877
0.453026
0.457744
0.462905
0.468488
0.474452
0.480775
0.487413
0.494342
0.501517
0.508915
0.516493
0.524232
0.532097
0.540074
0.548137
0.556298
0.564528
0.572849
0.581237
0.589723
0.59829
0.606968
0.615753
0.624651
0.633658
0.642794
0.652059
0.661465
0.67101
0.680703
0.69054
0.700514
0.710667
0.720279
1.88891
0.806051
0.345033
0.373653
0.430942
0.466896
0.473626
0.469572
0.46449
0.461387
0.460436
0.460406
0.460998
0.461962
0.463002
0.464175
0.465607
0.467367
0.469493
0.471996
0.474898
0.478209
0.481959
0.486141
0.490773
0.495838
0.501348
0.50727
0.513607
0.520323
0.527419
0.53485
0.542613
0.550666
0.558998
0.567566
0.576368
0.58536
0.594535
0.603882
0.613396
0.623054
0.632853
0.64277
0.652809
0.662949
0.673196
0.683528
0.694012
0.703906
2.34073
1.12431
0.469049
0.447576
0.513141
0.574883
0.595501
0.594892
0.589594
0.58429
0.58128
0.57937
0.577805
0.576434
0.57488
0.573147
0.571374
0.569661
0.568051
0.566573
0.56525
0.564118
0.563203
0.562554
0.562199
0.562189
0.562539
0.563312
0.564498
0.566137
0.568257
0.570867
0.573992
0.577612
0.581755
0.586389
0.591532
0.597147
0.603244
0.609775
0.616742
0.624098
0.631827
0.639921
0.648335
0.657054
0.666038
0.675275
0.684772
0.69383
1.88937
0.807241
0.346168
0.363475
0.415824
0.456084
0.468555
0.46956
0.469011
0.46899
0.471277
0.474795
0.479002
0.483736
0.48856
0.493372
0.498212
0.503141
0.508116
0.513127
0.518117
0.523094
0.528019
0.532918
0.53776
0.542583
0.547363
0.55214
0.556918
0.561725
0.566569
0.571485
0.57647
0.581577
0.586805
0.592206
0.597771
0.603553
0.609533
0.615769
0.622231
0.628968
0.635954
0.643199
0.650692
0.658444
0.666436
0.674664
0.683147
0.691253
1.8891
0.807388
0.34748
0.364542
0.416097
0.454588
0.465037
0.463973
0.461098
0.458538
0.458072
0.458913
0.460499
0.462705
0.465125
0.467715
0.470583
0.473811
0.477404
0.481347
0.485613
0.490185
0.495041
0.500162
0.505529
0.511114
0.516899
0.522858
0.528975
0.535246
0.541649
0.548183
0.554834
0.561595
0.568461
0.575426
0.582493
0.589663
0.59694
0.604324
0.611825
0.619439
0.627178
0.635037
0.643034
0.651158
0.659423
0.667815
0.676381
0.684515
2.34276
1.12799
0.472731
0.449641
0.516395
0.580635
0.603084
0.603187
0.598107
0.593038
0.590256
0.5887
0.587573
0.586722
0.585719
0.584554
0.583329
0.582204
0.581167
0.580309
0.57957
0.57906
0.578715
0.578655
0.578813
0.579294
0.580058
0.581146
0.582573
0.584348
0.586478
0.588962
0.591802
0.594994
0.59854
0.602436
0.606678
0.611256
0.616162
0.621389
0.626921
0.632751
0.638862
0.645247
0.651887
0.658778
0.665899
0.673242
0.680812
0.688053
1.88982
0.808783
0.353439
0.381417
0.439688
0.479637
0.489595
0.487914
0.484869
0.483484
0.48491
0.487585
0.490933
0.494767
0.498667
0.502617
0.50668
0.510908
0.515271
0.519754
0.524315
0.528949
0.533631
0.538362
0.543132
0.547936
0.552777
0.557654
0.562579
0.567553
0.572586
0.577693
0.582873
0.58815
0.593521
0.599007
0.604607
0.610338
0.616197
0.622199
0.628349
0.634654
0.641119
0.647744
0.654533
0.661488
0.668607
0.675879
0.683334
0.690433
1.87526
0.799752
0.351165
0.378106
0.427536
0.459447
0.467096
0.465966
0.464285
0.463571
0.464098
0.465296
0.467196
0.469481
0.471832
0.474314
0.477021
0.480005
0.483272
0.486822
0.490643
0.49473
0.499072
0.503664
0.508494
0.513552
0.518825
0.524299
0.529963
0.535802
0.541806
0.547955
0.554257
0.560689
0.567259
0.573945
0.58076
0.587686
0.594735
0.601891
0.609162
0.616532
0.624014
0.631593
0.639283
0.647067
0.654961
0.66295
0.671082
0.678782
1.87423
0.799385
0.351688
0.375353
0.422433
0.454101
0.462315
0.461853
0.460736
0.460117
0.460386
0.461211
0.462694
0.46453
0.466377
0.468279
0.470335
0.472591
0.475064
0.477754
0.48067
0.483817
0.487205
0.490833
0.494709
0.498831
0.503203
0.507821
0.512688
0.517796
0.523148
0.528735
0.534554
0.540594
0.546851
0.553311
0.559971
0.566814
0.573841
0.581037
0.588401
0.595923
0.6036
0.611417
0.619369
0.627445
0.635652
0.643982
0.652469
0.660526
1.88906
0.809115
0.354865
0.362662
0.413297
0.452095
0.463037
0.462624
0.460835
0.459588
0.459624
0.460435
0.461974
0.463877
0.465705
0.467512
0.469429
0.471521
0.473806
0.476281
0.478947
0.481805
0.484861
0.488117
0.491577
0.495242
0.499118
0.503204
0.507505
0.512021
0.516755
0.521706
0.526876
0.532264
0.537869
0.543688
0.54972
0.555962
0.562411
0.569061
0.575907
0.582942
0.590158
0.597552
0.605124
0.612867
0.62077
0.628823
0.637047
0.64487
2.31233
1.20467
0.485433
0.431481
0.492577
0.556807
0.582796
0.58629
0.583626
0.580894
0.579606
0.579291
0.57978
0.58061
0.581149
0.581439
0.581672
0.581954
0.582331
0.582798
0.583364
0.584028
0.584805
0.5857
0.58673
0.587899
0.589222
0.590703
0.592358
0.594189
0.596212
0.598428
0.600852
0.603484
0.606338
0.609413
0.612721
0.616258
0.620038
0.624053
0.628314
0.632812
0.637557
0.642538
0.647764
0.653218
0.658902
0.664795
0.670926
0.67682
2.32254
1.22877
0.466114
0.405371
0.481445
0.557506
0.588673
0.593352
0.590719
0.587857
0.586869
0.587322
0.588612
0.590427
0.592109
0.593506
0.594837
0.59625
0.597803
0.599483
0.601286
0.603197
0.605226
0.607366
0.609628
0.612005
0.614508
0.61713
0.619882
0.622757
0.625767
0.628906
0.632185
0.635599
0.63916
0.642861
0.646715
0.650715
0.654875
0.659187
0.663663
0.668297
0.673101
0.678068
0.683207
0.688506
0.693973
0.699594
0.705393
0.710932
2.31274
1.20618
0.486683
0.432545
0.494355
0.559813
0.586875
0.591025
0.588974
0.586862
0.586292
0.586949
0.588458
0.590448
0.592247
0.59384
0.595414
0.597097
0.598925
0.6009
0.603009
0.605254
0.607631
0.610149
0.612805
0.615606
0.618549
0.621639
0.624873
0.628257
0.631786
0.635466
0.639292
0.643271
0.647396
0.651675
0.6561
0.660679
0.665403
0.670283
0.675307
0.680485
0.685806
0.691281
0.696897
0.702664
0.708568
0.71462
0.720827
0.726766
1.88895
0.809181
0.356069
0.364308
0.416387
0.457006
0.469105
0.469123
0.467537
0.466522
0.467167
0.468793
0.471275
0.474231
0.477165
0.480131
0.483239
0.486567
0.490111
0.493872
0.497826
0.501981
0.506316
0.510842
0.515541
0.520423
0.525467
0.530685
0.536055
0.54159
0.547268
0.553102
0.559071
0.565188
0.571431
0.577815
0.584317
0.590953
0.597702
0.604578
0.611561
0.618666
0.625872
0.633195
0.640611
0.64814
0.655761
0.663495
0.671357
0.678845
1.87422
0.800021
0.355303
0.380477
0.428586
0.460133
0.467653
0.466486
0.464745
0.463863
0.46408
0.464932
0.466473
0.468354
0.470186
0.472037
0.474002
0.47614
0.478452
0.480946
0.48361
0.48646
0.489488
0.492707
0.496111
0.499711
0.5035
0.50749
0.511671
0.516054
0.520628
0.525405
0.530371
0.535538
0.540892
0.546443
0.552176
0.558101
0.564203
0.57049
0.576947
0.583581
0.590377
0.59734
0.604456
0.61173
0.619147
0.626714
0.63444
0.641802
1.87704
0.803106
0.359377
0.395145
0.451556
0.484559
0.490481
0.486949
0.482765
0.480818
0.480807
0.481603
0.483014
0.484679
0.486276
0.487898
0.489642
0.491554
0.493629
0.495867
0.498258
0.500812
0.503524
0.506404
0.509446
0.512661
0.516043
0.5196
0.523328
0.527234
0.531313
0.535573
0.540007
0.544623
0.549414
0.554387
0.559533
0.564861
0.570361
0.576039
0.581887
0.587909
0.594098
0.600456
0.606974
0.613655
0.620489
0.627475
0.63462
0.641432
1.19157
1.04893
0.497614
0.190566
0.0107299
0.108711
0.160168
0.20852
0.230126
0.234498
0.22282
0.211363
0.201046
0.191511
0.179475
0.165021
0.147689
0.127756
0.105935
0.0827922
0.0589696
0.0352581
0.0158664
0.0232608
0.0469943
0.0712875
0.0954377
0.119141
0.142462
0.165365
0.187868
0.209943
0.231581
0.252723
0.272734
0.291837
0.311376
0.33175
0.351715
0.370882
0.389396
0.407392
0.424912
0.441964
0.458539
0.474635
0.490244
0.505364
0.519987
0.53411
0.547719
0.560808
0.573361
0.585365
0.596797
0.607641
0.617867
0.627456
0.636371
0.644589
0.652072
0.658792
0.664713
0.66981
0.674053
0.677431
0.679931
0.68157
0.682358
0.682541
0.682371
0.681824
0.680513
0.678029
0.674664
0.671066
0.667399
0.663688
0.66001
0.656436
0.653077
0.649997
0.647274
0.644933
0.643015
0.641511
0.640431
0.63974
0.639424
0.639406
0.639574
0.63992
0.640565
0.641666
0.64306
0.644583
0.646137
0.647812
0.649454
0.654229
1.12194
1.03605
0.806201
0.54927
0.502308
0.431302
0.381353
0.340594
0.3103
0.29174
0.260407
0.230155
0.210585
0.208845
0.215981
0.226536
0.238996
0.252914
0.268045
0.283904
0.300284
0.316758
0.333085
0.349261
0.365996
0.382982
0.400147
0.417248
0.434347
0.45128
0.468134
0.484764
0.501263
0.517498
0.533157
0.548074
0.563074
0.578794
0.59466
0.609885
0.624606
0.638978
0.65306
0.666836
0.680293
0.69341
0.706184
0.718597
0.730648
0.742319
0.753606
0.764487
0.774954
0.784983
0.79456
0.803656
0.812254
0.820321
0.827835
0.834761
0.841073
0.846736
0.851725
0.856005
0.859558
0.862361
0.864412
0.865704
0.866278
0.866299
0.866011
0.865357
0.864024
0.861662
0.85846
0.854996
0.851454
0.847896
0.844388
0.841003
0.837828
0.834936
0.832386
0.830216
0.828446
0.82708
0.826114
0.825523
0.825302
0.825337
0.82552
0.825864
0.826439
0.827414
0.828631
0.829979
0.831305
0.832724
0.833918
0.837718
1.07465
1.07551
1.0081
0.899692
0.831197
0.780945
0.745018
0.714923
0.690104
0.672014
0.656925
0.642598
0.632599
0.627473
0.625956
0.626218
0.62773
0.630144
0.633533
0.637806
0.642925
0.648702
0.655066
0.661901
0.669457
0.677618
0.686387
0.695542
0.705112
0.714914
0.725025
0.735273
0.745762
0.756307
0.766692
0.776634
0.786706
0.797486
0.808851
0.819945
0.830753
0.84137
0.851887
0.862282
0.872559
0.882668
0.892612
0.902348
0.911884
0.921178
0.930239
0.939021
0.947529
0.955717
0.963585
0.971085
0.978212
0.984917
0.991193
0.996985
1.00229
1.00704
1.01125
1.01485
1.01784
1.02017
1.02187
1.02289
1.02325
1.02314
1.0228
1.02212
1.02082
1.01864
1.01569
1.01246
1.00912
1.00578
1.00251
0.999379