/*--------------------------------*- C++ -*----------------------------------*\
| =========                 |                                                 |
| \\      /  F ield         | OpenFOAM: The Open Source CFD Toolbox           |
|  \\    /   O peration     | Version:  2412                                  |
|   \\  /    A nd           | Website:  www.openfoam.com                      |
|    \\/     M anipulation  |                                                 |
\*---------------------------------------------------------------------------*/
FoamFile
{
    version     2.0;
    format      ascii;
    arch        "LSB;label=32;scalar=64";
    class       volScalarField;
    location    "22.5";
    object      p;
}
// * * * * * * * * * * * * * * * * * * * * * * * * * * * * * * * * * * * * * //

dimensions      [1 -1 -2 0 0 0 0];

internalField   nonuniform List<scalar> 
7000
(
1.63883
3.75664
11.4553
11.5281
11.0976
10.6881
10.5694
10.584
10.625
10.6647
10.6865
10.7003
10.7148
10.7325
10.7529
10.7751
10.7989
10.8243
10.8515
10.8806
10.9114
10.9441
10.9786
11.0149
11.0532
11.0932
11.1351
11.1787
11.2241
11.2712
11.3198
11.3699
11.4214
11.4739
11.5275
11.5817
11.6363
11.6909
11.7451
11.7985
11.8505
11.9005
11.948
11.9922
12.0324
12.068
12.0983
12.1228
12.1405
12.1534
1.63913
3.75535
11.4548
11.5275
11.0972
10.6878
10.569
10.5836
10.6246
10.6643
10.6861
10.6998
10.7143
10.732
10.7523
10.7745
10.7983
10.8237
10.8509
10.8799
10.9107
10.9433
10.9778
11.0141
11.0523
11.0923
11.1342
11.1778
11.2231
11.2702
11.3188
11.3688
11.4202
11.4728
11.5263
11.5805
11.6351
11.6897
11.744
11.7974
11.8494
11.8995
11.9471
11.9914
12.0317
12.0674
12.0979
12.1225
12.1402
12.1532
1.63902
3.75442
11.453
11.5266
11.0965
10.687
10.5683
10.5829
10.6238
10.6634
10.6851
10.6988
10.7132
10.7309
10.7512
10.7733
10.797
10.8224
10.8495
10.8784
10.9091
10.9416
10.976
11.0123
11.0503
11.0903
11.132
11.1755
11.2207
11.2676
11.316
11.366
11.4172
11.4696
11.523
11.577
11.6315
11.686
11.7401
11.7934
11.8454
11.8954
11.9429
11.9872
12.0276
12.0633
12.0938
12.1184
12.136
12.1489
1.6389
3.75313
11.4497
11.5256
11.0955
10.6859
10.5671
10.5817
10.6225
10.6619
10.6835
10.6971
10.7115
10.7291
10.7493
10.7713
10.7949
10.8202
10.8472
10.876
10.9065
10.939
10.9732
11.0093
11.0472
11.0869
11.1285
11.1718
11.2168
11.2634
11.3117
11.3614
11.4124
11.4645
11.5176
11.5714
11.6257
11.6799
11.7338
11.787
11.8388
11.8887
11.9361
11.9803
12.0206
12.0563
12.0867
12.1113
12.1288
12.1417
1.63872
3.75126
11.4449
11.5242
11.0942
10.6843
10.5654
10.5799
10.6206
10.6599
10.6813
10.6948
10.7091
10.7266
10.7466
10.7685
10.792
10.8171
10.8439
10.8725
10.9029
10.9352
10.9692
11.005
11.0427
11.0822
11.1234
11.1665
11.2112
11.2575
11.3054
11.3547
11.4054
11.4572
11.5099
11.5634
11.6172
11.6711
11.7247
11.7776
11.8291
11.8788
11.926
11.9701
12.0103
12.046
12.0764
12.1011
12.1184
12.1314
1.6385
3.74873
11.4386
11.5224
11.0926
10.6822
10.5632
10.5776
10.6182
10.6572
10.6785
10.6918
10.706
10.7232
10.7431
10.7649
10.7881
10.813
10.8396
10.868
10.8982
10.9301
10.9639
10.9994
11.0368
11.0759
11.1168
11.1594
11.2037
11.2496
11.2971
11.3459
11.3961
11.4474
11.4996
11.5526
11.6059
11.6593
11.7125
11.7649
11.816
11.8654
11.9123
11.9562
11.9963
12.0319
12.0623
12.087
12.1043
12.1174
1.63824
3.7455
11.4307
11.5201
11.0905
10.6796
10.5603
10.5746
10.615
10.6538
10.6748
10.688
10.7019
10.719
10.7387
10.7602
10.7832
10.8079
10.8342
10.8623
10.8921
10.9237
10.9571
10.9923
11.0292
11.0679
11.1083
11.1505
11.1942
11.2396
11.2864
11.3347
11.3842
11.4349
11.4864
11.5387
11.5914
11.6441
11.6966
11.7485
11.7991
11.848
11.8945
11.9381
11.978
12.0134
12.0438
12.0685
12.0858
12.0991
1.63792
3.74151
11.421
11.5174
11.088
10.6764
10.5567
10.571
10.6111
10.6496
10.6704
10.6833
10.697
10.7138
10.7332
10.7544
10.7772
10.8015
10.8275
10.8552
10.8847
10.9159
10.9488
10.9835
11.0199
11.0581
11.0979
11.1394
11.1825
11.2272
11.2733
11.3208
11.3695
11.4193
11.4701
11.5214
11.5733
11.6252
11.6769
11.7279
11.7778
11.826
11.872
11.9151
11.9546
11.9899
12.0201
12.0448
12.0622
12.0758
1.63755
3.7367
11.4095
11.5141
11.085
10.6725
10.5524
10.5665
10.6064
10.6445
10.665
10.6776
10.691
10.7075
10.7266
10.7475
10.7699
10.7938
10.8194
10.8467
10.8757
10.9064
10.9388
10.9729
11.0087
11.0462
11.0853
11.1261
11.1684
11.2122
11.2574
11.304
11.3517
11.4005
11.4501
11.5005
11.5512
11.602
11.6526
11.7026
11.7515
11.7988
11.8441
11.8865
11.9256
11.9605
11.9905
12.0152
12.0326
12.0465
1.63712
3.73103
11.3959
11.5102
11.0815
10.668
10.5472
10.5612
10.6007
10.6385
10.6586
10.6708
10.6839
10.7001
10.7188
10.7393
10.7612
10.7847
10.8098
10.8366
10.865
10.8952
10.9269
10.9604
10.9954
11.0321
11.0704
11.1102
11.1516
11.1944
11.2385
11.2839
11.3305
11.378
11.4264
11.4753
11.5247
11.5741
11.6234
11.672
11.7197
11.7658
11.8099
11.8514
11.8897
11.9241
11.9538
11.9784
11.9958
12.01
1.63663
3.72445
11.3802
11.5057
11.0774
10.6627
10.5412
10.555
10.5941
10.6314
10.651
10.6629
10.6756
10.6914
10.7096
10.7296
10.7511
10.7741
10.7986
10.8248
10.8526
10.882
10.913
10.9457
10.9799
11.0156
11.0529
11.0917
11.1319
11.1735
11.2163
11.2604
11.3055
11.3515
11.3983
11.4456
11.4933
11.541
11.5886
11.6355
11.6814
11.726
11.7686
11.8088
11.846
11.8795
11.9085
11.9328
11.9502
11.9648
1.63608
3.71691
11.3622
11.5006
11.0727
10.6567
10.5343
10.5478
10.5863
10.6232
10.6423
10.6537
10.666
10.6812
10.699
10.7185
10.7394
10.7617
10.7856
10.8111
10.8382
10.8668
10.897
10.9287
10.9619
10.9966
11.0327
11.0702
11.1091
11.1493
11.1906
11.233
11.2764
11.3207
11.3655
11.4109
11.4565
11.5021
11.5475
11.5922
11.6359
11.6783
11.7189
11.7572
11.7927
11.8248
11.8529
11.8767
11.8938
11.9088
1.63546
3.70839
11.3418
11.4947
11.0673
10.6498
10.5263
10.5395
10.5774
10.6137
10.6323
10.6432
10.6549
10.6696
10.6868
10.7056
10.7259
10.7476
10.7707
10.7954
10.8217
10.8494
10.8786
10.9092
10.9413
10.9747
11.0095
11.0456
11.083
11.1215
11.161
11.2016
11.243
11.285
11.3277
11.3706
11.4137
11.4567
11.4993
11.5413
11.5822
11.6217
11.6595
11.6951
11.7281
11.7581
11.7844
11.8071
11.8236
11.8393
1.63479
3.69882
11.3191
11.488
11.0611
10.6421
10.5172
10.53
10.5672
10.6028
10.6208
10.6311
10.6422
10.6563
10.6729
10.691
10.7106
10.7315
10.7538
10.7776
10.8029
10.8296
10.8576
10.8871
10.9178
10.9499
10.9832
11.0176
11.0532
11.0898
11.1273
11.1657
11.2047
11.2443
11.2842
11.3243
11.3644
11.4042
11.4434
11.4818
11.519
11.5547
11.5886
11.6204
11.6498
11.6764
11.6999
11.7205
11.7357
11.7517
1.63406
3.68819
11.2942
11.4803
11.0542
10.6334
10.507
10.5193
10.5556
10.5904
10.6077
10.6174
10.6278
10.6413
10.6571
10.6745
10.6932
10.7133
10.7347
10.7575
10.7817
10.8072
10.834
10.8621
10.8914
10.9219
10.9534
10.986
11.0196
11.054
11.0892
11.1251
11.1614
11.198
11.2348
11.2715
11.3079
11.3437
11.3788
11.4127
11.4451
11.4758
11.5045
11.5308
11.5546
11.5758
11.5943
11.6111
11.6238
11.64
1.63327
3.67658
11.2667
11.472
11.0465
10.6237
10.4954
10.5072
10.5424
10.5763
10.5929
10.6019
10.6116
10.6243
10.6393
10.6559
10.6737
10.6928
10.7132
10.7349
10.7579
10.7822
10.8076
10.8341
10.8618
10.8905
10.9201
10.9506
10.9819
11.0139
11.0464
11.0794
11.1125
11.1458
11.1789
11.2116
11.2436
11.2747
11.3046
11.3328
11.3592
11.3832
11.4046
11.4232
11.4388
11.4516
11.4621
11.4716
11.4788
11.4937
1.63242
3.66404
11.2369
11.4629
11.0381
10.613
10.4825
10.4935
10.5274
10.5604
10.5762
10.5845
10.5934
10.6052
10.6194
10.635
10.6519
10.67
10.6893
10.7098
10.7315
10.7543
10.7781
10.803
10.8289
10.8556
10.8831
10.9112
10.94
10.9692
10.9987
11.0284
11.058
11.0873
11.1161
11.1441
11.171
11.1964
11.22
11.2413
11.2598
11.2751
11.2867
11.2944
11.2975
11.2969
11.2934
11.2891
11.2851
11.2958
1.63151
3.65066
11.2051
11.4531
11.029
10.601
10.4678
10.4781
10.5105
10.5424
10.5574
10.5649
10.5729
10.5839
10.5971
10.6118
10.6276
10.6445
10.6626
10.6818
10.7021
10.7233
10.7455
10.7686
10.7924
10.8169
10.842
10.8676
10.8936
10.9197
10.9459
10.9718
10.9974
11.0223
11.0462
11.0688
11.0897
11.1083
11.1243
11.137
11.1458
11.1496
11.148
11.1411
11.1261
11.1042
11.0764
11.0456
11.0154
11.0117
1.63058
3.63664
11.1716
11.4426
11.0191
10.5878
10.4515
10.4608
10.4914
10.5222
10.5364
10.543
10.5502
10.5602
10.5724
10.5861
10.6008
10.6165
10.6333
10.651
10.6697
10.6893
10.7097
10.7307
10.7523
10.7745
10.797
10.8198
10.8426
10.8653
10.8878
10.9097
10.9307
10.9506
10.969
10.9854
10.9993
11.0102
11.0172
11.0192
11.0164
11.0068
10.9874
10.9583
10.9176
10.8633
10.794
10.7121
10.6215
10.5661
1.62963
3.62224
11.1374
11.4315
11.0083
10.5729
10.4328
10.4409
10.4695
10.4991
10.5125
10.5183
10.5247
10.5337
10.5449
10.5574
10.571
10.5854
10.6008
10.6171
10.6341
10.6519
10.6703
10.6891
10.7084
10.728
10.7477
10.7673
10.7868
10.8058
10.8241
10.8415
10.8576
10.872
10.8841
10.8936
10.8998
10.9012
10.8985
10.8895
10.871
10.8428
10.802
10.7456
10.6688
10.5657
10.4278
10.2468
10.013
9.75863
1.62882
3.60394
11.0968
11.4183
10.9946
10.5536
10.4079
10.4146
10.4403
10.4686
10.4812
10.4861
10.4913
10.4991
10.5089
10.5201
10.5321
10.545
10.5586
10.5729
10.5879
10.6033
10.6192
10.6353
10.6516
10.6678
10.684
10.6997
10.7149
10.7292
10.7423
10.754
10.7637
10.771
10.7751
10.7751
10.7722
10.7634
10.7453
10.7185
10.6808
10.6287
10.558
10.4618
10.3309
10.1485
9.88548
9.48027
8.78191
7.25969
1.62803
3.58445
11.0537
11.401
10.9755
10.5253
10.3717
10.3763
10.3989
10.4263
10.4388
10.4432
10.4475
10.4541
10.4627
10.4724
10.4829
10.494
10.5056
10.5176
10.5301
10.5428
10.5557
10.5686
10.5812
10.5936
10.6054
10.6165
10.6265
10.6352
10.6421
10.6469
10.6487
10.6478
10.6436
10.6336
10.6166
10.5922
10.5585
10.5128
10.4522
10.372
10.2655
10.1233
9.93017
9.6625
9.27866
8.70972
7.86742
6.48113
1.62757
3.57318
11.0288
11.3894
10.96
10.497
10.3326
10.3348
10.3536
10.3808
10.3933
10.3971
10.4001
10.4054
10.4126
10.4209
10.4297
10.4389
10.4484
10.4582
10.4681
10.478
10.4878
10.4973
10.5063
10.5146
10.522
10.5283
10.533
10.5358
10.536
10.5345
10.5297
10.5195
10.5041
10.4827
10.4537
10.4156
10.3659
10.3019
10.2195
10.1136
9.97631
9.79763
9.56228
9.24908
8.82882
8.26128
7.52942
6.55644
1.62694
3.56398
11.0055
11.3681
10.932
10.4515
10.2776
10.2798
10.3001
10.3308
10.3448
10.3483
10.3505
10.3548
10.361
10.368
10.3753
10.3827
10.3901
10.3976
10.4049
10.412
10.4187
10.4248
10.4301
10.4344
10.4375
10.4388
10.4384
10.4363
10.431
10.4215
10.4081
10.3899
10.3656
10.3344
10.2945
10.2441
10.1806
10.1012
10.0018
9.87724
9.72076
9.52356
9.27448
8.95971
8.56465
8.07358
7.49323
6.76417
1.62766
3.59835
11.067
11.3654
10.9045
10.3859
10.2006
10.2059
10.2341
10.2719
10.2884
10.2919
10.2937
10.2973
10.3029
10.3091
10.3152
10.321
10.3268
10.3322
10.3373
10.3418
10.3457
10.3487
10.3507
10.3511
10.3505
10.3481
10.343
10.3348
10.3234
10.3082
10.2883
10.2631
10.2312
10.1915
10.1425
10.0821
10.0083
9.91798
9.80774
9.67318
9.50898
9.30883
9.06545
8.77109
8.41851
8.00054
7.51961
6.96857
1.58994
3.70883
11.0718
11.2742
10.8237
10.3044
10.1315
10.1416
10.1782
10.2181
10.2345
10.2383
10.2403
10.244
10.2488
10.2537
10.2582
10.2623
10.2658
10.2689
10.2714
10.2731
10.274
10.2737
10.2726
10.2698
10.2645
10.2572
10.2474
10.2345
10.218
10.1974
10.1719
10.1405
10.1022
10.0557
9.9997
9.93228
9.85147
9.75475
9.63925
9.50152
9.33773
9.14351
8.91445
8.64609
8.33508
7.97876
7.57912
7.13146
1.55509
4.81608
11.2229
10.9531
10.3121
10.0552
10.0508
10.0774
10.1247
10.1513
10.161
10.1652
10.1694
10.1745
10.1796
10.1842
10.188
10.1911
10.1936
10.1951
10.1957
10.1955
10.1945
10.192
10.1875
10.1816
10.1738
10.1637
10.1507
10.1341
10.1137
10.0887
10.0585
10.0222
9.97898
9.92759
9.86679
9.795
9.71043
9.61104
9.49455
9.35839
9.19983
9.01597
8.80409
8.56178
8.28758
7.98146
7.64477
7.27028
1.55599
4.82306
11.1727
10.884
10.2395
10.0002
10.0103
10.0528
10.1013
10.123
10.129
10.1315
10.1345
10.1378
10.1404
10.1419
10.1426
10.1425
10.1419
10.1401
10.137
10.133
10.1281
10.1218
10.1139
10.104
10.0917
10.077
10.0595
10.0387
10.0143
9.9857
9.95197
9.9121
9.86515
9.81027
9.74626
9.67187
9.5857
9.4861
9.37135
9.23953
9.08875
8.91704
8.72279
8.5046
8.26174
7.99371
7.70682
7.39078
1.56614
4.84218
11.2353
10.9039
10.1832
9.92272
9.93782
9.99254
10.0499
10.0743
10.0807
10.0834
10.0867
10.0901
10.0924
10.0934
10.0933
10.0923
10.0899
10.0858
10.0806
10.0743
10.0666
10.0573
10.0461
10.0328
10.0173
9.99919
9.97821
9.95396
9.92575
9.89295
9.85501
9.81151
9.76172
9.70461
9.63923
9.56417
9.47823
9.38014
9.26874
9.14255
9.0004
8.84096
8.66325
8.46659
8.2513
8.01717
7.76806
7.49763
1.55646
4.82037
11.1594
10.8521
10.1592
9.89794
9.91
9.95927
10.0155
10.0397
10.0453
10.0468
10.0488
10.0506
10.0513
10.0509
10.0493
10.0459
10.0411
10.0352
10.0281
10.0196
10.0095
9.99771
9.98388
9.96789
9.94944
9.92835
9.90422
9.87673
9.84535
9.80966
9.76919
9.72322
9.67112
9.61198
9.54508
9.46961
9.38477
9.28947
9.18277
9.06344
8.93046
8.78303
8.62084
8.44385
8.25224
8.04541
7.827
7.59226
1.52728
4.76275
10.9519
10.7275
10.1506
9.90253
9.90345
9.93285
9.98151
10.0048
10.0105
10.0113
10.0119
10.0122
10.0117
10.01
10.0064
10.0013
9.99503
9.98763
9.97881
9.96842
9.95627
9.94227
9.92616
9.90787
9.88704
9.86353
9.83691
9.80693
9.77321
9.73532
9.69277
9.64501
9.59152
9.53166
9.46478
9.39014
9.30705
9.21468
9.11221
8.99909
8.87481
8.73891
8.59087
8.43041
8.25763
8.07467
7.88196
7.67598
1.51121
4.71725
10.8687
10.7326
10.2338
9.94112
9.88934
9.90767
9.94711
9.97121
9.97793
9.97765
9.97648
9.97417
9.97128
9.96745
9.96236
9.956
9.94835
9.93937
9.92888
9.91679
9.90291
9.88718
9.86933
9.84926
9.82662
9.80129
9.77289
9.74117
9.7058
9.66638
9.62259
9.57392
9.51987
9.45996
9.39369
9.32049
9.23981
9.151
9.05353
8.94692
8.83078
8.70477
8.56878
8.42289
8.26745
8.10312
7.93115
7.74855
1.66807
3.29263
10.507
11.0128
10.5969
10.0771
9.88899
9.89295
9.91822
9.95127
9.96198
9.96082
9.95686
9.9505
9.94466
9.93873
9.93182
9.92356
9.91391
9.90284
9.89028
9.87606
9.86004
9.84224
9.82235
9.80021
9.77554
9.74821
9.71787
9.68435
9.64731
9.60641
9.56129
9.51159
9.4569
9.3969
9.33123
9.25944
9.18108
9.09575
9.00295
8.90236
8.79374
8.67683
8.55164
8.41829
8.2771
8.12856
7.97384
7.81046
1.67599
3.16902
10.4413
11.1646
10.7158
10.112
9.86721
9.85437
9.87212
9.90429
9.91473
9.91286
9.90685
9.8975
9.88987
9.88333
9.87638
9.86818
9.85851
9.84736
9.83468
9.82034
9.80418
9.78603
9.76576
9.74318
9.71802
9.69015
9.65924
9.62518
9.58762
9.54638
9.50119
9.45178
9.39789
9.3391
9.27502
9.2053
9.12963
9.04761
8.95899
8.86363
8.76148
8.65267
8.53704
8.41465
8.28571
8.15066
8.01047
7.86302
1.64116
3.05451
9.91246
11.0085
10.6485
10.1096
9.88649
9.86563
9.8766
9.89492
9.89658
9.89263
9.88248
9.86911
9.85794
9.84823
9.83844
9.82768
9.8157
9.80246
9.7879
9.77186
9.75419
9.7347
9.71323
9.68959
9.66359
9.63498
9.6035
9.56898
9.53123
9.49001
9.44507
9.39615
9.34298
9.28526
9.2227
9.15506
9.0821
9.00371
8.91977
8.83008
8.73443
8.63267
8.52471
8.41093
8.29214
8.16867
8.04098
7.90712
1.43601
4.54903
10.3364
10.5121
10.2196
9.92498
9.817
9.81438
9.82266
9.83316
9.83308
9.82954
9.82049
9.80853
9.79827
9.78914
9.77965
9.76903
9.75713
9.74393
9.72938
9.71332
9.6956
9.67605
9.65453
9.63085
9.60488
9.57633
9.54504
9.51093
9.47374
9.43321
9.38915
9.34134
9.28957
9.2336
9.17321
9.10822
9.03847
8.96381
8.88413
8.7993
8.70926
8.61403
8.51399
8.40925
8.29968
8.18552
8.06777
7.94498
1.6335
3.00304
9.72739
10.8963
10.5814
10.0812
9.86171
9.82744
9.8328
9.83928
9.83652
9.82736
9.81068
9.79488
9.78127
9.76871
9.75588
9.74205
9.72702
9.71092
9.69374
9.67525
9.65528
9.63366
9.61023
9.58485
9.55736
9.52771
9.49574
9.46113
9.42367
9.38316
9.33945
9.29239
9.24174
9.1873
9.12888
9.06631
8.99946
8.9282
8.85246
8.77219
8.6874
8.59813
8.50452
8.40669
8.3048
8.19922
8.09056
7.97757
1.64236
2.93493
9.72878
11.0212
10.6399
10.0489
9.7917
9.75819
9.76835
9.78399
9.7829
9.77576
9.7598
9.74271
9.72887
9.71674
9.70449
9.6914
9.67727
9.6619
9.64513
9.62692
9.60717
9.58576
9.56256
9.53743
9.51021
9.48076
9.44894
9.41458
9.37753
9.33766
9.29478
9.24867
9.19921
9.14627
9.08974
9.02949
8.96542
8.89745
8.82551
8.74955
8.66956
8.58562
8.49779
8.40621
8.31109
8.21288
8.11201
8.00722
1.64068
2.91563
9.67428
10.9997
10.6148
10.0088
9.74224
9.70713
9.71827
9.7366
9.7361
9.72985
9.71488
9.69727
9.68315
9.67109
9.659
9.64593
9.63166
9.61611
9.59923
9.58093
9.56113
9.53969
9.5165
9.49142
9.46432
9.43508
9.40357
9.36965
9.3332
9.29407
9.25212
9.2072
9.1592
9.10799
9.05349
8.99564
8.93433
8.86951
8.80112
8.72913
8.65357
8.57448
8.49198
8.40622
8.31727
8.22547
8.13129
8.03358
1.62631
2.92418
9.5062
10.8592
10.5492
9.99824
9.74264
9.69476
9.69947
9.70776
9.70544
9.69689
9.67967
9.66295
9.64863
9.63554
9.62232
9.60827
9.59316
9.57691
9.55945
9.54069
9.52048
9.49873
9.47531
9.4501
9.42298
9.39383
9.36254
9.32898
9.29303
9.25456
9.21345
9.16963
9.12302
9.07352
9.02103
8.96546
8.90672
8.84482
8.7797
8.71136
8.63981
8.56511
8.48736
8.40668
8.3233
8.23732
8.14906
8.05746
1.39425
4.48169
10.0355
10.3044
10.0237
9.73611
9.62825
9.6191
9.62451
9.63108
9.63001
9.62479
9.61346
9.60075
9.5893
9.57844
9.56708
9.55463
9.54091
9.52585
9.50944
9.4916
9.47227
9.45136
9.42877
9.40438
9.3781
9.34982
9.31947
9.28695
9.25215
9.21497
9.17533
9.13313
9.08831
9.04078
8.99045
8.93726
8.88118
8.82219
8.7603
8.69552
8.62784
8.5573
8.48394
8.40786
8.32926
8.24821
8.16508
8.07889
1.63153
2.94788
9.59349
10.8425
10.4985
9.90963
9.63614
9.59379
9.60408
9.62452
9.62611
9.62144
9.60904
9.59172
9.57679
9.56367
9.55045
9.53619
9.52062
9.50372
9.4856
9.46607
9.44518
9.42292
9.39922
9.37395
9.34696
9.31815
9.28742
9.25465
9.21984
9.18296
9.14392
9.10262
9.05898
9.0129
8.96432
8.9132
8.85947
8.80305
8.74394
8.68214
8.61766
8.55059
8.48101
8.40903
8.33477
8.25829
8.17985
8.0985
1.64178
3.07734
9.86634
10.7745
10.392
9.7801
9.51819
9.49803
9.51536
9.54816
9.55762
9.55496
9.54659
9.53236
9.51987
9.509
9.49792
9.48563
9.47187
9.45673
9.44038
9.42275
9.40362
9.38287
9.3604
9.3362
9.31024
9.28249
9.25287
9.22137
9.1879
9.15236
9.1147
9.07482
9.03268
8.98821
8.94138
8.89215
8.84048
8.78636
8.7298
8.67086
8.60952
8.54576
8.47966
8.4113
8.34075
8.26815
8.1937
8.11653
1.4044
4.54559
10.1042
10.1593
9.85356
9.54621
9.44665
9.45196
9.47133
9.49132
9.49705
9.49553
9.49049
9.48103
9.47169
9.46262
9.45285
9.44175
9.42917
9.41514
9.39969
9.38278
9.36431
9.34423
9.32249
9.29907
9.27395
9.24707
9.21837
9.18778
9.15532
9.12092
9.08452
9.04606
9.00548
8.96275
8.91783
8.87067
8.82126
8.76958
8.71562
8.65937
8.60089
8.54024
8.47745
8.41258
8.34569
8.27682
8.20616
8.1329
1.38835
4.55532
10.0006
10.0255
9.78366
9.55143
9.46905
9.46641
9.47258
9.48199
9.48367
9.4816
9.47565
9.46561
9.4553
9.44489
9.43368
9.42129
9.40761
9.39263
9.37637
9.35879
9.33983
9.31945
9.29757
9.27415
9.24914
9.2225
9.19419
9.16417
9.13233
9.09863
9.06301
9.02542
8.98584
8.94421
8.9005
8.85465
8.80677
8.7569
8.705
8.65102
8.59494
8.53682
8.47666
8.41449
8.35041
8.28453
8.217
8.14706
1.4215
4.56876
10.2124
10.1823
9.79836
9.46296
9.36979
9.38175
9.41296
9.43743
9.44435
9.44298
9.43837
9.42976
9.4208
9.41169
9.40173
9.39044
9.37769
9.36349
9.34785
9.33075
9.31217
9.29212
9.27057
9.24749
9.22283
9.19657
9.16869
9.13916
9.10791
9.0749
9.04007
9.00344
8.96499
8.92471
8.88257
8.8386
8.79268
8.74474
8.6948
8.64291
8.58911
8.53339
8.47578
8.41633
8.35509
8.29211
8.2275
8.16043
1.53227
3.35213
9.8887
10.7068
10.319
9.67679
9.39292
9.3671
9.38474
9.4206
9.43476
9.43372
9.42907
9.41929
9.40883
9.39883
9.38839
9.37674
9.36365
9.34913
9.33323
9.31596
9.2973
9.27719
9.25559
9.23248
9.20775
9.1814
9.15353
9.12404
9.09287
9.06
9.02545
8.98922
8.95127
8.91158
8.87015
8.82696
8.78198
8.73519
8.68662
8.63632
8.58417
8.5302
8.47453
8.41721
8.35827
8.29776
8.23579
8.17167
1.39672
4.53409
10.0661
10.0951
9.79204
9.46697
9.34498
9.34342
9.35482
9.37628
9.38511
9.38441
9.3809
9.37323
9.36428
9.35552
9.34633
9.33597
9.32417
9.31092
9.29626
9.28019
9.26269
9.24372
9.22324
9.20123
9.17766
9.15252
9.12584
9.09759
9.06776
9.03636
9.00332
8.96859
8.93214
8.89396
8.85405
8.8124
8.76901
8.72389
8.67701
8.62837
8.57809
8.52621
8.4727
8.41759
8.36093
8.30277
8.24325
8.18181
1.39411
4.5312
10.0486
10.0821
9.77545
9.44759
9.32739
9.32769
9.34026
9.36301
9.3724
9.37152
9.36746
9.35887
9.3492
9.33972
9.32976
9.31864
9.30613
9.29225
9.27704
9.26053
9.24272
9.22356
9.20305
9.18113
9.15784
9.13315
9.10695
9.07918
9.04984
9.01889
8.98636
8.95228
8.91662
8.87939
8.84053
8.80005
8.75793
8.71417
8.66879
8.62178
8.57319
8.52302
8.4713
8.41803
8.36327
8.30705
8.24946
8.19001
1.53045
3.34014
9.84927
10.6877
10.3014
9.63699
9.33317
9.29745
9.314
9.34879
9.364
9.36311
9.35854
9.34869
9.33787
9.32792
9.31786
9.3068
9.29438
9.2806
9.2655
9.24909
9.23135
9.21227
9.19179
9.16984
9.14657
9.12186
9.09566
9.06796
9.03875
9.00802
8.97579
8.94208
8.90687
8.87012
8.83185
8.79204
8.75069
8.7078
8.66337
8.61743
8.56998
8.52105
8.47064
8.41881
8.36557
8.31097
8.25512
8.19761
1.40812
4.54764
10.1184
10.0921
9.70673
9.35387
9.2437
9.25296
9.28224
9.31122
9.32081
9.31989
9.316
9.30794
9.29929
9.29081
9.28177
9.27156
9.25999
9.24707
9.23284
9.21733
9.20052
9.18238
9.16289
9.14202
9.11979
9.09615
9.07108
9.04456
9.01656
8.98714
8.95627
8.92393
8.89009
8.85475
8.81791
8.77957
8.73975
8.6984
8.65553
8.61114
8.56525
8.51788
8.46907
8.41883
8.36717
8.31419
8.25996
8.2041
1.39307
4.55543
10.0075
9.98174
9.66872
9.38837
9.29989
9.3029
9.31507
9.32588
9.32642
9.32392
9.31732
9.30722
9.29719
9.28727
9.27675
9.26521
9.25251
9.23864
9.22361
9.20742
9.19005
9.17149
9.15169
9.13063
9.1083
9.08467
9.05973
9.03345
9.00585
8.97686
8.94644
8.91457
8.88127
8.8465
8.81026
8.77256
8.7334
8.6928
8.65078
8.60734
8.56248
8.5162
8.46852
8.41944
8.36904
8.31728
8.26421
8.20939
1.3851
4.54771
9.95886
9.94748
9.65883
9.38711
9.29484
9.29416
9.30032
9.30802
9.30808
9.30582
9.29967
9.28977
9.27984
9.27003
9.25969
9.24838
9.23599
9.22251
9.20793
9.1922
9.1753
9.15719
9.13786
9.11727
9.09542
9.07227
9.04782
9.02204
8.99491
8.96642
8.93654
8.90527
8.8726
8.83855
8.8031
8.76626
8.72799
8.6883
8.64719
8.60466
8.56073
8.5154
8.46873
8.42076
8.37145
8.32077
8.26875
8.21495
1.37719
4.50922
9.9193
10.0314
9.73112
9.40325
9.28201
9.27799
9.28659
9.29894
9.30104
9.29869
9.292
9.28095
9.27024
9.26009
9.24961
9.2382
9.22568
9.21203
9.19728
9.18141
9.16439
9.14621
9.12683
9.10625
9.08445
9.0614
9.03708
9.01149
8.9846
8.9564
8.92687
8.896
8.86379
8.83022
8.7953
8.759
8.72133
8.68228
8.64187
8.60011
8.55702
8.51261
8.46686
8.41974
8.37131
8.3216
8.27066
8.21813
1.62613
2.96899
9.52165
10.6175
10.273
9.64733
9.33787
9.27205
9.27962
9.29782
9.30526
9.303
9.29546
9.28108
9.26789
9.25657
9.24571
9.23416
9.22152
9.20775
9.19288
9.17694
9.15991
9.14175
9.12244
9.10194
9.08023
9.0573
9.03312
9.00768
8.98095
8.95294
8.92361
8.89296
8.86099
8.82768
8.79303
8.75703
8.71969
8.68101
8.64099
8.59964
8.55698
8.51301
8.46775
8.42121
8.37345
8.32455
8.27456
8.22317
1.63545
2.85373
9.48401
10.8212
10.4148
9.67665
9.30952
9.23157
9.24212
9.26809
9.28273
9.28152
9.27538
9.262
9.24787
9.2363
9.22586
9.21494
9.20286
9.18956
9.17512
9.15961
9.14301
9.1253
9.10644
9.08641
9.0652
9.04277
9.01912
8.99422
8.96806
8.94063
8.91192
8.8819
8.85058
8.81795
8.78399
8.74871
8.71211
8.67418
8.63493
8.59436
8.55249
8.50929
8.46481
8.41908
8.37212
8.32399
8.27477
8.2242
1.62646
2.96217
9.50625
10.608
10.2636
9.63124
9.31369
9.24607
9.25445
9.27506
9.28522
9.28334
9.27629
9.26188
9.24802
9.2363
9.22535
9.21385
9.20128
9.18758
9.17284
9.15707
9.14027
9.1224
9.10344
9.08334
9.0621
9.03968
9.01608
8.99126
8.96522
8.93793
8.90939
8.87958
8.84848
8.8161
8.78242
8.74744
8.71115
8.67356
8.63467
8.59447
8.55298
8.51021
8.46617
8.42088
8.37436
8.32662
8.27773
8.2273
1.37417
4.50584
9.89989
10.0118
9.70732
9.36523
9.23655
9.2321
9.24162
9.25617
9.2593
9.25708
9.25057
9.2396
9.22899
9.21905
9.20886
9.19781
9.18569
9.1725
9.15829
9.14305
9.12676
9.1094
9.09094
9.07136
9.05063
9.02875
9.00567
8.9814
8.95591
8.92918
8.90121
8.87197
8.84146
8.80967
8.77659
8.74221
8.70653
8.66955
8.63126
8.59168
8.55079
8.50861
8.46516
8.42045
8.37448
8.32724
8.27874
8.22849
1.37994
4.54109
9.92439
9.90694
9.60712
9.33006
9.24217
9.24447
9.25518
9.26515
9.26539
9.2628
9.25585
9.24501
9.2344
9.22412
9.21342
9.20183
9.18923
9.17564
9.16105
9.14547
9.12886
9.1112
9.09246
9.07263
9.05167
9.02958
9.00633
8.98189
8.95627
8.92943
8.90136
8.87206
8.8415
8.80969
8.77661
8.74225
8.70661
8.66969
8.63149
8.592
8.55124
8.50922
8.46594
8.42141
8.37565
8.32868
8.2805
8.2308
1.40412
4.56235
10.0548
9.98743
9.59212
9.27607
9.19326
9.20487
9.23459
9.255
9.25755
9.2549
9.24788
9.23749
9.22754
9.21786
9.20759
9.19632
9.18398
9.17062
9.15626
9.14089
9.12449
9.10703
9.08849
9.06885
9.04809
9.02619
9.00314
8.9789
8.95347
8.92682
8.89896
8.86985
8.83949
8.80787
8.77498
8.74082
8.70538
8.66865
8.63064
8.59135
8.55079
8.50895
8.46586
8.42153
8.37598
8.32923
8.28132
8.23205
3.04414
2.45883
3.00415
4.18081
4.12686
4.11004
4.04918
4.0115
3.9986
4.00135
4.02898
4.07261
4.10971
4.14041
4.17439
4.2171
4.26876
4.32683
4.38847
4.45137
4.51378
4.57452
4.63306
4.68999
4.74096
4.7863
4.82597
4.86038
4.8895
4.91353
4.93249
4.94657
4.95588
4.96064
4.96105
4.95943
4.9541
4.94281
4.92737
4.9096
4.88959
4.86726
4.84274
4.8163
4.78821
4.75873
4.72812
4.69663
4.66447
4.63189
4.59909
4.56628
4.53366
4.50145
4.46984
4.43902
4.4092
4.38058
4.35335
4.32771
4.30385
4.28195
4.26222
4.2448
4.22985
4.2175
4.20783
4.20088
4.19663
4.19512
4.19534
4.19641
4.1994
4.20603
4.21775
4.23077
4.24412
4.25766
4.27124
4.28456
4.29728
4.30907
4.31967
4.3289
4.33665
4.34287
4.34755
4.35076
4.35257
4.35317
4.35309
4.35271
4.35166
4.34934
4.34539
4.34101
4.33649
4.33179
4.32676
4.32235
4.0966
3.55462
3.75719
4.23534
4.15256
4.09589
4.03658
3.99617
3.98451
3.99673
4.03788
4.08833
4.1201
4.14202
4.17105
4.21196
4.26324
4.32126
4.38278
4.44558
4.5079
4.56877
4.6276
4.68427
4.73531
4.78066
4.82044
4.85498
4.88424
4.9084
4.92747
4.94166
4.95104
4.95583
4.95606
4.95488
4.95061
4.94062
4.92365
4.90527
4.88541
4.86342
4.83915
4.81287
4.7849
4.75554
4.72504
4.69365
4.66161
4.62912
4.59641
4.56369
4.53115
4.49901
4.46745
4.43669
4.40692
4.37834
4.35114
4.32553
4.30169
4.27982
4.2601
4.24271
4.22779
4.21548
4.20587
4.19902
4.195
4.19399
4.19427
4.19542
4.19842
4.20495
4.21673
4.23005
4.24376
4.25759
4.27137
4.28486
4.29771
4.30962
4.32032
4.32961
4.33739
4.34361
4.34828
4.35144
4.35321
4.35371
4.35362
4.35323
4.35219
4.34991
4.34585
4.34133
4.33674
4.33212
4.32732
4.32453
5.22608
4.46506
4.23691
4.26867
4.2494
4.19688
4.11478
4.06176
4.0417
4.04418
4.0567
4.08597
4.12124
4.15266
4.18575
4.2264
4.27537
4.33093
4.39031
4.45124
4.51199
4.57145
4.62875
4.68327
4.73346
4.77831
4.81767
4.85174
4.88057
4.90431
4.92302
4.93685
4.94588
4.95024
4.95017
4.94908
4.94543
4.93681
4.91953
4.90016
4.8797
4.85759
4.83345
4.80733
4.77948
4.75022
4.71983
4.68855
4.65662
4.62426
4.59166
4.55905
4.52662
4.49458
4.46313
4.43246
4.40278
4.37428
4.34716
4.32162
4.29786
4.27606
4.25642
4.23911
4.22428
4.2121
4.20266
4.19609
4.1925
4.19214
4.1925
4.19377
4.19692
4.20362
4.21535
4.22892
4.24314
4.2575
4.27174
4.28558
4.29872
4.31084
4.3217
4.3311
4.33893
4.34515
4.34977
4.35283
4.35449
4.35479
4.35467
4.35422
4.35309
4.35068
4.34651
4.34186
4.33715
4.33259
4.328
4.32694
5.82953
5.09648
4.66401
4.46739
4.42859
4.36274
4.27044
4.19004
4.1382
4.1179
4.12021
4.1313
4.1575
4.19449
4.228
4.26288
4.30374
4.35149
4.40455
4.46063
4.51768
4.57421
4.62899
4.6813
4.72972
4.77348
4.81206
4.84537
4.8735
4.89663
4.91479
4.9281
4.93666
4.94045
4.94028
4.93915
4.93578
4.928
4.91212
4.89202
4.87068
4.84813
4.82398
4.79806
4.77048
4.74149
4.71136
4.68034
4.64866
4.61654
4.5842
4.55183
4.51963
4.48781
4.45657
4.42612
4.39664
4.36833
4.34141
4.31606
4.29248
4.27086
4.2514
4.23427
4.21966
4.20771
4.19855
4.19242
4.18949
4.18956
4.19008
4.19163
4.19519
4.20251
4.21398
4.22761
4.2423
4.25732
4.27219
4.28654
4.30005
4.31244
4.32347
4.33297
4.34085
4.34705
4.35158
4.35456
4.35606
4.35607
4.35591
4.35535
4.35402
4.35128
4.34711
4.3424
4.33759
4.33307
4.32871
4.3288
6.23251
5.59755
5.12308
4.83393
4.68512
4.57219
4.46078
4.35925
4.28177
4.23428
4.2145
4.21546
4.22178
4.23823
4.27074
4.30352
4.33979
4.38109
4.42723
4.47699
4.5288
4.58111
4.63244
4.68169
4.72779
4.76981
4.80712
4.83928
4.86643
4.88872
4.90609
4.91866
4.92657
4.92959
4.92933
4.92809
4.92473
4.91729
4.90224
4.8825
4.86071
4.8376
4.81315
4.78724
4.75987
4.73117
4.70135
4.67064
4.63928
4.60747
4.57543
4.54335
4.51146
4.47994
4.44899
4.41883
4.38964
4.36163
4.335
4.30994
4.28665
4.26533
4.24616
4.22934
4.21505
4.20345
4.19478
4.18914
4.18698
4.18715
4.1879
4.18985
4.19401
4.20222
4.21344
4.22695
4.24191
4.25747
4.27293
4.2878
4.30169
4.31434
4.32552
4.3351
4.34298
4.34913
4.35358
4.35643
4.35761
4.35755
4.35726
4.35648
4.35479
4.35166
4.34753
4.34284
4.33798
4.33348
4.32948
4.32978
6.53957
6.00451
5.54992
5.20619
4.97322
4.80683
4.66974
4.55048
4.45239
4.3803
4.33503
4.31317
4.31307
4.31626
4.32695
4.35012
4.38248
4.41847
4.45725
4.49916
4.54381
4.59008
4.63648
4.68175
4.72474
4.76443
4.8
4.83092
4.85701
4.87836
4.8948
4.90661
4.91386
4.91609
4.91576
4.91441
4.91096
4.90356
4.88895
4.87003
4.84837
4.82494
4.80016
4.77415
4.74692
4.71853
4.6891
4.65881
4.62787
4.59647
4.56484
4.53318
4.5017
4.4706
4.44007
4.41034
4.38158
4.354
4.3278
4.30318
4.28033
4.25945
4.24074
4.22434
4.21055
4.19949
4.19137
4.18627
4.18493
4.18519
4.18617
4.18854
4.1935
4.20228
4.21363
4.2271
4.24211
4.2579
4.27372
4.28894
4.30313
4.31597
4.32726
4.33687
4.34472
4.35081
4.35519
4.35789
4.35873
4.35862
4.35821
4.3572
4.3551
4.35176
4.34758
4.34288
4.33801
4.33354
4.32983
4.33024
6.78378
6.33329
5.91572
5.55666
5.2761
5.06437
4.89664
4.75667
4.63958
4.5461
4.47745
4.43273
4.40926
4.40351
4.40515
4.41186
4.42766
4.45611
4.48791
4.52316
4.56116
4.60102
4.64172
4.68226
4.72153
4.75841
4.79189
4.8213
4.84622
4.86655
4.88222
4.89327
4.89978
4.90124
4.90084
4.89937
4.89575
4.88812
4.87398
4.85574
4.83447
4.81106
4.78615
4.76006
4.73293
4.70481
4.67578
4.64595
4.61549
4.58459
4.55346
4.5223
4.49132
4.46073
4.43074
4.40154
4.37333
4.34631
4.32067
4.29662
4.27436
4.25407
4.23595
4.22023
4.20703
4.19656
4.18904
4.18455
4.18402
4.18437
4.18556
4.18836
4.19413
4.20344
4.21502
4.22847
4.24334
4.25905
4.27488
4.29018
4.30446
4.31737
4.32869
4.33829
4.34611
4.35214
4.35639
4.35894
4.35947
4.35932