/*--------------------------------*- C++ -*----------------------------------*\
| =========                 |                                                 |
| \\      /  F ield         | OpenFOAM: The Open Source CFD Toolbox           |
|  \\    /   O peration     | Version:  2412                                  |
|   \\  /    A nd           | Website:  www.openfoam.com                      |
|    \\/     M anipulation  |                                                 |
\*---------------------------------------------------------------------------*/
FoamFile
{
    version     2.0;
    format      ascii;
    arch        "LSB;label=32;scalar=64";
    class       surfaceScalarField;
    location    "22.5";
    object      phi;
}
// * * * * * * * * * * * * * * * * * * * * * * * * * * * * * * * * * * * * * //

dimensions      [1 0 -1 0 0 0 0];

oriented        oriented;

internalField   nonuniform List<scalar> 
13790
(
0.00292374
-1.97111e-07
0.00274462
9.30877e-07
0.002804
3.25376e-06
0.00280525
5.58895e-06
0.00279922
6.47574e-06
0.00279209
7.16753e-06
0.00278413
7.96022e-06
0.00277522
8.91025e-06
0.00276522
9.9979e-06
0.00275398
1.12423e-05
0.0027414
1.25743e-05
0.00272745
1.39556e-05
0.00271206
1.53883e-05
0.00269517
1.68894e-05
0.0026767
1.84716e-05
0.00265656
2.01406e-05
0.00263466
2.18996e-05
0.0026109
2.37531e-05
0.0025852
2.57071e-05
0.00255743
2.77692e-05
0.00252748
2.99473e-05
0.00249523
3.22503e-05
0.00246054
3.46874e-05
0.00242327
3.72684e-05
0.00238327
4.00037e-05
0.00234036
4.2904e-05
0.00229438
4.59805e-05
0.00224514
4.9244e-05
0.00219243
5.27054e-05
0.00213606
5.63745e-05
0.0020758
6.02605e-05
0.00201143
6.43698e-05
0.00194272
6.8708e-05
0.00186944
7.32747e-05
0.00179138
7.80679e-05
0.0017083
8.30757e-05
0.00162002
8.82837e-05
0.00152635
9.36615e-05
0.00142718
9.91763e-05
0.00132241
0.000104772
0.00121201
0.000110391
0.00109607
0.000115946
0.000974712
0.000121356
0.000848212
0.0001265
0.000716918
0.000131293
0.00058131
0.000135608
0.000441836
0.000139474
0.000299162
0.000142674
0.000152277
0.000146884
0.000152277
0.00303216
2.04304e-08
0.0028463
8.42565e-07
0.00290647
8.61686e-06
0.0029078
1.12909e-05
0.00290193
1.28133e-05
0.00289475
1.43803e-05
0.00288656
1.61533e-05
0.00287731
1.81558e-05
0.00286691
2.03955e-05
0.00285524
2.29112e-05
0.00284222
2.56034e-05
0.00282776
2.84085e-05
0.00281182
3.1327e-05
0.00279432
3.43873e-05
0.00277519
3.76107e-05
0.00275432
4.101e-05
0.00273162
4.45916e-05
0.00270701
4.83662e-05
0.00268037
5.2345e-05
0.0026516
5.65445e-05
0.00262056
6.09797e-05
0.00258714
6.56698e-05
0.0025512
7.06321e-05
0.00251258
7.58885e-05
0.00247112
8.14584e-05
0.00242666
8.73655e-05
0.00237901
9.3631e-05
0.00232798
0.000100278
0.00227335
0.000107329
0.00221492
0.000114803
0.00215246
0.000122721
0.00208574
0.000131094
0.00201451
0.000139937
0.00193854
0.000149246
0.00185758
0.000159022
0.00177142
0.000169236
0.00167984
0.000179866
0.00158266
0.000190846
0.00147972
0.000202115
0.00137093
0.000213555
0.00125627
0.000225056
0.00113578
0.000236433
0.00100961
0.000247528
0.000878012
0.000258097
0.00074136
0.000267945
0.000600112
0.000276855
0.000454842
0.000284744
0.000306088
0.000291428
0.0001542
0.000298772
0.000306476
0.00314487
9.21497e-08
0.00295181
1.21247e-06
0.00301442
1.38901e-05
0.0030157
1.72787e-05
0.00300971
1.92988e-05
0.0030024
2.17264e-05
0.00299398
2.45764e-05
0.00298442
2.77077e-05
0.00297366
3.11605e-05
0.00296158
3.49937e-05
0.0029481
3.90855e-05
0.00293315
4.33559e-05
0.00291666
4.78156e-05
0.00289856
5.24898e-05
0.00287875
5.74174e-05
0.00285715
6.2605e-05
0.00283367
6.80775e-05
0.0028082
7.38365e-05
0.00278063
7.99159e-05
0.00275085
8.63225e-05
0.00271873
9.30991e-05
0.00268414
0.000100253
0.00264694
0.000107835
0.00260698
0.000115853
0.00256407
0.000124364
0.00251806
0.000133375
0.00246874
0.00014295
0.00241593
0.000153091
0.00235939
0.000163868
0.00229892
0.000175274
0.00223426
0.000187381
0.00216518
0.000200165
0.00209143
0.000213692
0.00201276
0.000227915
0.0019289
0.000242878
0.00183964
0.000258502
0.00174472
0.000274784
0.00164396
0.000291606
0.00153719
0.000308883
0.00142429
0.000326449
0.00130525
0.000344102
0.00118005
0.000361633
0.00104889
0.000378681
0.000911946
0.000395045
0.000769667
0.000410224
0.000622493
0.000424029
0.000471053
0.000436183
0.000316166
0.000446316
0.000158593
0.000456345
0.000465069
0.0032618
1.16186e-07
0.00306156
1.66995e-06
0.00312674
1.90926e-05
0.00312806
2.34709e-05
0.00312189
2.59916e-05
0.0031144
2.92438e-05
0.00310578
3.32075e-05
0.00309594
3.75422e-05
0.00308482
4.22786e-05
0.00307234
4.74771e-05
0.00305842
5.30042e-05
0.00304299
5.87897e-05
0.00302597
6.48378e-05
0.00300727
7.11889e-05
0.00298681
7.78738e-05
0.00296449
8.49192e-05
0.00294023
9.23381e-05
0.00291391
0.000100158
0.00288543
0.000108398
0.00285465
0.000117098
0.00282147
0.00012628
0.00278573
0.000135996
0.0027473
0.000146267
0.00270599
0.000157157
0.00266167
0.000168684
0.00261412
0.000180927
0.00256318
0.000193893
0.00250859
0.000207677
0.00245019
0.000222272
0.00238768
0.000237785
0.00232087
0.000254182
0.00224945
0.000271583
0.00217323
0.000289911
0.00209186
0.000309291
0.00200515
0.000329581
0.00191276
0.000350898
0.00181453
0.000373008
0.00171014
0.000395994
0.00159952
0.00041951
0.00148242
0.00044355
0.00135885
0.000467673
0.0012288
0.000491674
0.00109236
0.000515119
0.000949929
0.000537481
0.000801617
0.000558536
0.000648239
0.000577406
0.000490306
0.000594116
0.00032867
0.000607951
0.00016476
0.000620254
0.000629829
0.00338304
1.39611e-07
0.00317539
2.15938e-06
0.00324315
2.43219e-05
0.0032446
2.9795e-05
0.00323827
3.28582e-05
0.00323061
3.69409e-05
0.00322181
4.20186e-05
0.0032117
4.76478e-05
0.00320025
5.37276e-05
0.00318739
6.03359e-05
0.00317306
6.73374e-05
0.00315716
7.46883e-05
0.00313962
8.23733e-05
0.00312035
9.04612e-05
0.00309927
9.89585e-05
0.00307626
0.000107926
0.00305125
0.000117351
0.0030241
0.000127301
0.00299473
0.000137767
0.002963
0.000148834
0.00292878
0.000160497
0.00289192
0.000172853
0.00285229
0.0001859
0.0028097
0.000199747
0.00276399
0.000214394
0.00271496
0.000229956
0.00266241
0.000246441
0.00260613
0.00026396
0.00254587
0.000282529
0.00248141
0.000302243
0.00241247
0.000323129
0.00233881
0.000345243
0.00226009
0.000368624
0.00217612
0.000393259
0.00208651
0.000419194
0.00199111
0.000446302
0.00188947
0.000474644
0.00178156
0.000503901
0.00166692
0.000534151
0.00154566
0.000564817
0.00141736
0.000595964
0.00128231
0.000626727
0.0011404
0.000657033
0.000991918
0.000685959
0.000837465
0.000712989
0.000677148
0.000737723
0.000512231
0.000759033
0.000343477
0.000776705
0.000172035
0.000791695
0.000801864
0.0035088
1.63332e-07
0.00329346
2.65521e-06
0.0033639
2.95953e-05
0.00336551
3.62221e-05
0.00335906
3.98854e-05
0.00335124
4.48005e-05
0.00334219
5.10703e-05
0.00333188
5.79541e-05
0.00332016
6.54462e-05
0.00330698
7.3525e-05
0.00329224
8.20734e-05
0.00327591
9.10199e-05
0.00325787
0.000100414
0.00323806
0.000110271
0.00321635
0.000120665
0.00319269
0.000131587
0.00316693
0.00014311
0.00313901
0.00015522
0.00310876
0.000168015
0.00307612
0.000181478
0.00304088
0.000195735
0.00300297
0.000210762
0.00296216
0.000226712
0.00291836
0.000243548
0.00287129
0.000261456
0.00282087
0.000280381
0.00276677
0.000300539
0.00270888
0.000321852
0.00264684
0.000344565
0.00258051
0.00036857
0.00250952
0.000394122
0.00243367
0.000421089
0.00235259
0.000449704
0.00226604
0.000479807
0.00217367
0.000511568
0.00207518
0.000544795
0.00197029
0.000579526
0.00185865
0.000615541
0.00174017
0.000652637
0.00161439
0.00069059
0.00148155
0.000728812
0.00134109
0.000767188
0.00119357
0.000804544
0.00103876
0.000840776
0.000877305
0.00087444
0.000709978
0.00090505
0.000537036
0.000931974
0.000360124
0.000953616
0.000180624
0.000971196
0.000982487
0.00363924
1.87394e-07
0.00341591
3.15285e-06
0.00348916
3.49079e-05
0.00349097
4.27268e-05
0.00348444
4.70235e-05
0.00347648
5.28e-05
0.00346728
6.02693e-05
0.00345675
6.8484e-05
0.00344478
7.74212e-05
0.00343127
8.70329e-05
0.00341618
9.71641e-05
0.00339942
0.000107775
0.00338093
0.000118911
0.00336058
0.000130617
0.00333831
0.000142938
0.00331399
0.000155903
0.00328755
0.000169551
0.00325885
0.000183922
0.00322779
0.000199066
0.00319423
0.000215042
0.00315806
0.000231906
0.00311908
0.000249738
0.0030772
0.000268594
0.00303217
0.00028858
0.00298388
0.000309741
0.00293205
0.000332216
0.00287656
0.000356029
0.00281705
0.000381361
0.00275342
0.000408192
0.00268524
0.00043675
0.0026124
0.000466957
0.00253441
0.000499078
0.00245117
0.000532952
0.00236211
0.000568863
0.00226713
0.000606549
0.00216567
0.000646251
0.00205759
0.000687609
0.0019424
0.000730727
0.0018199
0.000775136
0.00168982
0.000820675
0.00155185
0.000866782
0.00140622
0.000912817
0.00125242
0.000958341
0.0010912
0.001002
0.000922297
0.00104334
0.000746703
0.00108064
0.000565541
0.00111314
0.000379442
0.00113972
0.000190151
0.00116049
0.00117264
0.00377454
2.11608e-07
0.00354291
3.64958e-06
0.00361911
4.02429e-05
0.00362115
4.92799e-05
0.00361458
5.42333e-05
0.00360652
6.09005e-05
0.00359721
6.95877e-05
0.00358651
7.9183e-05
0.00357431
8.9619e-05
0.00356054
0.000100809
0.00354512
0.000112576
0.003528
0.000124901
0.00350907
0.000137836
0.00348825
0.000151438
0.00346544
0.000165749
0.00344053
0.000180806
0.00341344
0.000196648
0.00338403
0.000213325
0.0033522
0.000230896
0.00331782
0.000249426
0.00328074
0.000268988
0.00324081
0.000289662
0.00319787
0.000311535
0.00315176
0.000334695
0.00310225
0.000359249
0.00304918
0.000385287
0.00299227
0.000412936
0.00293135
0.000442276
0.00286608
0.000473462
0.00279629
0.000506542
0.00272155
0.0005417
0.00264171
0.000578918
0.00255623
0.00061843
0.002465
0.000660087
0.00236738
0.00070417
0.00226328
0.00075035
0.00215201
0.000798883
0.00203348
0.000849252
0.00190706
0.000901558
0.00177263
0.000955105
0.00162979
0.00100963
0.00147829
0.00106432
0.00131843
0.0011182
0.00114975
0.00117067
0.000973232
0.00121986
0.000788855
0.00126502
0.000597625
0.00130437
0.000401354
0.00133599
0.00020156
0.00136028
0.0013742
0.00391488
2.35839e-07
0.00367461
4.14214e-06
0.00375393
4.55701e-05
0.00375625
5.58434e-05
0.00374968
6.14767e-05
0.00374157
6.90547e-05
0.00373216
7.90093e-05
0.00372135
8.99886e-05
0.00370899
0.000101976
0.003695
0.000114801
0.00367931
0.000128263
0.00366186
0.000142351
0.00364256
0.000157141
0.0036213
0.000172691
0.003598
0.000189049
0.00357256
0.000206249
0.00354487
0.000224341
0.00351481
0.000243379
0.00348228
0.000263431
0.00344713
0.000284573
0.00340923
0.000306887
0.00336843
0.000330466
0.00332455
0.000355408
0.00327743
0.00038182
0.00322686
0.000409815
0.00317263
0.000439515
0.00311452
0.00047104
0.00305227
0.000504528
0.00298564
0.000540096
0.00291429
0.000577894
0.00283797
0.000618018
0.00275626
0.00066063
0.00266893
0.000705758
0.00257542
0.000753592
0.00247558
0.000804007
0.00236869
0.00085724
0.00225467
0.000912902
0.00213267
0.000971257
0.00200268
0.00103154
0.00186383
0.00109396
0.00171616
0.0011573
0.00155904
0.00122144
0.00139232
0.00128491
0.00121645
0.00134655
0.00103081
0.00140549
0.000836924
0.00145891
0.000635286
0.001506
0.000427027
0.00154424
0.000214247
0.00157306
0.00158844
0.00406045
2.59736e-07
0.00381121
4.62653e-06
0.00389382
5.08428e-05
0.00389647
6.23664e-05
0.00388998
6.86931e-05
0.00388187
7.72108e-05
0.00387246
8.84277e-05
0.00386157
0.000100874
0.0038491
0.00011445
0.00383494
0.000128958
0.00381904
0.000144162
0.00380132
0.000160073
0.00378169
0.000176766
0.00376006
0.000194322
0.00373634
0.000212772
0.00371041
0.000232174
0.00368219
0.00025256
0.00365156
0.000274014
0.0036184
0.000296592
0.00358257
0.0003204
0.00354395
0.000345511
0.00350236
0.000372051
0.00345766
0.000400109
0.00340965
0.000429831
0.00335814
0.00046132
0.00330291
0.000494742
0.00324374
0.000530211
0.00318036
0.000567908
0.0031125
0.000607953
0.00303986
0.000650535
0.00296211
0.000695768
0.00287891
0.000743833
0.00278984
0.000794822
0.00269456
0.000848876
0.00259253
0.00090604
0.00248342
0.00096635
0.00236653
0.00102979
0.00224164
0.00109615
0.00210784
0.00116535
0.00196508
0.00123672
0.00181227
0.00131011
0.0016496
0.00138411
0.0014761
0.00145841
0.00129191
0.00153073
0.00109758
0.00159983
0.00089241
0.00166407
0.000678316
0.0017201
0.000456722
0.00176584
0.000229857
0.00179992
0.0018183
0.00421145
2.83078e-07
0.00395287
5.09679e-06
0.00403899
5.59989e-05
0.00404205
6.87843e-05
0.00403567
7.58379e-05
0.00402764
8.52963e-05
0.00401823
9.78407e-05
0.00400738
0.000111718
0.0039949
0.00012694
0.00398066
0.000143197
0.0039646
0.000160214
0.00394668
0.000177994
0.0039268
0.00019665
0.00390487
0.000216252
0.00388078
0.000236856
0.00385446
0.000258494
0.00382579
0.000281233
0.00379467
0.000305135
0.00376097
0.000330294
0.00372457
0.000356797
0.00368532
0.000384759
0.00364309
0.000414286
0.00359768
0.000445514
0.00354894
0.000478571
0.00349665
0.000513611
0.00344061
0.000550786
0.00338056
0.000590259
0.00331626
0.000632207
0.00324741
0.000676798
0.00317372
0.000724229
0.00309483
0.000774655
0.00301038
0.000828284
0.00291996
0.000885238
0.00282313
0.000945713
0.00271941
0.00100976
0.00260825
0.00107751
0.00248915
0.00114889
0.00236139
0.0012239
0.00222452
0.00130222
0.00207762
0.00138362
0.00192037
0.00146735
0.00175169
0.00155279
0.00157159
0.00163851
0.00137894
0.00172338
0.00117402
0.00180475
0.000957737
0.00188035
0.000729836
0.001948
0.000492306
0.00200337
0.000247511
0.00204472
0.00206581
0.00436807
3.0419e-07
0.0040998
5.54749e-06
0.00418966
6.09397e-05
0.00419321
7.5019e-05
0.00418704
8.28327e-05
0.00417917
9.32191e-05
0.00416995
0.000107071
0.00415918
0.000122485
0.00414672
0.000139397
0.00413247
0.000157455
0.00411635
0.000176326
0.0040983
0.000196044
0.00407825
0.000216703
0.00405608
0.000238416
0.00403174
0.000261202
0.00400509
0.000285139
0.00397608
0.00031025
0.00394455
0.000336657
0.00391044
0.000364408
0.00387358
0.000393661
0.00383386
0.000424476
0.0037911
0.000457044
0.00374517
0.00049144
0.00369586
0.000527887
0.00364299
0.000566473
0.00358632
0.000607455
0.00352565
0.000650931
0.00346067
0.000697189
0.00339113
0.000746337
0.00331667
0.000798684
0.00323699
0.000854341
0.00315165
0.000913622
0.00306025
0.000976633
0.00296231
0.00104365
0.0028573
0.00111477
0.00274466
0.00119015
0.00262368
0.00126986
0.00249378
0.0013538
0.00235402
0.00144199
0.00220382
0.00153381
0.002042
0.00162918
0.00186808
0.0017267
0.00168079
0.0018258
0.00147993
0.00192424
0.00126437
0.0020203
0.00103402
0.0021107
0.00079045
0.00219157
0.000534732
0.00225909
0.000270106
0.00230934
0.00233592
0.00453055
3.17724e-07
0.00425218
5.98243e-06
0.00434608
6.55176e-05
0.00435021
8.09968e-05
0.00434429
8.9636e-05
0.00433674
0.000100828
0.00432774
0.000116079
0.00431719
0.000133022
0.00430491
0.000151686
0.00429075
0.000171616
0.00427465
0.000192423
0.00425657
0.000214121
0.00423642
0.000236851
0.00421413
0.000260704
0.0041896
0.000285734
0.00416276
0.000311984
0.00413348
0.000339524
0.0041017
0.000368437
0.00406728
0.000398833
0.00403011
0.000430823
0.00399005
0.000464542
0.00394697
0.000500125
0.00390067
0.000537737
0.00385102
0.000577537
0.00379778
0.000619716
0.00374077
0.00066446
0.00367971
0.000711989
0.00361439
0.00076251
0.00354445
0.000816272
0.00346964
0.000873494
0.00338952
0.000934458
0.00330378
0.000999371
0.00321186
0.00106855
0.00311336
0.00114215
0.00300761
0.00122052
0.00289407
0.00130368
0.00277194
0.001392
0.00264047
0.00148527
0.00249873
0.00158372
0.00234564
0.0016869
0.00218032
0.0017945
0.00200114
0.00190588
0.00180748
0.00201946
0.00159749
0.00213423
0.00137095
0.00224685
0.00112699
0.00235466
0.000865201
0.00245336
0.000587465
0.00253682
0.000296634
0.00260018
0.00263255
0.00469909
3.27144e-07
0.0044102
6.38659e-06
0.00450836
6.96947e-05
0.00451323
8.65596e-05
0.00450779
9.60234e-05
0.00450067
0.000108009
0.00449207
0.00012469
0.00448185
0.000143232
0.00446983
0.000163708
0.00445586
0.000185594
0.00443989
0.00020839
0.00442187
0.000232139
0.00440175
0.000256976
0.00437942
0.000283029
0.00435483
0.000310322
0.00432788
0.000338936
0.0042985
0.000368906
0.00426656
0.000400368
0.004232
0.000433392
0.00419467
0.000468154
0.00415447
0.000504742
0.00411122
0.000543372
0.00406481
0.000584147
0.00401503
0.000627325
0.00396171
0.000673032
0.00390461
0.000721559
0.00384353
0.000773064
0.00377818
0.000827863
0.00370829
0.000886159
0.00363351
0.000948274
0.0035535
0.00101447
0.00346782
0.00108505
0.00337601
0.00116035
0.00327755
0.00124062
0.00317182
0.00132625
0.00305813
0.00141738
0.00293569
0.00151443
0.00280354
0.00161742
0.00266072
0.00172654
0.00250589
0.00184173
0.00233778
0.00196261
0.00215487
0.00208879
0.00195515
0.00221919
0.00173736
0.00235203
0.00149874
0.00248546
0.00123861
0.00261479
0.000956594
0.00273538
0.000653278
0.00284014
0.000332524
0.00292093
0.00296507
0.00487393
3.46409e-07
0.00457409
6.71003e-06
0.00467665
7.35534e-05
0.00468249
9.14451e-05
0.00467792
0.00010162
0.00467135
0.000114654
0.0046633
0.000132734
0.00465358
0.000152951
0.00464192
0.000175373
0.00462825
0.000199267
0.00461252
0.000224119
0.00459468
0.000249974
0.00457468
0.000276977
0.00455244
0.000305264
0.0045279
0.000334862
0.00450099
0.000365849
0.00447162
0.000398278
0.00443971
0.000432274
0.00440516
0.000467945
0.00436787
0.00050544
0.0043277
0.00054491
0.00428456
0.000586518
0.00423823
0.000630469
0.00418863
0.000676928
0.00413549
0.000726173
0.00407869
0.000778356
0.00401791
0.000833846
0.003953
0.000892772
0.00388355
0.000955608
0.00380938
0.00102245
0.00372997
0.00109388
0.00364505
0.00116997
0.00355402
0.00125139
0.00345644
0.0013382
0.00335158
0.0014311
0.00323876
0.00153021
0.0031171
0.00163609
0.00298553
0.00174899
0.00284291
0.00186917
0.00268774
0.00199689
0.00251833
0.00213202
0.00233276
0.00227436
0.00212881
0.00242313
0.00190366
0.00257717
0.00165516
0.00273397
0.00137939
0.00289055
0.00107443
0.00304034
0.000739555
0.00317501
0.000377702
0.00328278
0.00334277
0.00505528
3.61193e-07
0.00474407
6.97186e-06
0.00485155
7.6706e-05
0.00485854
9.55052e-05
0.00485492
0.000106349
0.00484919
0.000120465
0.00484187
0.000140055
0.0048328
0.000162016
0.0048217
0.000186473
0.00480849
0.000212479
0.00479312
0.000239494
0.00477558
0.000267507
0.00475582
0.000296743
0.0047338
0.000327284
0.00470943
0.000359232
0.00468269
0.000392582
0.00465348
0.000427494
0.00462176
0.000463992
0.00458739
0.00050231
0.00455034
0.000542487
0.00451044
0.000584814
0.00446762
0.000629337
0.00442168
0.000676405
0.00437254
0.000726075
0.00431995
0.000778757
0.00426378
0.000834529
0.00420377
0.000893851
0.0041397
0.000956846
0.0040713
0.00102401
0.00399821
0.00109554
0.00392017
0.00117192
0.00383662
0.00125351
0.00374729
0.00134072
0.00365139
0.0014341
0.00354854
0.00153396
0.00343769
0.00164105
0.00331819
0.00175559
0.00318876
0.00187842
0.00304814
0.00200979
0.00289471
0.00215032
0.00272642
0.00230031
0.00254076
0.00246001
0.00233474
0.00262916
0.00210497
0.00280694
0.00184635
0.00299258
0.00155518
0.00318173
0.00122623
0.00336928
0.000855754
0.00354549
0.000444115
0.00369442
0.00378689
0.00524338
3.69402e-07
0.0049204
7.14526e-06
0.00503328
7.88497e-05
0.00504173
9.8415e-05
0.00503936
0.000109929
0.00503476
0.000125159
0.00502839
0.000146422
0.00502017
0.000170231
0.00500982
0.000196833
0.00499719
0.000225107
0.0049823
0.000254382
0.00496517
0.000284639
0.00494577
0.000316143
0.00492407
0.000348977
0.00490003
0.000383271
0.0048736
0.000419015
0.00484473
0.000456363
0.00481335
0.000495372
0.00477941
0.000536254
0.00474279
0.000579108
0.00470343
0.000624171
0.00466118
0.000671588
0.00461597
0.000721614
0.00456759
0.000774456
0.00451596
0.000830378
0.00446082
0.000889669
0.00440208
0.000952594
0.00433938
0.00101954
0.00427261
0.00109078
0.00420133
0.00116681
0.00412534
0.00124791
0.00404415
0.0013347
0.00395736
0.00142751
0.00386443
0.00152702
0.00376464
0.00163374
0.0036574
0.00174829
0.00354152
0.00187148
0.00341615
0.00200378
0.00327961
0.00214633
0.00313029
0.00229964
0.00296608
0.00246452
0.0027839
0.00264219
0.00258005
0.00283301
0.00235069
0.0030363
0.00208924
0.00325404
0.00178648
0.00348448
0.00143337
0.00372239
0.00101965
0.00395922
0.000538155
0.00417591
0.00432504
0.00543846
3.70398e-07
0.0051033
7.19882e-06
0.00522214
7.96176e-05
0.00523251
9.9721e-05
0.00523184
0.000111921
0.00522873
0.00012837
0.00522368
0.000151468
0.00521654
0.000177371
0.00520705
0.00020632
0.00519513
0.000237029
0.00518086
0.000268656
0.00516425
0.000301249
0.00514534
0.000335047
0.00512408
0.000370236
0.00510049
0.000406858
0.0050745
0.000445006
0.00504613
0.000484738
0.00501527
0.000526233
0.00498192
0.000569597
0.00494597
0.000615062
0.00490738
0.000662757
0.00486601
0.000712958
0.0048218
0.000765821
0.00477459
0.000821668
0.00472427
0.000880697
0.00467067
0.00094327
0.00461361
0.00100965
0.00455292
0.00108023
0.00448833
0.00115537
0.00441965
0.00123549
0.00434648
0.00132109
0.0042686
0.00141257
0.00418545
0.00151066
0.0040967
0.00161577
0.00400162
0.00172882
0.00389956
0.00185035
0.00378968
0.00198136
0.00367062
0.00212284
0.00354144
0.00227551
0.00339943
0.00244164
0.0032435
0.00262045
0.00307143
0.00281426
0.00287665
0.00302779
0.0026518
0.00326115
0.00239139
0.00351444
0.00208591
0.00378996
0.00171799
0.00409031
0.00126609
0.00441112
0.000701246
0.00474076
0.00502629
0.00564081
3.50332e-07
0.00529303
7.10455e-06
0.00541858
7.84491e-05
0.00543148
9.88128e-05
0.00543306
0.000111783
0.00543186
0.000129672
0.00542843
0.0001549
0.00542262
0.00018317
0.00541413
0.000214812
0.00540303
0.00024813
0.00538945
0.000282235
0.0053735
0.000317204
0.00535519
0.000353353
0.00533454
0.000390883
0.00531154
0.000429858
0.00528621
0.000470338
0.0052585
0.000512449
0.00522842
0.00055631
0.00519589
0.000602125
0.00516092
0.000650037
0.00512337
0.000700305
0.00508325
0.000753081
0.00504038
0.000808685
0.00499477
0.000867281
0.0049462
0.000929269
0.00489464
0.000994825
0.00483986
0.00106444
0.00478177
0.00113831
0.00472012
0.00121703
0.00465475
0.00130086
0.00458537
0.00139047
0.00451168
0.00148626
0.00443341
0.00158893
0.00435001
0.00169917
0.00426117
0.00181766
0.004166
0.00194552
0.00406417
0.00208318
0.0039541
0.00223291
0.00383573
0.00239387
0.00370883
0.00256855
0.00356682
0.00276246
0.00340584
0.00297523
0.00322581
0.00320782
0.00302107
0.00346589
0.00278111
0.0037544
0.00249013
0.00408095
0.00212836
0.00445208
0.00165433
0.00488515
0.000999292
0.00539579
0.00602558
0.00585083
2.01691e-07
0.00548957
7.14784e-06
0.00562299
7.45089e-05
0.00563948
9.46071e-05
0.005644
0.000108822
0.0056454
0.00012839
0.00564399
0.000156305
0.00563972
0.000187441
0.00563238
0.000222157
0.00562214
0.000258361
0.0056093
0.000295084
0.005594
0.000332495
0.00557631
0.000371043
0.0055563
0.000410899
0.00553395
0.000452206
0.00550932
0.000494968
0.0054824
0.000539367
0.00545321
0.000585499
0.00542171
0.00063362
0.00538789
0.000683857
0.0053517
0.000736497
0.00531308
0.000791698
0.00527199
0.000849777
0.00522833
0.000910944
0.00518205
0.000975543
0.00513302
0.00104386
0.00508119
0.00111626
0.00502636
0.00119314
0.00496852
0.00127487
0.00490735
0.00136203
0.00484285
0.00145496
0.00477462
0.00155449
0.0047026
0.00166096
0.00462632
0.00177545
0.00454553
0.00189845
0.00445932
0.00203173
0.0043686
0.0021739
0.00427378
0.00232774
0.0041694
0.00249826
0.00405336
0.00268458
0.00392867
0.00288716
0.00379289
0.00311101
0.00364123
0.00335948
0.00346869
0.00363843
0.0032685
0.00395458
0.00302853
0.00432093
0.00272152
0.00475908
0.00229837
0.00530829
0.00164581
0.00604836
0.00767138
0.00846012
1.38561e-07
0.00793536
6.2309e-06
0.00813428
6.48136e-05
0.00816375
8.30708e-05
0.0081764
9.84766e-05
0.00818338
0.000121584
0.0081856
0.000154076
0.00818292
0.000190116
0.00817532
0.000229765
0.00816332
0.000270358
0.00814755
0.000310848
0.00812834
0.000351705
0.00810588
0.000393505
0.00808022
0.000436564
0.00805149
0.000480927
0.00801974
0.000526717
0.00798509
0.000574021
0.0079475
0.000623087
0.00790707
0.000674052
0.00786372
0.000727208
0.00781752
0.000782696
0.00776837
0.000840847
0.00771633
0.000901817
0.00766128
0.000965993
0.00760326
0.00103356
0.00754216
0.00110496
0.007478
0.00118042
0.00741067
0.00126047
0.00734014
0.0013454
0.00726637
0.0014358
0.00718923
0.0015321
0.00710876
0.00163495
0.00702462
0.0017451
0.00693733
0.00186274
0.00684747
0.00198831
0.00675543
0.00212376
0.00665655
0.00227279
0.00655062
0.00243366
0.00644176
0.00260712
0.00633066
0.00279568
0.00621378
0.00300404
0.0060926
0.00323219
0.00596542
0.00348666
0.00583398
0.00376987
0.00570039
0.00408817
0.00557209
0.00444922
0.00548241
0.00484877
0.00550626
0.00528444
0.00591275
0.00564186
0.00547759
0.00810654
0.00846192
1.06682e-07
0.00793479
3.86503e-06
0.00814843
4.23501e-05
0.00818871
6.09124e-05
0.00821067
7.8844e-05
0.00822464
0.000107785
0.00823094
0.000147782
0.00823051
0.000190536
0.00822382
0.000236456
0.00821269
0.000281491
0.00819811
0.000325424
0.00818041
0.000369409
0.00815968
0.000414232
0.00813609
0.000460149
0.00810979
0.000507229
0.00808094
0.000555566
0.00804961
0.000605348
0.00801591
0.00065679
0.00797983
0.000710127
0.00794147
0.000765569
0.0079008
0.000823371
0.0078579
0.000883746
0.00781272
0.000946992
0.00776538
0.00101333
0.00771582
0.00108312
0.00766417
0.00115661
0.00761037
0.00123423
0.0075546
0.00131623
0.00749681
0.00140319
0.00743721
0.00149539
0.00737562
0.0015937
0.00731323
0.00169734
0.00725068
0.00180765
0.00718642
0.001927
0.00711892
0.0020558
0.00704927
0.00219341
0.00698158
0.00234047
0.00691584
0.0024994
0.00685176
0.00267119
0.00679015
0.00285729
0.00673545
0.00305874
0.00668815
0.00327948
0.00665836
0.00351645
0.00664932
0.00377891
0.00668183
0.00405566
0.00677865
0.0043524
0.00698571
0.00464171
0.00738563
0.00488451
0.0080026
0.00502489
0.00467584
0.00880436
0.00846265
1.52639e-07
0.00793447
7.48248e-07
0.00816344
5.50079e-06
0.0082221
2.04575e-05
0.00825922
4.40758e-05
0.00828286
8.43184e-05
0.00829422
0.000136423
0.00829475
0.000189995
0.00828896
0.00024225
0.00827927
0.000291184
0.00826633
0.00033836
0.00825024
0.000385501
0.00823118
0.000433293
0.00820942
0.00048191
0.00818522
0.000531429
0.00815879
0.00058199
0.00813026
0.000633881
0.00809973
0.000687318
0.00806728
0.000742575
0.00803301
0.000799837
0.00799699
0.000859392
0.00795931
0.000921425
0.00792006
0.000986247
0.00787933
0.00105405
0.00783727
0.00112519
0.00779399
0.00119988
0.00774968
0.00127854
0.00770445
0.00136146
0.00765875
0.00144889
0.00761342
0.00154072
0.00756916
0.00163796
0.00752367
0.00174284
0.00747699
0.00185432
0.00743186
0.00197213
0.00739036
0.00209731
0.00735199
0.00223178
0.00731775
0.00237471
0.00728824
0.00252891
0.00726699
0.00269244
0.0072548
0.00286949
0.00725686
0.00305668
0.00727793
0.00325841
0.00732468
0.0034697
0.00741267
0.00369092
0.00755117
0.00391716
0.00777064
0.00413293
0.00808361
0.00432874
0.00851002
0.00445811
0.00903
0.00450491
0.00424757
0.00945826
0.00846125
1.2966e-06
0.00794074
-9.84317e-06
0.00821696
-7.85122e-05
0.00830512
-4.95112e-05
0.00835092
6.52646e-07
0.00837143
6.39851e-05
0.00837574
0.000132112
0.00837148
0.000194243
0.00836379
0.00024995
0.00835439
0.000300579
0.00834244
0.000350307
0.0083276
0.000400347
0.0083102
0.00045069
0.00829057
0.000501542
0.00826911
0.000552887
0.00824595
0.000605147
0.00822116
0.000658675
0.0081948
0.000713673
0.00816696
0.000770418
0.0081377
0.000829091
0.00810711
0.000889987
0.00807525
0.000953276
0.00804227
0.00101924
0.00800826
0.00108805
0.00797345
0.00116
0.00793792
0.00123541
0.00790233
0.00131412
0.00786731
0.00139649
0.00783267
0.00148353
0.00779725
0.00157614
0.00776181
0.00167339
0.00772921
0.00177544
0.00770026
0.00188327
0.00767461
0.00199778
0.00765358
0.00211833
0.00763852
0.00224684
0.00763122
0.00238201
0.00763393
0.0025262
0.00764842
0.00267795
0.0076796
0.0028383
0.00772905
0.00300723
0.00780565
0.00318181
0.00791201
0.00336334
0.00806016
0.00354276
0.00825815
0.00371918
0.00851402
0.00387705
0.00883831
0.00400446
0.00921588
0.00408053
0.00966981
0.00405098
0.00392821
0.00998917
0.00845143
9.92723e-06
0.00798013
-6.57265e-05
0.0083622
-0.000271048
0.00854389
-0.000213061
0.00858692
-4.00785e-05
0.0085778
7.32724e-05
0.00856112
0.000148802
0.00854536
0.000209991
0.00853274
0.000262574
0.00851973
0.000313592
0.00850362
0.00036641
0.00848463
0.000419344
0.00846354
0.000471778
0.00844121
0.000523874
0.00841756
0.000576535
0.00839269
0.000630014
0.00836677
0.000684592
0.00833993
0.00074051
0.00831232
0.00079803
0.00828405
0.000857366
0.00825525
0.000918784
0.00822602
0.000982503
0.00819652
0.00104873
0.00816702
0.00111756
0.00813804
0.00118898
0.00810998
0.00126347
0.00808188
0.00134222
0.00805366
0.0014247
0.00802649
0.0015107
0.00800205
0.00160058
0.00798027
0.00169516
0.00796134
0.00179437
0.00794596
0.00189866
0.0079357
0.00200804
0.00793095
0.00212308
0.00793443
0.00224337
0.00794644
0.00236999
0.00797139
0.00250125
0.00800983
0.00263951
0.00806728
0.00278085
0.00814638
0.00292813
0.00825237
0.00307582
0.00839135
0.00322435
0.00856631
0.0033678
0.00878573
0.00349976
0.00904817
0.00361461
0.00935677
0.00369585
0.00970204
0.00373526
0.010049
0.00370402
0.00359522
0.010382
0.0085192
1.56315e-05
0.00824796
-0.000394634
0.00879254
-0.000604552
0.0088907
-0.00029118
0.00887206
-1.84674e-05
0.00880409
0.000141467
0.00877212
0.000180772
0.00875221
0.000229893
0.00874251
0.000272278
0.00872798
0.000328121
0.00870902
0.000385371
0.00868797
0.000440394
0.00866596
0.000493789
0.00864295
0.000546882
0.00861897
0.000600514
0.00859392
0.000655061
0.00856779
0.000710728
0.00854064
0.000767652
0.00851261
0.000826063
0.00848384
0.000886132
0.00845441
0.00094822
0.00842466
0.00101224
0.00839512
0.00107828
0.008366
0.00114667
0.00833654
0.00121845
0.00830739
0.00129261
0.00828034
0.00136927
0.00825629
0.00144875
0.00823485
0.00153214
0.00821691
0.00161852
0.00820271
0.00170936
0.00819361
0.00180347
0.00818968
0.00190259
0.00819273
0.00200499
0.00820302
0.00211278
0.00822264
0.00222375
0.00825259
0.00234004
0.00829488
0.00245896
0.00835252
0.00258187
0.00842676
0.00270661
0.00852309
0.0028318
0.0086421
0.00295681
0.00879074
0.00307572
0.00896917
0.00318937
0.00918239
0.00328654
0.00942923
0.00336776
0.00970741
0.00341767
0.0100122
0.00343046
0.0103155
0.0034007
0.00330267
0.0106081
0.00816075