/*--------------------------------*- C++ -*----------------------------------*\
| =========                 |                                                 |
| \\      /  F ield         | OpenFOAM: The Open Source CFD Toolbox           |
|  \\    /   O peration     | Version:  2412                                  |
|   \\  /    A nd           | Website:  www.openfoam.com                      |
|    \\/     M anipulation  |                                                 |
\*---------------------------------------------------------------------------*/
FoamFile
{
    version     2.0;
    format      ascii;
    arch        "LSB;label=32;scalar=64";
    class       volScalarField;
    location    "22.5";
    object      T;
}
// * * * * * * * * * * * * * * * * * * * * * * * * * * * * * * * * * * * * * //

dimensions      [0 0 0 1 0 0 0];

internalField   nonuniform List<scalar> 
7000
(
1.31911
2.65685
2.71977
2.66984
2.66466
2.64798
2.64456
2.6473
2.64935
2.65155
2.6528
2.65381
2.65495
2.6563
2.6578
2.65943
2.66116
2.66301
2.66498
2.66708
2.6693
2.67165
2.67411
2.67671
2.67941
2.68225
2.6852
2.68826
2.69143
2.6947
2.69806
2.70152
2.70503
2.70862
2.71224
2.71589
2.71953
2.72316
2.72672
2.73021
2.73356
2.73678
2.73976
2.74253
2.74498
2.74714
2.74889
2.75028
2.75123
2.75177
1.31917
2.65706
2.72002
2.66994
2.66479
2.6481
2.64469
2.64742
2.64947
2.65166
2.65292
2.65392
2.65506
2.65641
2.65791
2.65953
2.66126
2.66311
2.66508
2.66718
2.66939
2.67174
2.6742
2.67679
2.67949
2.68233
2.68527
2.68833
2.69149
2.69476
2.69811
2.70156
2.70507
2.70865
2.71226
2.7159
2.71953
2.72315
2.7267
2.73018
2.73351
2.73671
2.73968
2.74243
2.74488
2.74699
2.74875
2.75004
2.75097
2.75132
1.31915
2.65697
2.71992
2.66992
2.66475
2.64804
2.64462
2.64738
2.64938
2.65161
2.65282
2.65387
2.65495
2.65634
2.65779
2.65946
2.66114
2.66303
2.66495
2.66709
2.66925
2.67164
2.67405
2.67668
2.67933
2.6822
2.68509
2.68819
2.69129
2.6946
2.6979
2.70138
2.70485
2.70845
2.71203
2.71569
2.71931
2.72293
2.72649
2.72996
2.73332
2.73648
2.7395
2.74218
2.74465
2.74674
2.74849
2.74984
2.75067
2.75109
1.31913
2.6568
2.71974
2.66991
2.6647
2.64794
2.64453
2.64723
2.6493
2.65145
2.65273
2.65369
2.65486
2.65615
2.65769
2.65925
2.66102
2.66281
2.66483
2.66685
2.66912
2.67137
2.6739
2.67639
2.67917
2.68188
2.68491
2.68784
2.6911
2.69421
2.69768
2.70096
2.7046
2.70799
2.71174
2.71519
2.71896
2.72241
2.72607
2.72944
2.73285
2.73603
2.73898
2.74183
2.7441
2.74633
2.748
2.74926
2.75027
2.75046
1.31909
2.65657
2.7195
2.66994
2.66465
2.6478
2.64441
2.64702
2.64924
2.65122
2.65264
2.65344
2.65475
2.65589
2.65755
2.65897
2.66086
2.66251
2.66463
2.66653
2.66888
2.67104
2.67362
2.67604
2.67884
2.68152
2.68452
2.68746
2.69064
2.69384
2.69716
2.70058
2.704
2.70762
2.71106
2.71482
2.7182
2.72201
2.72524
2.72896
2.73197
2.73538
2.7382
2.74099
2.7436
2.7454
2.74738
2.74864
2.7493
2.74987
1.31905
2.65628
2.71921
2.66998
2.6646
2.64768
2.64422
2.64702
2.64888
2.6512
2.65225
2.6534
2.65433
2.65584
2.65711
2.6589
2.66038
2.66242
2.66411
2.66641
2.66831
2.67088
2.673
2.67583
2.67816
2.68125
2.68379
2.68711
2.68986
2.69338
2.69635
2.70001
2.70318
2.70691
2.71026
2.71397
2.71747
2.72103
2.72462
2.72787
2.73142
2.73413
2.73746
2.7398
2.74249
2.74473
2.74608
2.74767
2.7486
2.74858
1.319
2.65592
2.71885
2.67003
2.66454
2.64748
2.64402
2.64676
2.6487
2.6509
2.65206
2.65307
2.65412
2.65547
2.65689
2.65849
2.66015
2.66196
2.66387
2.66589
2.66807
2.6703
2.67275
2.67517
2.6779
2.68049
2.6835
2.68625
2.68953
2.6924
2.69593
2.6989
2.70263
2.7057
2.70954
2.71271
2.71653
2.71978
2.72344
2.72672
2.73004
2.73334
2.73591
2.73891
2.7409
2.74327
2.74516
2.74615
2.74685
2.7476
1.31894
2.65549
2.71841
2.6701
2.66446
2.64723
2.64377
2.64644
2.64846
2.65055
2.65177
2.65269
2.65379
2.65506
2.65651
2.65805
2.65972
2.66148
2.66338
2.66537
2.66751
2.66974
2.6721
2.67458
2.67716
2.67989
2.68265
2.68564
2.68856
2.6918
2.69483
2.6983
2.70137
2.70505
2.70809
2.7119
2.71494
2.71873
2.72177
2.72534
2.72841
2.73154
2.73471
2.73701
2.73973
2.74143
2.74308
2.74487
2.7457
2.74546
1.31887
2.65497
2.71789
2.67019
2.66437
2.64696
2.64346
2.64616
2.64808
2.65023
2.65134
2.65232
2.65333
2.65464
2.65601
2.65758
2.65917
2.66095
2.66277
2.66478
2.66684
2.66908
2.67137
2.67382
2.67635
2.67901
2.68177
2.68462
2.6876
2.69061
2.6938
2.69692
2.70033
2.70348
2.7071
2.71015
2.71392
2.7168
2.72059
2.72329
2.72687
2.72949
2.73247
2.73539
2.73715
2.73986
2.74127
2.74219
2.74291
2.74391
1.31879
2.65437
2.71728
2.67029
2.66427
2.64661
2.64311
2.6457
2.64776
2.64971
2.65097
2.65176
2.6529
2.65403
2.65552
2.65692
2.65862
2.66023
2.66216
2.664
2.66614
2.66821
2.67058
2.67287
2.67545
2.67796
2.68074
2.68346
2.68642
2.68933
2.69245
2.69552
2.69876
2.70197
2.70525
2.70859
2.7118
2.71524
2.71821
2.7217
2.72427
2.7277
2.72984
2.73283
2.73526
2.7365
2.73875
2.74031
2.7411
2.74058
1.31869
2.65366
2.71657
2.6704
2.66415
2.64625
2.64266
2.64536
2.64717
2.64931
2.65033
2.6513
2.65221
2.65351
2.65477
2.65633
2.6578
2.65957
2.66126
2.66325
2.66517
2.66737
2.66951
2.67191
2.67427
2.67687
2.67944
2.68221
2.68498
2.6879
2.69085
2.69389
2.69698
2.7001
2.7033
2.70644
2.70969
2.71277
2.71601
2.7189
2.72202
2.72456
2.72747
2.72942
2.73208
2.73435
2.73507
2.73611
2.73679
2.73819
1.31858
2.65286
2.71577
2.67053
2.66401
2.64578
2.64219
2.64472
2.64674
2.6486
2.64983
2.65053
2.65165
2.65267
2.65414
2.65541
2.65709
2.65857
2.66047
2.66215
2.66427
2.66616
2.66849
2.67058
2.67311
2.67539
2.67812
2.68058
2.68347
2.6861
2.68912
2.69189
2.695
2.6979
2.70103
2.70403
2.70708
2.71016
2.713
2.71613
2.71862
2.72168
2.72377
2.72635
2.72792
2.72981
2.73211
2.73328
2.73395
2.73305
1.31846
2.65194
2.71485
2.67069
2.66384
2.64529
2.6416
2.6442
2.64602
2.64801
2.64903
2.64986
2.65077
2.65193
2.65317
2.6546
2.65604
2.65766
2.6593
2.66114
2.66298
2.66503
2.66706
2.66932
2.67152
2.67397
2.67634
2.67897
2.68148
2.68426
2.6869
2.68981
2.69252
2.69553
2.69826
2.70132
2.70401
2.70704
2.70965
2.71247
2.71507
2.71736
2.72008
2.72174
2.72416
2.72539
2.72599
2.72687
2.72739
2.72925
1.31833
2.65094
2.71378
2.67106
2.66345
2.64473
2.64096
2.64349
2.64531
2.6472
2.64824
2.64896
2.6499
2.65094
2.65223
2.6535
2.655
2.65646
2.65816
2.65981
2.66172
2.66354
2.66566
2.66765
2.66996
2.67211
2.67458
2.67688
2.67949
2.68193
2.68463
2.68719
2.68993
2.69259
2.69531
2.69801
2.70067
2.70332
2.7059
2.70832
2.71077
2.71288
2.71478
2.71682
2.71785
2.72
2.72156
2.72238
2.72271
2.72109
1.3182
2.64986
2.7125
2.67177
2.66275
2.6441
2.64022
2.64266
2.64451
2.64625
2.64734
2.64793
2.6489
2.64982
2.65112
2.65229
2.65377
2.65514
2.65679
2.65837
2.66018
2.66197
2.66393
2.66593
2.668
2.6702
2.67236
2.67476
2.67697
2.67955
2.68177
2.68449
2.68671
2.68948
2.6917
2.69439
2.69662
2.69909
2.70132
2.70349
2.70557
2.70751
2.70925
2.71058
2.71193
2.71184
2.71224
2.7124
2.71296
2.71468
1.31805
2.64865
2.71115
2.67235
2.6621
2.64339
2.63936
2.64185
2.64347
2.64532
2.64619
2.64691
2.64764
2.6487
2.64973
2.65105
2.65225
2.65377
2.65513
2.65686
2.65836
2.66028
2.66192
2.66402
2.66578
2.66803
2.66992
2.67227
2.67429
2.67668
2.67882
2.68117
2.68345
2.68565
2.68804
2.69003
2.69241
2.69417
2.6963
2.69788
2.69949
2.70079
2.70202
2.70303
2.70356
2.70491
2.70454
2.70451
2.70319
2.70083
1.31788
2.64731
2.70969
2.67291
2.66142
2.6426
2.6384
2.64094
2.64231
2.64425
2.64492
2.64572
2.64627
2.64739
2.64825
2.6496
2.65065
2.65216
2.65339
2.65505
2.65647
2.65824
2.65985
2.66172
2.6635
2.66542
2.66737
2.66931
2.6714
2.67333
2.6755
2.67741
2.67958
2.68145
2.68348
2.68535
2.68706
2.68892
2.6902
2.69179
2.69274
2.69353
2.69383
2.69393
2.69327
2.69145
2.69076
2.6886
2.68794
2.68784
1.3177
2.64586
2.70814
2.67348
2.66068
2.64168
2.63734
2.63972
2.64119
2.64286
2.64368
2.64421
2.64492
2.64574
2.64678
2.64781
2.64904
2.65021
2.65162
2.65292
2.6545
2.65591
2.65764
2.65916
2.661
2.66261
2.66451
2.66622
2.66812
2.6699
2.67173
2.67355
2.67523
2.67703
2.67847
2.68009
2.68129
2.68245
2.68351
2.68388
2.68468
2.6846
2.68423
2.68326
2.68205
2.68041
2.67612
2.67255
2.66671
2.66069
1.31751
2.64432
2.70649
2.67406
2.65987
2.64066
2.63615
2.6384
2.63985
2.64137
2.64221
2.64261
2.64331
2.64402
2.64501
2.64595
2.64709
2.64819
2.64945
2.65072
2.65207
2.6535
2.65491
2.65647
2.65793
2.6596
2.66107
2.66281
2.66425
2.66602
2.66741
2.66909
2.67043
2.67188
2.67313
2.67416
2.67525
2.67561
2.67624
2.67608
2.67522
2.67446
2.67204
2.66992
2.66527
2.65992
2.65476
2.64501
2.63537
2.62273
1.3173
2.64272
2.70481
2.67463
2.65893
2.63955
2.63476
2.63708
2.63818
2.63986
2.64043
2.641
2.64142
2.6423
2.64298
2.64409
2.64493
2.64617
2.64713
2.64848
2.64955
2.65099
2.65216
2.65364
2.65489
2.65636
2.65767
2.65907
2.6604
2.66166
2.66298
2.664
2.66523
2.66594
2.66694
2.66724
2.6679
2.66778
2.66743
2.66657
2.66549
2.66282
2.6606
2.6553
2.65065
2.64068
2.62785
2.61094
2.58207
2.51103
1.31729
2.6418
2.70042
2.67514
2.65753
2.6378
2.63269
2.6348
2.63592
2.63731
2.63802
2.63829
2.63885
2.63937
2.64024
2.64095
2.64196
2.64277
2.64391
2.64481
2.64605
2.64699
2.64831
2.64927
2.65062
2.65157
2.65289
2.65378
2.655
2.65578
2.6568
2.6574
2.65805
2.65835
2.65856
2.65824
2.65765
2.65675
2.65486
2.65282
2.6487
2.64512
2.63748
2.6314
2.61843
2.60621
2.58347
2.54735
2.4896
2.36403
1.31727
2.64082
2.69571
2.67532
2.65562
2.63543
2.62982
2.6319
2.63277
2.6342
2.63482
2.63512
2.63551
2.63604
2.63669
2.63742
2.63817
2.63899
2.63981
2.64071
2.64157
2.64251
2.64337
2.64433
2.64513
2.64607
2.64677
2.64763
2.64814
2.64885
2.64908
2.64959
2.64954
2.64937
2.64888
2.64831
2.64678
2.64551
2.6424
2.63997
2.63488
2.62894
2.62129
2.60787
2.59492
2.56852
2.54179
2.49172
2.41721
2.31799
1.31724
2.64016
2.69324
2.67516
2.65404
2.63314
2.62691
2.62875
2.62951
2.63094
2.63152
2.63176
2.63205
2.6325
2.63305
2.63368
2.63433
2.63503
2.63573
2.63648
2.63721
2.63798
2.6387
2.63943
2.64008
2.64071
2.64122
2.64165
2.64192
2.64208
2.64191
2.64152
2.64098
2.63979
2.63855
2.63621
2.63412
2.6302
2.62709
2.62079
2.61616
2.60615
2.59867
2.58345
2.56679
2.54292
2.50652
2.46402
2.39207
2.3185
1.31712
2.63901
2.69243
2.67397
2.6521
2.63034
2.62365
2.62559
2.62643
2.62794
2.62847
2.62853
2.62863
2.6289
2.62915
2.6296
2.62991
2.6304
2.63074
2.63126
2.63164
2.63217
2.63256
2.63308
2.63346
2.63392
2.63423
2.63463
2.63474
2.63481
2.6347
2.63436
2.63377
2.63248
2.63121
2.62843
2.62609
2.62118
2.61681
2.60952
2.60134
2.59131
2.57734
2.56328
2.54111
2.51829
2.48442
2.44399
2.39091
2.32896
1.31689
2.6402
2.70396
2.67061
2.65209
2.62871
2.62151
2.62423
2.6252
2.62704
2.62752
2.62746
2.62743
2.62746
2.62755
2.62765
2.62771
2.62774
2.62773
2.62769
2.62761
2.62744
2.62728
2.62694
2.62667
2.62619
2.62582
2.62501
2.62453
2.62344
2.62279
2.62132
2.62045
2.61843
2.61713
2.6143
2.61178
2.60795
2.60279
2.59716
2.58813
2.57879
2.5647
2.5488
2.52839
2.50257
2.47341
2.4347
2.39201
2.34481
1.30178
2.5866
2.69852
2.67707
2.65966
2.63614
2.62925
2.63214
2.63321
2.63473
2.6346
2.63416
2.63349
2.63295
2.63236
2.63183
2.63119
2.63063
2.62997
2.62943
2.62875
2.62822
2.62749
2.627
2.62612
2.62557
2.62433
2.62342
2.62156
2.62024
2.61759
2.61577
2.61226
2.61001
2.60554
2.60276
2.59707
2.59354
2.58642
2.5809
2.57196
2.56265
2.55065
2.53536
2.518
2.49462
2.46887
2.4359
2.39828
2.3581
1.7205
2.46898
2.72874
2.70691
2.68435
2.67404
2.67458
2.67612
2.67752
2.6778
2.67661
2.67515
2.67352
2.67174
2.66977
2.66757
2.66516
2.66255
2.65972
2.65676
2.65354
2.65029
2.64674
2.64329
2.6393
2.63538
2.63095
2.62785
2.624
2.62145
2.61778
2.61508
2.61079
2.60713
2.60192
2.59687
2.59074
2.58376
2.57682
2.56743
2.55925
2.54692
2.53639
2.52032
2.50555
2.4845
2.46326
2.43568
2.40597
2.37319
1.73239
2.46207
2.72324
2.70217
2.67741
2.66843
2.67232
2.67402
2.67671
2.67753
2.67773
2.67759
2.67733
2.67703
2.67635
2.67574
2.67442
2.67346
2.67143
2.67011
2.66738
2.66566
2.66225
2.65996
2.65603
2.65341
2.64901
2.64485
2.63923
2.63381
2.62722
2.62105
2.61487
2.60886
2.60317
2.59613
2.59013
2.58136
2.57386
2.56304
2.5534
2.5403
2.52776
2.51211
2.49579
2.47694
2.45609
2.43319
2.40778
2.3817
1.72915
2.46762
2.72522
2.70247
2.67384
2.66437
2.6692
2.67164
2.6748
2.67592
2.67626
2.6764
2.67657
2.67655
2.67645
2.6762
2.6756
2.67521
2.67429
2.67357
2.672
2.67093
2.6687
2.66698
2.66413
2.66148
2.65807
2.65442
2.6503
2.64536
2.64066
2.63412
2.62807
2.61906
2.61182
2.6017
2.59374
2.58347
2.57489
2.56367
2.55333
2.5405
2.52746
2.51226
2.49616
2.47788
2.4581
2.43631
2.41281
2.38987
1.73185
2.46091
2.72068
2.69698
2.67077
2.66112
2.66568
2.66793
2.6711
2.67235
2.67276
2.67304
2.67337
2.67368
2.67394
2.67398
2.67389
2.67364
2.67321
2.67251
2.67183
2.67052
2.66955
2.66754
2.66622
2.66352
2.66172
2.65802
2.65563
2.6507
2.64761
2.64136
2.63708
2.62956
2.62343
2.61424
2.60569
2.59432
2.5835
2.5707
2.55814
2.54441
2.53049
2.51519
2.49909
2.48149
2.46333
2.44328
2.42223
2.40153
1.74102
2.44275
2.70915
2.68463
2.66704
2.65767
2.66062
2.66233
2.66541
2.66647
2.66713
2.66721
2.66743
2.66755
2.66769
2.66769
2.66763
2.66746
2.66728
2.66681
2.66646
2.66567
2.66509
2.66383
2.66289
2.66084
2.65946
2.65648
2.65454
2.65053
2.64762
2.64268
2.63858
2.6326
2.62693
2.61963
2.61221
2.60317
2.59349
2.58226
2.57012
2.55617
2.54155
2.52546
2.50914
2.49139
2.47316
2.45387
2.43385
2.41435
1.73597
2.43632
2.7058
2.6771
2.66925
2.65601
2.65612
2.65813
2.66113
2.66224
2.66331
2.66341
2.66368
2.66388
2.66404
2.66412
2.66409
2.66399
2.66384
2.66349
2.66319
2.66252
2.66201
2.6609
2.66011
2.65839
2.65722
2.65472
2.65297
2.64966
2.64695
2.64276
2.63876
2.63363
2.62845
2.62205
2.61542
2.60752
2.59923
2.58962
2.57939
2.56766
2.55512
2.54097
2.52589
2.50942
2.49217
2.47383
2.45472
2.43609
1.35698
2.46741
2.67923
2.66853
2.64652
2.62387
2.61683
2.62087
2.62285
2.62572
2.62715
2.62818
2.62898
2.62999
2.63071
2.6318
2.63246
2.63343
2.63394
2.63477
2.63509
2.63582
2.63595
2.63613
2.63614
2.63603
2.63581
2.63522
2.63464
2.63344
2.63227
2.63037
2.62838
2.62539
2.62216
2.61757
2.61253
2.60615
2.59923
2.59097
2.58228
2.57218
2.56155
2.54969
2.53696
2.52305
2.50823
2.49236
2.47557
2.4591
1.3604
2.47698
2.68634
2.67711
2.65248
2.62351
2.61388
2.61471
2.61669
2.61865
2.61947
2.61956
2.61976
2.61979
2.62005
2.62039
2.62076
2.62108
2.62142
2.62165
2.62193
2.62201
2.62218
2.6221
2.62193
2.62154
2.62115
2.62028
2.61959
2.6181
2.61696
2.61475
2.61283
2.60988
2.60705
2.60352
2.59986
2.5954
2.59045
2.58479
2.57808
2.5705
2.5615
2.55159
2.54074
2.52908
2.51671
2.5035
2.4894
2.4756
1.34961
2.41266
2.66941
2.66957
2.65015
2.62376
2.614
2.61405
2.61475
2.61531
2.61498
2.61411
2.61336
2.61233
2.61166
2.61097
2.61047
2.60982
2.60933
2.60869
2.60822
2.60758
2.60708
2.60641
2.60585
2.60507
2.60436
2.60352
2.60263
2.60155
2.60018
2.59863
2.59661
2.59445
2.59165
2.58869
2.58501
2.58114
2.57649
2.57142
2.56568
2.5596
2.55291
2.54561
2.53754
2.52818
2.51765
2.50657
2.49478
2.48341
1.74168
2.39662
2.67499
2.66131
2.65252
2.63861
2.63344
2.63369
2.63345
2.63316
2.63236
2.63114
2.62973
2.62807
2.62646
2.62488
2.6232
2.62148
2.61963
2.61777
2.61577
2.6138
2.61166
2.60959
2.60731
2.60519
2.6028
2.60071
2.59822
2.5958
2.59324
2.5906
2.5878
2.58475
2.58156
2.57793
2.57419
2.5698
2.56532
2.56003
2.55465
2.54834
2.54198
2.53464
2.52706
2.51905
2.51093
2.5019
2.49218
2.48259
1.34701
2.39562
2.6602
2.66582
2.64949
2.62421
2.6156
2.61426
2.61552
2.61579
2.61551
2.61516
2.61428
2.61336
2.61271
2.61186
2.61114
2.61007
2.60913
2.60779
2.60666
2.60529
2.60413
2.60263
2.60136
2.59949
2.59791
2.5954
2.59339
2.59067
2.58832
2.58524
2.58244
2.57888
2.57565
2.57172
2.56801
2.56361
2.55927
2.55428
2.54913
2.54335
2.53723
2.53058
2.5234
2.51582
2.50768
2.49927
2.49031
2.48169
1.34834
2.40651
2.66739
2.67128
2.65097
2.62224
2.61098
2.6108
2.61176
2.61247
2.61235
2.61165
2.61089
2.6099
2.6093
2.60856
2.60797
2.60707
2.60626
2.60513
2.60399
2.60232
2.60064
2.59848
2.59631
2.59381
2.59129
2.58849
2.58558
2.58248
2.57918
2.57579
2.57222
2.56866
2.56471
2.56079
2.55638
2.5521
2.54723
2.54253
2.53719
2.53206
2.52619
2.52049
2.51402
2.50763
2.50044
2.49316
2.48534
2.47799
1.34776
2.40217
2.66461
2.66933
2.64837
2.61895
2.60695
2.6068
2.60761
2.60852
2.60823
2.60738
2.60656
2.60545
2.60474
2.60399
2.60336
2.60256
2.6018
2.60086
2.5999
2.59874
2.59746
2.59598
2.59427
2.59237
2.59015
2.58778
2.58503
2.58215
2.57885
2.57546
2.57162
2.56775
2.56345
2.55908
2.55423
2.54928
2.54393
2.53841
2.53259
2.52657
2.52032
2.51379
2.50712
2.50013
2.4931
2.48561
2.47806
2.47068
1.34492
2.37916
2.64745
2.66155
2.64241
2.61457
2.60276
2.60132
2.60163
2.60186
2.60121
2.60043
2.59909
2.598
2.59692
2.59605
2.59501
2.59408
2.59293
2.5919
2.59063
2.58951
2.58813
2.58689
2.58537
2.58395
2.58221
2.5805
2.57843
2.57633
2.57387
2.57127
2.56828
2.56503
2.56141
2.55749
2.55328
2.54871
2.54387
2.53859
2.53311
2.52716
2.52104
2.51445
2.50772
2.50056
2.49332
2.48581
2.47818
2.47085
1.75129
2.37311
2.64566
2.64173
2.62827
2.61417
2.6093
2.60954
2.60952
2.6094
2.60883
2.60817
2.60694
2.6058
2.60452
2.6034
2.60203
2.60072
2.59914
2.59759
2.5958
2.59404
2.59205
2.59006
2.58788
2.58567
2.58328
2.58082
2.57819
2.57546
2.57265
2.56968
2.56662
2.5633
2.55986
2.55607
2.55215
2.54781
2.54327
2.53831
2.53309
2.52749
2.5217
2.51557
2.50925
2.50261
2.49573
2.48857
2.48107
2.47393
1.34701
2.38878
2.65259
2.65982
2.63928
2.60894
2.5976
2.59624
2.59787
2.59919
2.59903
2.59853
2.59794
2.59667
2.596
2.59479
2.59405
2.59257
2.59162
2.58989
2.58835
2.58651
2.58469
2.58256
2.58049
2.57825
2.57617
2.57388
2.57173
2.56927
2.56674
2.56385
2.56089
2.55761
2.55426
2.55064
2.5469
2.54291
2.53882
2.53448
2.52997
2.52516
2.52007
2.51462
2.50887
2.50281
2.49648
2.48995
2.4831
2.47655
1.35071
2.41204
2.65481
2.64885
2.62691
2.59635
2.58559
2.58585
2.58764
2.58956
2.5899
2.58966
2.5892
2.58842
2.58791
2.58739
2.58693
2.58631
2.58565
2.58485
2.58397
2.58295
2.5818
2.58048
2.57899
2.57716
2.57507
2.57268
2.57005
2.56717
2.56417
2.56098
2.55765
2.55414
2.55046
2.54661
2.54259
2.53839
2.53401
2.52947
2.52473
2.51984
2.51483
2.50971
2.50436
2.49887
2.4931
2.48715
2.4809
2.47493
1.7712
2.37217
2.63845
2.61752
2.61119
2.59589
2.59316
2.59391
2.59502
2.5963
2.59604
2.59556
2.59521
2.59454
2.59397
2.59339
2.59281
2.59213
2.59141
2.59059
2.5897
2.58871
2.58762
2.58639
2.58506
2.58355
2.58188
2.57999
2.57791
2.57551
2.57277
2.56975
2.56641
2.56282
2.55894
2.55484
2.55049
2.54594
2.54117
2.53623
2.53105
2.52569
2.52003
2.51421
2.50822
2.50209
2.49588
2.48957
2.48314
2.47701
1.79772
2.35514
2.62644
2.60585
2.60267
2.59275
2.58936
2.58959
2.58983
2.59039
2.59013
2.58952
2.58887
2.58785
2.58682
2.5857
2.58452
2.58318
2.58179
2.58025
2.57867
2.57696
2.57526
2.57348
2.57172
2.56988
2.56806
2.56614
2.56423
2.56227
2.56038
2.55835
2.55636
2.55417
2.55195
2.54945
2.54686
2.5439
2.54058
2.5369
2.533
2.52882
2.52442
2.51971
2.51477
2.50953
2.50401
2.49817
2.49208
2.48617
1.76255
2.38163
2.65006
2.61927
2.61348
2.59933
2.59617
2.59828
2.59975
2.60058
2.60032
2.59983
2.59878
2.59758
2.5963
2.59498
2.59355
2.59203
2.59039
2.5887
2.58689
2.58505
2.58295
2.58076
2.57831
2.57579
2.57301
2.57019
2.56714
2.56408
2.56078
2.55753
2.55407
2.55056
2.54686
2.54313
2.53919
2.53528
2.53139
2.52746
2.52339
2.51921
2.51484
2.51042
2.50582
2.50115
2.49628
2.49131
2.48608
2.48115
1.28618
2.49454
2.64471
2.64201
2.61675
2.58404
2.57198
2.57242
2.57506
2.57744
2.5787
2.57892
2.57915
2.57912
2.57906
2.57899
2.57883
2.57852
2.57806
2.57741
2.57658
2.57553
2.57438
2.57303
2.57156
2.56986
2.56813
2.56599
2.56375
2.56136
2.55874
2.55596
2.55285
2.54966
2.54616
2.54259
2.53873
2.53481
2.53063
2.52642
2.52198
2.51751
2.51302
2.50829
2.50343
2.49835
2.49317
2.48777
2.48226
2.477
1.77181
2.3672
2.6395
2.61692
2.61062
2.59521
2.59027
2.59118
2.5916
2.59319
2.59281
2.59224
2.59179
2.59099
2.59025
2.58939
2.58862
2.58765
2.58672
2.58557
2.58446
2.58311
2.58181
2.58024
2.57871
2.5769
2.57511
2.573
2.57069
2.56808
2.56528
2.5622
2.55912
2.5558
2.55248
2.54887
2.54524
2.54128
2.53731
2.53299
2.52866
2.52396
2.5191
2.51403
2.50888
2.50352
2.49808
2.49246
2.48674
2.48126
1.77322
2.36539
2.6374
2.615
2.60876
2.59347
2.58851
2.58961
2.59067
2.59176
2.5923
2.5918
2.59137
2.59057
2.58971
2.58878
2.58779
2.58665
2.58541
2.58402
2.58255
2.58095
2.57926
2.57747
2.57558
2.57362
2.57153
2.56942
2.56735
2.56519
2.56302
2.56069
2.55818
2.55548
2.55258
2.54952
2.5463
2.54292
2.53936
2.53566
2.53176
2.52773
2.52348
2.51911
2.51452
2.50982
2.50489
2.49987
2.49461
2.48951
1.28558
2.49093
2.64202
2.63934
2.6136
2.57896
2.56602
2.56552
2.56805
2.57011
2.57107
2.57101
2.57087
2.57048
2.57017
2.5697
2.56941
2.56878
2.56834
2.56745
2.5668
2.56564
2.56476
2.56333
2.56221
2.56058
2.55895
2.55718
2.55527
2.55326
2.55114
2.54893
2.54661
2.54419
2.54166
2.53899
2.53618
2.53323
2.53014
2.52686
2.52344
2.51984
2.5161
2.51218
2.50813
2.50388
2.49952
2.49497
2.49029
2.48576
1.76675
2.37284
2.64059
2.60985
2.60344
2.58747
2.58441
2.58658
2.58748
2.5896
2.58936
2.58882
2.58836
2.58752
2.58673
2.58584
2.58498
2.58394
2.58288
2.58165
2.5804
2.579
2.57755
2.57598
2.57431
2.57254
2.57065
2.56866
2.56653
2.5643
2.56191
2.55929
2.55655
2.55358
2.55049
2.54719
2.54379
2.54019
2.5365
2.5327
2.5288
2.52478
2.52063
2.51636
2.51196
2.50743
2.50276
2.49798
2.49305
2.48832
1.79463
2.35596
2.62401
2.5959
2.59188
2.58018
2.57691
2.5781
2.57841
2.57913
2.57895
2.57854
2.57808
2.57734
2.57662
2.57587
2.57506
2.57416
2.57317
2.57208
2.57091
2.56964
2.56829
2.56684
2.5653
2.56366
2.56194
2.56012
2.55822
2.55621
2.55413
2.55207
2.54989
2.54773
2.54542
2.54309
2.54059
2.53799
2.53517
2.53221
2.52901
2.52571
2.52222
2.51863
2.51484
2.51095
2.50685
2.50267
2.49826
2.49408
1.79924
2.35072
2.61898
2.59272
2.58907
2.57782
2.57401
2.57469
2.57486
2.57525
2.57512
2.5747
2.57421
2.57345
2.57267
2.57189
2.57103
2.5701
2.56905
2.56793
2.56669
2.56538
2.56393
2.56241
2.56075
2.55901
2.55713
2.55516
2.55306
2.55086
2.54853
2.54611
2.54355
2.54091
2.53813
2.53527
2.53229
2.52928
2.52617
2.52301
2.51975
2.5164
2.51291
2.50934
2.50562
2.50182
2.49787
2.49382
2.48961
2.48561
1.77979
2.35595
2.61655
2.60299
2.59362
2.57717
2.57214
2.57262
2.57323
2.57386
2.57384
2.57336
2.57284
2.57201
2.5712
2.57042
2.56957
2.56866
2.56764
2.56655
2.56535
2.56407
2.56268
2.56121
2.55962
2.55794
2.55614
2.55424
2.55221
2.55008
2.54782
2.54545
2.54295
2.54033
2.53758
2.53471
2.53171
2.52859
2.52533
2.52196
2.51847
2.51486
2.51113
2.50729
2.50333
2.49925
2.49505
2.49073
2.48629
2.48204
1.34476
2.37985
2.63799
2.63736
2.61517
2.58172
2.56751
2.56513
2.56644
2.56755
2.5675
2.56725
2.56655
2.56555
2.56465
2.56386
2.56303
2.56215
2.56115
2.56009
2.5589
2.55764
2.55626
2.5548
2.5532
2.55153
2.54971
2.54781
2.54575
2.54361
2.54132
2.53893
2.53639
2.53375
2.53095
2.52806
2.525
2.52184
2.51852
2.5151
2.51151
2.50783
2.50397
2.50003
2.49591
2.49171
2.48735
2.48293
2.47833
2.47394
1.34602
2.38745
2.65287
2.65699
2.63095
2.59245
2.57492
2.57257
2.57421
2.57549
2.57594
2.57559
2.57476
2.57376
2.5727
2.57183
2.57095
2.57005
2.56901
2.56793
2.56672
2.56546
2.56409
2.56266
2.56111
2.55951
2.55777
2.55598
2.55404
2.55205
2.54991
2.5477
2.54535
2.54292
2.54034
2.53768
2.53487
2.53197
2.52891
2.52576
2.52244
2.51904
2.51547
2.5118
2.50797
2.50404
2.49995
2.49577
2.49143
2.48725
1.34509
2.37933
2.63633
2.63634
2.61342
2.58009
2.56493
2.56294
2.56429
2.56521
2.56562
2.56519
2.56449
2.56345
2.56252
2.56169
2.56089
2.56001
2.55906
2.55802
2.55691
2.55571
2.55445
2.55309
2.55166
2.55012
2.54852
2.5468
2.54501
2.5431
2.54112
2.53902
2.53683
2.53452
2.53213
2.5296
2.52699
2.52424
2.52141
2.51843
2.51538
2.51216
2.50887
2.50542
2.50189
2.49819
2.49443
2.49049
2.48647
2.48255
1.78107
2.35421
2.61403
2.59969
2.59002
2.57214
2.56707
2.56743
2.56801
2.56906
2.5689
2.56835
2.56786
2.56698
2.56622
2.56541
2.56463
2.5637
2.56277
2.56169
2.56059
2.55935
2.55809
2.55668
2.55525
2.55366
2.55206
2.55029
2.5485
2.54653
2.54454
2.54238
2.54019
2.53782
2.53542
2.53284
2.53022
2.52742
2.52459
2.52156
2.51849
2.51524
2.51194
2.50845
2.50492
2.50119
2.49742
2.49345
2.48941
2.48547
1.80129
2.34721
2.61458
2.58737
2.58383
2.57256
2.56906
2.57014
2.57044
2.57088
2.57073
2.57021
2.56967
2.56877
2.56795
2.56706
2.56617
2.56515
2.5641
2.56291
2.56169
2.56033
2.55893
2.55739
2.55581
2.55408
2.5523
2.55037
2.54839
2.54626
2.54407
2.54172
2.53932
2.53675
2.53412
2.53133
2.52847
2.52545
2.52236
2.51911
2.51579
2.51231
2.50875
2.50503
2.50124
2.49728
2.49326
2.48907
2.4848
2.48066
1.78826
2.36083
2.627
2.59538
2.58876
2.57465
2.57217
2.5742
2.57569
2.57661
2.57658
2.57607
2.57553
2.5747
2.57392
2.5731
2.57225
2.57128
2.57026
2.56912
2.56793
2.56663
2.56527
2.56379
2.56225
2.56058
2.55885
2.55699
2.55506
2.553
2.55087
2.5486
2.54626
2.54377
2.54121
2.53851
2.53572
2.53279
2.52977
2.52661
2.52336
2.51996
2.51647
2.51284
2.50912
2.50524
2.50128
2.49718
2.49298
2.48891
2.17222
2.34536
2.76273
2.8605
2.85945
2.81772
2.81607
2.81552
2.80834
2.80725
2.81035
2.81188
2.81327
2.81412
2.81594
2.81728
2.81939
2.82119
2.8228
2.8238
2.82425
2.82439
2.82318
2.82236
2.81943
2.81705
2.81311
2.80929
2.80443
2.79949
2.7938
2.78795
2.78156
2.77502
2.7683
2.76134
2.75427
2.74649
2.73842
2.73031
2.72219
2.714
2.70579
2.69754
2.68931
2.6811
2.67297
2.6649
2.65695
2.64912
2.64145
2.63393
2.62664
2.61955
2.61272
2.60616
2.59992
2.59399
2.58845
2.58329
2.57857
2.57429
2.57052
2.56724
2.56453
2.56234
2.56075
2.55969
2.55921
2.55911
2.55923
2.55958
2.56044
2.56191
2.56396
2.5662
2.56841
2.5707
2.57289
2.57508
2.57707
2.57895
2.58056
2.58199
2.58312
2.58406
2.58469
2.58515
2.58533
2.5854
2.5853
2.58506
2.58471
2.58399
2.58325
2.58221
2.58136
2.58021
2.5793
2.57626
2.18039
2.26039
2.45049
2.62855
2.6972
2.73332
2.76024
2.78488
2.79902
2.8117
2.81965
2.82965
2.83519
2.8348
2.83092
2.82563
2.81822
2.81088
2.8017
2.79291
2.78279
2.77326
2.76281
2.75307
2.74226
2.73205
2.72095
2.71053
2.69936
2.68887
2.67773
2.66726
2.65624
2.64586
2.63523
2.62532
2.61509
2.60479
2.59408
2.58373
2.5736
2.56369
2.55388
2.54428
2.53481
2.52556
2.51648
2.50764
2.49899
2.4906
2.48243
2.47455
2.46691
2.45959
2.45256
2.44587
2.43952
2.43357
2.42799
2.42285
2.41815
2.41394
2.41021
2.40702
2.40437
2.40228
2.40075
2.3998
2.39938
2.39939
2.39966
2.40021
2.40132
2.40308
2.40554
2.40821
2.41094
2.41369
2.41639
2.41899
2.42143
2.42364
2.42559
2.42725
2.42859
2.42963
2.43036
2.43081
2.43097
2.43094
2.4308
2.43048
2.43011
2.42931
2.42854
2.42741
2.42655
2.42537
2.42459
2.42171
2.22679
2.21297
2.27125
2.35854
2.41093
2.46073
2.49442
2.52174
2.54286
2.55874
2.57062
2.57975
2.58649
2.58897
2.58825
2.58657
2.58267
2.57819
2.57271
2.56678
2.5601
2.5533
2.54598
2.53879
2.53101
2.52336
2.51515
2.50722
2.49879
2.49074
2.48222
2.47413
2.46558
2.45749
2.44918
2.44156
2.43364
2.42563
2.41703
2.40869
2.40052
2.39257
2.38463
2.37686
2.36911
2.36155
2.35405
2.34675
2.33954
2.33255
2.32568
2.31906
2.31259
2.3064
2.30039
2.29471
2.28925
2.28415
2.27933
2.27491
2.27082
2.2672
2.26394
2.2612
2.25888
2.2571
2.25577
2.255
2.2547
2.25479
2.2551
2.25561
2.25663
2.25825
2.26052
2.26298
2.26555
2.26809
2.2706
2.27298
2.27523
2.27723
2.27901
2.28049
2.28171
2.28262
2.28326
2.28362
2.28374
2.28369
2.28356
2.28327
2.28294
2.28221
2.28153
2.28052
2.27978
2.27876
2.27827
2.27587
2.25963
2.22035
2.21599
2.24102
2.27156
2.29408
2.30931
2.32114
2.33168
2.34093
2.34859
2.3547
2.35944
2.36304
2.36458
2.36484
2.36479
2.36468
2.36449
2.36422
2.36372
2.36307
2.36233
2.36105
2.35951
2.35772
2.35542
2.35291
2.34993
2.34681
2.34325
2.33958
2.33547
2.33131
2.32695
2.32286
2.31849
2.31373
2.30829
2.30276
2.29719
2.29172
2.28614
2.28058
2.2749
2.26928
2.26356
2.25795
2.25229
2.24677
2.24123
2.23587
2.23054
2.22543
2.22039
2.21562
2.21097
2.20663
2.20247
2.19868
2.19511
2.19197
2.1891
2.18671
2.18465
2.18312
2.18195
2.18133
2.18112
2.18128
2.1816
2.18211
2.18312
2.18464
2.18675
2.18904
2.19152
2.19393
2.19635
2.19858
2.20071
2.20256
2.20424
2.20558
2.20673
2.20753
2.20814
2.20841
2.20853
2.20845
2.20835
2.20812
2.20782
2.20717
2.2066
2.20569
2.20509
2.20422
2.20397
2.2019
2.27509
2.24097
2.21927
2.21179
2.21885
2.22348
2.22553
2.22613
2.22714
2.229
2.23183
2.23413
2.23619
2.23802
2.24078
2.24306
2.24528
2.24773
2.25041
2.25326
2.25616
2.25894
2.26156
2.2638
2.26574
2.2671
2.26806
2.26854
2.26826
2.26771
2.26661
2.26515
2.26314
2.26088
2.25836
2.25592
2.25313
2.24985
2.24582
2.24149
2.23701
2.2325
2.22786
2.22317
2.21833
2.21347
2.20848
2.20352
2.19849
2.19352
2.18852
2.18364
2.17878
2.17407
2.16944
2.16501
2.1607
2.15666
2.15279
2.14924
2.14591
2.14296
2.14028
2.13804
2.13613
2.1347
2.13363
2.13313
2.13301
2.1332
2.13351
2.13407
2.13508
2.1366
2.13856
2.14075
2.14313
2.1455
2.14784
2.15002
2.15205
2.15384
2.15542
2.1567
2.15776
2.15851
2.15904
2.15928
2.15935
2.15927
2.15917
2.15891
2.15861
2.15793
2.15744
2.15654
2.15601
2.15518
2.15505
2.15305
2.29855
2.25474
2.23053
2.21067
2.20089
2.19402
2.18828
2.18219
2.17736
2.17357
2.17186
2.17137
2.17198
2.17235
2.17345
2.17568
2.17825
2.18144
2.18439
2.18801
2.19139
2.19525
2.19858
2.2021
2.20486
2.20756
2.20936
2.21099
2.2117
2.21226
2.21204
2.21138
2.2102
2.20869
2.20695
2.20521
2.20311
2.2005
2.19716
2.19346
2.18953
2.18548
2.18131
2.17706
2.17269
2.16825
2.16372
2.15914
2.15451
2.14988
2.14525
2.14067
2.13613
2.1317
2.12735
2.12316
2.11911
2.11528
2.11163
2.10825
2.10512
2.10231
2.09981
2.09768
2.0959
2.09455
2.09362
2.09322
2.09318
2.09336
2.09369
2.09429
2.09533
2.09684
2.0987
2.1008
2.10307
2.10537
2.10765
2.10977
2.11173
2.11346
2.11496
2.11619
2.11718
2.11789
2.11838
2.1186
2.11864
2.11856
2.11844
2.11815
2.11785
2.11716
2.11671
2.11582
2.11534
2.11456
2.1145
2.11255
2.32217
2.28218
2.24851
2.2237
2.20327
2.18831
2.17591
2.16543
2.15592
2.14846
2.14259
2.1391
2.13699
2.13661
2.13667
2.13724
2.13912
2.14196
2.14518
2.14857
2.15223
2.15601
2.15979
2.16349
2.16692
2.17004
2.17264
2.17482
2.17635
2.17748
2.17793
2.17805
2.17745
2.17653
2.17546
2.1743
2.1728
2.17073
2.16801
2.16487
2.16146
2.15784
2.1541
2.15023
2.14627
2.1422
2.13806
2.13382
2.12955
2.12522
2.12091
2.11659
2.11233
2.10813
2.10403
2.10005
2.09622
2.09255
2.08911
2.08588
2.08292
2.08024
2.07788
2.07584
2.0742
2.07294
2.07213
2.07181
2.07184
2.07201
2.07235
2.073
2.07408
2.0756
2.0774
2.07942
2.0816
2.08382
2.08602
2.08809
2.08999
2.09167
2.09311
2.0943
2.09524
2.09594
2.09639
2.09659