/*--------------------------------*- C++ -*----------------------------------*\
| =========                 |                                                 |
| \\      /  F ield         | OpenFOAM: The Open Source CFD Toolbox           |
|  \\    /   O peration     | Version:  2412                                  |
|   \\  /    A nd           | Website:  www.openfoam.com                      |
|    \\/     M anipulation  |                                                 |
\*---------------------------------------------------------------------------*/
FoamFile
{
    version     2.0;
    format      ascii;
    arch        "LSB;label=32;scalar=64";
    class       volVectorField;
    location    "22.5";
    object      U;
}
// * * * * * * * * * * * * * * * * * * * * * * * * * * * * * * * * * * * * * //

dimensions      [0 1 -1 0 0 0 0];

internalField   nonuniform List<vector> 
7000
(
(2.59108 -7.24926e-05 0)
(1.62057 0.000178372 0)
(0.495681 0.000208947 0)
(0.552996 0.000350737 0)
(0.654687 0.00044654 0)
(0.719887 0.000524582 0)
(0.73277 0.000592424 0)
(0.725877 0.000662719 0)
(0.715815 0.00074118 0)
(0.708117 0.000831597 0)
(0.703649 0.000930241 0)
(0.700081 0.00103345 0)
(0.695996 0.00114042 0)
(0.69114 0.00125208 0)
(0.685676 0.00136947 0)
(0.679729 0.00149316 0)
(0.673317 0.00162344 0)
(0.666406 0.00176064 0)
(0.658961 0.00190518 0)
(0.650956 0.00205763 0)
(0.642368 0.00221857 0)
(0.633174 0.00238869 0)
(0.623349 0.00256869 0)
(0.612866 0.00275934 0)
(0.601695 0.00296145 0)
(0.589806 0.00317591 0)
(0.577167 0.00340363 0)
(0.563745 0.00364555 0)
(0.549505 0.00390267 0)
(0.53441 0.00417594 0)
(0.518423 0.00446636 0)
(0.501506 0.00477479 0)
(0.483622 0.00510213 0)
(0.464732 0.00544899 0)
(0.444802 0.00581596 0)
(0.423796 0.00620315 0)
(0.401687 0.00661059 0)
(0.378449 0.00703746 0)
(0.354065 0.00748282 0)
(0.328527 0.0079445 0)
(0.30184 0.00842011 0)
(0.274022 0.00890555 0)
(0.245108 0.00939689 0)
(0.215151 0.00988777 0)
(0.184224 0.0103737 0)
(0.15242 0.0108475 0)
(0.119822 0.0113136 0)
(0.0868501 0.0117556 0)
(0.0514918 0.0123443 0)
(0.0221148 0.0131964 0)
(2.59121 -4.80956e-05 0)
(1.62074 0.000347454 0)
(0.495369 0.000828034 0)
(0.552735 0.00113972 0)
(0.654448 0.00137485 0)
(0.719662 0.00159688 0)
(0.732546 0.00180489 0)
(0.725657 0.00202019 0)
(0.715603 0.0022577 0)
(0.707914 0.00252748 0)
(0.703453 0.00282028 0)
(0.699889 0.00312653 0)
(0.695807 0.00344404 0)
(0.690956 0.0037751 0)
(0.685498 0.00412234 0)
(0.679557 0.00448714 0)
(0.67315 0.00487023 0)
(0.666245 0.0052723 0)
(0.658807 0.00569445 0)
(0.650808 0.00613791 0)
(0.642227 0.00660423 0)
(0.633041 0.00709487 0)
(0.623224 0.00761158 0)
(0.612749 0.00815598 0)
(0.601586 0.00872999 0)
(0.589707 0.00933533 0)
(0.577077 0.00997401 0)
(0.563665 0.0106476 0)
(0.549434 0.0113581 0)
(0.534348 0.0121067 0)
(0.51837 0.012895 0)
(0.501462 0.0137233 0)
(0.483585 0.0145925 0)
(0.464701 0.0155014 0)
(0.444774 0.0164493 0)
(0.42377 0.0174327 0)
(0.401656 0.0184483 0)
(0.378409 0.0194892 0)
(0.35401 0.0205483 0)
(0.328449 0.0216142 0)
(0.301728 0.0226743 0)
(0.273864 0.0237122 0)
(0.244888 0.0247101 0)
(0.214853 0.0256468 0)
(0.183829 0.0265019 0)
(0.151908 0.0272556 0)
(0.119164 0.0279057 0)
(0.0860648 0.0284262 0)
(0.050546 0.0290769 0)
(0.0211888 0.0298268 0)
(2.59133 4.76346e-05 0)
(1.62103 0.000392346 0)
(0.495576 0.00160494 0)
(0.552787 0.00198051 0)
(0.654489 0.00230472 0)
(0.719704 0.00267034 0)
(0.732588 0.00303976 0)
(0.72571 0.0034186 0)
(0.715678 0.00382871 0)
(0.708011 0.00428663 0)
(0.703563 0.00478132 0)
(0.700009 0.00529995 0)
(0.695937 0.00583961 0)
(0.691097 0.00640315 0)
(0.685651 0.00699455 0)
(0.679724 0.00761581 0)
(0.673331 0.00826857 0)
(0.666441 0.00895391 0)
(0.659018 0.00967404 0)
(0.651037 0.0104309 0)
(0.642473 0.0112274 0)
(0.633306 0.0120659 0)
(0.623509 0.0129498 0)
(0.613056 0.0138816 0)
(0.601917 0.014865 0)
(0.590061 0.0159029 0)
(0.577458 0.0169992 0)
(0.564072 0.0181565 0)
(0.54987 0.0193787 0)
(0.534814 0.0206678 0)
(0.518866 0.0220271 0)
(0.501988 0.0234575 0)
(0.48414 0.0249606 0)
(0.465285 0.0265354 0)
(0.445384 0.0281806 0)
(0.424402 0.0298915 0)
(0.402307 0.0316623 0)
(0.37907 0.0334832 0)
(0.354673 0.0353407 0)
(0.329101 0.0372187 0)
(0.302355 0.0390938 0)
(0.274448 0.0409414 0)
(0.245408 0.0427289 0)
(0.215285 0.0444243 0)
(0.184145 0.0459907 0)
(0.152085 0.0473931 0)
(0.11917 0.0486191 0)
(0.0859284 0.0496293 0)
(0.0502704 0.0506817 0)
(0.0207492 0.0516745 0)
(2.59151 5.41151e-05 0)
(1.62148 0.000535825 0)
(0.496004 0.00235096 0)
(0.55291 0.00281432 0)
(0.654612 0.003237 0)
(0.719847 0.00375702 0)
(0.732736 0.00430334 0)
(0.725872 0.00485927 0)
(0.715869 0.005452 0)
(0.708234 0.00610425 0)
(0.70381 0.00680576 0)
(0.700272 0.00754266 0)
(0.696217 0.00831114 0)
(0.691397 0.00911432 0)
(0.685973 0.00995677 0)
(0.680068 0.0108414 0)
(0.6737 0.0117703 0)
(0.666835 0.0127455 0)
(0.659439 0.0137699 0)
(0.651486 0.0148466 0)
(0.642954 0.0159792 0)
(0.633819 0.0171717 0)
(0.624057 0.0184282 0)
(0.613641 0.0197531 0)
(0.602541 0.021151 0)
(0.590728 0.0226268 0)
(0.578169 0.024185 0)
(0.564831 0.0258308 0)
(0.550677 0.0275683 0)
(0.535672 0.0294023 0)
(0.519776 0.0313357 0)
(0.502951 0.0333722 0)
(0.485158 0.0355122 0)
(0.466355 0.037757 0)
(0.446504 0.0401027 0)
(0.425568 0.0425462 0)
(0.403513 0.0450766 0)
(0.380307 0.0476841 0)
(0.355928 0.0503481 0)
(0.330359 0.0530477 0)
(0.303597 0.0557509 0)
(0.275649 0.0584214 0)
(0.246541 0.0610171 0)
(0.216318 0.0634866 0)
(0.185045 0.0657858 0)
(0.152818 0.0678582 0)
(0.119702 0.0696753 0)
(0.0862763 0.0711835 0)
(0.0504197 0.0726086 0)
(0.0206053 0.0737646 0)
(2.59176 6.77483e-05 0)
(1.62211 0.000716359 0)
(0.496555 0.00310369 0)
(0.55302 0.00367966 0)
(0.654739 0.00421138 0)
(0.720019 0.00488548 0)
(0.732922 0.00560886 0)
(0.726076 0.00634896 0)
(0.71611 0.00713308 0)
(0.708516 0.00798586 0)
(0.704124 0.00889943 0)
(0.700614 0.00986093 0)
(0.696585 0.0108656 0)
(0.691794 0.0119168 0)
(0.686402 0.0130191 0)
(0.680531 0.0141767 0)
(0.674198 0.0153916 0)
(0.667371 0.0166676 0)
(0.660015 0.0180075 0)
(0.652105 0.0194162 0)
(0.643618 0.0208976 0)
(0.634532 0.0224579 0)
(0.624822 0.0241015 0)
(0.614462 0.0258352 0)
(0.603422 0.0276639 0)
(0.591672 0.0295952 0)
(0.57918 0.0316341 0)
(0.565911 0.0337883 0)
(0.551832 0.0360626 0)
(0.536903 0.0384638 0)
(0.521087 0.0409957 0)
(0.504343 0.0436634 0)
(0.486631 0.0464677 0)
(0.467908 0.0494102 0)
(0.448135 0.052487 0)
(0.427271 0.0556929 0)
(0.405279 0.0590168 0)
(0.382125 0.0624425 0)
(0.357782 0.0659486 0)
(0.332229 0.0695029 0)
(0.305455 0.0730709 0)
(0.277463 0.0765993 0)
(0.248273 0.0800363 0)
(0.217928 0.0833121 0)
(0.186487 0.0863603 0)
(0.154051 0.0891154 0)
(0.120673 0.0915186 0)
(0.0869965 0.0934927 0)
(0.0508515 0.0952304 0)
(0.0206232 0.0964789 0)
(2.5921 8.0036e-05 0)
(1.62296 0.000900461 0)
(0.497254 0.00385551 0)
(0.553135 0.0045576 0)
(0.654882 0.00520461 0)
(0.720229 0.00603311 0)
(0.733158 0.00693905 0)
(0.726339 0.00786836 0)
(0.716417 0.00885249 0)
(0.708872 0.00991466 0)
(0.704523 0.0110487 0)
(0.701048 0.0122426 0)
(0.697055 0.0134919 0)
(0.692303 0.0147998 0)
(0.686953 0.0161711 0)
(0.681127 0.0176105 0)
(0.674841 0.0191212 0)
(0.668063 0.0207071 0)
(0.66076 0.0223726 0)
(0.652906 0.0241232 0)
(0.64448 0.0259645 0)
(0.635459 0.0279031 0)
(0.625818 0.0299458 0)
(0.615532 0.0320999 0)
(0.604571 0.0343731 0)
(0.592906 0.0367731 0)
(0.580503 0.0393084 0)
(0.56733 0.0419865 0)
(0.553351 0.0448159 0)
(0.538526 0.0478031 0)
(0.522819 0.0509556 0)
(0.506186 0.0542775 0)
(0.488586 0.0577731 0)
(0.469975 0.0614421 0)
(0.450311 0.0652831 0)
(0.42955 0.069288 0)
(0.40765 0.073446 0)
(0.384575 0.077736 0)
(0.360288 0.0821333 0)
(0.334767 0.0865982 0)
(0.307988 0.091086 0)
(0.279953 0.0955372 0)
(0.250669 0.0998803 0)
(0.220173 0.104033 0)
(0.188522 0.107901 0)
(0.155815 0.111394 0)
(0.122104 0.114432 0)
(0.0880677 0.116903 0)
(0.0515122 0.118953 0)
(0.0207746 0.120273 0)
(2.59253 9.26998e-05 0)
(1.62403 0.00108673 0)
(0.49811 0.00461512 0)
(0.553256 0.00545109 0)
(0.65504 0.00621986 0)
(0.72048 0.00720649 0)
(0.733449 0.00830249 0)
(0.726662 0.00942557 0)
(0.716794 0.0106165 0)
(0.709309 0.0118965 0)
(0.705012 0.0132591 0)
(0.701583 0.014693 0)
(0.697636 0.0161948 0)
(0.692933 0.0177675 0)
(0.687636 0.0194166 0)
(0.681866 0.0211467 0)
(0.67564 0.0229623 0)
(0.668925 0.0248676 0)
(0.661689 0.0268686 0)
(0.653906 0.0289712 0)
(0.645556 0.031183 0)
(0.636617 0.0335112 0)
(0.627065 0.0359647 0)
(0.616873 0.0385517 0)
(0.606012 0.0412822 0)
(0.594454 0.0441651 0)
(0.582166 0.0472112 0)
(0.569114 0.0504296 0)
(0.555262 0.0538307 0)
(0.540572 0.0574233 0)
(0.525004 0.0612161 0)
(0.508515 0.0652158 0)
(0.491061 0.0694273 0)
(0.472597 0.0738526 0)
(0.453077 0.0784896 0)
(0.432455 0.0833312 0)
(0.410682 0.0883644 0)
(0.387716 0.0935671 0)
(0.363515 0.0989093 0)
(0.338044 0.104346 0)
(0.311277 0.109822 0)
(0.283198 0.115267 0)
(0.253813 0.120594 0)
(0.223138 0.125704 0)
(0.191233 0.130477 0)
(0.158188 0.134795 0)
(0.124046 0.138537 0)
(0.0895428 0.141559 0)
(0.0524193 0.143969 0)
(0.021022 0.145393 0)
(2.59306 0.00010548 0)
(1.62535 0.00127352 0)
(0.499137 0.00538052 0)
(0.553386 0.00635414 0)
(0.655217 0.00724826 0)
(0.720777 0.00839723 0)
(0.7338 0.00968586 0)
(0.727054 0.01101 0)
(0.717251 0.012416 0)
(0.709836 0.0139219 0)
(0.705602 0.0155206 0)
(0.70223 0.0172024 0)
(0.69834 0.0189646 0)
(0.693699 0.0208107 0)
(0.688466 0.0227462 0)
(0.682765 0.0247761 0)
(0.676612 0.0269056 0)
(0.669974 0.02914 0)
(0.66282 0.0314861 0)
(0.655125 0.0339512 0)
(0.646869 0.0365437 0)
(0.638031 0.0392728 0)
(0.628587 0.0421484 0)
(0.618511 0.0451808 0)
(0.607775 0.0483813 0)
(0.596349 0.0517615 0)
(0.584202 0.055333 0)
(0.5713 0.0591082 0)
(0.557607 0.0630986 0)
(0.543083 0.0673159 0)
(0.527688 0.0717704 0)
(0.511378 0.076471 0)
(0.494109 0.081425 0)
(0.47583 0.0866351 0)
(0.456494 0.0921023 0)
(0.436049 0.0978185 0)
(0.414443 0.103772 0)
(0.391623 0.109938 0)
(0.367542 0.116284 0)
(0.342152 0.122761 0)
(0.315415 0.129305 0)
(0.287303 0.135832 0)
(0.257805 0.142237 0)
(0.226931 0.148406 0)
(0.194718 0.154185 0)
(0.161264 0.159426 0)
(0.126585 0.163977 0)
(0.0914607 0.167637 0)
(0.0536163 0.170465 0)
(0.0214117 0.172027 0)
(2.5937 0.000118326 0)
(1.62693 0.00145993 0)
(0.500349 0.00614907 0)
(0.553527 0.00726266 0)
(0.655415 0.00828535 0)
(0.721124 0.00960087 0)
(0.734218 0.0110878 0)
(0.727524 0.0126183 0)
(0.7178 0.0142467 0)
(0.710467 0.0159863 0)
(0.706306 0.0178293 0)
(0.703003 0.0197671 0)
(0.699182 0.021798 0)
(0.694614 0.0239259 0)
(0.68946 0.0261562 0)
(0.683841 0.0284946 0)
(0.677774 0.0309468 0)
(0.671229 0.0335192 0)
(0.664173 0.0362195 0)
(0.656584 0.0390563 0)
(0.648441 0.0420394 0)
(0.639725 0.0451793 0)
(0.630411 0.0484877 0)
(0.620475 0.0519766 0)
(0.609889 0.0556593 0)
(0.598623 0.0595492 0)
(0.586648 0.0636605 0)
(0.573928 0.0680073 0)
(0.560426 0.0726043 0)
(0.546106 0.0774649 0)
(0.530923 0.0826026 0)
(0.514834 0.0880282 0)
(0.49779 0.0937522 0)
(0.479742 0.0997792 0)
(0.460634 0.106112 0)
(0.440413 0.112746 0)
(0.419018 0.119667 0)
(0.39639 0.126854 0)
(0.372469 0.134269 0)
(0.347197 0.141863 0)
(0.320519 0.149561 0)
(0.29239 0.157274 0)
(0.262783 0.164875 0)
(0.231683 0.172225 0)
(0.199116 0.17915 0)
(0.165164 0.185448 0)
(0.129835 0.190925 0)
(0.0939381 0.195332 0)
(0.0551456 0.19867 0)
(0.0219195 0.200424 0)
(2.59445 0.0001311 0)
(1.6288 0.00164469 0)
(0.501762 0.00691564 0)
(0.553684 0.00817065 0)
(0.65564 0.00932409 0)
(0.72153 0.0108097 0)
(0.734713 0.0124988 0)
(0.728083 0.0142417 0)
(0.718453 0.0161001 0)
(0.711213 0.0180817 0)
(0.707137 0.0201773 0)
(0.703915 0.0223794 0)
(0.700177 0.0246874 0)
(0.695696 0.0271054 0)
(0.690633 0.0296391 0)
(0.685112 0.0322945 0)
(0.679147 0.0350779 0)
(0.672711 0.0379968 0)
(0.665771 0.04106 0)
(0.658306 0.0442773 0)
(0.650297 0.04766 0)
(0.641724 0.0512201 0)
(0.632564 0.054971 0)
(0.622794 0.0589266 0)
(0.612386 0.0631022 0)
(0.601311 0.0675134 0)
(0.589539 0.072177 0)
(0.577036 0.0771094 0)
(0.563765 0.0823282 0)
(0.549687 0.0878496 0)
(0.53476 0.0936903 0)
(0.518937 0.0998646 0)
(0.502169 0.106386 0)
(0.484402 0.113262 0)
(0.465578 0.120499 0)
(0.445635 0.128094 0)
(0.424507 0.136037 0)
(0.402125 0.144307 0)
(0.378418 0.152867 0)
(0.35331 0.161666 0)
(0.326733 0.170623 0)
(0.298615 0.17964 0)
(0.268907 0.188577 0)
(0.237572 0.197265 0)
(0.204601 0.2055 0)
(0.170064 0.213037 0)
(0.133932 0.219623 0)
(0.0970637 0.224933 0)
(0.0571067 0.228894 0)
(0.0226249 0.2309 0)
(2.59532 0.000143677 0)
(1.63097 0.00182604 0)
(0.503388 0.00767288 0)
(0.55386 0.00907065 0)
(0.655896 0.0103572 0)
(0.722001 0.0120151 0)
(0.735294 0.0139115 0)
(0.728744 0.0158716 0)
(0.719224 0.0179667 0)
(0.712091 0.0201989 0)
(0.708113 0.0225561 0)
(0.704985 0.0250312 0)
(0.701343 0.0276248 0)
(0.696963 0.0303413 0)
(0.692007 0.0331866 0)
(0.686598 0.0361671 0)
(0.680752 0.0392898 0)
(0.674441 0.0425633 0)
(0.667637 0.0459973 0)
(0.660317 0.0496032 0)
(0.652463 0.0533936 0)
(0.644057 0.0573821 0)
(0.635077 0.0615841 0)
(0.6255 0.0660154 0)
(0.6153 0.0706936 0)
(0.604449 0.0756366 0)
(0.592916 0.0808636 0)
(0.580668 0.0863943 0)
(0.567669 0.0922489 0)
(0.553879 0.0984474 0)
(0.539256 0.10501 0)
(0.523752 0.111954 0)
(0.507314 0.119298 0)
(0.489887 0.127054 0)
(0.471409 0.135232 0)
(0.45181 0.143835 0)
(0.431018 0.152855 0)
(0.408952 0.162278 0)
(0.385527 0.172066 0)
(0.36065 0.18217 0)
(0.334229 0.192508 0)
(0.306172 0.202972 0)
(0.276387 0.213413 0)
(0.244815 0.223635 0)
(0.211402 0.233401 0)
(0.176187 0.242403 0)
(0.139117 0.250321 0)
(0.101045 0.256752 0)
(0.0595851 0.261521 0)
(0.0235147 0.263878 0)
(2.59631 0.000155744 0)
(1.63345 0.00200196 0)
(0.505243 0.00840962 0)
(0.55406 0.00995355 0)
(0.65619 0.0113764 0)
(0.722548 0.0132053 0)
(0.735973 0.0153127 0)
(0.729517 0.0174953 0)
(0.720128 0.0198354 0)
(0.713118 0.0223275 0)
(0.709251 0.0249556 0)
(0.706231 0.0277126 0)
(0.7027 0.0306002 0)
(0.698436 0.0336234 0)
(0.693602 0.0367884 0)
(0.688321 0.0401017 0)
(0.682611 0.0435712 0)
(0.676445 0.0472064 0)
(0.669796 0.0510184 0)
(0.662641 0.0550197 0)
(0.654967 0.0592247 0)
(0.646753 0.0636487 0)
(0.637981 0.0683089 0)
(0.628628 0.0732234 0)
(0.618668 0.0784119 0)
(0.608075 0.0838952 0)
(0.59682 0.0896952 0)
(0.584869 0.0958347 0)
(0.572188 0.102337 0)
(0.558736 0.109227 0)
(0.54447 0.116528 0)
(0.529343 0.124263 0)
(0.513299 0.132454 0)
(0.496281 0.14112 0)
(0.478221 0.150277 0)
(0.459045 0.159933 0)
(0.438671 0.170089 0)
(0.417007 0.180736 0)
(0.393952 0.191843 0)
(0.369393 0.203364 0)
(0.343214 0.215222 0)
(0.315287 0.227302 0)
(0.285487 0.23945 0)
(0.253698 0.251445 0)
(0.219824 0.263014 0)
(0.183839 0.273803 0)
(0.145637 0.283388 0)
(0.106105 0.291244 0)
(0.062795 0.297063 0)
(0.0247287 0.299903 0)
(2.59744 0.000165078 0)
(1.63625 0.00217197 0)
(0.507337 0.00910827 0)
(0.554294 0.0108067 0)
(0.656526 0.0123736 0)
(0.723175 0.0143645 0)
(0.736762 0.0166877 0)
(0.730423 0.0190991 0)
(0.721186 0.0216932 0)
(0.714315 0.0244553 0)
(0.710573 0.0273642 0)
(0.707675 0.0304124 0)
(0.70427 0.0336027 0)
(0.700137 0.0369408 0)
(0.695442 0.0404331 0)
(0.690306 0.0440865 0)
(0.68475 0.0479096 0)
(0.678748 0.051913 0)
(0.672274 0.0561089 0)
(0.665309 0.0605116 0)
(0.657837 0.0651367 0)
(0.649843 0.0700017 0)
(0.641308 0.0751255 0)
(0.63221 0.0805287 0)
(0.622526 0.0862333 0)
(0.61223 0.092263 0)
(0.601295 0.0986427 0)
(0.589687 0.105399 0)
(0.577373 0.112558 0)
(0.564314 0.120151 0)
(0.550466 0.128203 0)
(0.53578 0.136746 0)
(0.520203 0.145806 0)
(0.503671 0.15541 0)
(0.486115 0.16558 0)
(0.467454 0.176336 0)
(0.447598 0.187686 0)
(0.426444 0.199631 0)
(0.403872 0.212153 0)
(0.379752 0.225214 0)
(0.35393 0.238747 0)
(0.326247 0.252642 0)
(0.296523 0.266741 0)
(0.264584 0.280812 0)
(0.230264 0.294538 0)
(0.193463 0.307506 0)
(0.153972 0.319196 0)
(0.112634 0.328928 0)
(0.0669419 0.336196 0)
(0.0262952 0.339744 0)
(2.5987 0.000170403 0)
(1.63939 0.00233378 0)
(0.509669 0.00975539 0)
(0.554568 0.011612 0)
(0.656904 0.013328 0)
(0.723883 0.0154719 0)
(0.737672 0.0180212 0)
(0.73147 0.0206679 0)
(0.722413 0.0235246 0)
(0.7157 0.0265677 0)
(0.712098 0.0297677 0)
(0.709336 0.0331167 0)
(0.706072 0.0366185 0)
(0.702088 0.0402794 0)
(0.697547 0.0441061 0)
(0.692574 0.0481059 0)
(0.687191 0.0522882 0)
(0.681373 0.0566647 0)
(0.675097 0.061249 0)
(0.668344 0.0660569 0)
(0.661102 0.0711058 0)
(0.653356 0.076415 0)
(0.645089 0.0820056 0)
(0.636281 0.0879006 0)
(0.626911 0.0941245 0)
(0.616953 0.100704 0)
(0.606382 0.107667 0)
(0.595167 0.115045 0)
(0.583276 0.122868 0)
(0.570669 0.13117 0)
(0.557305 0.139984 0)
(0.543135 0.149347 0)
(0.528104 0.159294 0)
(0.512149 0.169859 0)
(0.495196 0.181075 0)
(0.47716 0.192972 0)
(0.457943 0.205573 0)
(0.437431 0.218891 0)
(0.415488 0.232927 0)
(0.39196 0.247658 0)
(0.366662 0.263036 0)
(0.339389 0.278967 0)
(0.309904 0.295303 0)
(0.277946 0.311814 0)
(0.243251 0.328164 0)
(0.205599 0.343874 0)
(0.164652 0.358297 0)
(0.121175 0.370558 0)
(0.0725093 0.379861 0)
(0.0284951 0.384472 0)
(2.6001 0.000178116 0)
(1.64287 0.0024763 0)
(0.512237 0.0103552 0)
(0.554887 0.0123508 0)
(0.65733 0.014199 0)
(0.724682 0.0165116 0)
(0.738721 0.0192855 0)
(0.732681 0.0221778 0)
(0.723833 0.0253139 0)
(0.717297 0.0286506 0)
(0.71385 0.0321526 0)
(0.711239 0.0358124 0)
(0.708132 0.0396348 0)
(0.704311 0.0436271 0)
(0.699942 0.0477956 0)
(0.69515 0.0521483 0)
(0.689958 0.0566951 0)
(0.684345 0.0614493 0)
(0.678289 0.0664255 0)
(0.671774 0.0716414 0)
(0.664789 0.0771158 0)
(0.657322 0.0828704 0)
(0.649356 0.0889281 0)
(0.640874 0.0953149 0)
(0.631857 0.102058 0)
(0.622282 0.109186 0)
(0.612124 0.116733 0)
(0.601356 0.124731 0)
(0.589946 0.133217 0)
(0.577858 0.14223 0)
(0.565051 0.15181 0)
(0.551478 0.162 0)
(0.537085 0.172844 0)
(0.521808 0.184386 0)
(0.505573 0.196672 0)
(0.488292 0.209744 0)
(0.46986 0.223645 0)
(0.450154 0.238406 0)
(0.429023 0.254052 0)
(0.40629 0.270589 0)
(0.381739 0.287995 0)
(0.355114 0.306211 0)
(0.326113 0.325114 0)
(0.294382 0.3445 0)
(0.259519 0.364035 0)
(0.221131 0.383208 0)
(0.178641 0.401247 0)
(0.132609 0.417053 0)
(0.0800919 0.429392 0)
(0.0315272 0.43574 0)
(2.60162 0.000187971 0)
(1.64668 0.00259368 0)
(0.515068 0.0108864 0)
(0.555255 0.0129944 0)
(0.657828 0.0149548 0)
(0.725614 0.0174534 0)
(0.739941 0.0204571 0)
(0.734103 0.023607 0)
(0.725497 0.0270392 0)
(0.719155 0.0306837 0)
(0.715874 0.0344992 0)
(0.713428 0.0384789 0)
(0.710492 0.0426291 0)
(0.706851 0.0469584 0)
(0.70267 0.0514728 0)
(0.698075 0.0561812 0)
(0.693093 0.0610946 0)
(0.687705 0.0662273 0)
(0.681891 0.0715957 0)
(0.675638 0.0772192 0)
(0.668937 0.0831184 0)
(0.661777 0.0893171 0)
(0.654146 0.0958404 0)
(0.646027 0.102716 0)
(0.637404 0.109975 0)
(0.628257 0.11765 0)
(0.618563 0.125776 0)
(0.608298 0.134391 0)
(0.597433 0.143538 0)
(0.585934 0.153259 0)
(0.573764 0.163602 0)
(0.560878 0.174618 0)
(0.547224 0.186361 0)
(0.53274 0.198887 0)
(0.517354 0.212257 0)
(0.500977 0.226528 0)
(0.483502 0.241766 0)
(0.464799 0.258027 0)
(0.44471 0.275368 0)
(0.423036 0.293834 0)
(0.399534 0.313448 0)
(0.373898 0.334208 0)
(0.345753 0.356048 0)
(0.314636 0.378818 0)
(0.27998 0.40228 0)
(0.241127 0.4259 0)
(0.197197 0.448792 0)
(0.148339 0.469684 0)
(0.09101 0.4867 0)
(0.0361564 0.49611 0)
(2.60327 0.000194203 0)
(1.65081 0.00268349 0)
(0.51815 0.0112983 0)
(0.555674 0.0135025 0)
(0.658414 0.0155692 0)
(0.726709 0.0182541 0)
(0.741373 0.0215111 0)
(0.735776 0.024935 0)
(0.727448 0.0286803 0)
(0.721316 0.0326538 0)
(0.718212 0.0368027 0)
(0.715941 0.0411191 0)
(0.71319 0.0456115 0)
(0.709742 0.0502888 0)
(0.705763 0.0551584 0)
(0.701382 0.0602291 0)
(0.696628 0.065513 0)
(0.691485 0.0710256 0)
(0.685936 0.0767852 0)
(0.67997 0.0828127 0)
(0.673581 0.0891313 0)
(0.666761 0.0957664 0)
(0.659498 0.102746 0)
(0.651781 0.110101 0)
(0.643594 0.117865 0)
(0.634922 0.126072 0)
(0.625746 0.134764 0)
(0.616043 0.143983 0)
(0.605788 0.153774 0)
(0.594954 0.164189 0)
(0.583505 0.175281 0)
(0.571402 0.187111 0)
(0.558597 0.199742 0)
(0.545033 0.213245 0)
(0.530642 0.227694 0)
(0.515339 0.243171 0)
(0.499021 0.259763 0)
(0.481557 0.277561 0)
(0.462787 0.29666 0)
(0.442503 0.317159 0)
(0.420444 0.339132 0)
(0.396266 0.36269 0)
(0.369518 0.387861 0)
(0.339676 0.414522 0)
(0.305955 0.442717 0)
(0.267305 0.472034 0)
(0.222424 0.501636 0)
(0.170704 0.530079 0)
(0.107366 0.554888 0)
(0.0434834 0.570068 0)
(2.60503 0.000196849 0)
(1.65523 0.00273447 0)
(0.521458 0.0115414 0)
(0.556159 0.0138266 0)
(0.65911 0.0159945 0)
(0.728007 0.0188676 0)
(0.743067 0.0223963 0)
(0.737753 0.0261121 0)
(0.729745 0.0301882 0)
(0.723843 0.0345038 0)
(0.720927 0.0389933 0)
(0.718841 0.0436489 0)
(0.716285 0.0484833 0)
(0.713044 0.0535074 0)
(0.70928 0.0587305 0)
(0.705126 0.0641618 0)
(0.700615 0.0698147 0)
(0.695734 0.0757058 0)
(0.690469 0.0818555 0)
(0.684813 0.0882858 0)
(0.678762 0.0950219 0)
(0.67231 0.102091 0)
(0.66545 0.109523 0)
(0.658171 0.117351 0)
(0.650464 0.125611 0)
(0.642315 0.134342 0)
(0.633709 0.143587 0)
(0.624629 0.153394 0)
(0.615054 0.163812 0)
(0.604961 0.1749 0)
(0.594323 0.186719 0)
(0.583105 0.199338 0)
(0.571267 0.212832 0)
(0.558761 0.227286 0)
(0.545526 0.242792 0)
(0.531488 0.259453 0)
(0.516553 0.277386 0)
(0.500603 0.296721 0)
(0.483486 0.317591 0)
(0.464987 0.340207 0)
(0.444878 0.364634 0)
(0.422809 0.391074 0)
(0.398171 0.419906 0)
(0.370517 0.451188 0)
(0.338955 0.485055 0)
(0.30191 0.521517 0)
(0.257459 0.560242 0)
(0.203862 0.600016 0)
(0.133823 0.638297 0)
(0.0565608 0.666338 0)
(2.60687 0.000195325 0)
(1.65987 0.00273536 0)
(0.524959 0.0115417 0)
(0.556734 0.0138924 0)
(0.659952 0.0161687 0)
(0.729555 0.019258 0)
(0.745081 0.0231078 0)
(0.740093 0.0271751 0)
(0.732441 0.0316483 0)
(0.726777 0.0363595 0)
(0.724047 0.0412301 0)
(0.722149 0.0462558 0)
(0.719797 0.0514547 0)
(0.716774 0.0568416 0)
(0.71324 0.0624252 0)
(0.70933 0.0682163 0)
(0.70508 0.0742304 0)
(0.700483 0.0804868 0)
(0.695527 0.0870083 0)
(0.690207 0.0938199 0)
(0.684522 0.100949 0)
(0.67847 0.108426 0)
(0.672046 0.116283 0)
(0.665245 0.124555 0)
(0.65806 0.133282 0)
(0.650481 0.142507 0)
(0.642498 0.152274 0)
(0.634101 0.162636 0)
(0.625274 0.173649 0)
(0.616002 0.185375 0)
(0.606263 0.197883 0)
(0.596034 0.21125 0)
(0.585285 0.225564 0)
(0.573979 0.240921 0)
(0.56207 0.257436 0)
(0.5495 0.275231 0)
(0.536197 0.29444 0)
(0.522055 0.315287 0)
(0.506999 0.337857 0)
(0.490752 0.3624 0)
(0.473063 0.389348 0)
(0.453925 0.418925 0)
(0.432714 0.451618 0)
(0.408628 0.487925 0)
(0.38086 0.528298 0)
(0.347863 0.573463 0)
(0.306994 0.624242 0)
(0.255017 0.68097 0)
(0.180395 0.743014 0)
(0.0832316 0.803172 0)
(2.60876 0.000141246 0)
(1.66464 0.00273072 0)
(0.528552 0.0112077 0)
(0.557423 0.0135532 0)
(0.660999 0.0159234 0)
(0.731453 0.0192115 0)
(0.747547 0.0233844 0)
(0.742952 0.0278067 0)
(0.735699 0.0326806 0)
(0.730268 0.037781 0)
(0.727712 0.0430199 0)
(0.725995 0.0484054 0)
(0.723845 0.0539661 0)
(0.721038 0.059719 0)
(0.717733 0.0656726 0)
(0.714067 0.071837 0)
(0.710084 0.0782275 0)
(0.705779 0.0848648 0)
(0.701145 0.0917725 0)
(0.69618 0.0989769 0)
(0.690885 0.106507 0)
(0.685262 0.114393 0)
(0.679308 0.122671 0)
(0.673023 0.131377 0)
(0.666402 0.140553 0)
(0.659443 0.150244 0)
(0.65214 0.160501 0)
(0.644488 0.171377 0)
(0.63648 0.182934 0)
(0.628108 0.19524 0)
(0.619361 0.208371 0)
(0.610228 0.222413 0)
(0.600691 0.237462 0)
(0.590733 0.253627 0)
(0.580326 0.271048 0)
(0.569419 0.289904 0)
(0.558032 0.310215 0)
(0.545999 0.332258 0)
(0.533213 0.356422 0)
(0.519851 0.38291 0)
(0.505633 0.412243 0)
(0.490264 0.444856 0)
(0.47349 0.48124 0)
(0.454818 0.522378 0)
(0.433606 0.569447 0)
(0.40868 0.624267 0)
(0.37765 0.689733 0)
(0.336609 0.770918 0)
(0.270946 0.878176 0)
(0.146441 1.0434 0)
(2.61113 8.07118e-05 0)
(1.67042 0.00260058 0)
(0.532299 0.0103827 0)
(0.557938 0.0128182 0)
(0.662138 0.0154332 0)
(0.733806 0.0191859 0)
(0.750727 0.0239836 0)
(0.746684 0.0290428 0)
(0.739966 0.0345601 0)
(0.734827 0.0402279 0)
(0.732503 0.0459567 0)
(0.731056 0.0517822 0)
(0.729221 0.057755 0)
(0.726755 0.0639019 0)
(0.723811 0.0702375 0)
(0.72053 0.0767762 0)
(0.716962 0.0835387 0)
(0.713111 0.0905507 0)
(0.708972 0.0978406 0)
(0.704549 0.105438 0)
(0.699847 0.113376 0)
(0.694871 0.121687 0)
(0.689626 0.130408 0)
(0.684116 0.139579 0)
(0.678345 0.149243 0)
(0.672317 0.159447 0)
(0.666037 0.170243 0)
(0.659507 0.181689 0)
(0.652735 0.193849 0)
(0.645725 0.206795 0)
(0.638485 0.220609 0)
(0.631021 0.235379 0)
(0.623335 0.251234 0)
(0.615456 0.268258 0)
(0.607445 0.286542 0)
(0.599075 0.306338 0)
(0.590395 0.327872 0)
(0.581885 0.351327 0)
(0.5734 0.377132 0)
(0.564719 0.405649 0)
(0.555961 0.437227 0)
(0.547212 0.472575 0)
(0.538664 0.512529 0)
(0.530542 0.558376 0)
(0.523387 0.6119 0)
(0.518377 0.675863 0)
(0.518232 0.75473 0)
(0.531156 0.855929 0)
(0.587128 0.99064 0)
(0.657203 1.18532 0)
(2.61364 5.93279e-05 0)
(1.67656 0.00194213 0)
(0.53682 0.00776286 0)
(0.559572 0.00992343 0)
(0.664781 0.0125047 0)
(0.738195 0.0166796 0)
(0.756195 0.0222101 0)
(0.752753 0.0280499 0)
(0.746496 0.034381 0)
(0.741425 0.0407692 0)
(0.739118 0.0471462 0)
(0.737772 0.0535878 0)
(0.736117 0.0601591 0)
(0.733875 0.0668865 0)
(0.731185 0.0737809 0)
(0.728193 0.0808572 0)
(0.724959 0.0881388 0)
(0.721494 0.095654 0)
(0.717796 0.103433 0)
(0.713869 0.111508 0)
(0.709724 0.119913 0)
(0.705369 0.128683 0)
(0.700813 0.137858 0)
(0.696065 0.147478 0)
(0.691136 0.157591 0)
(0.686037 0.168245 0)
(0.680781 0.179496 0)
(0.675383 0.191403 0)
(0.669862 0.204033 0)
(0.664236 0.217464 0)
(0.658527 0.231802 0)
(0.652798 0.247062 0)
(0.647028 0.263363 0)
(0.641142 0.280921 0)
(0.63538 0.299866 0)
(0.629954 0.320335 0)
(0.624755 0.34267 0)
(0.619852 0.367071 0)
(0.615473 0.393727 0)
(0.611774 0.423093 0)
(0.60903 0.455688 0)
(0.607716 0.492167 0)
(0.608501 0.533444 0)
(0.612477 0.580671 0)
(0.621468 0.635511 0)
(0.638792 0.700122 0)
(0.67046 0.77742 0)
(0.725479 0.87084 0)
(0.836631 0.980408 0)
(0.984488 1.09497 0)
(2.61509 7.01689e-05 0)
(1.68012 0.0013043 0)
(0.539677 0.00545703 0)
(0.561321 0.00790846 0)
(0.668133 0.011101 0)
(0.74396 0.0164635 0)
(0.763406 0.0232611 0)
(0.760694 0.0301955 0)
(0.754907 0.0372562 0)
(0.74983 0.0440622 0)
(0.747532 0.0507367 0)
(0.746323 0.0574569 0)
(0.744873 0.0643028 0)
(0.742855 0.0712951 0)
(0.7404 0.07844 0)
(0.737671 0.0857607 0)
(0.734738 0.0932907 0)
(0.731618 0.101065 0)
(0.728313 0.109116 0)
(0.724832 0.117478 0)
(0.721187 0.126184 0)
(0.717393 0.135271 0)
(0.713466 0.144775 0)
(0.709421 0.154736 0)
(0.705277 0.165199 0)
(0.701052 0.176211 0)
(0.696771 0.187822 0)
(0.692457 0.200101 0)
(0.688146 0.2131 0)
(0.683912 0.226848 0)
(0.679657 0.241459 0)
(0.675419 0.257079 0)
(0.671532 0.273768 0)
(0.668032 0.291689 0)
(0.664837 0.311039 0)
(0.662106 0.331899 0)
(0.660011 0.354443 0)
(0.658727 0.378933 0)
(0.658537 0.405663 0)
(0.659807 0.434974 0)
(0.663004 0.467323 0)
(0.668874 0.50323 0)
(0.678481 0.543354 0)
(0.693306 0.58846 0)
(0.715733 0.639404 0)
(0.749218 0.697029 0)
(0.799348 0.761606 0)
(0.871724 0.832182 0)
(0.984654 0.903799 0)
(1.1203 0.956629 0)
(2.6163 3.75089e-05 0)
(1.68319 -0.0015289 0)
(0.545038 -0.00484946 0)
(0.567291 -0.0030525 0)
(0.675901 0.000994484 0)
(0.754095 0.00904844 0)
(0.774418 0.0185823 0)
(0.771483 0.0278663 0)
(0.765099 0.0364524 0)
(0.759431 0.0442536 0)
(0.756955 0.0517454 0)
(0.75583 0.0592235 0)
(0.754547 0.0667656 0)
(0.752714 0.0743913 0)
(0.750472 0.0820956 0)
(0.748011 0.0899146 0)
(0.745409 0.0978936 0)
(0.742678 0.106074 0)
(0.739816 0.114493 0)
(0.736829 0.123189 0)
(0.733732 0.1322 0)
(0.73054 0.141565 0)
(0.727273 0.151325 0)
(0.72395 0.16152 0)
(0.720597 0.172197 0)
(0.717238 0.183416 0)
(0.713922 0.195198 0)
(0.710669 0.207585 0)
(0.707437 0.220681 0)
(0.704354 0.234562 0)
(0.70163 0.249279 0)
(0.699234 0.265 0)
(0.697179 0.281812 0)
(0.695632 0.299733 0)
(0.694696 0.318916 0)
(0.694536 0.339518 0)
(0.695369 0.361709 0)
(0.697453 0.385686 0)
(0.701143 0.411677 0)
(0.706871 0.439934 0)
(0.715242 0.470742 0)
(0.727068 0.504429 0)
(0.743484 0.541276 0)
(0.765985 0.581562 0)
(0.796626 0.625367 0)
(0.838099 0.672415 0)
(0.894036 0.721646 0)
(0.967136 0.770473 0)
(1.06832 0.814677 0)
(1.18134 0.840233 0)
(2.61198 0.00228911 0)
(1.67316 -0.00676501 0)
(0.549574 -0.0137868 0)
(0.58307 -0.00801683 0)
(0.696132 -0.000388996 0)
(0.777892 0.00988662 0)
(0.798497 0.0200801 0)
(0.794075 0.0297263 0)
(0.785743 0.038239 0)
(0.778701 0.046099 0)
(0.775586 0.0537792 0)
(0.774106 0.0614359 0)
(0.772521 0.0691038 0)
(0.770382 0.0768147 0)
(0.767848 0.0846213 0)
(0.765159 0.0925764 0)
(0.7624 0.100724 0)
(0.759573 0.109103 0)
(0.756679 0.117745 0)
(0.753729 0.126684 0)
(0.750741 0.135953 0)
(0.747736 0.145584 0)
(0.744732 0.155611 0)
(0.741759 0.166065 0)
(0.738868 0.176958 0)
(0.73604 0.188349 0)
(0.733274 0.200318 0)
(0.730731 0.212882 0)
(0.728506 0.226108 0)
(0.726582 0.240103 0)
(0.72502 0.254899 0)
(0.723929 0.27052 0)
(0.723393 0.287079 0)
(0.723561 0.304669 0)
(0.724593 0.323392 0)
(0.726672 0.343382 0)
(0.730047 0.364757 0)
(0.734998 0.38767 0)
(0.741901 0.412252 0)
(0.751221 0.438657 0)
(0.763556 0.467011 0)
(0.779681 0.497421 0)
(0.800566 0.529904 0)
(0.827465 0.564347 0)
(0.8619 0.600403 0)
(0.905702 0.637312 0)
(0.961158 0.673738 0)
(1.02987 0.707348 0)
(1.11623 0.735215 0)
(1.20906 0.748963 0)
(2.6037 0.00790627 0)
(1.64296 -0.0735139 0)
(0.584879 -0.0725523 0)
(0.623937 -0.0457602 0)
(0.731382 -0.00576291 0)
(0.809003 0.0165273 0)
(0.827002 0.0266275 0)
(0.821042 0.0352857 0)
(0.811527 0.0426497 0)
(0.804167 0.0507641 0)
(0.800794 0.0592936 0)
(0.798935 0.0677253 0)
(0.796954 0.0759354 0)
(0.794512 0.084004 0)
(0.791788 0.0920679 0)
(0.788957 0.100206 0)
(0.786078 0.108467 0)
(0.78315 0.116891 0)
(0.780172 0.125521 0)
(0.777159 0.134404 0)
(0.77413 0.143589 0)
(0.771112 0.153099 0)
(0.768128 0.162953 0)
(0.765169 0.173203 0)
(0.762314 0.183914 0)
(0.759704 0.195096 0)
(0.757326 0.206804 0)
(0.755178 0.219098 0)
(0.753381 0.231997 0)
(0.752008 0.245557 0)
(0.751134 0.25985 0)
(0.750869 0.274939 0)
(0.751342 0.290886 0)
(0.752707 0.307771 0)
(0.755138 0.325653 0)
(0.758834 0.34462 0)
(0.764047 0.36474 0)
(0.771074 0.386095 0)
(0.780267 0.408753 0)