/*--------------------------------*- C++ -*----------------------------------*\
| =========                 |                                                 |
| \\      /  F ield         | OpenFOAM: The Open Source CFD Toolbox           |
|  \\    /   O peration     | Version:  2412                                  |
|   \\  /    A nd           | Website:  www.openfoam.com                      |
|    \\/     M anipulation  |                                                 |
\*---------------------------------------------------------------------------*/
FoamFile
{
    version     2.0;
    format      ascii;
    arch        "LSB;label=32;scalar=64";
    class       volScalarField;
    location    "3";
    object      Ma;
}
// * * * * * * * * * * * * * * * * * * * * * * * * * * * * * * * * * * * * * //

dimensions      [0 0 0 0 0 0 0];

internalField   nonuniform List<scalar> 
7000
(
3.00001
3.00001
3.00001
3.00001
3.00001
3.00001
3
3
2.99999
2.99999
2.99992
2.9999
2.99947
2.9994
2.9968
2.99543
2.98144
2.98683
2.91335
3.10295
2.792
2.39029
1.53254
0.798025
0.330413
0.380363
0.434522
0.454768
0.445562
0.426396
0.402054
0.380546
0.361574
0.342463
0.322332
0.301298
0.279238
0.257112
0.234346
0.210374
0.186405
0.162874
0.140526
0.119736
0.100255
0.0817279
0.0636385
0.0461538
0.0281936
0.0146649
3.00001
3.00001
3.00001
3.00001
3.00001
3.00001
3.00001
3
2.99999
2.99999
2.99992
2.99992
2.99952
2.99941
2.99719
2.99535
2.98162
2.98682
2.91368
3.1035
2.79298
2.39156
1.53389
0.798866
0.330446
0.380451
0.43452
0.454728
0.445502
0.426385
0.40214
0.380733
0.361801
0.342721
0.322673
0.301818
0.280105
0.258557
0.236575
0.213486
0.190308
0.167294
0.145104
0.124267
0.104635
0.0858477
0.0672781
0.0492247
0.0314559
0.0203533
3.00001
3.00001
3.00001
3.00001
3.00001
3.00001
3.00001
3.00001
3
2.99999
2.99994
2.99995
2.99968
3.00019
2.99774
2.99782
2.98178
2.98712
2.91465
3.10472
2.79509
2.39407
1.53649
0.800443
0.33044
0.380697
0.434637
0.454881
0.445696
0.426685
0.402562
0.381232
0.36227
0.343115
0.323045
0.302325
0.281016
0.260203
0.239142
0.217039
0.194708
0.172243
0.150266
0.129413
0.10967
0.0908096
0.0723353
0.0548749
0.0391224
0.0311745
3.00001
3.00001
3.00001
3.00001
3.00001
3.00001
3.00001
3.00001
3
2.99999
2.99996
2.99996
2.99981
3.00038
2.99828
2.99813
2.98192
2.98754
2.91628
3.10721
2.79844
2.39766
1.54062
0.803664
0.331349
0.381489
0.43501
0.455336
0.446305
0.42751
0.403578
0.382442
0.363656
0.344672
0.324806
0.304379
0.283521
0.263354
0.243104
0.221813
0.200168
0.178159
0.156372
0.135541
0.11576
0.0969749
0.0789111
0.0625197
0.0489596
0.0430365
3.00001
3.00001
3.00001
3.00001
3.00001
3.00001
3.00001
3.00001
3
2.99999
2.99996
2.99995
2.99976
3.00025
2.99806
2.99804
2.98262
2.98887
2.91864
3.11088
2.80309
2.40228
1.54639
0.808545
0.332891
0.38268
0.435551
0.456022
0.447343
0.428889
0.405232
0.384396
0.365928
0.347281
0.327784
0.307781
0.287407
0.2678
0.24817
0.22746
0.206326
0.184723
0.163218
0.142581
0.122974
0.104494
0.0870905
0.0719338
0.0602834
0.0556582
3.00001
3.00001
3.00001
3.00001
3.00001
3.00001
3.00001
3.00001
3
2.99999
2.99994
2.99994
2.99959
2.9995
2.99738
2.99614
2.98324
2.99052
2.92177
3.1158
2.80925
2.40809
1.55428
0.815749
0.335052
0.384028
0.436047
0.456886
0.448835
0.430823
0.407473
0.386982
0.368916
0.350687
0.33163
0.312113
0.292247
0.273164
0.254008
0.23373
0.213019
0.191853
0.170776
0.150554
0.131372
0.113434
0.0968581
0.0829484
0.0728737
0.0691317
3.00001
3.00001
3.00001
3.00001
3.00001
3.00001
3.00001
3.00001
3
2.99999
2.99994
2.99993
2.99959
2.99954
2.99751
2.99658
2.9849
2.99293
2.92421
3.12086
2.81704
2.41555
1.56484
0.824878
0.33789
0.385955
0.436727
0.458194
0.45097
0.433397
0.410397
0.390277
0.372698
0.354979
0.336437
0.317447
0.298105
0.279506
0.260754
0.240866
0.220581
0.199884
0.179358
0.159693
0.141093
0.123842
0.108162
0.0954037
0.0866039
0.0835093
3.00001
3.00001
3.00001
3.00001
3.00001
3.00001
3.00001
3.00001
3
2.99999
2.99994
2.99994
2.99962
2.99955
2.99775
2.99695
2.98685
2.99508
2.92749
3.12761
2.82587
2.42244
1.57719
0.835446
0.343349
0.389941
0.438323
0.460294
0.453826
0.436587
0.414044
0.394344
0.377242
0.360072
0.342134
0.323759
0.305012
0.286952
0.268695
0.249272
0.22946
0.209298
0.189332
0.170276
0.152307
0.135765
0.120953
0.109225
0.101452
0.0988438
3.00001
3.00001
3.00001
3.00001
3.00001
3.00001
3.00001
3.00001
3
3
2.99995
2.99995
2.99967
2.99959
2.99804
2.99732
2.98837
2.99705
2.93102
3.13049
2.83359
2.43488
1.59823
0.851323
0.35405
0.395537
0.440741
0.462885
0.457273
0.44045
0.418517
0.399344
0.382749
0.366124
0.3488
0.331118
0.313097
0.295737
0.278108
0.259262
0.23999
0.220401
0.200997
0.182516
0.165157
0.149278
0.135253
0.124412
0.117488
0.115284
3.00001
3.00001
3.00001
3.00001
3.00001
3.00001
3.00001
3.00001
3
3
2.99996
2.99995
2.99971
2.99965
2.99831
2.99771
2.98981
2.99866
2.93485
3.13181
2.84195
2.45236
1.6253
0.875837
0.367436
0.400931
0.443699
0.466407
0.461598
0.445327
0.423886
0.405122
0.389053
0.373083
0.356492
0.339607
0.322421
0.305863
0.289036
0.270933
0.252305
0.233333
0.214509
0.196555
0.179755
0.164518
0.151191
0.141092
0.13486
0.13298
3.00001
3.00001
3.00001
3.00001
3.00001
3.00001
3.00001
3.00001
3
3
2.99997
2.99996
2.99976
2.99971
2.99857
2.99816
2.99114
3.00052
2.93951
3.13231
2.8509
2.47212
1.65737
0.905702
0.385375
0.405651
0.44768
0.471463
0.467259
0.451337
0.430161
0.411627
0.396021
0.380762
0.365046
0.349122
0.332942
0.317369
0.301529
0.284309
0.266447
0.248142
0.229901
0.212522
0.196273
0.181606
0.168935
0.159464
0.153845
0.152248
3.00001
3.00001
3.00001
3.00001
3.00001
3.00001
3.00001
3.00001
3
3
2.99998
2.99997
2.99982
2.99977
2.99894
2.99864
2.99309
3.00236
2.94385
3.13211
2.86063
2.49509
1.69478
0.94211
0.406927
0.410535
0.452852
0.477484
0.473751
0.457851
0.436897
0.418747
0.403647
0.389048
0.374232
0.3594
0.344471
0.330254
0.315531
0.299291
0.282309
0.264798
0.247222
0.230463
0.214833
0.200789
0.188709
0.17984
0.174734
0.173439
3.00001
3.00001
3.00001
3.00001
3.00001
3.00001
3.00001
3.00001
3
3
2.99999
2.99998
2.99988
2.99983
2.99927
2.99911
2.99476
3.00418
2.94881
3.13119
2.87072
2.52015
1.73721
0.984643
0.431555
0.41711
0.458363
0.484275
0.48097
0.465016
0.444088
0.426183
0.411621
0.397827
0.384071
0.370473
0.356932
0.344129
0.330685
0.315661
0.299757
0.28325
0.266536
0.25052
0.235624
0.222331
0.210961
0.202696
0.198162
0.197064
3.00001
3.00001
3.00001
3.00001
3.00001
3.00001
3.00001
3.00001
3.00001
3.00001
3
2.99999
2.99993
2.99988
2.99952
2.99953
2.99684
3.00547
2.95416
3.12973
2.88181
2.54821
1.78536
1.0336
0.458979
0.424293
0.464233
0.491362
0.488379
0.472345
0.451355
0.433617
0.419587
0.406653
0.394065
0.38188
0.369958
0.358818
0.346924
0.333357
0.318782
0.303477
0.287905
0.272906
0.258957
0.246559
0.236138
0.228572
0.22466
0.224047
3.00001
3.00001
3.00001
3.00001
3.00001
3.00001
3.00001
3.00001
3.00001
3.00001
3.00001
3.00001
3.00001
3.00003
2.99984
3.00027
2.99809
3.00678
2.95942
3.1269
2.89288
2.57767
1.83914
1.08892
0.48936
0.4321
0.470481
0.497738
0.494647
0.478288
0.457458
0.440488
0.427459
0.415701
0.404561
0.394029
0.383901
0.374491
0.364297
0.352372
0.339357
0.325623
0.311424
0.297761
0.285224
0.274185
0.264966
0.258568
0.255588
0.255343
3.00001
3.00001
3.00001
3.00001
3.00001
3.00001
3.00001
3.00001
3.00001
3.00001
3.00002
3.00004
3.00006
3.00016
3.00021
3.00092
2.99952
3.00805
2.96531
3.12275
2.90503
2.60734
1.90071
1.15226
0.518967
0.438988
0.474864
0.501394
0.497883
0.481844
0.461729
0.446177
0.434812
0.424868
0.415576
0.406973
0.398784
0.39112
0.382742
0.372724
0.361581
0.349685
0.33745
0.325625
0.314825
0.305653
0.298468
0.293731
0.292231
0.293238
3.00001
3.00001
3.00001
3.00001
3.00001
3.00001
3.00001
3.00001
3.00001
3.00001
3.00001
3.00004
3.00005
3.00014
3.00034
3.00126
3.00096
3.00985
2.97841
3.13166
2.91549
2.67231
1.98892
1.24138
0.542862
0.445563
0.477754
0.50123
0.497088
0.481836
0.463522
0.450113
0.441012
0.43347
0.426691
0.42051
0.414744
0.40923
0.402785
0.394835
0.385829
0.376135
0.366251
0.356857
0.348655
0.342113
0.337801
0.336043
0.337562
0.340582
3.00001
3.00001
3.00001
3.00001
3.00001
3.00001
3.00001
3.00001
3.00001
3.00001
3.00001
3.00002
3.00002
3.00007
3.00009
3.0006
3.00052
3.00455
2.99352
3.04411
2.95369
2.76053
2.0889
1.33341
0.577151
0.456316
0.480236
0.49799
0.494626
0.48149
0.46576
0.455075
0.448845
0.444208
0.440168
0.436595
0.43328
0.429698
0.425131
0.419378
0.412627
0.405447
0.3985
0.392166
0.387288
0.384668
0.384751
0.388035
0.395177
0.404583
3.00001
3.00001
3.00001
3.00001
3.00001
3.00001
3.00001
3.00001
3.00001
3.00001
3
2.99999
2.99998
2.99992
2.99983
2.99974
2.99856
3.00122
2.98581
3.01621
2.95654
2.83755
2.16463
1.41406
0.635663
0.470603
0.483291
0.496014
0.496015
0.485974
0.474153
0.465856
0.461469
0.458822
0.45695
0.455563
0.454349
0.452574
0.450002
0.446562
0.44236
0.438077
0.434497
0.432074
0.431614
0.434163
0.441336
0.453635
0.472738
0.498599
3.00001
3.00001
3.00001
3.00001
3.00001
3.00001
3.00001
3.00001
3.00001
3
3
2.99997
2.99997
2.99983
2.99979
2.99913
2.99848
2.99551
2.98978
2.96833
2.92478
2.70489
2.36774
1.58037
0.744732
0.51169
0.50262
0.510668
0.511434
0.502866
0.493025
0.48579
0.482484
0.481132
0.480624
0.480499
0.48044
0.479912
0.478817
0.477616
0.475952
0.474638
0.474519
0.476479
0.481358
0.491108
0.507909
0.535804
0.581625
0.675514
3.00001
3.00001
3.00001
3.00001
3.00001
3.00001
3.00001
3.00001
3.00001
3
3
2.99997
2.99997
2.99982
2.99979
2.99902
2.99871
2.99524
2.99122
2.97365
2.93725
2.7957
2.50239
1.85589
0.917059
0.592703
0.545799
0.549473
0.551078
0.545984
0.538569
0.53171
0.527328
0.525328
0.524743
0.524674
0.524823
0.525272
0.525819
0.526439
0.527539
0.529937
0.534394
0.542232
0.555398
0.575876
0.610051
0.664501
0.761118
0.916753
3.00001
3.00001
3.00001
3.00001
3.00001
3.00001
3.00001
3.00001
3.00001
3
3
2.99999
2.99998
2.99986
2.99983
2.99917
2.99897
2.99552
2.99329
2.97605
2.953
2.85808
2.65888
2.15061
1.21703
0.759987
0.603765
0.594326
0.599944
0.60532
0.600486
0.592731
0.585758
0.580986
0.578104
0.576196
0.575431
0.575918
0.576846
0.578519
0.581643
0.586944
0.595748
0.609047
0.629711
0.66051
0.70632
0.778379
0.892609
1.0486
3.00001
3.00001
3.00001
3.00001
3.00001
3.00001
3.00001
3.00001
3.00001
3.00001
3
2.99999
2.99994
2.99993
2.99959
2.99953
2.99743
2.99651
2.98464
2.99208
2.9265
3.11118
2.81334
2.42078
1.61092
0.968794
0.625569
0.60593
0.628548
0.648472
0.650126
0.643555
0.636745
0.630875
0.62679
0.623932
0.623046
0.623862
0.625555
0.628575
0.633977
0.642243
0.654831
0.673168
0.698572
0.73589
0.786675
0.858521
0.964185
1.08718
3.00001
3.00001
3.00001
3.00001
3.00001
3.00001
3.00001
3.00001
3.00001
3.00001
3.00001
3.00001
3
3
2.99992
2.99988
2.99944
2.99934
2.9957
3.00352
2.95748
3.11319
2.88937
2.58622
1.89606
1.17283
0.65221
0.601883
0.633177
0.662986
0.673215
0.671011
0.665838
0.661151
0.658195
0.656745
0.657776
0.660764
0.664632
0.670203
0.678149
0.689973
0.705634
0.728127
0.756702
0.796124
0.846788
0.912755
1.00148
1.10149
3.00001
3.00001
3.00001
3.00001
3.00001
3.00001
3.00001
3.00001
3.00001
3.00001
3.00001
3
2.99999
2.99999
2.99992
2.99989
2.99961
2.99984
2.99899
3.00393
2.98658
3.0539
2.93662
2.80827
2.1349
1.42597
0.736235
0.612011
0.633389
0.658886
0.675383
0.678014
0.675519
0.67349
0.673095
0.674555
0.678715
0.684518
0.691094
0.699735
0.710695
0.725754
0.7443
0.769428
0.800217
0.839799
0.888787
0.948715
1.02469
1.10757
3.00001
3.00001
3.00001
3.00001
3.00001
3.00001
3.00001
3.00001
3.00001
3.00001
3.00001
3
3
2.99998
2.99997
2.99983
2.99979
2.99905
2.99867
2.9947
2.99112
2.96586
2.93995
2.74486
2.51218
1.83495
0.96213
0.683484
0.658572
0.676242
0.690198
0.691926
0.688175
0.685602
0.685439
0.688839
0.695258
0.703112
0.711762
0.722479
0.735524
0.752412
0.77256
0.798556
0.829754
0.868369
0.914289
0.969464
1.03573
1.1072
3.00001
3.00001
3.00001
3.00001
3.00001
3.00001
3.00001
3.00001
3.00001
3.00001
3.00001
3
3
2.99999
2.99998
2.9999
2.99987
2.99942
2.99926
2.99691
3.00031
2.98454
3.0575
2.91791
2.77787
2.10377
1.35716
0.753705
0.68921
0.698039
0.709404
0.714465
0.711948
0.708657
0.707263
0.710371
0.716111
0.723609
0.732983
0.744853
0.759105
0.776641
0.797144
0.82225
0.852119
0.888274
0.930429
0.980127
1.03897
1.10048
3.00001
3.00001
3.00001
3.00001
3.00001
3.00001
3.00001
3.00001
3.00001
3.00001
3.00001
3.00001
3
3
2.99997
2.99996
2.99979
2.99973
2.99885
2.99842
2.9938
2.99096
2.96489
2.93076
2.72619
2.4808
1.75067
0.961943
0.73293
0.718071
0.728865
0.737255
0.739527
0.738408
0.738245
0.740669
0.745153
0.751642
0.760098
0.770976
0.784788
0.802261
0.822639
0.846952
0.874513
0.907033
0.944368
0.987816
1.03956
1.09355
3.00001
3.00001
3.00001
3.00001
3.00001
3.00001
3.00001
3.00001
3.00001
3.00001
3.00001
3.00001
3
3
2.99999
2.99997
2.99987
2.9998
2.99918
2.99891
2.99543
2.99357
2.97661
2.95417
2.86313
2.66943
2.17928
1.28111
0.894993
0.779729
0.768532
0.771504
0.77576
0.776727
0.776735
0.777601
0.780891
0.786032
0.793225
0.80296
0.815232
0.830819
0.849789
0.87208
0.898341
0.928026
0.962466
1.00045
1.04445
1.09009
3.00001
3.00001
3.00001
3.00001
3.00001
3.00001
3.00001
3.00001
3.00001
3.00001
3.00001
3.00001
3.00001
3
3
2.99995
2.99994
2.99965
2.9996
2.99784
2.99706
2.98721
2.9936
2.93993
3.10245
2.84939
2.52046
1.81266
1.18762
0.850553
0.808881
0.807295
0.812589
0.817293
0.817983
0.817626
0.818541
0.822095
0.827825
0.836101
0.846911
0.860577
0.877471
0.897656
0.921285
0.9487
0.979616
1.01477
1.05476
1.09569
3.00001
3.00001
3.00001
3.00001
3.00001
3.00001
3.00001
3.00001
3.00001
3.00001
3.00001
3.00001
3.00001
3.00001
3
3
2.99998
2.99997
2.99986
2.99963
2.99949
2.9967
2.99668
2.98079
2.98681
2.92529
2.80004
2.25032
1.57104
0.952962
0.826001
0.816177
0.829206
0.841182
0.846888
0.848464
0.849867
0.853099
0.858729
0.866682
0.876942
0.889333
0.904594
0.922566
0.943833
0.968171
0.996217
1.02738
1.06395
1.10093
3.00001
3.00001
3.00001
3.00001
3.00001
3.00001
3.00001
3.00001
3.00001
3.00001
3.00001
3.00001
3.00001
3.00001
3
3
2.99998
2.99997
2.99985
2.99979
2.99912
2.99867
2.99531
2.99194
2.9762
2.94341
2.84664
2.6156
2.04959
1.25118
0.939408
0.860808
0.856925
0.86277
0.869831
0.873051
0.875119
0.8785
0.884371
0.892684
0.903243
0.915567
0.930045
0.946785
0.965996
0.988046
1.01296
1.04098
1.07314
1.10666
3.00001
3.00001
3.00001
3.00001
3.00001
3.00001
3.00001
3.00001
3.00001
3.00001
3.00001
3.00001
3.00001
3.00001
3.00001
3
3
2.99997
2.99996
2.99979
2.99973
2.99904
2.99818
2.99458
2.98882
2.96861
2.92507
2.79009
2.45471
1.83354
1.1395
0.925351
0.893032
0.891345
0.89457
0.89912
0.902786
0.906488
0.911998
0.919689
0.929776
0.94172
0.955195
0.970679
0.988016
1.00766
1.03014
1.05481
1.08376
1.11312
3.00001
3.00001
3.00001
3.00001
3.00001
3.00001
3.00001
3.00001
3.00001
3.00001
3.00001
3.00001
3.00001
3.00001
3.00001
3
3
2.99999
2.99997
2.99988
2.99985
2.99929
2.9991
2.99613
2.99461
2.97863
2.968
2.87702
2.73793
2.33677
1.54617
1.12289
0.953491
0.926713
0.924345
0.927967
0.933743
0.939864
0.946213
0.953944
0.962525
0.973138
0.984871
0.998244
1.01348
1.03015
1.04956
1.07149
1.09667
1.12303
3.00001
3.00001
3.00001
3.00001
3.00001
3.00001
3.00001
3.00001
3.00001
3.00001
3.00001
3.00001
3.00001
3.00001
3.00001
3.00001
3.00001
3
2.99999
2.99999
2.99991
2.9999
2.99955
2.99946
2.99562
3.00139
2.96261
3.08962
2.89821
2.65811
2.09053
1.4305
1.02904
0.962691
0.948078
0.950891
0.958278
0.966529
0.97358
0.980952
0.989222
0.998972
1.01073
1.02345
1.03815
1.05412
1.07179
1.09129
1.11328
1.13625
3.00001
3.00001
3.00001
3.00001
3.00001
3.00001
3.00001
3.00001
3.00001
3.00001
3.00001
3.00001
3.00001
3.00001
3.00001
3.00001
3.00001
3
3
2.99996
2.99995
2.99971
2.99967
2.99819
2.99752
2.98907
2.99493
2.9472
3.09105
2.8633
2.58256
1.94789
1.31531
1.00493
0.970717
0.970457
0.979326
0.989807
0.998857
1.00606
1.01324
1.02135
1.03149
1.04361
1.05732
1.0729
1.08988
1.10885
1.12977
1.15143
3.00001
3.00001
3.00001
3.00001
3.00001
3.00001
3.00001
3.00001
3.00001
3.00001
3.00001
3.00001
3.00001
3.00001
3.00001
3.00001
3.00001
3
2.99999
2.99999
2.99992
2.99991
2.99954
2.99944
2.99731
2.99614
2.98534
2.98897
2.93138
3.04523
2.83599
2.50898
1.79115
1.26134
1.01685
0.987381
0.992069
1.00442
1.01718
1.02759
1.03666
1.04487
1.05327
1.06334
1.07528
1.08941
1.10507
1.12293
1.14283
1.16361
3.00001
3.00001
3.00001
3.00001
3.00001
3.00001
3.00001
3.00001
3.00001
3.00001
3.00001
3.00001
3.00001
3.00001
3.00001
3.00001
3.00001
3.00001
3
3
2.99999
2.99998
2.99988
2.99989
2.99939
2.99935
2.99637
2.99599
2.98335
3.0035
2.90732
2.80995
2.30645
1.70063
1.11984
1.01095
0.999047
1.00941
1.02457
1.03951
1.05213
1.06298
1.07352
1.08431
1.09491
1.1071
1.12059
1.13662
1.15503
1.17433
3.00001
3.00001
3.00001
3.00001
3.00001
3.00001
3.00001
3.00001
3.00001
3.00001
3.00001
3.00001
3.00001
3.00001
3.00001
3.00001
3.00001
3.00001
3.00001
3
3
2.99998
2.99997
2.99984
2.9998
2.99916
2.99877
2.99542
2.99267
2.97242
2.95803
2.84014
2.69354
2.21446
1.49855
1.1613
1.0547
1.03779
1.04213
1.05297
1.0659
1.07763
1.08881
1.10056
1.11279
1.12549
1.13926
1.15331
1.16999
1.18688
3.00001
3.00001
3.00001
3.00001
3.00001
3.00001
3.00001
3.00001
3.00001
3.00001
3.00001
3.00001
3.00001
3.00001
3.00001
3.00001
3.00001
3.00001
3.00001
3.00001
3
3
2.99995
2.99994
2.99969
2.99965
2.99818
2.99746
2.98962
2.99356
2.952
3.07399
2.88044
2.62231
2.08231
1.4787
1.14969
1.09249
1.07744
1.07702
1.08434
1.09398
1.10427
1.11511
1.1266
1.13895
1.15275
1.16788
1.18459
1.20206
3.00001
3.00001
3.00001
3.00001
3.00001
3.00001
3.00001
3.00001
3.00001
3.00001
3.00001
3.00001
3.00001
3.00001
3.00001
3.00001
3.00001
3.00001
3.00001
3.00001
3.00001
3.00001
3.00001
3.00001
3.00004
2.99997
3.00036
2.9992
2.99898
2.98857
2.99211
2.94609
3.07782
2.86538
2.60052
2.01715
1.43947
1.15874
1.11825
1.11053
1.11305
1.11943
1.12693
1.13426
1.14275
1.15343
1.16582
1.18012
1.1961
1.21283
3.00001
3.00001
3.00001
3.00001
3.00001
3.00001
3.00001
3.00001
3.00001
3.00001
3.00001
3.00001
3.00001
3.00001
3.00001
3.00001
3.00001
3.00001
3.00001
3.00001
3.00001
3
2.99999
2.99999
2.99993
2.99992
2.99957
2.99949
2.99753
2.99644
2.98678
2.99004
2.93973
3.07656
2.85111
2.57574
1.97315
1.45241
1.18034
1.14148
1.13529
1.13933
1.14777
1.15839
1.16624
1.17463
1.18421
1.19552
1.20949
1.22437
3.00001
3.00001
3.00001
3.00001
3.00001
3.00001
3.00001
3.00001
3.00001
3.00001
3.00001
3.00001
3.00001
3.00001
3.00001
3.00001
3.00001
3.00001
3.00001
3.00001
3.00001
3.00001
3.00001
3
3
2.99996
2.99995
2.99976
2.99967
2.99861
2.99804
2.99311
2.989
2.96466
2.93043
2.83512
2.48993
1.98095
1.43394
1.2176
1.16846
1.16118
1.16433
1.17377
1.1844
1.19393
1.20423
1.21487
1.22724
1.24
3.00001
3.00001
3.00001
3.00001
3.00001
3.00001
3.00001
3.00001
3.00001
3.00001
3.00001
3.00001
3.00001
3.00001
3.00001
3.00001
3.00001
3.00001
3.00001
3.00001
3.00001
3.00001
3.00001
3.00001
3
3
2.99995
2.99994
2.99973
2.99967
2.99872
2.99796
2.99426
2.9891
2.97114
2.91767
2.77861
2.51399
2.01967
1.4455
1.24798
1.19922
1.19171
1.19362
1.20174
1.21233
1.22245
1.2332
1.24476
1.25747
3.00001
3.00001
3.00001
3.00001
3.00001
3.00001
3.00001
3.00001
3.00001
3.00001
3.00001
3.00001
3.00001
3.00001
3.00001
3.00001
3.00001
3.00001
3.00001
3.00001
3.00001
3.00001
3.00001
3.00001
3.00001
3.00001
3.00001
3.00001
3.00003
2.99996
3.00032
2.99908
2.99868
2.98838
2.98767
2.95059
2.96454
2.84062
2.57667
2.01043
1.52874
1.28851
1.23717
1.22788
1.22811
1.2349
1.24437
1.25447
1.26504
1.2759
3.00001
3.00001
3.00001
3.00001
3.00001
3.00001
3.00001
3.00001
3.00001
3.00001
3.00001
3.00001
3.00001
3.00001
3.00001
3.00001
3.00001
3.00001
3.00001
3.00001
3.00001
3.00001
3.00001
3.00001
3.00001
3
3
2.99999
2.99999
2.99994
2.99991
2.99957
2.9994
2.99772
2.99619
2.98354
2.98201
2.93415
2.86918
2.50588
2.0551
1.52855
1.32184
1.26881
1.26029
1.26118
1.26751
1.27643
1.28604
1.2953
3.00001
3.00001
3.00001
3.00001
3.00001
3.00001
3.00001
3.00001
3.00001
3.00001
3.00001
3.00001
3.00001
3.00001
3.00001
3.00001
3.00001
3.00001
3.00001
3.00001
3.00001
3.00001
3.00001
3.00001
3.00001
3.00001
3.00001
3
3
2.99997
2.99995
2.99977
2.99971
2.99865
2.99815
2.99408
2.99003
2.97224
2.92976
2.87672
2.53194
2.09526
1.58535
1.37536
1.31479
1.30136
1.29962
1.30186
1.30908
1.31756
3.00001
3.00001
3.00001
3.00001
3.00001
3.00001
3.00001
3.00001
3.00001
3.00001
3.00001
3.00001
3.00001
3.00001
3.00001
3.00001
3.00001
3.00001
3.00001
3.00001
3.00001
3.00001
3.00001
3.00001
3.00001
3.00001
3.00001
3.00001
3
3
2.99996
2.99996
2.99976
2.99968
2.99875
2.99802
2.99365
2.98879
2.9636
2.94028
2.79941
2.60872
2.183
1.68958
1.44544
1.36558
1.34134
1.33508
1.33505
1.33978
3.00001
3.00001
3.00001
3.00001
3.00001
3.00001
3.00001
3.00001
3.00001
3.00001
3.00001
3.00001
3.00001
3.00001
3.00001
3.00001
3.00001
3.00001
3.00001
3.00001
3.00001
3.00001
3.00001
3.00001
3.00001
3.00001
3.00001
3.00001
3.00001
3.00001
3
2.99999
2.99996
2.99994
2.99976
3.00005
2.99798
3.00451
2.99351
2.98261
2.92858
2.87132
2.6711
2.28601
1.82516
1.50583
1.40733
1.37581
1.36794
1.36754
3.00001
3.00001
3.00001
3.00001
3.00001
3.00001
3.00001
3.00001
3.00001
3.00001
3.00001
3.00001
3.00001
3.00001
3.00001
3.00001
3.00001
3.00001
3.00001
3.00001
3.00001
3.00001
3.00001
3.00001
3.00001
3.00001
3.00001
3.00001
3.00001
3.00001
3.00001
3
3
2.99997
2.99995
2.99978
3
2.99868
3.00372
2.99545
2.98715
2.95346
2.90065
2.75242
2.37854
1.9408
1.5759
1.44257
1.40397
1.3977
3.00001
3.00001
3.00001
3.00001
3.00001
3.00001
3.00001
3.00001
3.00001
3.00001
3.00001
3.00001
3.00001
3.00001
3.00001
3.00001
3.00001
3.00001
3.00001
3.00001
3.00001
3.00001
3.00001
3.00001
3.00001
3.00001
3.00001
3.00001
3.00001
3.00001
3.00001
3.00001
3.00001
3.00001
3.00002
3.00002
3.00012
3.00015
3.00071
3.00065
3.00405
2.99697
3.00747
2.9182
2.80361
2.4731
2.07857
1.66506
1.47973
1.44033
3.00001
3.00001
3.00001
3.00001
3.00001
3.00001
3.00001
3.00001
3.00001
3.00001
3.00001
3.00001
3.00001
3.00001
3.00001
3.00001
3.00001
3.00001
3.00001
3.00001
3.00001
3.00001
3.00001
3.00001
3.00001
3.00001
3.00001
3.00001
3.00001
3.00001
3.00001
3.00001
3
3
2.99999
2.99998
2.99989
2.99984
2.99934
2.99955
2.99685
3.00419
2.9905
2.96866
2.92555
2.83747
2.62232
2.20167
1.79622
1.55611
3.00001
3.00001
3.00001
3.00001
3.00001
3.00001
3.00001
3.00001
3.00001
3.00001
3.00001
3.00001
3.00001
3.00001
3.00001
3.00001
3.00001
3.00001
3.00001
3.00001
3.00001
3.00001
3.00001
3.00001
3.00001
3.00001
3.00001
3.00001
3.00001
3.00001
3.00001
3.00001
3.00001
3.00001
3
3
2.99998
2.99997
2.99985
2.99981
2.99913
2.99872
2.99496
2.99077
2.971
2.94032
2.8294
2.6763
2.34208
1.9075
3.00001
3.00001
3.00001
3.00001
3.00001
3.00001
3.00001
3.00001
3.00001
3.00001
3.00001
3.00001
3.00001
3.00001
3.00001
3.00001
3.00001
3.00001
3.00001
3.00001
3.00001
3.00001
3.00001
3.00001
3.00001
3.00001
3.00001
3.00001
3.00001
3.00001
3.00001
3.00001
3.00001
3.00001
3.00001
3.00001
3
3
3
2.99997
3.00014
2.99958
2.99941
2.99405
2.99514
2.97338
3.03741
2.92118
2.8134
2.38221
3.00001
3.00001
3.00001
3.00001
3.00001
3.00001
3.00001
3.00001
3.00001
3.00001
3.00001
3.00001
3.00001
3.00001
3.00001
3.00001
3.00001
3.00001
3.00001
3.00001
3.00001
3.00001
3.00001
3.00001
3.00001
3.00001
3.00001
3.00001
3.00001
3.00001
3.00001
3.00001
3.00001
3.00001
3.00001
3.00001
3
3
2.99997
2.99996
2.99981
2.99979
2.99893
2.99854
2.99435
2.9929
2.97088
2.96777
2.89687
2.80443
3.00001
3.00001
3.00001
3.00001
3.00001
3.00001
3.00001
3.00001
3.00001
3.00001
3.00001
3.00001
3.00001
3.00001
3.00001
3.00001
3.00001
3.00001
3.00001
3.00001
3.00001
3.00001
3.00001
3.00001
3.00001
3.00001
3.00001
3.00001
3.00001
3.00001
3.00001
3.00001
3.00001
3.00001
3.00001
3.00001
3
3
2.99999
2.99998
2.99989
2.99986
2.99938
2.9992
2.99647
2.99636
2.98239
2.98573
2.92043
2.82159
3.00001
3.00001
3.00001
3.00001
3.00001
3.00001
3.00001
3.00001
3.00001
3.00001
3.00001
3.00001
3.00001
3.00001
3.00001
3.00001
3.00001
3.00001
3.00001
3.00001
3.00001
3.00001
3.00001
3.00001
3.00001
3.00001
3.00001
3.00001
3.00001
3.00001
3.00001
3.00001
3.00001
3.00001
3.00001
3.00001
3
3
2.99999
2.99999
2.99992
2.99991
2.99952
2.99942
2.99712
2.99707
2.98352
2.9846
2.92045
2.83337
3.00001
3.00001
3.00001
3.00001
3.00001
3.00001
3.00001
3.00001
3.00001
3.00001
3.00001
3.00001
3.00001
3.00001
3.00001
3.00001
3.00001
3.00001
3.00001
3.00001
3.00001
3.00001
3.00001
3.00001
3.00001
3.00001
3.00001
3.00001
3.00001
3.00001
3.00001
3.00001
3.00001
3.00001
3.00001
3.00001
3.00001
3.00001
3.00002
3.00003
3.0001
3.00015
3.00061
3.00052
3.00339
2.99602
3.03155
2.98176
2.92996
2.71962
3.00001
3.00001
3.00001
3.00001
3.00001
3.00001
3.00001
3.00001
3.00001
3.00001
3.00001
3.00001
3.00001
3.00001
3.00001
3.00001
3.00001
3.00001
3.00001
3.00001
3.00001
3.00001
3.00001
3.00001
3.00001
3.00001
3.00001
3.00001
3.00001
3.00001
3.00001
3.00001
3.00001
3.00001
3.00001
3.00001
3.00001
3.00001
3.00003
3.00003
3.00012
3.00017
3.00068
3.00061
3.00378
2.99654
3.0328
2.9819
2.92672
2.71393
3.00001
3.00001
3.00001
3.00001
3.00001
3.00001
3.00001
3.00001
3.00001
3.00001
3.00001
3.00001
3.00001
3.00001
3.00001
3.00001
3.00001
3.00001
3.00001
3.00001
3.00001
3.00001
3.00001
3.00001
3.00001
3.00001
3.00001
3.00001
3.00001
3.00001
3.00001
3.00001
3.00001
3.00001
3.00001
3.00001
3.00001
3.00001
3.00003
3.00003
3.00013
3.00018
3.00072
3.00067
3.00397
2.99685
3.03307
2.98218
2.92651
2.71399
1.32764
1.50172
1.54647
1.51248
1.43563
1.3463
1.24804
1.15651
1.11257
1.09329
1.08114
1.06189
1.0297
0.973945
0.875116
0.698869
0.41027
0.165314
0.169466
0.257452
0.36666
0.469984
0.546267
0.586656
0.606743
0.61753
0.619242
0.610537
0.589676
0.552234
0.497554
0.430075
0.35627
0.280898
0.208818
0.143251
0.0845009
0.0435987
0.049362
0.0878424
0.129138
0.167137
0.201915
0.233134
0.264011
0.295231
0.325004
0.352717
0.379396
0.404711
0.429413
0.452996
0.476099
0.498234
0.520002
0.540928
0.561613
0.581571
0.601402
0.620556
0.63969
0.6582
0.676759
0.694773
0.712885
0.73051
0.748285
0.765556
0.78306
0.799963
0.817207
0.833701
0.850683
0.86671
0.883408
0.898962
0.915324
0.930449
0.946439
0.961181
0.976824
0.991199
1.00651
1.02054
1.03554
1.04921
1.06393
1.07723
1.09169
1.10472
1.11905
1.13198
1.14613
1.15896
1.17277
1.1853
1.19825
1.20944
1.21908
1.22544
1.30066
1.41956
1.48221
1.52021
1.55317
1.59211
1.60915
1.60619
1.57917
1.53356
1.48003
1.44869
1.42735
1.39846
1.33818
1.20321
0.929681
0.619605
0.43452
0.335116
0.250843
0.166156
0.0935952
0.0936946
0.157151
0.223155
0.282152
0.315766
0.301701
0.253959
0.199852
0.144379
0.0993118
0.0852035
0.111424
0.151727
0.194102
0.233427
0.26893
0.303526
0.33744
0.369766
0.400251
0.428023
0.454649
0.481819
0.508925
0.53417
0.558378
0.581569
0.604268
0.626232
0.647742
0.668632
0.689162
0.709122
0.728862
0.74802
0.767142
0.785591
0.804184
0.822007
0.840099
0.8574
0.875
0.891941
0.909123
0.925872
0.94276
0.959523
0.976188
0.99307
1.00969
1.02653
1.04323
1.05988
1.07651
1.09274
1.10911
1.12466
1.14058
1.15539
1.17068
1.18477
1.19935
1.21278
1.22679
1.23972
1.2533
1.26578
1.27894
1.29104
1.30389
1.31568
1.32823
1.3396
1.35149
1.3615
1.37046
1.37518
1.26858
1.38069
1.47192
1.56185
1.64946
1.72492
1.76877
1.7746
1.76968
1.74649
1.71297
1.67606
1.64533
1.61624
1.57096
1.48594
1.3
1.02458
0.806166
0.709905
0.628442
0.550099
0.468169
0.385854
0.307203
0.234173
0.16212
0.0953282
0.0539628
0.108915
0.17472
0.232691
0.283974
0.324653
0.359173
0.390847
0.421003
0.449146
0.475268
0.500735
0.525546
0.550075
0.573748
0.595954
0.616929
0.638206
0.660616
0.682231
0.702916
0.722689
0.742154
0.761076
0.779936
0.798188
0.816611
0.834311
0.852292
0.86954
0.887011
0.903992
0.920964
0.937871
0.954391
0.971214
0.987269
1.0038
1.01942
1.03547
1.05078
1.0665
1.08166
1.09735
1.11261
1.12839
1.14403
1.15997
1.17605
1.1921
1.20858
1.22461
1.2412
1.25709
1.27345
1.28896
1.3047
1.31968
1.33458
1.34883
1.36287
1.37634
1.38966
1.40234
1.41507
1.42705
1.43921
1.45048
1.46188
1.47163
1.48031
1.48455
1.25357
1.35892
1.45798
1.54933
1.63109
1.70168
1.75944
1.80601
1.8304
1.83512
1.83218
1.81679
1.79079
1.76017
1.72459
1.66472
1.54746
1.32745
1.0874
0.973978
0.899188
0.831768
0.767371
0.696924
0.625447
0.554149
0.481212
0.414671
0.38524
0.405109
0.452095
0.501317
0.544689
0.576256
0.596676
0.612619
0.627889
0.64361
0.659612
0.676116
0.692864
0.710084
0.727417
0.744269
0.760194
0.776081
0.793518
0.811726
0.829477
0.846433
0.86322
0.879471
0.895948
0.911753
0.927949
0.943415
0.959247
0.974557
0.989879
1.00508
1.01977
1.03486
1.04913
1.0642
1.07845
1.09351
1.1078
1.12266
1.1367
1.15122
1.16495
1.17911
1.19289
1.20689
1.22109
1.23524
1.25016
1.26474
1.28046
1.29566
1.31178
1.32727
1.34336
1.35864
1.37438
1.38905
1.40424
1.41815
1.43261
1.44571
1.45942
1.47178
1.48478
1.49649
1.50884
1.51986
1.53142
1.54095
1.55001
1.55421
1.24039
1.33937
1.42991
1.51575
1.59419
1.66709
1.7308
1.78948
1.83597
1.86971
1.88168
1.88171
1.87713
1.86163
1.83728
1.7995
1.72547
1.57196
1.35157
1.16373
1.08687
1.03222
0.975135
0.918031
0.855453
0.788247
0.712315
0.63872
0.605672
0.620332
0.661866
0.707537
0.746086
0.773412
0.787341
0.790585
0.791104
0.79387
0.799867
0.808292
0.818635
0.830029
0.842537
0.855259
0.86805
0.880435
0.894247
0.909461
0.925586
0.941025
0.956482
0.971319
0.986536
1.00111
1.01612
1.03054
1.04522
1.05961
1.07386
1.08827
1.10203
1.11631
1.12961
1.14364
1.15678
1.17067
1.18388
1.19771
1.21091
1.22447
1.23755
1.25058
1.26368
1.27636
1.2899
1.30295
1.31733
1.33121
1.34631
1.3609
1.37644
1.39117
1.40672
1.421
1.43602
1.44947
1.46364
1.47612
1.48937
1.50098
1.51345
1.52432
1.5362
1.54651
1.55794
1.56773
1.57861
1.5874
1.59618
1.60021
1.22454
1.31657
1.40182
1.48216
1.55727
1.62671
1.69082
1.74844
1.79985
1.84605
1.88233
1.90568
1.91463
1.91429
1.90785
1.89055
1.8489
1.76774
1.58702
1.36539
1.23076
1.16654
1.12158
1.07262
1.01372
0.946158
0.858375
0.774403
0.743765
0.758896
0.799464
0.848285
0.889243
0.918425
0.935519
0.939871
0.932687
0.924108
0.920091
0.92026
0.924326
0.930327
0.938565
0.947842
0.958355
0.968206
0.979043
0.990969
1.005
1.01873
1.03278
1.04612
1.06008
1.07346
1.08738
1.10074
1.11436
1.1277
1.14088
1.15411
1.16668
1.17969
1.1918
1.20461
1.21661
1.22923
1.24125
1.25369
1.26569
1.27791
1.28998
1.30192
1.31433
1.32635
1.33936
1.35182
1.36545
1.37857
1.39285
1.40644
1.42119
1.4348
1.44957
1.46282
1.47705
1.4896
1.50301
1.51463
1.52715
1.53789
1.54963
1.55965