/*--------------------------------*- C++ -*----------------------------------*\
| =========                 |                                                 |
| \\      /  F ield         | OpenFOAM: The Open Source CFD Toolbox           |
|  \\    /   O peration     | Version:  2412                                  |
|   \\  /    A nd           | Website:  www.openfoam.com                      |
|    \\/     M anipulation  |                                                 |
\*---------------------------------------------------------------------------*/
FoamFile
{
    version     2.0;
    format      ascii;
    arch        "LSB;label=32;scalar=64";
    class       volScalarField;
    location    "3";
    object      p;
}
// * * * * * * * * * * * * * * * * * * * * * * * * * * * * * * * * * * * * * //

dimensions      [1 -1 -2 0 0 0 0];

internalField   nonuniform List<scalar> 
7000
(
1
1
1
1
1
1
1
1
1.00001
1.00003
1.00003
1.00016
1.00018
1.00092
1.00105
1.0054
1.00797
1.03222
1.02393
1.08407
1.17799
1.11217
2.91365
5.02293
10.5963
10.397
9.94526
9.66714
9.6668
9.71843
9.83188
9.93477
10.0112
10.0784
10.1456
10.2113
10.271
10.3294
10.3771
10.4179
10.4526
10.4785
10.5
10.5169
10.5304
10.5416
10.5512
10.5605
10.5683
10.5754
1
1
1
1
1
1
1
1
1
1.00002
1.00003
1.00014
1.00015
1.00082
1.00095
1.00507
1.00771
1.03229
1.02392
1.08355
1.17685
1.11031
2.91201
5.01306
10.5927
10.3927
9.94269
9.66524
9.66536
9.71743
9.83099
9.93352
10.0099
10.0774
10.1447
10.2105
10.2701
10.3285
10.3761
10.417
10.4516
10.4775
10.499
10.516
10.5295
10.5406
10.5503
10.5595
10.5674
10.5746
1
1
1
1
1
1
1
1
1
1.00002
1.00003
1.00011
1.00011
1.00051
1.00033
0.999645
1.01375
1.03278
1.02493
1.08218
1.1741
1.10612
2.90794
4.99176
10.5845
10.3836
9.93728
9.66044
9.66114
9.71376
9.82736
9.92936
10.0057
10.0732
10.1404
10.206
10.2652
10.3233
10.3706
10.4113
10.4461
10.4723
10.4941
10.5112
10.5248
10.5361
10.5457
10.555
10.5627
10.5697
1
1
1
1
1
1
1
1
1
1.00002
1.00002
1.00008
1.00007
1.00029
1.00002
0.999114
1.01374
1.03284
1.02433
1.07965
1.1697
1.09926
2.90183
4.95776
10.5708
10.3697
9.92988
9.65289
9.65416
9.70737
9.82098
9.92269
9.99897
10.0664
10.1335
10.1987
10.2574
10.315
10.3619
10.4025
10.4374
10.4639
10.4859
10.5032
10.5169
10.5283
10.5379
10.5471
10.5547
10.5616
1
1
1
1
1
1
1
1
1
1.00002
1.00003
1.00009
1.00008
1.0004
1.00021
0.999496
1.01301
1.03164
1.02252
1.07572
1.16355
1.0896
2.89399
4.90991
10.5503
10.3501
9.92003
9.64325
9.6445
9.6978
9.81125
9.91314
9.98943
10.0567
10.1236
10.1883
10.2464
10.3034
10.3498
10.3902
10.4252
10.4518
10.474
10.4915
10.5053
10.5168
10.5263
10.5354
10.5429
10.5497
1
1
1
1
1
1
1
1
1
1.00002
1.00002
1.00012
1.00012
1.00074
1.00089
1.0045
1.0068
1.02989
1.01905
1.07061
1.15563
1.0768
2.88433
4.84508
10.5205
10.3236
9.90905
9.63191
9.63216
9.68451
9.79806
9.90046
9.97676
10.0438
10.1102
10.1743
10.2317
10.2881
10.3339
10.3739
10.4088
10.4354
10.4577
10.4753
10.4893
10.5008
10.5102
10.5193
10.5266
10.5335
1
1
1
1
1
1
1
1
1
1.00002
1.00002
1.00012
1.00014
1.00072
1.00081
1.00429
1.00614
1.02763
1.01599
1.06481
1.14614
1.06076
2.87352
4.75793
10.4771
10.2882
9.89816
9.61947
9.61695
9.66774
9.78092
9.88424
9.96061
10.0272
10.0931
10.1565
10.213
10.2686
10.3137
10.3532
10.3877
10.4142
10.4365
10.4542
10.4681
10.4797
10.489
10.498
10.5053
10.5123
1
1
1
1
1
1
1
1
1
1.00002
1.00002
1.00011
1.00011
1.00068
1.00079
1.00378
1.00564
1.02296
1.0127
1.05956
1.1353
1.03916
2.86581
4.64607
10.4124
10.2439
9.88756
9.6055
9.59795
9.64774
9.76014
9.86412
9.94056
10.0068
10.072
10.1345
10.19
10.2446
10.2886
10.3273
10.3612
10.3875
10.4097
10.4273
10.4412
10.4528
10.4621
10.4711
10.4782
10.4854
1
1
1
1
1
1
1
1
1
1.00002
1.00002
1.0001
1.0001
1.00059
1.00071
1.0033
1.00495
1.02076
1.00983
1.05364
1.12449
1.0215
2.84542
4.52293
10.3325
10.1873
9.86585
9.5871
9.57452
9.62355
9.73521
9.83962
9.91607
9.98182
10.0462
10.1077
10.162
10.2151
10.2579
10.2954
10.3284
10.3543
10.3763
10.3939
10.4079
10.4195
10.4288
10.4377
10.4447
10.452
1
1
1
1
1
1
1
1
1
1.00001
1.00002
1.00009
1.00009
1.00051
1.00063
1.00278
1.00447
1.01718
1.00795
1.04843
1.11445
1.01031
2.80286
4.39035
10.2008
10.1518
9.84564
9.56258
9.54555
9.59438
9.7059
9.81047
9.88671
9.95182
10.0153
10.0755
10.1283
10.1795
10.2206
10.2567
10.2886
10.3139
10.3356
10.3531
10.3671
10.3789
10.3881
10.397
10.4039
10.4115
1
1
1
1
1
1
1
1
1
1.00001
1.00001
1.00007
1.00008
1.00043
1.00053
1.00233
1.00368
1.01582
1.00449
1.04299
1.10363
0.99835
2.75499
4.23531
10.0259
10.1189
9.82277
9.53338
9.51194
9.56049
9.67165
9.77633
9.85208
9.91623
9.97837
10.037
10.088
10.1371
10.1761
10.2102
10.2407
10.2651
10.2863
10.3037
10.3177
10.3296
10.3389
10.3477
10.3545
10.3623
1
1
1
1
1
1
1
1
1
1.00001
1.00001
1.00006
1.00006
1.00033
1.00043
1.00171
1.00299
1.01114
1.00278
1.03766
1.09242
0.986278
2.69968
4.06354
9.80142
10.0871
9.79878
9.49985
9.47304
9.52118
9.63226
9.7369
9.81173
9.87455
9.93505
9.9917
10.0402
10.087
10.1233
10.155
10.1836
10.2068
10.2273
10.2444
10.2584
10.2703
10.2796
10.2883
10.295
10.3032
1
1
1
1
1
1
1
1
1
1.00001
1.00001
1.00004
1.00004
1.00023
1.00032
1.00121
1.0021
1.00903
0.999182
1.03162
1.08061
0.974386
2.63649
3.87802
9.53112
10.0458
9.77428
9.46239
9.42902
9.47684
9.58794
9.69209
9.76539
9.8263
9.88467
9.9388
9.98444
10.0284
10.0615
10.0903
10.1164
10.1379
10.1572
10.1736
10.1873
10.1989
10.2081
10.2165
10.2231
10.2319
1
1
1
1
1
1
1
1
1
1
1
1.00002
1.00002
1.00014
1.00025
1.00073
1.00129
1.00445
0.996548
1.02596
1.06868
0.963054
2.5661
3.6772
9.21598
9.99283
9.74378
9.41968
9.38011
9.42788
9.53913
9.64211
9.71325
9.77167
9.82733
9.87827
9.9205
9.96075
9.99014
10.0154
10.0382
10.0574
10.0746
10.0895
10.1023
10.1131
10.1218
10.1295
10.1356
10.145
1
1
1
1
1
1
1
1
0.999999
0.999999
0.999998
0.999998
0.999997
1.00002
1.00005
1.0003
1.00028
1.00215
0.99391
1.02032
1.05695
0.952997
2.48989
3.4585
8.85673
9.92181
9.70023
9.36936
9.32656
9.37448
9.48578
9.5867
9.65474
9.71018
9.76249
9.80957
9.8481
9.88362
9.90871
9.92965
9.94844
9.96432
9.97774
9.99026
10.0007
10.0096
10.0164
10.0224
10.0274
10.0376
1
1
1
1
1
1
1
1
0.999998
0.999998
0.999991
0.999986
0.999965
0.999905
0.999873
0.999539
0.999095
1.00021
0.991622
1.01483
1.04564
0.94514
2.4081
3.22194
8.47297
9.82456
9.63495
9.3101
9.27057
9.31829
9.42828
9.52541
9.5901
9.64232
9.69085
9.73364
9.7677
9.79725
9.81739
9.83306
9.84652
9.85709
9.86588
9.87365
9.87965
9.88399
9.88666
9.88838
9.89044
9.90044
1
1
1
1
1
1
1
1
0.999998
0.999998
0.999992
0.999988
0.999957
0.999954
0.999675
0.999316
0.997701
0.997979
0.982596
0.998281
1.01302
0.907534
2.37522
2.81965
8.11463
9.70631
9.54862
9.24962
9.21603
9.26197
9.36692
9.45877
9.52002
9.56907
9.61359
9.65112
9.68
9.70257
9.71656
9.72568
9.73238
9.73561
9.73732
9.73702
9.73503
9.73058
9.72419
9.71637
9.71066
9.71904
1
1
1
1
1
1
1
1
0.999999
0.999999
0.999996
0.999994
0.999981
0.99997
0.999963
0.999658
0.999114
0.999043
0.992139
1.00635
0.993498
0.957858
2.22837
2.37221
7.64862
9.54066
9.43083
9.20433
9.16848
9.20947
9.3029
9.38776
9.44521
9.49089
9.53054
9.56289
9.58565
9.5998
9.60667
9.60826
9.60577
9.59962
9.59056
9.57788
9.5618
9.54151
9.51705
9.48922
9.46322
9.46145
1
1
1
1
1
1
1
1
1
1
1.00001
1.00001
1.00003
1.00003
1.00014
1.00026
1.00069
1.00217
1.00128
1.01552
0.997974
0.935979
2.11969
2.1572
6.96292
9.35465
9.31117
9.17002
9.12492
9.1591
9.23826
9.31532
9.36836
9.40955
9.4441
9.46961
9.48565
9.49123
9.48958
9.4827
9.46739
9.44801
9.42413
9.39382
9.35599
9.30824
9.24945
9.17918
9.10194
9.05763
1
1
1
1
1
1
1
1
1
1
1.00001
1.00001
1.00005
1.00006
1.00028
1.00029
1.00162
1.0015
1.00925
1.01643
1.07056
1.04351
1.84423
1.9884
5.92573
9.18729
9.31508
9.18831
9.09933
9.11676
9.17155
9.23967
9.2877
9.32338
9.35142
9.36994
9.37775
9.37614
9.36603
9.34439
9.31549
9.27977
9.23601
9.18109
9.11099
9.02018
8.9008
8.74413
8.53857
8.32041
1
1
1
1
1
1
1
1
1
1
1.00001
1.00001
1.00006
1.00006
1.00031
1.00032
1.00165
1.00152
1.00958
1.01067
1.06364
1.06363
1.57329
1.67278
4.61578
8.69361
9.37823
9.27085
9.11613
9.07896
9.09707
9.14123
9.18438
9.21461
9.23407
9.24351
9.24243
9.23323
9.20929
9.1709
9.12411
9.06664
8.99505
8.90354
8.78379
8.62026
8.38798
8.02736
7.40336
6.0312
1
1
1
1
1
1
1
1
1
1
1.00001
1.00001
1.00004
1.00006
1.00022
1.00038
1.00129
1.00183
1.00799
1.00918
1.04935
1.04993
1.39228
1.32978
3.79513
7.198
9.34161
9.37791
9.23848
9.06497
9.02262
9.03349
9.06022
9.08233
9.0904
9.08863
9.07939
9.05584
9.01352
8.95993
8.89291
8.8095
8.70443
8.56814
8.38882
8.1429
7.79176
7.27039
6.48891
5.1356
1
1
1
1
1
1
1
1
1
1
1
1.00002
1.00002
1.00012
1.00013
1.00075
1.00085
1.00445
1.00646
1.02745
1.01754
1.06843
1.15587
1.08915
2.77143
4.67141
9.11487
9.54847
9.35434
9.02754
8.89848
8.89005
8.89851
8.91544
8.91577
8.90961
8.89057
8.85028
8.79505
8.72657
8.64112
8.53221
8.39501
8.22027
7.99374
7.69503
7.29355
6.74729
6.03779
5.0536
1
1
1
1
1
1
1
1
1
1
1
1
1
1.00003
1.00003
1.00018
1.00026
1.00103
1.0018
1.00775
0.999438
1.027
1.06577
0.970874
2.43092
3.26942
8.21547
9.40142
9.24534
8.92058
8.7366
8.71097
8.72049
8.73984
8.73894
8.72845
8.69953
8.64261
8.57467
8.4921
8.38916
8.26033
8.09966
7.90051
7.64971
7.33404
6.93645
6.43636
5.83547
5.07325
1
1
1
1
1
1
1
1
1
1
1
1
1.00002
1.00003
1.00004
1.00005
1.00023
1.00025
0.999818
0.999774
0.994727
1.00231
1.01897
0.974371
2.09158
2.35849
6.53989
8.94209
8.93982
8.77871
8.57911
8.53685
8.54785
8.57038
8.56822
8.55233
8.51103
8.44142
8.36169
8.26828
8.15316
8.01229
7.83883
7.62869
7.37276
7.06326
6.69188
6.24881
5.73997
5.12013
1
1
1
1
1
1
1
1
1
1
1
1
1.00001
1.00001
1.00005
1.00007
1.00029
1.00034
1.00173
1.0017
1.01055
1.01284
1.0719
1.06629
1.6079
1.60297
4.70672
8.4432
8.88727
8.74969
8.51742
8.43619
8.43576
8.43806
8.43042
8.40342
8.34521
8.266
8.17654
8.07102
7.94468
7.79475
7.61571
7.40446
7.15484
6.86194
6.52139
6.12894
5.68883
5.16983
1
1
1
1
1
1
1
1
1
1
1
1
1.00001
1.00001
1.00003
1.00004
1.00018
1.00023
1.00091
1.00125
1.00524
0.998187
1.00705
1.02304
0.941553
2.26869
2.34679
7.30012
8.74397
8.68069
8.51874
8.37651
8.33604
8.3272
8.30596
8.25821
8.18634
8.10225
8.00594
7.89657
7.76887
7.61779
7.4392
7.2297
6.98575
6.70817
6.39577
6.04549
5.66251
5.21764
1
1
1
1
1
1
1
1
1
1
1
1
1
1.00001
1.00001
1.00007
1.00007
1.00038
1.00044
1.00195
1.00248
1.01052
1.01383
1.07212
1.10001
1.62345
1.84287
4.73141
8.22109
8.61209
8.51261
8.34181
8.24931
8.21338
8.1756
8.12018
8.04675
7.95906
7.8591
7.74515
7.61375
7.46176
7.28604
7.08477
6.85742
6.60088
6.31373
5.99194
5.64561
5.25526
1
1
1
1
1
1
1
1
1
1
1
1
1
1.00001
1.00001
1.00004
1.00005
1.00025
1.00034
1.0014
1.00187
1.00768
1.00833
1.04853
1.04809
1.37821
1.29297
3.62697
6.67215
8.33408
8.46868
8.3781
8.22314
8.12727
8.06391
7.99956
7.92169
7.83143
7.72832
7.61148
7.47889
7.32819
7.15717
6.9641
6.74812
6.50803
6.24423
5.95833
5.64765
5.29365
1
1
1
1
1
1
1
1
1
1
1
1
1
1
1.00002
1.00002
1.00011
1.00012
1.00063
1.00073
1.00374
1.00529
1.02304
1.01331
1.05142
1.1114
1.02587
2.5037
3.65049
7.57786
8.41098
8.35788
8.21895
8.05486
7.95305
7.87877
7.80213
7.71191
7.60824
7.49056
7.3583
7.21014
7.04445
6.85986
6.65553
6.43121
6.18696
5.92309
5.64376
5.32786
1
1
1
1
1
1
1
1
1
1
1
1
1
1
1
1.00001
1.00002
1.00002
1.00014
1.00024
1.00002
1.00269
1.00576
1.00756
1.03019
1.0431
1.0127
2.00607
2.00815
5.71914
7.99365
8.25462
8.15914
7.97431
7.83475
7.7519
7.68185
7.59874
7.49903
7.38313
7.25242
7.10702
6.94637
6.76956
6.57615
6.36597
6.1393
5.89502
5.63616
5.34856
1
1
1
1
1
1
1
1
1
1
1
1
1
1
1
1.00001
1.00001
1.00005
1.00006
1.00029
1.00031
1.00165
1.00164
1.00921
1.01061
1.05438
1.05465
1.45273
1.47415
3.70761
6.69581
7.97712
8.03108
7.95308
7.79152
7.67157
7.58715
7.50411
7.40735
7.2936
7.16454
7.02139
6.86453
6.69408
6.50974
6.31193
6.09983
5.87375
5.6354
5.37136
1
1
1
1
1
1
1
1
1
1
1
1
1
1
1
1
1.00001
1.00002
1.00007
1.00008
1.00032
1.00041
1.00182
1.00208
1.01222
1.01071
1.07813
1.04504
1.66682
1.77253
4.25046
7.27823
7.9259
7.9066
7.81847
7.67409
7.55339
7.45215
7.34855
7.23
7.09771
6.95338
6.79812
6.63231
6.45525
6.26717
6.06916
5.85867
5.63798
5.39264
1
1
1
1
1
1
1
1
1
1
1
1
1
1
1
1
1.00001
1.00001
1.00004
1.00004
1.00023
1.00023
1.00124
1.00134
1.00705
1.00719
1.03877
1.04981
1.28
1.24633
2.95884
5.211
7.40704
7.84029
7.80846
7.69806
7.54737
7.41721
7.29762
7.17542
7.04512
6.90499
6.75518
6.59553
6.42661
6.24714
6.05581
5.85529
5.64529
5.41794
1
1
1
1
1
1
1
1
1
1
1
1
1
1
1
1
1
1
1.00001
1.00003
1.00003
1.00015
1.00023
1.00006
1.00306
1.00868
1.0021
1.02702
1.06023
0.988462
2.18031
2.51902
6.24483
7.59248
7.74776
7.68201
7.53258
7.36244
7.22342
7.1028
6.98242
6.85199
6.71046
6.5586
6.39724
6.22648
6.04761
5.85827
5.66153
5.44643
1
1
1
1
1
1
1
1
1
1
1
1
1
1
1
1
1
1
1.00001
1.00002
1.00008
1.00011
1.00052
1.00059
1.00322
1.00457
1.02006
1.01177
1.04603
1.0948
1.02937
2.3219
3.06262
6.67526
7.62546
7.63044
7.54425
7.36942
7.19535
7.05448
6.92889
6.80283
6.67063
6.52752
6.37508
6.21333
6.04286
5.86348
5.67691
5.47423
1
1
1
1
1
1
1
1
1
1
1
1
1
1
1
1
1
1
1.00001
1.00002
1.00003
1.00014
1.00015
1.00082
1.00094
1.00462
1.00598
1.0253
1.01999
1.08566
1.14535
1.09558
2.39048
3.9387
6.83363
7.52008
7.50484
7.39577
7.20445
7.03896
6.9014
6.77469
6.6458
6.50609
6.35653
6.20084
6.0389
5.86948
5.69313
5.50016
1
1
1
1
1
1
1
1
1
1
1
1
1
1
1
1
1
1
1
1.00001
1.00001
1.00001
1.00009
1.00023
1.00028
1.00027
1.00273
1.00653
1.00629
1.01695
1.05088
0.999772
1.92421
1.83779
5.12785
7.0286
7.36946
7.32849
7.20413
7.02298
6.86917
6.73694
6.61
6.47882
6.3404
6.19283
6.03631
5.87197
5.70206
5.51814
1
1
1
1
1
1
1
1
1
1
1
1
1
1
1
1
1
1
1
1
1.00001
1.00001
1.00005
1.00006
1.00028
1.00031
1.00156
1.00175
1.00848
1.01318
1.04629
1.0775
1.33561
1.40215
3.0193
5.45567
6.86642
7.16694
7.13603
7.01746
6.85058
6.70461
6.57619
6.44927
6.31677
6.17685
6.03057
5.87717
5.71763
5.54146
1
1
1
1
1
1
1
1
1
1
1
1
1
1
1
1
1
1
1
1
1
1.00002
1.00002
1.00009
1.00011
1.00054
1.00064
1.00309
1.00448
1.01826
1.01205
1.04408
1.08729
1.02432
2.15316
2.54888
5.72099
6.83161
7.01859
6.97639
6.85788
6.69679
6.54844
6.41501
6.28774
6.15835
6.02112
5.87681
5.72341
5.55478
1
1
1
1
1
1
1
1
1
1
1
1
1
1
1
1
1
1
1
1
1
1
1
0.999998
0.999992
0.999943
1.00002
0.999786
0.99915
1.00861
1.02078
1.01511
1.05116
1.09861
1.03962
2.19365
2.82429
5.83851
6.76364
6.88546
6.8379
6.72278
6.56256
6.41922
6.28659
6.15451
6.02044
5.8798
5.73344
5.57225
1
1
1
1
1
1
1
1
1
1
1
1
1
1
1
1
1
1
1
1
1
1
1
1.00002
1.00003
1.00013
1.00016
1.00075
1.00088
1.00413
1.00607
1.02294
1.01713
1.05888
1.11354
1.05087
2.19291
3.03776
5.74577
6.62459
6.756
6.70944
6.60224
6.43963
6.29659
6.16228
6.02829
5.89052
5.74839
5.59214
1
1
1
1
1
1
1
1
1
1
1
1
1
1
1
1
1
1
1
1
1
1
1
1.00001
1.00001
1.00002
1.00008
1.00009
1.00044
1.00048
1.00243
1.00296
1.012
1.01796
1.06315
1.05174
1.59551
1.66048
3.4165
5.6438
6.46781
6.61907
6.58144
6.47943
6.32345
6.17985
6.04299
5.90791
5.77195
5.62283
1
1
1
1
1
1
1
1
1
1
1
1
1
1
1
1
1
1
1
1
1
1
1
1
1
1.00002
1.00002
1.00009
1.0001
1.00046
1.00049
1.00227
1.00288
1.009
1.02502
1.06042
1.07009
1.58682
1.61982
3.43047
5.55213
6.34742
6.49439
6.46133
6.372
6.21962
6.07171
5.93139
5.7945
5.64853
1
1
1
1
1
1
1
1
1
1
1
1
1
1
1
1
1
1
1
1
1
1
1
1
1
0.999999
0.999998
0.999994
0.999998
0.999988
1.00009
0.999931
0.999566
1.00814
1.01868
1.02145
1.05526
1.17557
1.16525
2.07647
3.1534
5.37216
6.20283
6.37029
6.34461
6.26139
6.11916
5.97001
5.8268
5.68063
1
1
1
1
1
1
1
1
1
1
1
1
1
1
1
1
1
1
1
1
1
1
1
1
1
1
1
1.00001
1.00001
1.00005
1.00005
1.00032
1.00049
1.00162
1.00204
1.0102
1.02708
1.04539
1.02047
1.59679
1.57519
3.28518
5.20184
6.02092
6.21603
6.19989
6.13063
5.99575
5.85275
5.70632
1
1
1
1
1
1
1
1
1
1
1
1
1
1
1
1
1
1
1
1
1
1
1
1
1
1
1
1
1.00001
1.00002
1.00007
1.00009
1.00041
1.00044
1.00218
1.00266
1.00852
1.02167
1.04682
1.02962
1.54901
1.55682
3.11932
4.9063
5.78722
6.03656
6.04484
5.99769
5.89324
5.75069
1
1
1
1
1
1
1
1
1
1
1
1
1
1
1
1
1
1
1
1
1
1
1
1
1
1
1
1
1
1.00001
1.00002
1.00008
1.00009
1.00043
1.00045
1.00235
1.0026
1.01258
1.01648
1.07011
1.06636
1.4705
1.47955
2.848
4.49083
5.47602
5.83401
5.91264
5.88148
5.79768
1
1
1
1
1
1
1
1
1
1
1
1
1
1
1
1
1
1
1
1
1
1
1
1
1
1
1
1
1
1
1
1.00002
1.00002
1.00008
1.00013
1.00043
1.00012
1.00188
1.00313
0.999117
1.05985
1.14047
1.12712
1.86378
2.11495
4.02878
5.21811
5.68297
5.79754
5.77388
1
1
1
1
1
1
1
1
1
1
1
1
1
1
1
1
1
1
1
1
1
1
1
1
1
1
1
1
1
1
1
1
1.00001
1.00002
1.00007
1.0001
1.0004
1.00008
1.00086
1.00154
0.998017
1.04134
1.09914
1.07266
1.72625
1.90037
3.54125
4.94831
5.54106
5.67879
1
1
1
1
1
1
1
1
1
1
1
1
1
1
1
1
1
1
1
1
1
1
1
1
1
1
1
1
1
1
1
1
1
0.999999
0.999998
0.999978
0.999975
0.999823
0.999732
0.998923
0.998781
0.995634
0.99588
1.07174
1.03715
1.58621
1.76949
2.99911
4.68804
5.33352
1
1
1
1
1
1
1
1
1
1
1
1
1
1
1
1
1
1
1
1
1
1
1
1
1
1
1
1
1
1
1
1
1
1.00001
1.00001
1.00004
1.00004
1.0002
1.0003
1.00113
1.00083
1.00372
1.00673
1.00251
1.06848
1.18346
1.18164
1.88156
2.48276
4.12723
1
1
1
1
1
1
1
1
1
1
1
1
1
1
1
1
1
1
1
1
1
1
1
1
1
1
1
1
1
1
1
1
1
1
1
1.00001
1.00001
1.00005
1.00005
1.00027
1.00027
1.00159
1.00151
1.01002
1.01203
1.06465
1.06569
1.37378
1.39133
2.37274
1
1
1
1
1
1
1
1
1
1
1
1
1
1
1
1
1
1
1
1
1
1
1
1
1
1
1
1
1
1
1
1
1
1
1
1
1
1.00001
1.00002
1.00002
1.00005
0.999968
0.999652
1.00448
1.01041
1.00798
1.02643
1.04542
1.00047
1.59162
1
1
1
1
1
1
1
1
1
1
1
1
1
1
1
1
1
1
1
1
1
1
1
1
1
1
1
1
1
1
1
1
1
1
1
1
1
1.00001
1.00001
1.00006
1.00007
1.00033
1.00037
1.00177
1.00257
1.00924
1.01217
1.04842
1.07513
1.0618
1
1
1
1
1
1
1
1
1
1
1
1
1
1
1
1
1
1
1
1
1
1
1
1
1
1
1
1
1
1
1
1
1
1
1
1
1
1.00001
1.00001
1.00004
1.00005
1.00019
1.00023
1.00103
1.00152
1.00559
1.00658
1.024
1.05999
1.06193
1
1
1
1
1
1
1
1
1
1
1
1
1
1
1
1
1
1
1
1
1
1
1
1
1
1
1
1
1
1
1
1
1
1
1
1
1
1
1.00001
1.00002
1.00004
1.00013
1.00018
1.00074
1.00123
1.00446
1.00602
1.02804
1.05105
1.0331
1
1
1
1
1
1
1
1
1
1
1
1
1
1
1
1
1
1
1
1
1
1
1
1
1
1
1
1
1
1
1
1
1
1
1
0.999999
0.999999
0.999996
0.999995
0.999973
0.99997
0.999836
0.999713
0.999031
0.998999
0.994722
0.997778
0.998837
0.976885
1.27677
1
1
1
1
1
1
1
1
1
1
1
1
1
1
1
1
1
1
1
1
1
1
1
1
1
1
1
1
1
1
1
1
1
1
1
0.999999
0.999999
0.999994
0.999994
0.999965
0.999964
0.999796
0.999727
0.998832
0.998998
0.993863
0.997013
0.998186
0.974893
1.28374
1
1
1
1
1
1
1
1
1
1
1
1
1
1
1
1
1
1
1
1
1
1
1
1
1
1
1
1
1
1
1
1
1
1
1
0.999999
0.999999
0.999994
0.999993
0.999963
0.999962
0.999782
0.999712
0.998764
0.998906
0.993541
0.996634
0.997773
0.974752
1.28328
2.16686
1.13394
0.777923
0.68432
0.700713
0.757167
0.88354
1.07212
1.1818
1.21246
1.21419
1.22143
1.24253
1.29239
1.40087
1.63256
2.12504
2.91802
3.13147
3.10814
3.0582
2.98544
2.94576
2.92923
2.92536
2.9324
2.95605
3.00407
3.0841
3.2117
3.38829
3.59573
3.80999
4.0147
4.19425
4.34204
4.45867
4.54689
4.62314
4.67817
4.7098
4.72729
4.73275
4.73035
4.72086
4.70081
4.6738
4.64304
4.60806
4.56986
4.52822
4.484
4.43715
4.38837
4.33776
4.28594
4.23301
4.17945
4.12527
4.0708
4.01597
3.96106
3.906
3.85103
3.79611
3.74146
3.68706
3.63309
3.57955
3.52656
3.47413
3.42234
3.37119
3.3207
3.27088
3.22171
3.17322
3.12535
3.07817
3.03159
2.9857
2.94039
2.89577
2.8517
2.80832
2.76547
2.72343
2.68182
2.64121
2.60111
2.56188
2.52318
2.48529
2.44807
2.41183
2.37657
2.3429
2.31165
2.2848
2.26782
2.86801
1.80457
1.34912
1.15889
1.07423
1.02653
0.999796
1.00906
1.03709
1.09641
1.1907
1.25124
1.27721
1.31071
1.38529
1.55638
1.94677
2.76603
3.14386
3.11213
3.04093
2.97582
2.95379
2.95327
2.94368
2.94101
2.94935
2.98393
3.05625
3.18006
3.35177
3.55142
3.76137
3.96981
4.15731
4.31011
4.42988
4.52376
4.60144
4.65705
4.69169
4.71087
4.71774
4.71636
4.70962
4.69293
4.66436
4.63299
4.59874
4.56119
4.52011
4.47624
4.42986
4.38156
4.33153
4.28022
4.2278
4.17464
4.12084
4.06666
4.01215
3.95746
3.90268
3.84789
3.79322
3.73873
3.68454
3.63071
3.57732
3.52444
3.47211
3.42042
3.36933
3.31891
3.26914
3.22003
3.17158
3.12374
3.07661
3.03005
2.98419
2.93888
2.89429
2.85025
2.80687
2.76421
2.72232
2.68101
2.64041
2.6003
2.56098
2.52232
2.48446
2.44725
2.41104
2.37568
2.34187
2.3102
2.28361
2.26473
3.64938
2.67005
2.03587
1.61379
1.33157
1.14448
1.02337
1.00121
1.00897
1.03392
1.08836
1.15855
1.22131
1.27611
1.33512
1.45798
1.72262
2.31095
3.03695
3.09183
3.0602
2.99507
2.96046
2.94198
2.93074
2.93251
2.94952
2.99565
3.06738
3.16654
3.3248
3.52371
3.72463
3.92813
4.11322
4.26823
4.3923
4.48981
4.56708
4.62439
4.66259
4.68471
4.69403
4.69347
4.68936
4.67748
4.65228
4.6192
4.58451
4.54751
4.50732
4.46424
4.41864
4.37109
4.32185
4.27129
4.2196
4.16707
4.11386
4.06018
4.00614
3.9519
3.8975
3.84313
3.78877
3.73463
3.68069
3.62713
3.57392
3.52124
3.46904
3.41747
3.36646
3.31614
3.26645
3.2174
3.16901
3.12127
3.07423
3.02773
2.98192
2.93664
2.89212
2.84818
2.80509
2.76244
2.72051
2.67919
2.6386
2.59861
2.55939
2.5208
2.48301
2.44586
2.40962
2.37421
2.34028
2.30816
2.28138
2.26072
4.05513
3.19759
2.52272
2.02567
1.67747
1.43678
1.28001
1.16945
1.10535
1.08964
1.09431
1.11157
1.14897
1.20378
1.26776
1.35441
1.52919
1.90129
2.67748
3.03264
3.05713
3.03859
2.99626
2.96587
2.96164
2.97002
2.99842
3.06101
3.14531
3.24273
3.36857
3.52551
3.69894
3.86292
4.03378
4.19337
4.3286
4.43527
4.5175
4.57834
4.62023
4.64621
4.65915
4.66032
4.65812
4.65034
4.63209
4.59945
4.56376
4.52671
4.48746
4.44564
4.40134
4.35498
4.30687
4.25736
4.20667
4.15503
4.10263
4.04969
3.99631
3.9427
3.88888
3.83509
3.78126
3.72763
3.67413
3.62099
3.56813
3.51576
3.46383
3.41248
3.36169
3.31154
3.26206
3.21316
3.16486
3.11723
3.07034
3.02396
2.97837
2.9333
2.88898
2.84514
2.8021
2.75954
2.71776
2.67649
2.63606
2.59614
2.55706
2.51852
2.48083
2.44372
2.40752
2.37206
2.33801
2.30548
2.27777
2.25602
4.30224
3.56476
2.93351
2.42457
2.03429
1.74299
1.52422
1.36427
1.24239
1.1653
1.12163
1.12159
1.12723
1.1445
1.18133
1.23657
1.34815
1.57181
2.0367
2.80128
3.02633
3.04948
3.04223
3.02406
3.02713
3.04576
3.09947
3.21731
3.35377
3.44846
3.5231
3.6058
3.70174
3.80597
3.9091
4.05944
4.21181
4.34118
4.44105
4.51343
4.56276
4.59458
4.61221
4.6174
4.61632
4.61177
4.59989
4.57473
4.53877
4.50118
4.46244
4.42188
4.37914
4.33434
4.28771
4.23955
4.1901
4.1396
4.08823
4.03624
3.98372
3.93093
3.87786
3.82478
3.77159
3.71857
3.66561
3.61296
3.56054
3.50855
3.45697
3.40588
3.35544
3.30554
3.25632
3.20761
3.1598
3.11231
3.06561
3.01938
2.97395
2.92894
2.88474
2.84096
2.79803
2.75554
2.71393
2.67279
2.63254
2.59276
2.55387
2.51546
2.47795
2.44094
2.40489
2.36942
2.33535
2.30252
2.2741
2.25115
4.48529
3.85155
3.27695
2.78068
2.37383
2.05025
1.79629
1.59994
1.4471
1.33103
1.23931
1.18595
1.15638
1.15728
1.16478
1.18972
1.24
1.36363
1.61958
2.1871
2.83684
3.02075
3.05912
3.07221
3.09871
3.15628
3.27899
3.51223
3.69019
3.75841
3.77721
3.77781
3.77817
3.7911
3.83295
3.91562
4.0466
4.19747
4.32709
4.42426
4.49011
4.53305
4.55787
4.56821
4.56793
4.56553
4.55819
4.5414
4.50901
4.47209
4.43363
4.39389
4.35251
4.30929
4.2643
4.21767
4.16964
4.12041
4.07022
4.0193
3.96779
3.91595
3.86377
3.81155
3.75916
3.70689
3.65462
3.60261
3.55074
3.49926
3.44813
3.39744
3.34743
3.29798
3.24926
3.20093
3.15337
3.10617
3.0597
3.01362
2.96835
2.92345
2.87942
2.83578
2.79303
2.7507
2.70929
2.6683
2.62824
2.58863
2.54994
2.5117
2.47437
2.43749
2.40157
2.36614
2.33207
2.29904
2.26988
2.24597
4.63098
4.08182
3.56401
3.09163
2.68377
2.34291
2.06402
1.83807
1.65579
1.50864
1.39364
1.29854
1.23201
1.19005
1.17844
1.18298
1.1995
1.25682
1.36917
1.66283
2.26203
2.84102
3.02943
3.10174
3.18129
3.31495
3.58477
3.94747
4.13048
4.13693
4.11123
4.0355
3.89594
3.81863
3.82259
3.84857
3.90877
4.01875
4.15983
4.28646
4.38225
4.44854
4.48871
4.50839
4.51272
4.51146
4.50695
4.49597
4.47297
4.43873
4.40126
4.36231
4.32209
4.28035
4.23704
4.19208
4.14567
4.09791
4.0491
3.99943
3.9491
3.89834
3.84721
3.79595
3.74447
3.69305
3.64156
3.59026
3.53905
3.48816
3.4377
3.38775
3.33835
3.28924
3.24087
3.19285
3.14555
3.09859
3.05237
3.00649
2.96143
2.91673
2.87292
2.8295
2.78698
2.74489
2.70371
2.66298
2.62316
2.5838
2.54535
2.50734
2.4702
2.43356
2.39777
2.36242
2.32851
2.29527
2.26557
2.24101
4.74571
4.26564
3.80099
3.35917
2.96091
2.61457
2.32041
2.07439
1.86983
1.70095
1.56201
1.44838
1.35529
1.28055
1.23138
1.20603
1.20862
1.22222
1.27868
1.38682
1.69059
2.28902
2.86008
3.0854
3.28328
3.54321
4.05079
4.51098
4.61795
4.58928
4.49379
4.28845
4.06052
3.9084
3.83752
3.8394
3.85595
3.89852
3.98466
4.11118
4.22975
4.32754
4.39427
4.43242
4.44994
4.45119
4.44913
4.44274
4.42839
4.40001
4.36518
4.32749
4.28835
4.2479
4.20617
4.16287
4.11815
4.07195
4.02465
3.97631
3.92732
3.87772
3.82778
3.77755
3.72716
3.67662
3.62604
3.57549
3.525
3.47491
3.4253
3.37596
3.32719
3.27864
3.23077
3.18316
3.13627
3.08965
3.04378
2.99822
2.95348
2.90906
2.86553
2.82238
2.78013
2.7383
2.69739
2.65693
2.61737
2.57828
2.54006
2.50232
2.46536
2.42896
2.3933
2.35826
2.32421
2.29122
2.26088
2.23556
4.83358
4.40758
3.99013
3.58135
3.20017
2.85764
2.55758
2.29921
2.07917
1.89263
1.73565
1.60357
1.49252
1.40167
1.32463
1.26901
1.23389
1.23572
1.25058
1.29825
1.42315
1.71007
2.32496
2.94659
3.37044
3.89875
4.70823
5.12929
5.11853
5.03899
4.83788
4.51512
4.24569
4.05117
3.92327
3.85591
3.84569
3.85378
3.88222
3.94476
4.04864
4.16046
4.25618
4.32395
4.36365
4.38173
4.38164
4.37905
4.37136
4.35421
4.32396
4.28841
4.25064
4.21154
4.1714
4.12986
4.08694
4.04247
3.99685
3.95006
3.90259
3.85435
3.80577
3.7567
3.7075
3.65799
3.60847
3.55878
3.50954
3.46026
3.4115
3.36288
3.31481
3.26685
3.21951
3.17235
3.12588
3.07964
3.03417
2.98896
2.94457
2.90049
2.85729
2.81445
2.77253
2.73101
2.69039
2.65027
2.61098
2.57219
2.53418
2.49676
2.45998
2.4239
2.38835
2.35363
2.31956
2.28673
2.25626
2.22992
4.91439
4.52207
4.13945
3.76178
3.40121
3.06872
2.76994
2.50645
2.27685
2.0785
1.90775
1.76185
1.63665
1.53065
1.44062
1.36514
1.3048
1.26675
1.26898
1.28537
1.33641
1.47394
1.77802
2.43996
3.32002
4.39401
5.4779
5.65347
5.59445
5.41136
5.05402
4.71314
4.43406
4.2149
4.0483
3.93126
3.862
3.84024
3.84332
3.86044
3.90262
3.98456
4.08265
4.17302
4.24111
4.28436
4.3039
4.30469
4.30215
4.29415
4.27637
4.24572
4.20994
4.17215
4.1333
4.09333
4.05222
4.00963
3.96589
3.92088
3.87508
3.82837
3.78123
3.73347
3.68553
3.63709
3.58866
3.54012
3.49199
3.4438
3.39601
3.34818
3.30083
3.25352
3.20679
3.16017
3.11424
3.06848
3.02348
2.97869
2.93473
2.89104
2.84822
2.80576
2.76417
2.72301
2.6827
2.64287
2.60388
2.56539
2.52765
2.49051
2.45396
2.41816
2.38279
2.34833
2.31438
2.28162
2.25122
2.22408
4.97152
4.61643
4.26599
3.91283
3.57112
3.25135
2.95835
2.69461
2.4606
2.2546
2.07458
1.91777
1.7816
1.66369
1.56183
1.47414
1.40193
1.34
1.31133
1.31675
1.34081
1.41671
1.59489
2.01257
2.92349
4.79311
6.24598
6.20999
6.03382
5.66328
5.26602
4.91244
4.62404
4.38639
4.19304
4.04216
3.93169
3.86071
3.82839
3.82743
3.83426
3.85985
3.91542
3.99741
4.07882
4.14681
4.19377
4.21726
4.22182
4.21973
4.21247
4.19588
4.16542
4.13019
4.09284
4.05418
4.01455
3.97374
3.93195
3.88893
3.84502
3.80005
3.75452
3.70822
3.66158
3.61442
3.56741
3.52022
3.47328
3.42613
3.37928
3.33228
3.28572
3.23911
3.19307
3.14705
3.10171
3.05648
3.01199
2.96766
2.92416
2.88089
2.83847
2.79639
2.75518
2.71434
2.6744
2.63487
2.59621
2.55799
2.52056
2.48366
2.44741
2.4118
2.37671
2.34239
2.30868
2.27595
2.24573
2.21808
5.0244
4.69445
4.36956
4.04146
3.71938
3.41222
3.12658
2.86553
2.63035
2.41998
2.23384
2.06892
1.92434
1.79696
1.68568
1.58884
1.50518
1.43718
1.38609
1.38848
1.40569
1.45583
1.59332
1.89194
2.56792
3.94765
6.28475
6.5393
6.39568
6.04498
5.60107
5.18162
4.85714
4.58478
4.36345
4.18446
4.04166
3.93315
3.85759
3.81692
3.80327
3.80432
3.81473
3.84416
3.90519
3.97789
4.04581
4.09593
4.12558
4.13525
4.13386
4.12801
4.11393
4.08561
4.05149
4.01387
3.97501
3.93545
3.89545
3.85447
3.81262
3.76957
3.72579
3.681
3.63584
3.59026
3.54473
3.49883
3.45305
3.40694
3.36106
3.31497
3.26926
3.22343
3.17814
3.13281
3.08811
3.04348
2.99956
2.95575
2.91273
2.86992
2.82795
2.78625
2.74545
2.70495
2.66537
2.62614
2.58781
2.54984
2.51273
2.47603
2.4401
2.40466
2.36988
2.3357
2.3023
2.2696
2.23965
2.21173
5.0686
4.76183
4.46053
4.15418
3.84968
3.55578
3.27841
3.02172
2.78769
2.57535
2.38531
2.2148
2.06347
1.92902
1.80997
1.70578
1.61573
1.54109
1.49514
1.4989
1.52023
1.58296
1.7315
2.0439
2.67512
3.50906
4.70743
5.95553
6.26049
6.18775
5.96754
5.56314
5.20139
4.85694
4.58998
4.36835
4.18872
4.04556
3.93463
3.8534
3.79978
3.77813
3.76308
3.76608
3.78093
3.816
3.88009
3.94255
3.995
4.02974
4.04581
4.04532
4.0414
4.0304
4.0072
3.97314
3.93509
3.89619
3.85728
3.81785
3.77781
3.73668
3.69475
3.65181
3.60851
3.56459
3.52055
3.47595
3.43136
3.38633
3.34147
3.29632
3.25151
3.20653
3.16204
3.11749
3.07351
3.02952
2.98618
2.94295
2.90046
2.85814
2.81662
2.77533
2.73493
2.69478
2.65557
2.61663
2.57864
2.54094
2.50414
2.46769
2.43206
2.39683
2.36237
2.32835
2.29529
2.26268
2.23301
2.205
5.11525
4.82163
4.53737
4.25029
3.96408
3.68401
3.41643
3.16496
2.93321
2.72091
2.52827
2.35451
2.19798
2.05839
1.93368
1.82407
1.73207
1.65629
1.63933
1.64983
1.6912
1.79764
2.03056
2.5032
2.97925
3.38898
3.85836
4.51601
5.3157
5.88764
5.87792
5.78453
5.55135
5.21403
4.91095
4.62818
4.40015
4.20959
4.05641
3.93554
3.84415
3.7791
3.74322
3.71963
3.71301
3.7188
3.73878
3.78174
3.83898
3.89143
3.93058
3.95269
3.95648
3.95412
3.94593
3.92745
3.89425
3.85713
3.81871
3.7798
3.74073
3.7011
3.66108
3.62026
3.57899
3.53686
3.49438
3.45118
3.40784
3.36398
3.32021
3.27608
3.23223
3.18817
3.14452
3.10075
3.05751
3.01426
2.97162
2.92903
2.88711
2.84533
2.80431
2.76347
2.72349
2.68372
2.64488
2.60628
2.56862
2.53122
2.49475
2.45857
2.42326
2.38829
2.35415
2.32036
2.28762
2.25517
2.2258
2.19776
5.15766
4.87893
4.60911
4.33704
4.06322
3.79579
3.54024
3.29676
3.06846
2.8574
2.66368
2.4875
2.32812
2.18444
2.05643
1.94595
1.8534
1.80566
1.81175
1.84303
1.93064
2.13401
2.55038
3.00314
3.25637
3.37513
3.56945
3.81896
4.18639
4.70133
5.28441
5.58881
5.56189
5.45226
5.21655
4.95703
4.69148
4.44497
4.2444
4.07468
3.9397
3.83553
3.75814
3.70737
3.67845
3.65608
3.65732
3.66646
3.68991
3.73684
3.78665
3.82895
3.85614
3.86648
3.8652
3.85936
3.84503
3.81593
3.78016
3.74144
3.70226
3.66352
3.62509
3.5862
3.54686
3.50661
3.46583
3.42416
3.38219
3.33955
3.29692
3.25386
3.21102
3.16795
3.12523
3.08238
3.04
2.99757
2.95568
2.91379
2.87254
2.83136
2.7909