/*--------------------------------*- C++ -*----------------------------------*\
| =========                 |                                                 |
| \\      /  F ield         | OpenFOAM: The Open Source CFD Toolbox           |
|  \\    /   O peration     | Version:  2412                                  |
|   \\  /    A nd           | Website:  www.openfoam.com                      |
|    \\/     M anipulation  |                                                 |
\*---------------------------------------------------------------------------*/
FoamFile
{
    version     2.0;
    format      ascii;
    arch        "LSB;label=32;scalar=64";
    class       surfaceScalarField;
    location    "3";
    object      phi;
}
// * * * * * * * * * * * * * * * * * * * * * * * * * * * * * * * * * * * * * //

dimensions      [1 0 -1 0 0 0 0];

oriented        oriented;

internalField   nonuniform List<scalar> 
13790
(
0.00290515
-2.74058e-14
0.00290515
3.70699e-13
0.00290515
2.96274e-12
0.00290515
5.46226e-12
0.00290515
8.42819e-12
0.00290515
4.21431e-11
0.00290515
5.9796e-11
0.00290515
2.86233e-10
0.00290515
4.82221e-10
0.00290515
2.11496e-09
0.00290515
2.87375e-09
0.00290513
1.27549e-08
0.0029051
3.30586e-08
0.00290498
9.91885e-08
0.00290482
1.8118e-07
0.00290387
8.62209e-07
0.00290338
4.70814e-07
0.00290281
4.38555e-07
0.00290249
2.1591e-07
0.00289979
6.26704e-07
0.00289566
1.29475e-06
0.00288816
2.73767e-06
0.00287984
6.6108e-06
0.00284405
2.38044e-05
0.0027824
5.82392e-05
0.00269924
7.35146e-05
0.0026179
7.86032e-05
0.00254283
8.19824e-05
0.00246527
8.53088e-05
0.00238453
8.83416e-05
0.00229822
9.22883e-05
0.00220327
9.74963e-05
0.00209915
0.000102817
0.00198919
0.000108462
0.00187635
0.00011517
0.00175939
0.000123334
0.00163789
0.000132277
0.00151378
0.000141268
0.00137617
0.000147687
0.00123124
0.000149443
0.0010857
0.000146527
0.000943458
0.000140445
0.000810153
0.000133704
0.000684223
0.000127233
0.000564243
0.000121255
0.000449361
0.000115302
0.00033968
0.000110748
0.000232433
0.000109144
0.000121492
0.000113216
0.000122968
0.00301309
-4.1961e-13
0.00301309
8.9498e-13
0.00301309
1.77189e-12
0.00301309
8.81853e-12
0.00301309
1.49232e-11
0.00301309
6.50345e-11
0.00301309
1.15036e-10
0.00301309
4.88028e-10
0.00301309
9.69668e-10
0.00301309
3.72928e-09
0.00301309
4.22244e-09
0.00301307
2.65127e-08
0.00301305
5.11582e-08
0.00301291
2.37783e-07
0.00301273
5.59605e-07
0.00300971
3.46597e-06
0.00301156
-7.76781e-07
0.00301102
4.63404e-07
0.00301104
-6.01345e-09
0.00300819
1.34151e-06
0.0030037
2.79669e-06
0.00299565
5.78088e-06
0.00298617
1.40822e-05
0.0029482
4.88215e-05
0.00288214
0.000120728
0.0027955
0.000150295
0.00271335
0.000158968
0.0026368
0.000165667
0.00255721
0.000172822
0.00247342
0.000179834
0.00238311
0.000188568
0.00228432
0.000198791
0.00217636
0.00020929
0.00206254
0.000220679
0.00194597
0.000234164
0.00182572
0.000250201
0.00170194
0.000267319
0.00157696
0.000284139
0.00143918
0.00029599
0.00129397
0.000299419
0.00114699
0.000294781
0.00100123
0.000284242
0.000863199
0.000271999
0.00073172
0.000260096
0.000605295
0.000249129
0.000482111
0.000238946
0.000362365
0.000231485
0.000244074
0.000229371
0.00012399
0.000235677
0.000248531
0.00312505
1.22447e-13
0.00312505
8.29367e-13
0.00312505
2.06905e-12
0.00312505
8.80029e-12
0.00312505
1.86242e-11
0.00312505
7.04787e-11
0.00312505
7.27667e-11
0.00312505
4.55891e-10
0.00312504
7.01569e-10
0.00312505
2.53851e-09
0.00312503
4.37278e-09
0.00312506
1.93918e-08
0.00312498
3.45015e-08
0.00312508
1.7258e-07
0.00312539
3.35723e-07
0.00312791
9.76489e-07
0.00312633
5.6759e-07
0.00312598
6.11816e-07
0.0031247
9.78306e-07
0.00312066
3.1597e-06
0.00311506
5.22697e-06
0.00310563
9.76313e-06
0.00309502
2.22197e-05
0.00305417
7.50878e-05
0.00298451
0.00018674
0.00289464
0.000230399
0.00281214
0.000241348
0.00273394
0.000251279
0.00265246
0.000262573
0.00256552
0.000274475
0.00247077
0.000288935
0.00236744
0.000304477
0.00225466
0.000320447
0.00213576
0.0003379
0.00201435
0.000358122
0.00189014
0.000381293
0.00176409
0.000405416
0.00163845
0.000428617
0.00150062
0.000444825
0.00135515
0.000450007
0.00120662
0.000444778
0.0010572
0.000431643
0.000913899
0.000415515
0.000776107
0.000399346
0.000642599
0.000384195
0.000511487
0.000370474
0.000383294
0.00036058
0.000256564
0.000358088
0.000129094
0.000365668
0.000379342
0.00324116
2.22366e-13
0.00324116
3.80789e-13
0.00324116
6.72297e-13
0.00324116
1.94835e-12
0.00324116
1.86753e-12
0.00324116
1.46906e-11
0.00324116
8.26402e-12
0.00324116
9.10489e-11
0.00324116
1.33012e-10
0.00324116
-2.06441e-10
0.00324117
-1.04904e-09
0.00324118
-2.72529e-09
0.00324122
-9.8371e-09
0.00324142
-6.85e-08
0.003242
-1.57032e-07
0.00324367
-6.37967e-07
0.00324371
2.51596e-07
0.00324317
9.01329e-07
0.00324172
2.03119e-06
0.00323687
5.57406e-06
0.00323042
8.09034e-06
0.00321995
1.40059e-05
0.00320885
3.03013e-05
0.00316715
0.000100391
0.00309414
0.000255964
0.00299976
0.000315343
0.00291595
0.000327614
0.00283567
0.00033936
0.00275239
0.000354674
0.00266216
0.000372003
0.00256335
0.00039258
0.00245647
0.000413698
0.00234008
0.000435495
0.00221722
0.000459406
0.00209165
0.000486513
0.00196352
0.000516493
0.0018345
0.000546707
0.00170733
0.000575318
0.00156824
0.000595586
0.00142099
0.000602882
0.00126942
0.000598147
0.00111507
0.000583774
0.00096558
0.000565077
0.000820686
0.000545697
0.000679447
0.000527021
0.000540225
0.000510067
0.000403947
0.000497648
0.000269648
0.000494447
0.000135205
0.000502816
0.000516472
0.00336158
5.71712e-14
0.00336158
1.15282e-13
0.00336158
2.93379e-13
0.00336158
-1.25978e-12
0.00336158
-3.96138e-12
0.00336158
-3.12516e-11
0.00336158
-4.02972e-12
0.00336158
-3.11884e-10
0.00336158
-5.41115e-10
0.00336158
-1.71723e-09
0.00336159
-5.70476e-10
0.00336159
-1.76985e-08
0.00336162
-3.11627e-08
0.00336167
-1.91435e-07
0.00336206
-4.56327e-07
0.00336422
-2.75452e-06
0.00336272
1.46524e-06
0.00336224
1.14528e-06
0.00336038
3.41694e-06
0.00335578
7.58405e-06
0.00334954
1.04632e-05
0.00333884
1.78347e-05
0.00332902
3.68473e-05
0.00328603
0.000124437
0.00320927
0.000328726
0.00311017
0.00040631
0.00302451
0.000418054
0.00294216
0.000430421
0.00285675
0.000449267
0.00276293
0.000472123
0.00266104
0.000498789
0.00255138
0.000525709
0.00243182
0.000553675
0.00230535
0.000584351
0.00217595
0.000618587
0.00204395
0.000655538
0.00191135
0.000691817
0.00178142
0.000725946
0.00163928
0.000750324
0.00148835
0.000759905
0.00133232
0.000756229
0.00117237
0.00074124
0.00101652
0.000720817
0.000864677
0.000698913
0.000715971
0.000677246
0.000569067
0.000657293
0.000424919
0.000642461
0.000283206
0.000638312
0.000141927
0.000647034
0.000660589
0.00348648
-1.60261e-14
0.00348648
2.74748e-13
0.00348648
5.5227e-13
0.00348648
1.17705e-12
0.00348648
1.87691e-12
0.00348648
-8.83973e-13
0.00348648
4.84976e-12
0.00348648
-4.08277e-11
0.00348648
-1.14726e-10
0.00348648
-3.55122e-10
0.00348648
2.34457e-10
0.00348645
-2.48463e-09
0.00348644
-1.08652e-08
0.00348623
-2.94378e-08
0.00348587
-7.02469e-08
0.00348346
-4.49067e-07
0.00348451
3.59211e-07
0.00348335
2.07176e-06
0.00348245
3.84951e-06
0.00347884
8.3144e-06
0.00347359
1.15908e-05
0.00346344
2.05083e-05
0.00345718
4.06717e-05
0.00341197
0.000147378
0.00332798
0.000407771
0.00322469
0.000504581
0.00313828
0.000512131
0.00305428
0.000523509
0.00296541
0.000546629
0.00286732
0.000574458
0.00276357
0.000606988
0.0026517
0.000640344
0.00252908
0.000675155
0.00239883
0.000713012
0.00226537
0.00075475
0.00212911
0.000799092
0.00199225
0.000841942
0.00185812
0.000882143
0.00171105
0.000910677
0.00155476
0.000922581
0.00139333
0.000919743
0.00122757
0.000904328
0.00106581
0.000882272
0.00090779
0.000858193
0.000752396
0.000834083
0.000598341
0.000811681
0.000446713
0.000794633
0.000297627
0.00078966
0.000149057
0.000798838
0.000812238
0.00361602
-2.18649e-14
0.00361602
6.09313e-13
0.00361602
1.23234e-12
0.00361602
4.37067e-12
0.00361602
7.81199e-12
0.00361602
2.35225e-11
0.00361602
4.05289e-11
0.00361602
1.27548e-10
0.00361602
2.03103e-10
0.00361602
7.91649e-10
0.00361602
1.0815e-09
0.003616
4.45398e-09
0.00361598
1.44847e-08
0.00361586
3.171e-08
0.00361582
4.84261e-08
0.00361465
3.12541e-07
0.00361492
5.148e-07
0.00361028
2.79841e-06
0.00360778
3.79121e-06
0.00360763
8.13383e-06
0.00360469
1.17e-05
0.00359502
2.24706e-05
0.00359235
4.10245e-05
0.00354025
0.000170835
0.00345141
0.000492208
0.00334716
0.000609883
0.00325946
0.000609664
0.00317224
0.000619154
0.0030787
0.000647423
0.00297719
0.000678424
0.00287158
0.00071692
0.00275782
0.000757648
0.00263251
0.000799957
0.00249862
0.000845557
0.00236083
0.000895444
0.00221967
0.000947878
0.00207746
0.000997992
0.00193759
0.00104454
0.0017842
0.00107748
0.00162163
0.00109163
0.00145411
0.00108944
0.00128273
0.00107291
0.00111534
0.00104937
0.000951589
0.00102322
0.000790065
0.00099709
0.000629166
0.000973097
0.000469895
0.00095439
0.00031321
0.000948823
0.000157021
0.000958644
0.000972267
0.00375038
-2.3215e-14
0.00375038
9.25966e-13
0.00375038
1.87112e-12
0.00375038
7.14865e-12
0.00375038
1.26498e-11
0.00375038
4.22118e-11
0.00375038
7.25944e-11
0.00375038
2.41701e-10
0.00375038
4.10101e-10
0.00375037
1.40791e-09
0.00375037
2.42754e-09
0.00375036
8.73633e-09
0.00375037
1.34048e-08
0.00375029
5.80723e-08
0.00375026
8.69146e-08
0.00375006
3.5656e-07
0.0037503
6.58292e-07
0.00374841
2.044e-06
0.00375219
3.4517e-06
0.00374781
7.33519e-06
0.0037437
1.07129e-05
0.0037383
1.83879e-05
0.00372914
5.22773e-05
0.00367304
0.000183978
0.00358553
0.000594328
0.00348884
0.000708277
0.00339059
0.000715497
0.00329735
0.000719328
0.00319964
0.000750516
0.0030938
0.000785867
0.00298576
0.000830211
0.00286953
0.000878415
0.00274103
0.000928547
0.00260342
0.000982398
0.00246121
0.00104097
0.00231477
0.00110209
0.0021666
0.00116005
0.00202062
0.00121342
0.00186079
0.00125106
0.00169184
0.00126732
0.00151842
0.00126538
0.00134117
0.0012477
0.00116831
0.00122208
0.000998727
0.00119434
0.000830782
0.00116675
0.00066291
0.00114155
0.000495713
0.00112202
0.000330542
0.0011167
0.000165712
0.00112753
0.00114159
0.00388972
-4.56487e-14
0.00388972
1.13186e-12
0.00388972
2.30838e-12
0.00388972
9.01816e-12
0.00388972
1.60687e-11
0.00388972
5.42821e-11
0.00388972
9.37322e-11
0.00388972
3.08827e-10
0.00388972
5.32445e-10
0.00388972
1.74276e-09
0.00388972
3.03302e-09
0.00388971
1.00294e-08
0.00388972
1.59634e-08
0.00388966
5.69976e-08
0.00388968
9.4349e-08
0.00388933
3.46345e-07
0.0038901
5.95523e-07
0.00388551
2.1761e-06
0.00388898
2.94801e-06
0.00388474
6.62346e-06
0.00388283
1.00614e-05
0.00388562
1.46573e-05
0.0038715
6.29803e-05
0.00383774
0.000192464
0.00369745
0.00072495
0.00361173
0.000799378
0.00352335
0.000809172
0.00342699
0.000820097
0.00332505
0.000856005
0.00321718
0.000896881
0.0031079
0.000947774
0.00298923
0.00100367
0.00285687
0.00106191
0.00271447
0.00112433
0.00256709
0.00119195
0.00241519
0.00126213
0.00226123
0.00132833
0.00210941
0.00138871
0.00194341
0.00143109
0.00176834
0.00144943
0.00158934
0.00144739
0.00140641
0.00142869
0.00122763
0.00140115
0.00105186
0.00137189
0.000876809
0.00134369
0.000701013
0.00131804
0.000525052
0.00129854
0.000350644
0.00129406
0.000176013
0.0013067
0.00132187
0.00403424
-1.13647e-13
0.00403424
1.16662e-12
0.00403424
2.66228e-12
0.00403424
9.81018e-12
0.00403424
1.83586e-11
0.00403424
6.0239e-11
0.00403424
1.0512e-10
0.00403424
3.48248e-10
0.00403424
6.01867e-10
0.00403424
1.97792e-09
0.00403424
3.44492e-09
0.00403423
1.12387e-08
0.00403424
1.80645e-08
0.0040342
5.99353e-08
0.00403422
1.06783e-07
0.00403408
3.29707e-07
0.00403329
6.64553e-07
0.00403903
1.73084e-06
0.00403292
3.17335e-06
0.00402944
6.82317e-06
0.00402668
1.03292e-05
0.00402568
1.47411e-05
0.00401747
6.67938e-05
0.00397987
0.000207928
0.00386
0.000829157
0.00375994
0.00090621
0.00366196
0.000910316
0.00356165
0.000923341
0.00345799
0.000964894
0.0033495
0.00101275
0.00323703
0.00107088
0.00311469
0.00113371
0.00297863
0.0012
0.00283189
0.00127158
0.00267931
0.00134886
0.00252164
0.00142843
0.00236153
0.00150263
0.00220417
0.00156969
0.0020331
0.00161688
0.00185293
0.00163737
0.001669
0.00163534
0.00148087
0.00161566
0.00129587
0.00158686
0.00111327
0.00155662
0.000930706
0.00152854
0.000745853
0.00150438
0.000559582
0.00148566
0.000374133
0.0014829
0.000187949
0.00149813
0.00151474
0.00418414
-6.00445e-14
0.00418414
1.29132e-12
0.00418414
2.32255e-12
0.00418414
1.01445e-11
0.00418414
1.74907e-11
0.00418414
6.09346e-11
0.00418414
1.08864e-10
0.00418414
3.52796e-10
0.00418414
6.15842e-10
0.00418413
2.03922e-09
0.00418414
3.57165e-09
0.00418413
1.20773e-08
0.00418413
1.8282e-08
0.00418409
7.03496e-08
0.00418407
1.08705e-07
0.00418393
4.09172e-07
0.00418444
7.23223e-07
0.00417674
2.60373e-06
0.00418151
3.22048e-06
0.00417841
6.97214e-06
0.00417555
1.06257e-05
0.00417466
1.47487e-05
0.00416649
7.09977e-05
0.00413653
0.000214475
0.00402655
0.00093252
0.00391471
0.0010121
0.00381275
0.00101678
0.00371049
0.00103333
0.0036038
0.00108089
0.00349119
0.00113502
0.00337316
0.00119952
0.00324496
0.00126939
0.00310418
0.00134358
0.00295339
0.00142411
0.00279634
0.00151105
0.00263347
0.0016001
0.0024681
0.00168216
0.00230624
0.00175627
0.00213137
0.00180801
0.00194737
0.00183023
0.00175938
0.00182868
0.00156631
0.0018082
0.00137565
0.00177874
0.0011859
0.0017492
0.000994571
0.00172287
0.00079998
0.00170102
0.000601447
0.0016855
0.000403036
0.00168518
0.000202619
0.00170433
0.00172339
0.0043396
4.0217e-14
0.0043396
1.31678e-12
0.0043396
2.51834e-12
0.0043396
1.00881e-11
0.0043396
1.66432e-11
0.0043396
5.89763e-11
0.0043396
9.96295e-11
0.0043396
3.53628e-10
0.0043396
5.55016e-10
0.0043396
2.08486e-09
0.0043396
3.5287e-09
0.00433959
1.19458e-08
0.0043396
2.00451e-08
0.00433956
6.52978e-08
0.00433956
1.07488e-07
0.00433964
3.51972e-07
0.00433892
7.08296e-07
0.00434527
2.09174e-06
0.00433987
3.59435e-06
0.00433508
7.23373e-06
0.00433233
1.08103e-05
0.00433216
1.45159e-05
0.0043242
7.43647e-05
0.0042995
0.000217273
0.00419516
0.00101416
0.00408607
0.00112511
0.00397809
0.00112979
0.00386842
0.00114992
0.00375461
0.00120306
0.00363593
0.00126282
0.0035132
0.00133407
0.00337958
0.0014113
0.00323267
0.00149342
0.00307623
0.00158257
0.00291461
0.00167862
0.00274794
0.00177631
0.00258078
0.001866
0.0024168
0.00194689
0.00223917
0.00200206
0.00205256
0.00202577
0.00186192
0.00202497
0.00166488
0.00200556
0.0014688
0.00197671
0.00127224
0.0019492
0.00107193
0.00192695
0.000865531
0.00191056
0.000653256
0.00189966
0.000438575
0.00190473
0.000221188
0.00192866
0.00195118
0.00450084
5.48772e-14
0.00450084
1.24088e-12
0.00450084
2.38635e-12
0.00450084
9.17648e-12
0.00450084
1.51076e-11
0.00450084
5.69519e-11
0.00450084
9.21801e-11
0.00450084
3.25601e-10
0.00450083
5.75569e-10
0.00450084
1.83704e-09
0.00450083
3.30845e-09
0.00450082
1.0309e-08
0.00450084
1.74506e-08
0.00450081
5.86047e-08
0.00450088
9.54871e-08
0.00450055
3.13892e-07
0.00450081
6.64804e-07
0.00450005
2.60102e-06
0.00449755
3.27211e-06
0.00449475
6.81696e-06
0.00449303
1.04518e-05
0.00449428
1.36993e-05
0.00448829
7.57124e-05
0.00446684
0.000217169
0.00437573
0.00107647
0.0042681
0.00123695
0.00415223
0.00125145
0.00403336
0.00127531
0.00391148
0.00133302
0.00378527
0.00139811
0.0036554
0.00147539
0.00351478
0.00155934
0.0033618
0.00164904
0.00320058
0.00174641
0.00303519
0.00185068
0.00286549
0.00195558
0.00269725
0.00205117
0.00253266
0.00213694
0.00235514
0.00219504
0.00216879
0.00222084
0.00197801
0.00222193
0.00177929
0.00220543
0.0015787
0.00217994
0.00137553
0.00215682
0.00116634
0.00214106
0.000947699
0.00213345
0.000718715
0.00213172
0.000484767
0.00214402
0.000244336
0.00217664
0.00220367
0.00466806
2.63498e-13
0.00466806
6.31646e-13
0.00466806
2.45924e-12
0.00466806
6.08997e-12
0.00466806
1.80578e-11
0.00466806
4.65807e-11
0.00466806
1.18128e-10
0.00466806
3.3315e-10
0.00466806
7.78263e-10
0.00466806
2.20298e-09
0.00466806
4.50797e-09
0.00466806
1.41973e-08
0.00466805
2.40996e-08
0.00466802
8.04969e-08
0.00466795
1.67598e-07
0.00466794
3.8917e-07
0.00466773
8.67738e-07
0.00466738
1.89315e-06
0.00466718
3.01921e-06
0.00466381
6.24615e-06
0.00466193
9.81511e-06
0.00466359
1.23798e-05
0.00465902
7.51392e-05
0.00463902
0.00021512
0.00456144
0.00112072
0.00445503
0.00134379
0.00432913
0.0013816
0.00419904
0.00141157
0.00406809
0.00147248
0.00393359
0.00154149
0.00379422
0.00162393
0.00364445
0.00171465
0.00348456
0.00181153
0.00331879
0.00191568
0.00315099
0.0020261
0.00298102
0.00213575
0.00281536
0.0022351
0.00265461
0.0023238
0.00248144
0.00238422
0.00229898
0.00241236
0.0021108
0.00241704
0.00191294
0.00240522
0.0017101
0.00238618
0.00150114
0.00237102
0.00128243
0.00236624
0.00105064
0.00237136
0.000802286
0.0023847
0.000544181
0.00240892
0.000276572
0.00245319
0.00248937
0.00484151
4.99225e-14
0.00484151
8.64188e-14
0.00484151
9.53816e-13
0.00484151
1.49193e-12
0.00484151
1.02077e-11
0.00484151
1.89024e-11
0.00484151
8.38742e-11
0.00484151
1.4446e-10
0.00484151
6.03576e-10
0.00484151
1.03761e-09
0.00484151
3.69118e-09
0.00484152
7.40231e-09
0.00484149
2.13576e-08
0.00484146
5.8899e-08
0.00484144
1.21585e-07
0.0048411
4.06219e-07
0.00484073
8.19817e-07
0.00484024
1.57908e-06
0.00484072
2.44389e-06
0.00483784
5.74807e-06
0.00483595
1.00717e-05
0.00483696
1.26125e-05
0.00483449
7.37549e-05
0.00481687
0.000211209
0.00475687
0.00114727
0.00464707
0.00145201
0.00450288
0.00152562
0.00435357
0.00156172
0.00420913
0.00162183
0.00406442
0.0016929
0.00391889
0.00177976
0.00376497
0.00187796
0.00360207
0.00198159
0.00343531
0.00209105
0.00326872
0.00220487
0.00310227
0.00231596
0.0029421
0.00241588
0.00278829
0.00250378
0.00262295
0.00256519
0.00244774
0.002596
0.00226562
0.00260574
0.00207141
0.00260257
0.00186788
0.00259284
0.00165585
0.00259025
0.00142934
0.00260152
0.00118278
0.00262683
0.000913366
0.00266083
0.000624979
0.00270657
0.000318397
0.00277041
0.00281851
0.00502139
-1.85729e-13
0.00502139
-3.07537e-13
0.00502139
-1.1901e-12
0.00502139
-1.67556e-12
0.00502139
-6.0401e-12
0.00502139
-9.94026e-12
0.00502139
-2.62521e-11
0.00502139
-4.5993e-11
0.00502139
-1.05721e-10
0.0050214
-1.40079e-10
0.00502139
-1.41783e-10
0.00502142
-4.55475e-10
0.0050214
1.71231e-09
0.00502145
-8.79486e-09
0.00502152
3.47691e-08
0.0050217
5.86511e-08
0.00502197
3.71202e-07
0.00502197
7.85403e-07
0.00502249
2.38025e-06
0.00501854
6.71343e-06
0.00501351
1.45064e-05
0.00500569
2.02019e-05
0.00502751
5.19341e-05
0.00495103
0.000261577
0.00493925
0.00112414
0.0048068
0.00157365
0.00463672
0.00168833
0.00447347
0.0017256
0.00432265
0.00178181
0.00417172
0.0018524
0.00402333
0.0019423
0.00387073
0.00204434
0.00371295
0.00215137
0.00355255
0.00226324
0.00339275
0.00237778
0.00323494
0.00248803
0.00308316
0.00258609
0.00293894
0.00267244
0.0027855
0.00273382
0.00262164
0.00276818
0.00244875
0.00278515
0.00226242
0.00279242
0.00206256
0.00279868
0.00184813
0.00281386
0.00161472
0.00284632
0.00135536
0.00289793
0.00106092
0.00296572
0.000735662
0.00304163
0.000380904
0.00313752
0.00321222
0.00520796
-2.21952e-13
0.00520796
-4.707e-13
0.00520796
-1.97771e-12
0.00520796
-3.65033e-12
0.00520796
-1.21422e-11
0.00520796
-2.23791e-11
0.00520796
-7.06876e-11
0.00520796
-1.34207e-10
0.00520796
-4.17211e-10
0.00520796
-6.92921e-10
0.00520796
-2.39227e-09
0.00520798
-4.68788e-09
0.00520797
-1.47992e-08
0.00520793
-2.61794e-08
0.00520837
-1.24498e-07
0.00520866
-2.14889e-07
0.00521167
-6.31757e-07
0.0052104
-8.6377e-07
0.00523582
-3.33168e-06
0.00521452
-3.11891e-06
0.0052005
3.62805e-06
0.00524802
-1.14627e-05
0.00530625
6.11723e-05
0.00524918
0.000226704
0.00513572
0.00125019
0.004938
0.0017724
0.00473128
0.00189613
0.00455403
0.00189861
0.00439626
0.00194564
0.00424405
0.00201195
0.00409747
0.00210258
0.0039525
0.00220462
0.00380815
0.00231186
0.00366498
0.00242391
0.00352354
0.002538
0.00338453
0.00264658
0.00325187
0.00274449
0.00312208
0.00282804
0.00298339
0.00288923
0.0028338
0.0029281
0.00267254
0.00295354
0.00249648
0.00297455
0.00230406
0.00300018
0.00209284
0.00303811
0.00185501
0.00309982
0.00158222
0.00318718
0.00126431
0.00329758
0.000895587
0.00342317
0.000471442
0.00357569
0.0036988
0.00540147
-3.96583e-13
0.00540147
-6.5246e-13
0.00540147
-2.94929e-12
0.00540147
-5.85923e-12
0.00540147
-1.48838e-11
0.00540147
-4.36777e-11
0.00540147
-1.10662e-10
0.00540147
-2.51361e-10
0.00540147
-7.3822e-10
0.00540147
-1.44082e-09
0.00540146
-4.73863e-09
0.00540147
-7.70657e-09
0.00540146
-2.69024e-08
0.00540153
-4.30823e-08
0.0054015
-1.13528e-07
0.00540221
-3.06769e-07
0.00540328
-7.99909e-07
0.00540443
-1.64144e-06
0.00540331
-4.46271e-06
0.00541557
-8.45027e-06
0.00539437
-8.72946e-06
0.00503882
-1.67984e-05
0.0054016
4.9597e-05
0.00557878
0.000119597
0.00532275
0.00147021
0.00504262
0.00205571
0.00480588
0.00214229
0.00462315
0.00207945
0.00446657
0.00210466
0.00431966
0.00215853
0.0041824
0.00224962
0.0040562
0.00235181
0.00393677
0.00245756
0.0038198
0.00256752
0.00370302
0.00267908
0.00358881
0.00278631
0.00347555
0.0028829
0.00336006
0.0029634
0.00323602
0.00302583
0.00310212
0.00307128
0.00295249
0.00310636
0.00279006
0.00314373
0.00260862
0.00319315
0.00240204
0.00325977
0.00216544
0.00335407
0.00188645
0.00348529
0.00154778
0.00365479
0.00113336
0.00385355
0.000627162
0.00409979
0.00434359
0.00560216
-2.17675e-13
0.00560216
-4.18603e-13
0.00560216
-1.83067e-12
0.00560216
-2.41994e-12
0.00560216
-1.58113e-11
0.00560216
-1.1539e-11
0.00560216
-8.98036e-11
0.00560216
-8.40783e-11
0.00560216
-4.96141e-10
0.00560216
-6.83268e-10
0.00560215
-2.5042e-09
0.00560214
-4.29194e-09
0.00560216
-1.20791e-08
0.00560207
-2.26198e-08
0.00560222
-7.19209e-08
0.00560184
-1.09345e-07
0.00560167
-4.92124e-07
0.00560042
-4.91027e-07
0.00559314
-3.64309e-06
0.00565398
-3.75752e-06
0.00569123
-2.37017e-05
0.00570892
-4.638e-05
0.0055509
7.86215e-05
0.00571038
0.000129454
0.00541506
0.00158165
0.00509752
0.00234967
0.00488454
0.00235939
0.0047236
0.00226285
0.00458116
0.0022607
0.00446457
0.00229063
0.00435042
0.00238097
0.0042412
0.00248294
0.00413806
0.00258763
0.0040409
0.00269451
0.00394663
0.00280245
0.00385471
0.00290598
0.0037604
0.00300034
0.00366173
0.0030786
0.0035549
0.00314161
0.00343327
0.00319712
0.00329797
0.00324546
0.00314975
0.00330064
0.00298299
0.00337328
0.00279007
0.00346998
0.00256368
0.00360023
0.0022931
0.00377679
0.00195321
0.00401533
0.00150959
0.00431645
0.000907027
0.00472175
0.00527136
0.00581031
3.45061e-14
0.00581031
-3.17873e-14
0.00581031
-2.17424e-13
0.00581031
-5.9771e-13
0.00581031
-2.70061e-12
0.00581031
-4.17544e-12
0.00581031
-1.46621e-11
0.00581031
-2.39154e-11
0.0058103
-7.20244e-11
0.00581031
-1.43882e-10
0.0058103
-3.60492e-10
0.0058103
-1.01014e-09
0.00581029
-1.64677e-09
0.00581027
-2.8271e-09
0.00581027
-1.26448e-08
0.00581037
-1.9146e-08
0.00580981
-7.16303e-08
0.00581166
-1.0503e-07
0.00580824
-5.99064e-07
0.00581015
-1.85558e-08
0.00576786
-2.91873e-06
0.00586112
-1.4795e-05
0.00578164
8.51356e-05
0.00569101
0.000151002
0.00583529
0.0013837
0.00548772
0.00269241
0.00523957
0.00261493
0.00503353
0.00247489
0.00489224
0.00240595
0.00476619
0.00242467
0.00466193
0.00249553
0.00456356
0.0026009
0.00447515
0.0027036
0.00439355
0.00280657
0.00431366
0.00291005
0.00423368
0.00300904
0.00415198
0.00309821
0.00406219
0.00317597
0.00396022
0.00324395
0.00385002
0.00330689
0.00372797
0.00336957
0.0035935
0.00344244
0.00344443
0.00353514
0.00327282
0.00365801
0.00307182
0.00382089
0.00283142
0.00403986
0.00252819
0.00434087
0.00211614
0.0047499
0.00150678
0.00535216
0.00680079
0.00840003
3.74173e-13
0.00840003
-1.09529e-13
0.00840003
1.28849e-12
0.00840003
-1.5733e-13
0.00840003
6.91255e-12
0.00840003
1.44856e-12
0.00840003
3.91924e-11
0.00840003
3.79644e-11
0.00840003
1.77708e-10
0.00840003
2.73753e-10
0.00840003
7.88348e-10
0.00840002
1.06128e-09
0.00840002
4.30221e-09
0.00839999
2.74144e-09
0.00839995
2.1778e-08
0.00839991
4.39632e-09
0.00839972
9.16083e-08
0.0084035
-2.17373e-08
0.00839817
3.30679e-07
0.00841627
1.73501e-07
0.00838372
3.69105e-06
0.00838241
4.24915e-06
0.00827099
6.18314e-05
0.00855411
0.000131569
0.00873841
0.000851318
0.00863444
0.00288907
0.00823329
0.00304056
0.00788543
0.00283082
0.00771507
0.00256947
0.00753729
0.00260861
0.00738968
0.00265278
0.00726137
0.00274216
0.00713772
0.00284215
0.00702414
0.00293956
0.00691693
0.00303463
0.0068113
0.0031241
0.00670314
0.00320835
0.00657864
0.00328864
0.00643986
0.00336093
0.00629603
0.00343161
0.0061464
0.00350806
0.0059894
0.00359732
0.0058239
0.00370739
0.00565166
0.00384507
0.00546987
0.00402466
0.00529182
0.00424585
0.00514072
0.00452456
0.00507718
0.00484625
0.00535975
0.0051011
0.00487056
0.00731779
0.00840003
6.58728e-14
0.00840003
4.52728e-13
0.00840003
9.62764e-13
0.00840003
2.48299e-12
0.00840003
5.1076e-12
0.00840003
8.88682e-12
0.00840003
2.79793e-11
0.00840003
2.23816e-11
0.00840003
1.8613e-10
0.00840004
6.55498e-12
0.00840003
1.23248e-09
0.00840006
7.51687e-12
0.00840003
6.4904e-09
0.0083999
-8.91881e-10
0.00840025
3.12641e-08
0.00839861
-1.22516e-08
0.0084005
1.50597e-07
0.00839521
-1.42217e-07
0.00839705
5.6942e-07
0.00842134
-1.259e-06
0.00839451
7.38821e-06
0.0085807
4.64013e-06
0.00837829
6.24451e-05
0.00909194
0.000116097
0.00863121
0.00060448
0.0091911
0.00203275
0.00907555
0.0031484
0.0089503
0.00298584
0.00866827
0.00286532
0.00844404
0.00283048
0.00825378
0.00284461
0.00808989
0.0029128
0.00793792
0.00300378
0.00779658
0.00309109
0.00766403
0.00317311
0.007539
0.00324976
0.007413
0.00332367
0.00727829
0.003396
0.00713993
0.00346427
0.00700349
0.00353604
0.00686954
0.00361593
0.00674297
0.00370695
0.00662692
0.00381738
0.0065274
0.00394721
0.0064624
0.00409999
0.00644384
0.00427874
0.00653836
0.00444896
0.00680179
0.00460583
0.00728264
0.00464113
0.00426677
0.00790549
0.00840003
4.79696e-15
0.00840003
5.30339e-13
0.00840003
1.04882e-12
0.00840003
3.85783e-12
0.00840003
7.04056e-12
0.00840003
2.20616e-11
0.00840003
3.72297e-11
0.00840003
1.17225e-10
0.00840003
1.98844e-10
0.00840003
6.27316e-10
0.00840003
1.05421e-09
0.00840002
3.85328e-09
0.00840004
5.95987e-09
0.00839996
1.9854e-08
0.0084
3.4215e-08
0.00839968
1.24753e-07
0.00839975
1.9573e-07
0.00839842
7.16324e-07
0.00839698
1.37983e-06
0.00839134
4.61861e-06
0.00838881
6.82683e-06
0.00835828
1.6894e-05
0.00835001
3.25689e-05
0.00834282
5.91018e-05
0.0086478
0.00027936
0.00945193
0.000871929
0.0096555
0.00298703
0.00950183
0.00320378
0.00923601
0.00316837
0.00901807
0.00303117
0.00882121
0.00301385
0.0086402
0.00307613
0.0084816
0.00314974
0.00833893
0.00322565
0.00820489
0.00329527
0.00807432
0.0033611
0.00794696
0.00342384
0.00781846
0.00348602
0.00769377
0.00354976
0.00757612
0.00361787
0.00746977
0.00369305
0.00737624
0.00377771
0.00730822
0.00387164
0.00726618
0.00398337
0.00727573
0.0040913
0.00734979
0.00421226
0.00750969
0.00429657
0.00779164
0.00433444
0.00815431
0.00428706
0.00395742
0.00846774
0.00840003
-3.72396e-14
0.00840003
-2.54259e-14
0.00840003
-6.7482e-14
0.00840003
-3.47043e-14
0.00840003
-1.64673e-13
0.00840003
-2.70076e-13
0.00840003
-6.1062e-13
0.00840003
9.46019e-13
0.00840003
7.55578e-12
0.00840003
4.97231e-11
0.00840003
6.78988e-11
0.00840003
8.6254e-10
0.00840003
-1.42412e-10
0.00840003
3.61597e-09
0.00840008
5.39634e-09
0.00840001
4.41678e-08
0.0084004
5.24966e-08
0.0084001
2.53858e-07
0.00840121
6.19167e-07
0.00840192
2.29838e-06
0.00840136
3.02916e-06
0.00839831
8.28505e-06
0.00840679
1.7668e-05
0.00847428
1.00421e-05
0.00856742
0.000150624
0.00890592
0.000445451
0.00939092
0.00242327
0.00936257
0.00326164
0.00921893
0.00333457
0.0090487
0.00317636
0.00888567
0.00314914
0.0087474
0.00319669
0.00862671
0.00325916
0.00851851
0.00332692
0.00841815
0.00338805
0.0083196
0.00344629
0.00822094
0.00350141
0.00812698
0.00355318
0.00803919
0.003608
0.00795816
0.00366905
0.00789271
0.00373229
0.00784367
0.00380671
0.00782346
0.00387901
0.00783605
0.0039677
0.0078886
0.00404055
0.00799596
0.00411161
0.00815533
0.00414534
0.0083716
0.00412688
0.00862824
0.00403656
0.00376559
0.00882236
0.00840003
-3.37638e-14
0.00840003
1.18695e-14
0.00840003
-1.12815e-13
0.00840003
1.04447e-13
0.00840003
-4.89939e-13
0.00840003
1.10392e-12
0.00840003
-2.20276e-12
0.00840003
8.8072e-12
0.00840003
-1.83312e-11
0.00840003
5.36811e-11
0.00840003
-5.74885e-11
0.00840003
-2.01278e-10
0.00840003
5.04064e-10
0.00840008
4.10338e-09
0.00839993
-2.73476e-10
0.00839992
2.89954e-09
0.00840029
8.71161e-09
0.00840244
5.20834e-08
0.00840442
-9.59817e-08
0.00841185
9.6137e-08
0.00839256
-2.1141e-06
0.00841567
-8.41296e-07
0.0084149
-4.46291e-06
0.00859598
-1.87835e-05
0.00835074
0.000140455
0.00832917
0.000279912
0.0087171
0.00196604
0.00886437
0.0032418
0.00891719
0.00337109
0.00877883
0.00332649
0.00866295
0.00326779
0.00857781
0.0032808
0.00851696
0.0033222
0.00846176
0.00338269
0.00840981
0.0034361
0.00835535
0.00349005
0.00829594
0.00354107
0.00824086
0.00358566
0.00819454
0.00363049
0.0081587
0.00368239
0.00813658
0.00373448
0.00813282
0.00379528
0.00815372
0.00384793
0.00821007
0.00391032
0.00829717
0.00395632
0.00842533
0.003993
0.00858415
0.00399624
0.00876517
0.00395561
0.00895902
0.0038541
0.00363302
0.00909758
0.00840003
3.14778e-14
0.00840003
6.33573e-15
0.00840003
1.17235e-13
0.00840003
1.32198e-13
0.00840003
8.00638e-13
0.00840003
1.44069e-12
0.00840003
4.14318e-12
0.00840003
8.93121e-12
0.00840003
2.53091e-11
0.00840003
5.02897e-11
0.00840003
1.54945e-10
0.00840003
1.86332e-10
0.00840003
9.50891e-10
0.0084
2.44028e-09
0.00840005
6.78623e-09
0.00839981
8.56375e-09
0.00839986
3.46001e-08
0.0084005
6.96317e-08
0.00839908
2.16253e-07
0.00840328
2.30664e-07
0.00838857
5.8304e-07
0.00843037
1.9472e-06
0.00831965
9.37615e-06
0.00848098
3.60821e-06
0.00832504
0.000165517
0.00862206
4.73607e-05
0.00960071
0.000953655
0.00940114
0.00330917
0.00916827
0.00360417
0.00891914
0.00358741
0.0087652
0.00344305
0.00865141
0.00341664
0.00854977
0.00343399
0.00848065
0.00346563
0.00843316
0.00350376
0.00839335
0.00355135
0.00836346
0.00359057
0.0083376
0.00362497
0.00831828
0.00365951
0.00830652
0.00369781
0.00830797
0.00373384
0.00832673
0.00377418
0.00836707
0.00380558
0.00843913
0.0038395
0.00853896
0.00386058
0.00866775