/*--------------------------------*- C++ -*----------------------------------*\
| =========                 |                                                 |
| \\      /  F ield         | OpenFOAM: The Open Source CFD Toolbox           |
|  \\    /   O peration     | Version:  2412                                  |
|   \\  /    A nd           | Website:  www.openfoam.com                      |
|    \\/     M anipulation  |                                                 |
\*---------------------------------------------------------------------------*/
FoamFile
{
    version     2.0;
    format      ascii;
    arch        "LSB;label=32;scalar=64";
    class       volScalarField;
    location    "3";
    object      T;
}
// * * * * * * * * * * * * * * * * * * * * * * * * * * * * * * * * * * * * * //

dimensions      [0 0 0 1 0 0 0];

internalField   nonuniform List<scalar> 
7000
(
1
1
1
1
1
1
1
1
1.00001
1.00001
1.00005
1.00004
1.00027
1.00026
1.00163
1.00204
1.0093
1.00451
1.05145
0.915365
1.13231
1.30479
1.91667
2.52932
2.69611
2.6727
2.66733
2.6463
2.64822
2.64828
2.65055
2.65508
2.66371
2.67555
2.68503
2.68788
2.68476
2.66901
2.6538
2.64871
2.6504
2.65969
2.66656
2.67073
2.67434
2.68331
2.69611
2.70043
2.69331
2.69083
1
1
1
1
1
1
1
1
1.00001
1.00001
1.00004
1.00004
1.00025
1.00026
1.0014
1.00213
1.00918
1.00452
1.05126
0.915175
1.13179
1.30382
1.91646
2.53126
2.69632
2.67299
2.66695
2.64545
2.64747
2.64771
2.65031
2.6549
2.66365
2.67556
2.68498
2.68774
2.68454
2.66864
2.65345
2.64832
2.64975
2.65865
2.6661
2.67008
2.67319
2.68122
2.6947
2.69969
2.69284
2.6904
1
1
1
1
1
1
1
1
1.00001
1.00001
1.00003
1.00002
1.00017
0.999816
1.00152
1.00032
1.0086
1.00434
1.05056
0.914796
1.13075
1.30202
1.91626
2.53562
2.69694
2.67345
2.66638
2.64418
2.64625
2.64676
2.64999
2.65477
2.66355
2.67543
2.68472
2.68735
2.68385
2.66728
2.65234
2.64746
2.64896
2.65794
2.66575
2.6697
2.67249
2.67978
2.69365
2.699
2.69233
2.6899
1
1
1
1
1
1
1
1
1
1.00001
1.00002
1.00002
1.0001
0.999728
1.00123
1.00015
1.0085
1.00412
1.04968
0.913866
1.12908
1.29944
1.91592
2.54139
2.69728
2.67373
2.66491
2.64195
2.64395
2.64504
2.64949
2.65454
2.66291
2.67418
2.68297
2.68541
2.682
2.66556
2.65021
2.64524
2.64673
2.656
2.66471
2.66892
2.67156
2.67836
2.69258
2.69825
2.69153
2.68923
1
1
1
1
1
1
1
1
1
1.00001
1.00002
1.00002
1.00013
0.999791
1.00133
1.00025
1.00819
1.00346
1.04848
0.912456
1.12674
1.2961
1.91525
2.54878
2.69763
2.67364
2.66211
2.6391
2.64091
2.64299
2.64882
2.65408
2.66239
2.67359
2.68237
2.68483
2.68149
2.66486
2.64873
2.64335
2.64469
2.654
2.66316
2.66765
2.67027
2.67684
2.69108
2.6971
2.69067
2.68816
1
1
1
1
1
1
1
1
1.00001
1.00001
1.00003
1.00003
1.00021
1.00022
1.00133
1.00174
1.00839
1.00267
1.04704
0.910527
1.12364
1.29189
1.91401
2.55758
2.69801
2.67268
2.65686
2.63463
2.63652
2.64057
2.64802
2.65316
2.66112
2.6723
2.6813
2.68384
2.68039
2.66325
2.64692
2.64153
2.64298
2.65224
2.66175
2.66649
2.66901
2.67523
2.68955
2.69573
2.68936
2.68711
1
1
1
1
1
1
1
1
1.00001
1.00001
1.00004
1.00003
1.00021
1.0002
1.00127
1.00152
1.00756
1.00159
1.04605
0.908599
1.11958
1.28634
1.91232
2.57179
2.69786
2.66818
2.64912
2.6293
2.63193
2.63858
2.64716
2.65222
2.65952
2.67023
2.67906
2.68156
2.67803
2.66096
2.64505
2.63993
2.64136
2.6509
2.66013
2.66503
2.66753
2.67317
2.6873
2.69408
2.68786
2.68509
1
1
1
1
1
1
1
1
1.00001
1.00001
1.00003
1.00003
1.0002
1.0002
1.00115
1.00133
1.00659
1.00064
1.04432
0.905811
1.11529
1.28108
1.9128
2.59845
2.68937
2.65729
2.64084
2.62492
2.62834
2.63751
2.64629
2.65124
2.65853
2.66896
2.67731
2.6796
2.67621
2.65959
2.64376
2.63861
2.63983
2.64876
2.65824
2.66284
2.66517
2.67058
2.6845
2.69144
2.68583
2.68351
1
1
1
1
1
1
1
1
1.00001
1
1.00003
1.00003
1.00017
1.00018
1.001
1.00117
1.00582
0.999758
1.04249
0.905195
1.11129
1.27186
1.90391
2.62249
2.68141
2.64546
2.63374
2.62276
2.62686
2.63736
2.64461
2.64852
2.65571
2.66642
2.67512
2.67752
2.67415
2.65759
2.64198
2.63686
2.63791
2.64595
2.65538
2.65994
2.66205
2.66749
2.68163
2.68883
2.68316
2.68027
1
1
1
1
1
1
1
1
1
1
1.00003
1.00002
1.00015
1.00016
1.00087
1.00099
1.00513
0.99905
1.04031
0.905509
1.1065
1.2602
1.88835
2.62042
2.68232
2.63273
2.6317
2.62304
2.62679
2.63556
2.64197
2.64623
2.65317
2.66314
2.67148
2.67403
2.67118
2.65581
2.64035
2.63479
2.63546
2.64267
2.65143
2.65659
2.65881
2.66327
2.67743
2.68554
2.68051
2.67758
1
1
1
1
1
1
1
1
1
1
1.00002
1.00002
1.00013
1.00013
1.00074
1.00078
1.00445
0.998219
1.0377
0.906396
1.10145
1.24722
1.87048
2.61797
2.66676
2.63572
2.63172
2.62012
2.62282
2.63029
2.63707
2.64315
2.65086
2.66009
2.6673
2.6694
2.66687
2.65266
2.63715
2.63129
2.6315
2.63826
2.64714
2.65189
2.65409
2.65857
2.67181
2.68121
2.67614
2.67342
1
1
1
1
1
1
1
1
1
1
1.00002
1.00001
1.00009
1.00011
1.00055
1.00057
1.00352
0.997447
1.03526
0.907716
1.09583
1.2324
1.84839
2.60963
2.64868
2.64278
2.62727
2.61583
2.61843
2.62691
2.63323
2.639
2.64717
2.657
2.66407
2.66568
2.66218
2.6462
2.63121
2.62607
2.62638
2.6325
2.64187
2.64692
2.64875
2.65255
2.66615
2.67625
2.6727
2.66824
1
1
1
1
1
1
1
1
1
1
1.00001
1.00001
1.00006
1.00008
1.00038
1.00036
1.0027
0.996754
1.03255
0.909531
1.09002
1.21684
1.82229
2.59545
2.63761
2.63811
2.62412
2.61094
2.61307
2.62139
2.62784
2.6343
2.64265
2.65191
2.65807
2.65924
2.6556
2.63996
2.62584
2.62085
2.62099
2.62594
2.63517
2.64116
2.64313
2.64571
2.65787
2.66908
2.66552
2.66353
1
1
1
1
1
1
1
1
1
1
1.00001
1.00001
1.00004
1.00006
1.00025
1.00016
1.0017
0.996411
1.02946
0.911693
1.08352
1.19987
1.79193
2.57466
2.6276
2.63233
2.62158
2.60718
2.60879
2.61617
2.62293
2.63081
2.63957
2.64825
2.65376
2.65466
2.65071
2.63469
2.62039
2.61503
2.6146
2.61898
2.62739
2.63354
2.63624
2.63915
2.64891
2.66267
2.6605
2.65451
1
1
1
1
1
1
1
1
1
0.999999
1
0.999997
1
0.999987
1.0001
0.999817
1.00116
0.995932
1.02647
0.914592
1.07689
1.18259
1.75753
2.548
2.61078
2.6224
2.61068
2.59995
2.60281
2.61278
2.62008
2.6263
2.63312
2.64035
2.64472
2.6452
2.64151
2.62683
2.61314
2.60821
2.60772
2.61054
2.61941
2.62605
2.62736
2.62865
2.63817
2.65114
2.64971
2.64761
1
1
1
1
1
1
1
0.999999
0.999999
0.999997
0.999997
0.999985
0.999979
0.99992
0.99993
0.999543
1.00047
0.995469
1.0231
0.918373
1.06956
1.16653
1.71767
2.51431
2.59259
2.6156
2.6056
2.59254
2.5944
2.60298
2.61162
2.6171
2.62137
2.62571
2.62918
2.63016
2.62809
2.61757
2.606
2.6014
2.60098
2.60322
2.60905
2.61531
2.61819
2.61864
2.62368
2.63869
2.63964
2.63336
1
1
1
1
1
1
1
1
1
0.999997
0.999998
0.999986
0.999979
0.999941
0.999854
0.999367
0.999646
0.994809
1.01554
0.916051
1.06661
1.11529
1.67999
2.51386
2.56296
2.59461
2.58381
2.57506
2.57862
2.58877
2.59881
2.60671
2.61166
2.61502
2.61662
2.61643
2.61338
2.60421
2.59533
2.59218
2.5923
2.59395
2.59825
2.6029
2.60407
2.60456
2.60785
2.62161
2.62178
2.61918
1
1
1
1
1
1
1
1
1
0.999998
0.999999
0.999992
0.999999
0.999962
0.999974
0.999706
0.999805
0.997671
1.00473
0.971204
1.03734
1.0621
1.6316
2.45088
2.5102
2.56063
2.55551
2.5522
2.55482
2.56304
2.57712
2.58725
2.5912
2.59245
2.59251
2.59112
2.58784
2.58264
2.57846
2.57745
2.57977
2.58182
2.58316
2.58646
2.58741
2.58521
2.58672
2.59866
2.60129
2.59145
1
1
1
1
1
1
1
1
1
1
1
1.00001
1.00001
1.00004
1.00008
1.0001
1.00075
0.998996
1.00829
0.987734
1.03289
1.01611
1.57006
2.36497
2.49192
2.54996
2.53979
2.54192
2.5429
2.54729
2.55142
2.55937
2.56634
2.5706
2.57197
2.5711
2.5682
2.56626
2.56431
2.56501
2.56817
2.57004
2.5693
2.56902
2.56822
2.56596
2.55983
2.56443
2.56261
2.55243
1
1
1
1
1
1
1
1
1
1
1
1.00002
1.00002
1.00009
1.00009
1.00042
1.00075
1.00205
1.0047
1.01443
1.04412
1.14038
1.38206
2.18237
2.42448
2.50936
2.51066
2.51592
2.51738
2.52382
2.52736
2.53303
2.53633
2.53824
2.53942
2.54062
2.54084
2.54219
2.54622
2.54775
2.55065
2.55228
2.55143
2.54831
2.54539
2.53848
2.52958
2.52237
2.50847
2.43447
1
1
1
1
1
1
1
1
1
1
1
1.00002
1.00002
1.00009
1.00009
1.0005
1.00058
1.00228
1.00418
1.01175
1.03312
1.09329
1.30362
1.80498
2.2806
2.5031
2.51324
2.51297
2.51169
2.51224
2.51087
2.51095
2.51262
2.51426
2.51511
2.51599
2.51694
2.5195
2.52436
2.52797
2.53004
2.52934
2.52692
2.52156
2.51061
2.49933
2.4716
2.44514
2.3913
2.27822
1
1
1
1
1
1
1
1
1
1
1
1.00001
1.00001
1.00007
1.00008
1.00043
1.00046
1.00223
1.0031
1.01144
1.02404
1.06398
1.2027
1.50214
2.0822
2.45817
2.5348
2.52397
2.52054
2.51327
2.51428
2.51292
2.51214
2.51193
2.51153
2.51116
2.51182
2.5135
2.51682
2.51861
2.51832
2.51613
2.50946
2.50122
2.48399
2.4608
2.43134
2.3701
2.29954
2.17893
1
1
1
1
1
1
1
1
1
1
1.00001
1.00001
1.00003
1.00003
1.00021
1.0002
1.00131
1.00154
1.0077
1.00203
1.04425
0.914081
1.12071
1.29354
1.85769
2.43222
2.58045
2.56653
2.53462
2.51949
2.51954
2.5246
2.52433
2.52338
2.52127
2.51983
2.51937
2.51902
2.51847
2.51716
2.51273
2.50766
2.4979
2.4828
2.4667
2.43384
2.40035
2.34272
2.2591
2.16541
1
1
1
1
1
1
1
1
1
1
1
1
1.00001
1.00001
1.00005
1.00006
1.00029
1.00027
1.00223
0.997331
1.027
0.921836
1.07754
1.18215
1.71367
2.46779
2.55307
2.56689
2.54252
2.52669
2.52473
2.52775
2.53084
2.53203
2.53116
2.52984
2.52839
2.52509
2.52138
2.51601
2.51024
2.49852
2.4876
2.46441
2.44531
2.41048
2.37394
2.32239
2.25411
2.17266
1
1
1
1
1
1
1
1
1
1
1
1
1.00001
1
1.00005
1.00005
1.00018
1
1.00052
0.997543
1.00867
0.963417
1.04553
1.03968
1.59678
2.31748
2.45512
2.52922
2.51462
2.51576
2.51517
2.51835
2.52405
2.52721
2.52824
2.52774
2.5265
2.52365
2.52023
2.51297
2.50623
2.49211
2.47999
2.4546
2.42998
2.39405
2.35335
2.30459
2.24495
2.17782
1
1
1
1
1
1
1
1
1
1
1
1
1
1.00002
1.00001
1.00009
1.0001
1.00048
1.00062
1.00259
1.00414
1.01649
1.03089
1.13025
1.29029
1.83327
2.25682
2.47176
2.48597
2.48219
2.48264
2.48721
2.50027
2.50869
2.51176
2.5104
2.5073
2.5029
2.50049
2.49601
2.49115
2.47931
2.46845
2.4461
2.42208
2.38788
2.34996
2.30114
2.24766
2.18625
1
1
1
1
1
1
1
1
1
1
1
1
1
1.00001
1.00001
1.00006
1.00006
1.0003
1.00032
1.00153
0.999383
1.00919
0.959957
1.05936
1.04891
1.62048
2.38351
2.41415
2.44196
2.43434
2.43536
2.43776
2.44689
2.4571
2.47097
2.47378
2.47324
2.47128
2.46725
2.45927
2.45144
2.44116
2.43314
2.41997
2.40299
2.37575
2.34394
2.30186
2.25315
2.20269
1
1
1
1
1
1
1
1
1
1
1
1
1
1
1.00002
1.00002
1.00011
1.00012
1.00058
1.00072
1.00308
1.00412
1.01654
1.03632
1.14076
1.30328
1.95167
2.2555
2.43989
2.43796
2.42924
2.42004
2.41117
2.41136
2.41512
2.41621
2.41721
2.41696
2.41566
2.41215
2.40543
2.39315
2.38188
2.36714
2.35461
2.33699
2.31778
2.29028
2.25138
2.20833
1
1
1
1
1
1
1
1
1
1
1
1
1
1
1.00001
1.00002
1.00007
1.0001
1.00041
1.00049
1.00229
1.00299
1.01106
1.02331
1.06107
1.19609
1.48258
2.04107
2.3503
2.42451
2.42413
2.42085
2.40991
2.40006
2.39347
2.39091
2.38565
2.3813
2.37708
2.37092
2.36405
2.35314
2.3392
2.32393
2.30544
2.28793
2.26578
2.24559
2.22233
2.19626
1
1
1
1
1
1
1
1
1
1
1
1
1
1
1
1.00003
1.00003
1.00018
1.00017
1.00111
1.0013
1.00638
1.0016
1.03615
0.923065
1.0993
1.2293
1.73735
2.33106
2.42117
2.41983
2.41485
2.40516
2.39453
2.38773
2.38412
2.38108
2.37426
2.36716
2.35832
2.34841
2.33628
2.32079
2.30264
2.28222
2.25907
2.23571
2.20905
2.18221
2.15636
1
1
1
1
1
1
1
1
1
1
1
1
1
1
1
1
1.00001
1.00001
1.00007
1.00022
1.00012
1.00158
1.00136
1.01021
1.00342
1.04711
1.05083
1.48425
2.14681
2.35599
2.4166
2.41706
2.40176
2.3879
2.38028
2.37728
2.37533
2.37135
2.36417
2.35472
2.34337
2.33157
2.3161
2.29863
2.2772
2.25401
2.22756
2.20122
2.1696
2.14089
1
1
1
1
1
1
1
1
1
1
1
1
1
1
1
1
1.00002
1.00002
1.00008
1.0001
1.00044
1.00063
1.00225
1.00378
1.01077
1.0296
1.06597
1.22659
1.62622
2.06887
2.32675
2.39186
2.39104
2.38538
2.3774
2.37392
2.37196
2.36888
2.36217
2.35258
2.34044
2.32799
2.31333
2.29644
2.27702
2.25443
2.22984
2.20292
2.1735
2.14248
1
1
1
1
1
1
1
1
1
1
1
1
1
1
1
1
1
1.00002
1.00002
1.00011
1.00012
1.00046
1.00091
1.0025
1.00556
1.01385
1.04052
1.09029
1.331
1.83651
2.15034
2.334
2.34935
2.35129
2.34969
2.34758
2.34576
2.34507
2.34277
2.33828
2.3292
2.31767
2.30527
2.29017
2.27379
2.25462
2.23161
2.20848
2.18042
2.15395
1
1
1
1
1
1
1
1
1
1
1
1
1
1
1
1
1
1.00001
1.00002
1.00006
1.00007
1.00036
1.0004
1.00193
1.00248
1.01072
1.01477
1.05927
1.15358
1.36682
1.87297
2.20086
2.33606
2.34644
2.34425
2.33798
2.33085
2.32215
2.31538
2.307
2.30014
2.2893
2.2791
2.26747
2.25407
2.24187
2.22541
2.20598
2.18361
2.15878
1
1
1
1
1
1
1
1
1
1
1
1
1
1
1
1
1
1
1.00001
1.00001
1.00005
1.00004
1.00028
1.00011
1.00213
0.998482
1.02324
0.936576
1.06964
1.1457
1.57169
2.21279
2.27087
2.29026
2.30626
2.31073
2.31271
2.31057
2.30697
2.30012
2.29218
2.28219
2.2679
2.25451
2.23805
2.22241
2.20644
2.19012
2.17295
2.15432
1
1
1
1
1
1
1
1
1
1
1
1
1
1
1
1
1
1
1
1.00003
1.00003
1.00015
1.00015
1.00092
1.0011
1.00547
1.00115
1.03175
0.931733
1.08952
1.18896
1.66985
2.27421
2.29562
2.28942
2.28276
2.27438
2.27359
2.27437
2.27543
2.27478
2.2717
2.26291
2.24988
2.23481
2.21727
2.19992
2.18062
2.16174
2.14216
1
1
1
1
1
1
1
1
1
1
1
1
1
1
1
1
1
1
1.00001
1.00001
1.00004
1.00004
1.00024
1.00025
1.00136
1.00174
1.00729
1.0038
1.03917
0.954568
1.10236
1.24074
1.72184
2.13678
2.31705
2.31355
2.29925
2.28034
2.26833
2.259
2.25034
2.24529
2.24282
2.23755
2.22808
2.21359
2.19803
2.17927
2.16024
2.14006
1
1
1
1
1
1
1
1
1
1
1
1
1
1
1
1
1
1
1
1
1.00001
1.00001
1.00006
1.00004
1.00038
1.00018
1.00169
1.00169
1.00885
0.991943
1.05986
1.05086
1.43666
1.93337
2.23415
2.31021
2.30985
2.29461
2.27597
2.25922
2.24304
2.22991
2.21828
2.2082
2.20274
2.19543
2.18752
2.17398
2.15757
2.13945
1
1
1
1
1
1
1
1
1
1
1
1
1
1
1
1
1
1
1
1
1
1.00002
1.00001
1.00008
1.00009
1.00042
1.00057
1.00225
1.00342
1.01382
1.0199
1.07987
1.17148
1.47537
1.88792
2.18085
2.26482
2.27885
2.27455
2.26351
2.24714
2.2309
2.21551
2.2
2.18599
2.17393
2.16182
2.15274
2.14015
2.12913
1
1
1
1
1
1
1
1
1
1
1
1
1
1
1
1
1
1
1
1
1
1
1.00003
1.00003
1.00016
1.00015
1.00093
1.00113
1.00518
1.00202
1.02832
0.942618
1.07721
1.17563
1.55956
2.12153
2.17619
2.19733
2.21495
2.22881
2.22942
2.22473
2.21464
2.20075
2.18577
2.17132
2.15589
2.14026
2.12517
2.10899
1
1
1
1
1
1
1
1
1
1
1
1
1
1
1
1
1
1
1
1
1
1
0.999999
1
0.999985
1.00003
0.999779
1.00062
1.00001
1.00536
1.00262
1.03158
0.938969
1.0863
1.18466
1.60795
2.13782
2.1885
2.18765
2.18552
2.18269
2.18282
2.18312
2.18257
2.17824
2.16806
2.15501
2.1391
2.12295
2.10615
1
1
1
1
1
1
1
1
1
1
1
1
1
1
1
1
1
1
1
1
1
1
1.00001
1.00001
1.00004
1.00004
1.00022
1.00022
1.00125
1.0016
1.00657
1.00358
1.0352
0.937848
1.09436
1.20328
1.62217
2.06142
2.19719
2.19342
2.18566
2.175
2.16441
2.15146
2.1477
2.14357
2.13811
2.12987
2.1173
2.10334
1
1
1
1
1
1
1
1
1
1
1
1
1
1
1
1
1
1
1
1
1
1
1
1
1
1.00002
1.00003
1.00012
1.00015
1.0007
1.0009
1.00336
1.0049
1.0169
1.03864
1.059
1.30217
1.69214
1.96646
2.15859
2.18181
2.17661
2.16864
2.15335
2.13969
2.13008
2.11944
2.11006
2.09922
2.08927
1
1
1
1
1
1
1
1
1
1
1
1
1
1
1
1
1
1
1
1
1
1
1
1
1.00001
1.00001
1.00003
1.00003
1.00014
1.00015
1.00063
1.00094
1.00274
1.00479
1.01298
1.04772
1.10296
1.28116
1.63383
1.95156
2.12192
2.15337
2.15251
2.14818
2.1371
2.12464
2.11372
2.10145
2.08978
2.07593
1
1
1
1
1
1
1
1
1
1
1
1
1
1
1
1
1
1
1
1
1
1
1
1
0.999999
1
0.999997
0.999998
0.999987
1.00003
0.999802
1.00069
1.0002
1.00548
1.00492
1.02648
1.00442
1.08816
1.21177
1.5512
1.91243
2.09865
2.13051
2.12952
2.12695
2.11699
2.10584
2.0939
2.08212
2.06993
1
1
1
1
1
1
1
1
1
1
1
1
1
1
1
1
1
1
1
1
1
1
1
1
1
1
1
1.00001
1.00001
1.00004
1.00003
1.00023
1.00024
1.00125
1.00146
1.00787
1.00643
1.03964
1.03601
1.28956
1.6065
1.89282
2.071
2.10747
2.10786
2.10489
2.09656
2.08655
2.07551
2.0652
1
1
1
1
1
1
1
1
1
1
1
1
1
1
1
1
1
1
1
1
1
1
1
1
1
1
1
1
1
1.00002
1.00003
1.00012
1.00013
1.00068
1.00083
1.00289
1.00422
1.01269
1.04025
1.03322
1.27682
1.57778
1.85443
2.0233
2.06761
2.07589
2.07422
2.07096
2.06223
2.05204
1
1
1
1
1
1
1
1
1
1
1
1
1
1
1
1
1
1
1
1
1
1
1
1
1
1
1
1
1
1
1.00002
1.00002
1.00013
1.00015
1.00061
1.00093
1.00305
1.00526
1.01777
1.02996
1.09851
1.21905
1.50499
1.76536
1.97392
2.02779
2.04529
2.04652
2.0458
2.04046
1
1
1
1
1
1
1
1
1
1
1
1
1
1
1
1
1
1
1
1
1
1
1
1
1
1
1
1
1
1
1.00001
1.00001
1.00003
1.00003
1.00013
0.999937
1.00121
0.996695
1.00437
1.00694
1.03274
1.06865
1.15461
1.40563
1.76097
1.91701
1.99445
2.01377
2.01607
2.0158
1
1
1
1
1
1
1
1
1
1
1
1
1
1
1
1
1
1
1
1
1
1
1
1
1
1
1
1
1
1
1
1
1
1.00002
1.00003
1.00011
0.999969
1.0008
0.997318
1.00314
1.00526
1.02043
1.05595
1.10528
1.35585
1.68064
1.86241
1.97025
1.99322
1.99244
1
1
1
1
1
1
1
1
1
1
1
1
1
1
1
1
1
1
1
1
1
1
1
1
1
1
1
1
1
1
1
1
1
1
0.999993
0.999995
0.999943
0.999938
0.999641
0.999764
0.997834
1.00296
0.98965
1.04817
1.08275
1.29337
1.57163
1.78895
1.9486
1.96867
1
1
1
1
1
1
1
1
1
1
1
1
1
1
1
1
1
1
1
1
1
1
1
1
1
1
1
1
1
1
1
1
1
1
1.00001
1.00001
1.00006
1.00007
1.00033
1.00016
1.00178
0.996471
1.0059
1.01525
1.03049
1.08606
1.1855
1.44062
1.7305
1.89369
1
1
1
1
1
1
1
1
1
1
1
1
1
1
1
1
1
1
1
1
1
1
1
1
1
1
1
1
1
1
1
1
1
1
1
1
1.00001
1.00001
1.00008
1.00009
1.00043
1.0006
1.00244
1.00447
1.01348
1.03066
1.08435
1.1755
1.38155
1.60805
1
1
1
1
1
1
1
1
1
1
1
1
1
1
1
1
1
1
1
1
1
1
1
1
1
1
1
1
1
1
1
1
1
1
1
1
1
1
1
1.00002
0.99991
1.00032
1.00004
1.00281
1.00182
1.01497
0.969834
1.05153
1.076
1.33545
1
1
1
1
1
1
1
1
1
1
1
1
1
1
1
1
1
1
1
1
1
1
1
1
1
1
1
1
1
1
1
1
1
1
1
1
1
1
1.00002
1.00002
1.0001
1.00009
1.00054
1.00065
1.00284
1.00319
1.01493
1.01211
1.06167
1.07874
1
1
1
1
1
1
1
1
1
1
1
1
1
1
1
1
1
1
1
1
1
1
1
1
1
1
1
1
1
1
1
1
1
1
1
1
1
1
1.00001
1.00001
1.00006
1.00006
1.00031
1.00035
1.0018
1.00151
1.00935
1.00292
1.04661
1.07654
1
1
1
1
1
1
1
1
1
1
1
1
1
1
1
1
1
1
1
1
1
1
1
1
1
1
1
1
1
1
1
1
1
1
1
1
1
1
1.00001
1.00001
1.00005
1.00004
1.00025
1.00025
1.00148
1.00122
1.00866
1.00442
1.04843
1.06511
1
1
1
1
1
1
1
1
1
1
1
1
1
1
1
1
1
1
1
1
1
1
1
1
1
1
1
1
1
1
1
1
1
1
1
1
0.999999
0.999999
0.999992
0.999993
0.999951
0.999939
0.999692
0.999801
0.998238
1.00322
0.979429
1.01459
1.02601
1.14371
1
1
1
1
1
1
1
1
1
1
1
1
1
1
1
1
1
1
1
1
1
1
1
1
1
1
1
1
1
1
1
1
1
1
1
1
0.999998
0.999998
0.99999
0.99999
0.999942
0.999927
0.999662
0.999764
0.998049
1.00299
0.978713
1.01469
1.0278
1.14644
1
1
1
1
1
1
1
1
1
1
1
1
1
1
1
1
1
1
1
1
1
1
1
1
1
1
1
1
1
1
1
1
1
1
1
1
0.999998
0.999998
0.99999
0.99999
0.999937
0.999921
0.999642
0.999734
0.997961
1.00283
0.978596
1.01456
1.02799
1.14628
2.00115
1.90692
1.91378
1.95889
2.04793
2.13595
2.21027
2.29002
2.32879
2.35408
2.3724
2.39583
2.42977
2.48291
2.57342
2.72285
2.93309
3.17455
3.24431
3.20317
3.14236
3.07751
3.00677
2.97507
2.96002
2.94573
2.94168
2.94067
2.94584
2.96648
2.98542
3.00143
3.02104
3.03612
3.04368
3.04638
3.04421
3.03686
3.02993
3.02564
3.01783
3.01362
3.00484
3.00026
2.99344
2.9888
2.97901
2.97283
2.96141
2.95388
2.94179
2.93313
2.92071
2.91129
2.89865
2.8888
2.87595
2.86565
2.85237
2.84175
2.828
2.81682
2.80265
2.79071
2.77607
2.76353
2.74846
2.73589
2.72066
2.70874
2.69376
2.68304
2.66855
2.65944
2.64562
2.63803
2.62508
2.61855
2.60647
2.60051
2.58894
2.58325
2.57185
2.56618
2.55472
2.54893
2.53716
2.53116
2.51889
2.51246
2.49947
2.49217
2.47887
2.47065
2.45753
2.44872
2.43645
2.42822
2.41921
2.41502
1.98227
1.89769
1.85801
1.83825
1.82607
1.80051
1.79677
1.8011
1.82884
1.86581
1.91427
1.9457
1.96837
1.99615
2.05304
2.18046
2.43891
2.79342
2.98019
3.10621
3.16445
3.20083
3.23064
3.25353
3.26336
3.25275
3.20203
3.14033
3.13572
3.13704
3.12714
3.10337
3.07615
3.04272
2.99819
2.95768
2.92004
2.89138
2.86823
2.84976
2.83156
2.81528
2.79882
2.78436
2.7692
2.75618
2.74103
2.72824
2.71362
2.70065
2.68592
2.672
2.65688
2.64227
2.62653
2.61161
2.59527
2.58036
2.56337
2.54875
2.53134
2.51709
2.49968
2.4856
2.46859
2.45423
2.4376
2.42249
2.40595
2.38949
2.37303
2.35517
2.33827
2.32021
2.30269
2.28539
2.26824
2.25278
2.23683
2.22422
2.21017
2.20033
2.18859
2.18115
2.17164
2.16604
2.15818
2.15392
2.14712
2.14372
2.13763
2.13467
2.12879
2.12591
2.12002
2.11719
2.11152
2.10932
2.10592
2.10969
2.01752
1.92191
1.85903
1.7965
1.73652
1.6883
1.66125
1.66442
1.67153
1.69592
1.7237
1.75589
1.78256
1.80797
1.84881
1.92067
2.10415
2.31908
2.59876
2.6954
2.7826
2.8643
2.94486
3.018
3.09835
3.17194
3.21481
3.23439
3.23429
3.19171
3.12641
3.05531
2.98613
2.93092
2.88683
2.85408
2.82624
2.80333
2.78505
2.76656
2.7518
2.73562
2.72173
2.70793
2.6939
2.6815
2.66734
2.65489
2.64153
2.62997
2.61748
2.60615
2.59279
2.58111
2.56617
2.55377
2.53789
2.52474
2.50884
2.49439
2.47879
2.46245
2.44716
2.42945
2.41478
2.39712
2.38313
2.36654
2.35274
2.3366
2.32242
2.3055
2.28992
2.27187
2.25412
2.23501
2.21526
2.19555
2.17441
2.15499
2.13391
2.11559
2.09604
2.07958
2.0627
2.04844
2.03457
2.0228
2.01174
2.00241
1.99354
1.98651
1.97931
1.97412
1.96825
1.96449
1.95973
1.9576
1.95529
1.9601
2.05037
1.96656
1.88548
1.81577
1.75792
1.70933
1.67271
1.64385
1.63208
1.63532
1.64079
1.65711
1.68066
1.70555
1.73453
1.784
1.88381
2.06899
2.34131
2.43484
2.50703
2.57326
2.62731
2.69143
2.74557
2.80294
2.86754
2.9236
2.92085
2.8938
2.83168
2.76913
2.71933
2.68461
2.66193
2.64574
2.63307
2.62133
2.61111
2.60019
2.59008
2.57848
2.56782
2.55759
2.54767
2.53862
2.52776
2.51668
2.50502
2.49498
2.4842
2.47549
2.46473
2.45681
2.44591
2.43792
2.42714
2.41813
2.40821
2.39812
2.38967
2.37864
2.37061
2.35828
2.34889
2.33543
2.32463
2.31093
2.3001
2.28686
2.27625
2.26347
2.25174
2.23868
2.22449
2.21017
2.19281
2.17657
2.15648
2.13819
2.11694
2.09782
2.07695
2.05875
2.03933
2.02327
2.0059
1.99236
1.97743
1.96641
1.95387
1.94506
1.93464
1.92765
1.91901
1.91362
1.9065
1.90317
1.89857
1.9017
2.07258
1.99464
1.92613
1.86042
1.80357
1.75032
1.7078
1.66722
1.6387
1.61718
1.61358
1.61679
1.62253
1.63791
1.65864
1.68735
1.74548
1.88363
2.04816
2.282
2.35069
2.3901
2.44482
2.48734
2.53652
2.58789
2.64596
2.69557
2.71034
2.69652
2.65882
2.62169
2.58615
2.56562
2.55081
2.54452
2.54349
2.54074
2.53488
2.52781
2.5181
2.50836
2.49714
2.48722
2.47545
2.46584
2.45353
2.44145
2.427
2.41459
2.40101
2.39018
2.3775
2.36794
2.35619
2.347
2.33624
2.32645
2.31684
2.30618
2.29788
2.28701
2.27975
2.26917
2.26168
2.25088
2.24222
2.2308
2.22129
2.21002
2.20006
2.18982
2.17885
2.16893
2.15581
2.14408
2.1278
2.1129
2.09392
2.07646
2.05609
2.03823
2.01812
2.0018
1.98362
1.96993
1.95452
1.94376
1.93115
1.92293
1.91262
1.90644
1.89781
1.89311
1.88565
1.88203
1.87551
1.87294
1.86835
1.87074
2.09096
2.01716
1.9526
1.89312
1.83856
1.78957
1.74451
1.70559
1.67137
1.64081
1.61795
1.60344
1.59958
1.60144
1.60729
1.62152
1.65622
1.71809
1.8792
2.06684
2.21043
2.28633
2.32032
2.35691
2.41135
2.46144
2.52786
2.59294
2.60885
2.59506
2.5584
2.51302
2.47609
2.44314
2.42186
2.40766
2.41178
2.41711
2.41671
2.4156
2.41031
2.40636
2.39948
2.39342
2.38293
2.37541
2.36584
2.35805
2.34602
2.336
2.32406
2.31504
2.30336
2.29437
2.28324
2.27453
2.26465
2.2558
2.24735
2.23851
2.23201
2.22358
2.21826
2.21006
2.20456
2.19651
2.19027
2.18217
2.17523
2.16713
2.15912
2.15108
2.1411
2.13208
2.11952
2.10833
2.09316
2.07931
2.06177
2.04615
2.02715
2.01138
1.99247
1.97785
1.96073
1.9482
1.93358
1.92373
1.91173
1.90432
1.89453
1.88904
1.88077
1.87651
1.86911
1.8656
1.85874
1.85602
1.85066
1.85223
2.1152
2.04289
1.97605
1.91658
1.86127
1.81254
1.76725
1.72696
1.69026
1.65741
1.62897
1.60295
1.58632
1.57566
1.5758
1.57945
1.59076
1.62108
1.69148
1.83063
2.05398
2.17692
2.22039
2.26829
2.31772
2.38404
2.46851
2.5416
2.54825
2.52708
2.48155
2.43722
2.38947
2.35986
2.33943
2.33176
2.33091
2.33764
2.34886
2.35691
2.35664
2.35427
2.34686
2.34068
2.33194
2.32484
2.31456
2.30636
2.29443
2.28433
2.27137
2.26142
2.2488
2.23914
2.22719
2.21836
2.20766
2.19882
2.18849
2.17857
2.16939
2.15929
2.15174
2.14139
2.13404
2.12359
2.11613
2.10682
2.09973
2.09192
2.08433
2.07676
2.06686
2.05822
2.04581
2.03537
2.02134
2.00971
1.99511
1.98337
1.96891
1.95801
1.94447
1.93473
1.92258
1.91436
1.90378
1.89716
1.88814
1.88307
1.87545
1.8716
1.86485
1.86158
1.85507
1.85193
1.84538
1.84256
1.83657
1.83702
2.1365
2.0739
2.00961
1.94922
1.89206
1.83987
1.79294
1.74901
1.71121
1.67487
1.6444
1.61568
1.59046
1.57165
1.5569
1.55517
1.55853
1.56754
1.59797
1.66477
1.81591
2.01278
2.14566
2.19322
2.2536
2.3503
2.44771
2.51528
2.51248
2.48759
2.4443
2.39707
2.35097
2.31577
2.29659
2.27948
2.27669
2.27379
2.27921
2.28753
2.28869
2.28629
2.28239
2.27321
2.26413
2.25605
2.24767
2.24051
2.23144
2.22214
2.20976
2.19974
2.18736
2.17832
2.16651
2.15781
2.14635
2.13802
2.12739
2.11959
2.10976
2.10196
2.09258
2.08424
2.07506
2.06656
2.05785
2.04991
2.04152
2.03419
2.02538
2.01838
2.0089
2.00184
1.99175
1.98425
1.97372
1.96588
1.95499
1.9472
1.9363
1.92894
1.9186
1.91196
1.90247
1.89679
1.8883
1.88369
1.87627
1.8724
1.86586
1.86182
1.85604
1.85141
1.84563
1.84013
1.83404
1.82798
1.82201
1.81847
2.13665
2.08698
2.03431
1.98056
1.92695
1.87561
1.82734
1.78305
1.74116
1.7051
1.66935
1.64041
1.61126
1.58793
1.56687
1.55086
1.5476
1.54979
1.55946
1.59076
1.65441
1.82728
2.00607
2.13234
2.23176
2.36799
2.47883
2.51291
2.50644
2.47872
2.43709
2.38331
2.33875
2.29909
2.27184
2.24751
2.23531
2.22464
2.21337
2.21142
2.21156
2.21267
2.21167
2.20939
2.20274
2.19483
2.18576
2.17653
2.169
2.16115
2.15236
2.14357
2.13286
2.12415
2.11283
2.10467
2.09379
2.08596
2.07545
2.06809
2.05856
2.05223
2.04373
2.03821
2.03049
2.02524
2.01754
2.01183
2.00338
1.99714
1.98816
1.98199
1.97297
1.96709
1.95817
1.95248
1.94364
1.93807
1.92933
1.924
1.9155
1.91058
1.90251
1.89809
1.89054
1.88667
1.87957
1.87593
1.86929
1.86509
1.85924
1.8538
1.84821
1.84108
1.83533
1.82614
1.82009
1.80955
1.80367
1.79509
2.11659
2.08196
2.03817
1.99364
1.94817
1.90251
1.85829
1.8153
1.77543
1.73684
1.70324
1.66945
1.64194
1.614
1.59156
1.57085
1.55363
1.55071
1.55297
1.56403
1.59787
1.66386
1.84801
2.03697
2.21271
2.43284
2.54817
2.54457
2.52978
2.49546
2.44036
2.38477
2.33739
2.29428
2.25106
2.22137
2.18845
2.17116
2.14879
2.13823
2.12848
2.13019
2.13297
2.13737
2.13753
2.13653
2.13261
2.12561
2.12064
2.11431
2.10871
2.1015
2.09393
2.08708
2.07878
2.07253
2.06364
2.05738
2.04854
2.04276
2.03461
2.02931
2.02134
2.01605
2.00794
2.00266
1.99455
1.98932
1.98126
1.97624
1.96822
1.96346
1.95553
1.95102
1.94323
1.93892
1.93119
1.92691
1.91915
1.91489
1.90719
1.90316
1.89571
1.89197
1.8847
1.88104
1.87388
1.8698
1.86311
1.85796
1.85156
1.84486
1.83835
1.82941
1.82262
1.81119
1.80411
1.79089
1.78442
1.77279
2.09357
2.06145
2.02846
1.99139
1.95191
1.91264
1.87361
1.83583
1.79838
1.76338
1.72935
1.69814
1.66887
1.64104
1.61835
1.59322
1.57806
1.55969
1.56002
1.56505
1.5818
1.62131
1.72605
1.88396
2.23104
2.49087
2.58491
2.58288
2.56048
2.50154
2.43329
2.37492
2.31704
2.26309
2.21512
2.17059
2.13676
2.1075
2.09142
2.07929
2.07432
2.07106
2.0764
2.08231
2.0919
2.09513
2.09862
2.09772
2.09588
2.09257
2.08975
2.08421
2.0774
2.07018
2.06245
2.05643
2.0487
2.04364
2.03621
2.03188
2.02491
2.0207
2.0136
2.00904
2.00157
1.99685
1.989
1.98417
1.97609
1.97133
1.96327
1.95875
1.95069
1.9463
1.93821
1.93397
1.92599
1.92192
1.914
1.90993
1.90191
1.89778
1.88978
1.88576
1.87793
1.87384
1.86626
1.86155
1.85377
1.84771
1.83932
1.8314
1.82241
1.81237
1.80314
1.79115
1.78226
1.76907
1.76166
1.75034
2.09545
2.05682
2.02023
1.98396
1.94829
1.9124
1.87655
1.84186
1.808
1.77557
1.74368
1.71487
1.68536
1.66035
1.63497
1.61238
1.59427
1.57471
1.57145
1.57428
1.58612
1.61523
1.68378
1.81865
2.06387
2.30158
2.53957
2.53085
2.49246
2.44693
2.37974
2.31396
2.25909
2.20792
2.16455
2.12734
2.0989
2.07595
2.05978
2.05074
2.04461
2.04338
2.04423
2.04851
2.05807
2.0647
2.07331
2.07626
2.07911
2.07708
2.07527
2.07161
2.06813
2.06242
2.05595
2.05053
2.04377
2.03944
2.03278
2.02913
2.02257
2.01882
2.01186
2.0076
2.0002
1.9957
1.98791
1.98313
1.97482
1.96981
1.96135
1.95653
1.94818
1.94356
1.93519
1.93049
1.92192
1.91698
1.90815
1.90308
1.89432
1.88942
1.88083
1.87587
1.86702
1.86143
1.8519
1.84533
1.83506
1.82748
1.81679
1.80826
1.79758
1.78813
1.77786
1.76753
1.75809
1.74724
1.73958
1.73085
2.1041
2.06252
2.02274
1.98445
1.9485
1.91268
1.87852
1.84503
1.81189
1.78244
1.75058
1.7242
1.69566
1.67066
1.64763
1.62339
1.60716
1.58838
1.58724
1.59125
1.60517
1.63775
1.71904
1.83288
1.97032
2.13873
2.29062
2.40035
2.4017
2.38015
2.34733
2.28702
2.24012
2.19033
2.1502
2.11527
2.08725
2.06443
2.04771
2.03886
2.03188
2.03191
2.03201
2.03299
2.03474
2.04082
2.04843
2.05671
2.05956
2.06219
2.06097
2.0583
2.05595
2.05204
2.04676
2.04127
2.03447
2.02956
2.02267
2.01883
2.01246
2.00908
2.0026
1.99895
1.99203
1.98797
1.98042
1.97591
1.96783
1.96305
1.95465
1.9497
1.94105
1.93586
1.92695
1.92144
1.91223
1.90641
1.89702
1.89099
1.88134
1.87491
1.86486
1.85803
1.84753
1.84033
1.82943
1.82194
1.81081
1.80314
1.79216
1.78441
1.77394
1.76607
1.75637
1.74828
1.73955
1.7314
1.72423
1.71836
2.12178
2.07936
2.0379
1.99333
1.9536
1.91589
1.88127
1.8486
1.81579
1.78586
1.75744
1.72843
1.70462
1.67722
1.65686
1.63352
1.61682
1.60648
1.60849
1.61746
1.63985
1.69528
1.78619
1.8918
1.95923
2.01909
2.08792
2.1795
2.26629
2.30702
2.29399
2.27074
2.24308
2.202
2.16754
2.1341
2.10601
2.08432
2.06646
2.05222
2.0424
2.0356
2.02993
2.02581
2.02384
2.02191
2.02364
2.02809
2.03214
2.03621
2.03766
2.03709
2.03457
2.03139
2.02739
2.02259
2.01599
2.0104
2.00285
1.99787
1.99023
1.98584
1.97826
1.97402
1.96651
1.96231
1.95479
1.95064
1.94319
1.93914
1.93167
1.92755
1.91984
1.91539
1.90721
1.90213
1.89327
1.88738
1.87787
1.8713
1.86134
1.85442
1.84412
1.83705
1.82649
1.81939
1.80873
1.80168
1.7912
1.78433
1.77433
1.76775
1.75846
1.75211
1.74354
1.73714
1.72916
1.72275
1.7158
1.71172
2.12181
2.09073
2.05627
2.0166
1.97484
1.93041
1.89057
1.85577
1.82237
1.79107
1.76242
1.73495
1.70828
1.68613
1.66133
1.64509
1.62816
1.62898
1.63595
1.6535
1.69432
1.77629
1.87482
1.93324
1.95011
1.96159
1.9866
2.02977
2.09722
2.16838
2.22801
2.25545
2.24753
2.23168
2.20435
2.1775
2.14841
2.11916
2.0948
2.07156
2.05217
2.03525
2.02223
2.01098
2.00423
1.99648
1.99482
1.99088
1.99324
1.99569
1.99965
2.00079
2.00053
1.99813
1.99549
1.99175
1.98749
1.98186
1.97516
1.96929
1.96248
1.95743
1.95075
1.94629
1.93947
1.93523
1.92825
1.9244
1.91751
1.91382
1.90672
1.90256
1.89496
1.89017
1.88213
1.8768
1.86838
1.86261
1.85388
1.8479
1.83899
1.83306
1.82398
1.81818
1.8089
1.8032
1.79374
1.78819
1.77871
1.77328
1.7641
1.75866
1.75011
1.74453
1.73673
1.73098
1.7238
1.718
1.71166
1.70801
2.11353
2.08879
2.06135
2.0295
1.9954
1.9586
1.91765
1.87693
1.83985
1.8042
1.77276
1.74426
1.71649