/*--------------------------------*- C++ -*----------------------------------*\
| =========                 |                                                 |
| \\      /  F ield         | OpenFOAM: The Open Source CFD Toolbox           |
|  \\    /   O peration     | Version:  2412                                  |
|   \\  /    A nd           | Website:  www.openfoam.com                      |
|    \\/     M anipulation  |                                                 |
\*---------------------------------------------------------------------------*/
FoamFile
{
    version     2.0;
    format      ascii;
    arch        "LSB;label=32;scalar=64";
    class       volVectorField;
    location    "3";
    object      U;
}
// * * * * * * * * * * * * * * * * * * * * * * * * * * * * * * * * * * * * * //

dimensions      [0 1 -1 0 0 0 0];

internalField   nonuniform List<vector> 
7000
(
(3 1.63463e-11 0)
(3 1.37552e-10 0)
(3 1.0027e-09 0)
(3 1.86696e-09 0)
(3 2.74436e-09 0)
(3 1.35311e-08 0)
(3 1.97044e-08 0)
(3 8.85636e-08 0)
(3 1.50807e-07 0)
(2.99999 6.36797e-07 0)
(2.99998 8.81066e-07 0)
(2.99996 3.82885e-06 0)
(2.99987 9.93177e-06 0)
(2.99978 2.80766e-05 0)
(2.99923 3.76766e-05 0)
(2.99847 0.000114017 0)
(2.99526 0.000150302 0)
(2.99355 0.000143034 0)
(2.98734 0.000154442 0)
(2.96873 0.000277128 0)
(2.97095 0.000501034 0)
(2.73036 0.000941408 0)
(2.1217 0.00142756 0)
(1.26916 0.00350764 0)
(0.542512 0.00446368 0)
(0.621805 0.00567688 0)
(0.709628 0.00642097 0)
(0.739757 0.00694476 0)
(0.72504 0.00731111 0)
(0.693854 0.00758987 0)
(0.654515 0.00789234 0)
(0.62002 0.00832193 0)
(0.590054 0.00883012 0)
(0.56009 0.00940945 0)
(0.528078 0.0100872 0)
(0.49385 0.0108789 0)
(0.457387 0.0117288 0)
(0.419859 0.0125194 0)
(0.381536 0.0130611 0)
(0.342125 0.0131914 0)
(0.303193 0.0128914 0)
(0.265337 0.0123267 0)
(0.229174 0.011713 0)
(0.195359 0.0111579 0)
(0.163604 0.010659 0)
(0.133489 0.0101756 0)
(0.104029 0.00984052 0)
(0.0752029 0.0098427 0)
(0.0450507 0.0105488 0)
(0.0207783 0.0121222 0)
(3 -1.38836e-10 0)
(3 3.76926e-10 0)
(3 1.38554e-09 0)
(3 4.42817e-09 0)
(3 7.15319e-09 0)
(3 3.2438e-08 0)
(3 5.44898e-08 0)
(3 2.37947e-07 0)
(3 4.56239e-07 0)
(2.99999 1.82696e-06 0)
(2.99998 2.32534e-06 0)
(2.99997 1.22977e-05 0)
(2.99988 2.66685e-05 0)
(2.99979 0.000106186 0)
(2.99928 0.00023395 0)
(2.99854 0.00140422 0)
(2.99527 -5.91169e-05 0)
(2.99355 0.000300888 0)
(2.98742 -7.31871e-06 0)
(2.96895 0.000395838 0)
(2.97132 0.00112208 0)
(2.73079 0.00250655 0)
(2.12345 0.00415085 0)
(1.27094 0.010515 0)
(0.542438 0.0135021 0)
(0.621776 0.0169881 0)
(0.709354 0.0188615 0)
(0.739333 0.0201208 0)
(0.724573 0.020976 0)
(0.693466 0.0216282 0)
(0.654292 0.0223368 0)
(0.619923 0.0232879 0)
(0.58998 0.0243796 0)
(0.560007 0.0256146 0)
(0.528034 0.0270666 0)
(0.493972 0.0287668 0)
(0.457919 0.0305636 0)
(0.42115 0.032173 0)
(0.383931 0.0332149 0)
(0.34581 0.0333916 0)
(0.308053 0.0327027 0)
(0.27096 0.031445 0)
(0.235021 0.0300011 0)
(0.201033 0.0285973 0)
(0.168885 0.0273027 0)
(0.138125 0.0261064 0)
(0.107524 0.0252131 0)
(0.0769744 0.0248286 0)
(0.0449422 0.0253907 0)
(0.0197253 0.0269337 0)
(3 -1.00946e-10 0)
(3 4.99441e-10 0)
(3 1.07934e-09 0)
(3 5.49699e-09 0)
(3 1.11425e-08 0)
(3 4.39351e-08 0)
(3 6.36533e-08 0)
(3 3.00977e-07 0)
(3 5.56441e-07 0)
(2.99999 2.01486e-06 0)
(2.99998 3.01258e-06 0)
(2.99998 1.4902e-05 0)
(2.99993 2.87015e-05 0)
(2.9999 0.000135464 0)
(3.00002 0.000311609 0)
(2.99829 0.00150191 0)
(2.99457 -1.57219e-05 0)
(2.99358 0.000359016 0)
(2.98741 0.000178317 0)
(2.9695 0.000984357 0)
(2.9722 0.00227062 0)
(2.73177 0.00470074 0)
(2.12693 0.00739378 0)
(1.27446 0.0181813 0)
(0.542156 0.0233685 0)
(0.621784 0.0290991 0)
(0.708999 0.0319291 0)
(0.738896 0.0339834 0)
(0.724154 0.0355329 0)
(0.693187 0.0368745 0)
(0.654198 0.0383291 0)
(0.619867 0.0400324 0)
(0.589746 0.0419549 0)
(0.559484 0.0441462 0)
(0.52725 0.0466749 0)
(0.493123 0.0495213 0)
(0.457377 0.0524278 0)
(0.421391 0.0549427 0)
(0.385339 0.0565466 0)
(0.348535 0.0568645 0)
(0.311926 0.0559178 0)
(0.275549 0.0541079 0)
(0.239781 0.0519351 0)
(0.205512 0.0497606 0)
(0.172809 0.0477544 0)
(0.141353 0.046017 0)
(0.109918 0.0448577 0)
(0.078389 0.0445253 0)
(0.0453747 0.0454081 0)
(0.0193902 0.0473095 0)
(3 1.3204e-10 0)
(3 3.85326e-10 0)
(3 8.43088e-10 0)
(3 3.18335e-09 0)
(3 6.37634e-09 0)
(3 2.56168e-08 0)
(3 2.53992e-08 0)
(3 1.70712e-07 0)
(3 2.81933e-07 0)
(3 6.88063e-07 0)
(2.99999 7.8819e-07 0)
(2.99998 4.97319e-06 0)
(2.99996 7.53447e-06 0)
(2.99997 3.20855e-05 0)
(3.00012 5.8073e-05 0)
(2.99834 8.81763e-05 0)
(2.99457 0.000236212 0)
(2.99367 0.000448993 0)
(2.98783 0.000934921 0)
(2.97037 0.00222023 0)
(2.97355 0.00404755 0)
(2.73314 0.00752494 0)
(2.13245 0.0108891 0)
(1.28091 0.0261188 0)
(0.543136 0.0337856 0)
(0.622388 0.0418163 0)
(0.70868 0.0453826 0)
(0.73854 0.0480889 0)
(0.723953 0.0503262 0)
(0.693301 0.0524479 0)
(0.654627 0.0547338 0)
(0.620473 0.0571909 0)
(0.590394 0.0599333 0)
(0.560099 0.0630611 0)
(0.527841 0.066586 0)
(0.493799 0.0703949 0)
(0.458357 0.0741465 0)
(0.42296 0.0772944 0)
(0.387734 0.0792962 0)
(0.351827 0.0797806 0)
(0.315975 0.0787824 0)
(0.280026 0.0767324 0)
(0.244257 0.0741348 0)
(0.209599 0.07141 0)
(0.176248 0.0688203 0)
(0.144053 0.0666053 0)
(0.111876 0.0651937 0)
(0.0796357 0.0648442 0)
(0.0459681 0.0658683 0)
(0.0193399 0.0678734 0)
(3 8.15128e-11 0)
(3 1.43638e-10 0)
(3 1.97536e-10 0)
(3 -3.24858e-10 0)
(3 -2.15866e-09 0)
(3 -1.08688e-08 0)
(3 -8.37538e-09 0)
(3 -9.94707e-08 0)
(3 -1.99982e-07 0)
(3 -8.17234e-07 0)
(2.99999 -9.97961e-07 0)
(2.99998 -7.90249e-06 0)
(2.99994 -1.62641e-05 0)
(2.99993 -9.61192e-05 0)
(3.00005 -0.000236361 0)
(2.99841 -0.0012003 0)
(2.99481 0.000345641 0)
(2.99403 0.000481838 0)
(2.98854 0.00159059 0)
(2.97158 0.00332632 0)
(2.97541 0.00568103 0)
(2.73488 0.0102311 0)
(2.14004 0.0140068 0)
(1.29038 0.0339069 0)
(0.544924 0.044704 0)
(0.623274 0.0553788 0)
(0.708147 0.0594945 0)
(0.738163 0.0626753 0)
(0.72401 0.0655338 0)
(0.693885 0.0684686 0)
(0.655622 0.07162 0)
(0.621741 0.0748613 0)
(0.5919 0.0784585 0)
(0.561806 0.0825663 0)
(0.529725 0.0871187 0)
(0.49587 0.0918878 0)
(0.46065 0.0964294 0)
(0.425544 0.100131 0)
(0.390676 0.102484 0)
(0.355134 0.103156 0)
(0.319587 0.102221 0)
(0.283802 0.100088 0)
(0.247977 0.0972322 0)
(0.213024 0.0940854 0)
(0.179172 0.0909869 0)
(0.146388 0.0883119 0)
(0.113616 0.0866165 0)
(0.0808133 0.0861696 0)
(0.046618 0.0872058 0)
(0.019424 0.0891635 0)
(3 -1.17306e-12 0)
(3 9.42088e-11 0)
(3 1.93047e-10 0)
(3 -2.5574e-10 0)
(3 -1.22103e-09 0)
(3 -1.11558e-08 0)
(3 -3.59137e-09 0)
(3 -1.21578e-07 0)
(3 -2.3269e-07 0)
(3 -7.30595e-07 0)
(2.99998 -8.44274e-08 0)
(2.99997 -6.34768e-06 0)
(2.9999 -1.41484e-05 0)
(2.99982 -6.93273e-05 0)
(2.99937 -0.000166671 0)
(2.99873 -0.00102229 0)
(2.99571 0.000462857 0)
(2.99451 0.0009198 0)
(2.9897 0.00227745 0)
(2.97314 0.00417227 0)
(2.97784 0.00686233 0)
(2.73702 0.0124257 0)
(2.15024 0.0162187 0)
(1.30392 0.0415036 0)
(0.547446 0.0563836 0)
(0.623903 0.0700149 0)
(0.706862 0.0742368 0)
(0.737516 0.0776677 0)
(0.724255 0.0811541 0)
(0.69491 0.0849127 0)
(0.657077 0.0889389 0)
(0.623433 0.093022 0)
(0.593849 0.0975586 0)
(0.563994 0.102722 0)
(0.532109 0.108369 0)
(0.49841 0.114155 0)
(0.463293 0.119523 0)
(0.428248 0.123819 0)
(0.393404 0.126538 0)
(0.357869 0.127417 0)
(0.322352 0.126568 0)
(0.286617 0.12439 0)
(0.250809 0.121338 0)
(0.215759 0.117845 0)
(0.181645 0.114316 0)
(0.148489 0.111238 0)
(0.115285 0.109276 0)
(0.0820248 0.108718 0)
(0.0473307 0.109735 0)
(0.0195783 0.111619 0)
(3 -1.15109e-11 0)
(3 2.57278e-10 0)
(3 5.12326e-10 0)
(3 1.62974e-09 0)
(3 2.95645e-09 0)
(3 7.43451e-09 0)
(3 1.37681e-08 0)
(3 3.59286e-08 0)
(3 6.05669e-08 0)
(3 1.91415e-07 0)
(2.99998 4.56092e-07 0)
(2.99997 1.40545e-06 0)
(2.9999 2.75082e-06 0)
(2.99983 1.2071e-05 0)
(2.99941 2.71598e-05 0)
(2.99884 0.000146567 0)
(2.99615 0.000310501 0)
(2.9953 0.00148824 0)
(2.99077 0.00242969 0)
(2.97481 0.00421949 0)
(2.9807 0.00717 0)
(2.7396 0.0140027 0)
(2.16389 0.0167883 0)
(1.32193 0.0488814 0)
(0.550691 0.0689278 0)
(0.624607 0.0855553 0)
(0.705154 0.0895683 0)
(0.73711 0.0930941 0)
(0.725116 0.0973085 0)
(0.6966 0.101776 0)
(0.659148 0.106635 0)
(0.625707 0.111646 0)
(0.596385 0.117222 0)
(0.56676 0.123515 0)
(0.535027 0.130334 0)
(0.501395 0.137222 0)
(0.466251 0.143512 0)
(0.431083 0.148492 0)
(0.396045 0.151629 0)
(0.360323 0.152728 0)
(0.324703 0.151935 0)
(0.288982 0.149671 0)
(0.25325 0.146418 0)
(0.21823 0.142614 0)
(0.184007 0.138723 0)
(0.150614 0.135327 0)
(0.117066 0.133169 0)
(0.0833813 0.132547 0)
(0.0481631 0.133566 0)
(0.0198152 0.135398 0)
(3 -1.37905e-11 0)
(3 4.57107e-10 0)
(3 9.36386e-10 0)
(3 3.46136e-09 0)
(3 6.20352e-09 0)
(3 1.98376e-08 0)
(3 3.45169e-08 0)
(3 1.11904e-07 0)
(3 1.87849e-07 0)
(3 6.69148e-07 0)
(2.99998 1.06958e-06 0)
(2.99997 3.98724e-06 0)
(2.99991 9.13986e-06 0)
(2.99984 2.809e-05 0)
(2.99947 4.21325e-05 0)
(2.99894 0.000202012 0)
(2.99667 0.000357939 0)
(2.99603 0.00141795 0)
(2.99165 0.00222186 0)
(2.97666 0.00390944 0)
(2.98432 0.00687688 0)
(2.7418 0.0132668 0)
(2.18123 0.0194781 0)
(1.34553 0.0564259 0)
(0.556773 0.0839453 0)
(0.627509 0.101405 0)
(0.704442 0.105523 0)
(0.737732 0.109046 0)
(0.726864 0.113986 0)
(0.69895 0.119149 0)
(0.661876 0.12481 0)
(0.628626 0.130819 0)
(0.599522 0.137518 0)
(0.570087 0.145032 0)
(0.538469 0.153117 0)
(0.504859 0.161222 0)
(0.469637 0.168561 0)
(0.43429 0.174313 0)
(0.399019 0.177919 0)
(0.363089 0.179221 0)
(0.327352 0.178417 0)
(0.291647 0.175988 0)
(0.256002 0.172485 0)
(0.221025 0.168387 0)
(0.186712 0.164205 0)
(0.15309 0.160585 0)
(0.119188 0.158327 0)
(0.0850291 0.157731 0)
(0.0491735 0.158826 0)
(0.0201306 0.160663 0)
(3 -1.41762e-11 0)
(3 6.20505e-10 0)
(3 1.26786e-09 0)
(3 4.87257e-09 0)
(3 8.69243e-09 0)
(3 2.90146e-08 0)
(3 5.04465e-08 0)
(3 1.65829e-07 0)
(3 2.86323e-07 0)
(3 9.50888e-07 0)
(2.99999 1.65886e-06 0)
(2.99998 5.67593e-06 0)
(2.99992 8.83274e-06 0)
(2.99985 3.44838e-05 0)
(2.99954 5.50253e-05 0)
(2.99907 0.000211422 0)
(2.99705 0.000379284 0)
(2.99668 0.00123556 0)
(2.99262 0.00194523 0)
(2.97839 0.00352547 0)
(2.98709 0.00632261 0)
(2.74595 0.0105897 0)
(2.20513 0.0249346 0)
(1.37723 0.0623348 0)
(0.570605 0.102601 0)
(0.632685 0.116563 0)
(0.70493 0.121164 0)
(0.739084 0.125339 0)
(0.729432 0.131147 0)
(0.702008 0.137189 0)
(0.66526 0.143691 0)
(0.632181 0.150726 0)
(0.603237 0.158606 0)
(0.573928 0.167419 0)
(0.542382 0.176862 0)
(0.508785 0.186275 0)
(0.473514 0.194753 0)
(0.438054 0.201348 0)
(0.402654 0.205452 0)
(0.36663 0.206935 0)
(0.330865 0.206053 0)
(0.295225 0.203402 0)
(0.259668 0.199622 0)
(0.224683 0.195258 0)
(0.190205 0.190876 0)
(0.156264 0.187146 0)
(0.121903 0.18492 0)
(0.0871414 0.184459 0)
(0.0504853 0.185709 0)
(0.0205798 0.187611 0)
(3 -5.14445e-11 0)
(3 6.75472e-10 0)
(3 1.48217e-09 0)
(3 5.60799e-09 0)
(3 1.04018e-08 0)
(3 3.45151e-08 0)
(3 6.00912e-08 0)
(3 1.9754e-07 0)
(3 3.42779e-07 0)
(3 1.11695e-06 0)
(2.99999 1.95241e-06 0)
(2.99998 6.37424e-06 0)
(2.99993 1.0215e-05 0)
(2.99987 3.49111e-05 0)
(2.9996 5.95199e-05 0)
(2.99919 0.000199746 0)
(2.99746 0.000366622 0)
(2.99723 0.00111569 0)
(2.99341 0.00180857 0)
(2.98016 0.00335704 0)
(2.98945 0.00625802 0)
(2.75296 0.00970369 0)
(2.23326 0.0285967 0)
(1.41614 0.0680114 0)
(0.589254 0.12213 0)
(0.636983 0.132096 0)
(0.706695 0.136673 0)
(0.741893 0.142117 0)
(0.733146 0.148966 0)
(0.705934 0.155973 0)
(0.669333 0.163396 0)
(0.636325 0.171461 0)
(0.607443 0.180555 0)
(0.578191 0.190732 0)
(0.546681 0.201613 0)
(0.513111 0.212412 0)
(0.477873 0.222078 0)
(0.442441 0.229569 0)
(0.407104 0.234188 0)
(0.371192 0.235842 0)
(0.335574 0.234856 0)
(0.300107 0.231977 0)
(0.264659 0.227943 0)
(0.229629 0.223392 0)
(0.194887 0.218929 0)
(0.160494 0.215234 0)
(0.125508 0.21319 0)
(0.0899164 0.213016 0)
(0.0521881 0.214539 0)
(0.0211823 0.216565 0)
(3 -4.5952e-11 0)
(3 7.28075e-10 0)
(3 1.47622e-09 0)
(3 5.9602e-09 0)
(3 1.07016e-08 0)
(3 3.61319e-08 0)
(3 6.42185e-08 0)
(3 2.09982e-07 0)
(3 3.65906e-07 0)
(3 1.2048e-06 0)
(2.99999 2.11028e-06 0)
(2.99998 6.97571e-06 0)
(2.99994 1.08883e-05 0)
(2.99989 3.8877e-05 0)
(2.99967 6.46909e-05 0)
(2.99932 0.000220889 0)
(2.99778 0.000416612 0)
(2.99783 0.00127272 0)
(2.9944 0.00196618 0)
(2.9821 0.00355107 0)
(2.992 0.00652738 0)
(2.76082 0.00988128 0)
(2.2665 0.0306951 0)
(1.46357 0.0738606 0)
(0.613422 0.140584 0)
(0.641492 0.148993 0)
(0.70985 0.153467 0)
(0.746199 0.159927 0)
(0.737895 0.16778 0)
(0.710565 0.17578 0)
(0.673831 0.184139 0)
(0.640712 0.19322 0)
(0.611814 0.203528 0)
(0.582576 0.215087 0)
(0.551105 0.227424 0)
(0.517622 0.239642 0)
(0.482568 0.250499 0)
(0.447395 0.258885 0)
(0.412382 0.264025 0)
(0.376854 0.26584 0)
(0.341624 0.264787 0)
(0.30651 0.261726 0)
(0.271265 0.257541 0)
(0.236203 0.252946 0)
(0.20113 0.248576 0)
(0.166138 0.245112 0)
(0.130335 0.243441 0)
(0.093644 0.243742 0)
(0.0544805 0.245706 0)
(0.0220134 0.247959 0)
(3 -1.07521e-12 0)
(3 7.79784e-10 0)
(3 1.46017e-09 0)
(3 6.06987e-09 0)
(3 1.02095e-08 0)
(3 3.56919e-08 0)
(3 6.23472e-08 0)
(3 2.10409e-07 0)
(3 3.49996e-07 0)
(3 1.23237e-06 0)
(2.99999 2.12729e-06 0)
(2.99999 7.21702e-06 0)
(2.99996 1.16709e-05 0)
(2.99992 4.09253e-05 0)
(2.99975 6.62238e-05 0)
(2.99948 0.000231125 0)
(2.99834 0.000441748 0)
(2.99852 0.00140457 0)
(2.99529 0.00213467 0)
(2.98409 0.00374384 0)
(2.99454 0.00673626 0)
(2.76986 0.00986882 0)
(2.30391 0.0328279 0)
(1.51991 0.0780585 0)
(0.643174 0.157859 0)
(0.646236 0.166698 0)
(0.713763 0.171252 0)
(0.751313 0.178637 0)
(0.743304 0.187554 0)
(0.715558 0.196589 0)
(0.678405 0.205893 0)
(0.645036 0.216038 0)
(0.616034 0.227611 0)
(0.586752 0.24058 0)
(0.555337 0.254365 0)
(0.522042 0.267941 0)
(0.487383 0.279912 0)
(0.452796 0.289117 0)
(0.418447 0.294725 0)
(0.383645 0.296726 0)
(0.349112 0.2957 0)
(0.314596 0.2926 0)
(0.279744 0.288462 0)
(0.244739 0.284057 0)
(0.209329 0.280052 0)
(0.173624 0.277119 0)
(0.136774 0.27611 0)
(0.0986548 0.277171 0)
(0.0575869 0.279797 0)
(0.0231687 0.282359 0)
(3 1.5779e-11 0)
(3 7.57775e-10 0)
(3 1.49806e-09 0)
(3 5.76747e-09 0)
(3 9.60475e-09 0)
(3 3.46814e-08 0)
(3 5.714e-08 0)
(3 2.0065e-07 0)
(3 3.30011e-07 0)
(3 1.14314e-06 0)
(3 1.97231e-06 0)
(2.99999 6.39826e-06 0)
(2.99997 1.06773e-05 0)
(2.99994 3.5269e-05 0)
(2.99983 5.47641e-05 0)
(2.99964 0.000184277 0)
(2.99879 0.000383325 0)
(2.99929 0.00135703 0)
(2.99641 0.00212017 0)
(2.98619 0.00370126 0)
(2.99713 0.00673519 0)
(2.77997 0.00963505 0)
(2.34484 0.0345516 0)
(1.58419 0.0816589 0)
(0.678977 0.173824 0)
(0.651674 0.185196 0)
(0.71764 0.190548 0)
(0.756773 0.199036 0)
(0.748896 0.208903 0)
(0.720403 0.21878 0)
(0.68253 0.228906 0)
(0.648719 0.240071 0)
(0.619511 0.252891 0)
(0.590162 0.267235 0)
(0.558886 0.282379 0)
(0.525994 0.29717 0)
(0.492087 0.310119 0)
(0.458508 0.32001 0)
(0.425266 0.326021 0)
(0.391651 0.328259 0)
(0.358216 0.327395 0)
(0.32463 0.324492 0)
(0.290437 0.320705 0)
(0.255666 0.316851 0)
(0.21999 0.313604 0)
(0.183499 0.311621 0)
(0.145391 0.311687 0)
(0.105437 0.313917 0)
(0.0618221 0.317565 0)
(0.0247459 0.320661 0)
(3 1.08102e-10 0)
(3 5.84276e-10 0)
(3 1.49671e-09 0)
(3 4.67718e-09 0)
(3 1.0192e-08 0)
(3 3.15118e-08 0)
(3 6.43718e-08 0)
(3 2.01067e-07 0)
(3 4.12334e-07 0)
(3 1.22851e-06 0)
(3 2.36945e-06 0)
(3 7.37238e-06 0)
(2.99998 1.23198e-05 0)
(2.99996 4.14052e-05 0)
(2.99989 7.88867e-05 0)
(2.99977 0.000208186 0)
(2.99939 0.000450715 0)
(3.00007 0.00131669 0)
(2.99735 0.00192714 0)
(2.98834 0.00340703 0)
(2.99973 0.00631845 0)
(2.79126 0.00876286 0)
(2.38967 0.0349398 0)
(1.65635 0.0840743 0)
(0.719964 0.187574 0)
(0.657874 0.202688 0)
(0.72151 0.210717 0)
(0.762021 0.220884 0)
(0.754013 0.231722 0)
(0.724517 0.242414 0)
(0.685685 0.253339 0)
(0.651261 0.265542 0)
(0.621731 0.279558 0)
(0.592317 0.295112 0)
(0.561365 0.311388 0)
(0.529262 0.32713 0)
(0.496622 0.340829 0)
(0.46461 0.351216 0)
(0.433053 0.357552 0)
(0.401164 0.36009 0)
(0.369307 0.359599 0)
(0.337063 0.3572 0)
(0.303864 0.354188 0)
(0.269582 0.351374 0)
(0.233785 0.349466 0)
(0.196466 0.349053 0)
(0.156882 0.350848 0)
(0.114662 0.354913 0)
(0.0677307 0.360129 0)
(0.0270385 0.364028 0)
(3 1.03328e-10 0)
(3 2.17823e-10 0)
(3 1.04322e-09 0)
(3 2.32552e-09 0)
(3 8.78075e-09 0)
(3 2.04698e-08 0)
(3 6.43109e-08 0)
(3 1.52942e-07 0)
(3 4.49208e-07 0)
(3 1.05973e-06 0)
(3 2.71873e-06 0)
(3 7.14696e-06 0)
(3 1.54007e-05 0)
(3 4.63298e-05 0)
(2.99999 9.77666e-05 0)
(2.99999 0.000266831 0)
(2.99982 0.000567201 0)
(3.00065 0.00112741 0)
(2.99832 0.00176603 0)
(2.99038 0.00323397 0)
(3.00203 0.00605259 0)
(2.80312 0.00799979 0)
(2.43793 0.0352319 0)
(1.736 0.0868633 0)
(0.765248 0.199012 0)
(0.664248 0.220001 0)
(0.723661 0.232795 0)
(0.764233 0.24508 0)
(0.755658 0.256557 0)
(0.725234 0.267829 0)
(0.685719 0.279439 0)
(0.651108 0.292635 0)
(0.62166 0.307672 0)
(0.592637 0.324117 0)
(0.562582 0.341115 0)
(0.531954 0.35737 0)
(0.501316 0.371466 0)
(0.471562 0.382131 0)
(0.44235 0.388742 0)
(0.412806 0.391713 0)
(0.383036 0.391913 0)
(0.352594 0.390477 0)
(0.320803 0.388751 0)
(0.28734 0.387639 0)
(0.251672 0.387818 0)
(0.213606 0.389855 0)
(0.172367 0.394342 0)
(0.127362 0.401281 0)
(0.0760202 0.409039 0)
(0.0302825 0.414375 0)
(3 -4.98546e-11 0)
(3 -1.00144e-10 0)
(3 -1.34966e-10 0)
(3 -2.18258e-10 0)
(3 8.32879e-10 0)
(3 1.77677e-09 0)
(3 1.45873e-08 0)
(3 2.36389e-08 0)
(3 1.2678e-07 0)
(3 2.21433e-07 0)
(3 9.22239e-07 0)
(3.00001 1.76821e-06 0)
(3.00002 6.58442e-06 0)
(3.00004 1.23771e-05 0)
(3.0001 4.8053e-05 0)
(3.00022 0.000135692 0)
(3.00022 0.000368569 0)
(3.00122 0.000743931 0)
(2.99935 0.00174472 0)
(2.99258 0.00383891 0)
(3.00435 0.00840016 0)
(2.81604 0.0130141 0)
(2.49089 0.0284857 0)
(1.82421 0.102474 0)
(0.809141 0.208665 0)
(0.668994 0.237692 0)
(0.722199 0.25686 0)
(0.760379 0.27125 0)
(0.750328 0.28306 0)
(0.719402 0.29462 0)
(0.680169 0.306835 0)
(0.646572 0.32084 0)
(0.618334 0.336544 0)
(0.590821 0.353413 0)
(0.56276 0.370631 0)
(0.534681 0.386962 0)
(0.507021 0.401084 0)
(0.480324 0.411958 0)
(0.45415 0.41893 0)
(0.427577 0.422578 0)
(0.400453 0.423898 0)
(0.372237 0.423979 0)
(0.342289 0.42419 0)
(0.310098 0.425608 0)
(0.274907 0.428866 0)
(0.236285 0.434524 0)
(0.193373 0.443092 0)
(0.14511 0.454535 0)
(0.0881271 0.466535 0)
(0.0353182 0.474542 0)
(3 -1.18916e-10 0)
(3 -2.26752e-10 0)
(3 -9.72849e-10 0)
(3 -1.65231e-09 0)
(3 -5.82157e-09 0)
(3 -1.03323e-08 0)
(3 -3.24821e-08 0)
(3 -5.86227e-08 0)
(3 -1.82997e-07 0)
(3 -2.89268e-07 0)
(3 -9.31354e-07 0)
(3.00001 -1.89527e-06 0)
(3.00001 -4.73048e-06 0)
(3.00004 -1.40295e-05 0)
(3.00011 -3.07362e-05 0)
(3.00031 -6.29698e-05 0)
(3.00042 -9.96639e-05 0)
(3.00202 -5.21488e-05 0)
(3.00145 -0.000238863 0)
(2.99732 0.00119037 0)
(3.01101 0.00671663 0)
(2.82215 0.00469559 0)
(2.57776 0.0282501 0)
(1.9649 0.114383 0)
(0.838951 0.226849 0)
(0.668048 0.262309 0)
(0.712695 0.286032 0)
(0.746641 0.299101 0)
(0.735434 0.310324 0)
(0.705382 0.321647 0)
(0.668214 0.334439 0)
(0.637459 0.34895 0)
(0.612227 0.364859 0)
(0.587937 0.38168 0)
(0.563407 0.398704 0)
(0.539102 0.414761 0)
(0.515464 0.428751 0)
(0.492632 0.439814 0)
(0.470014 0.447371 0)
(0.446914 0.452077 0)
(0.422888 0.455042 0)
(0.39733 0.457289 0)
(0.369713 0.460259 0)
(0.339326 0.46511 0)
(0.305168 0.472675 0)
(0.266495 0.483549 0)
(0.222196 0.498204 0)
(0.170505 0.516694 0)
(0.106365 0.536127 0)
(0.0432971 0.549488 0)
(3 -1.88922e-10 0)
(3 -3.52335e-10 0)
(3 -1.52598e-09 0)
(3 -3.00737e-09 0)
(3 -8.33351e-09 0)
(3 -2.12628e-08 0)
(3 -5.71025e-08 0)
(3 -1.26083e-07 0)
(3 -3.67513e-07 0)
(3 -6.93965e-07 0)
(3 -2.27473e-06 0)
(3 -4.0012e-06 0)
(3.00001 -1.35249e-05 0)
(3.00001 -2.2836e-05 0)
(3.00005 -7.76093e-05 0)
(3.00015 -0.000171172 0)
(3.00022 -0.000469919 0)
(3.00104 -0.000858261 0)
(3.00059 -0.00262545 0)
(2.99995 -0.00389997 0)
(3.00832 -0.00218222 0)
(2.84493 -0.0101501 0)
(2.66808 0.0288014 0)
(2.08576 0.0849237 0)
(0.87549 0.26395 0)
(0.665188 0.301177 0)
(0.696462 0.322965 0)
(0.724633 0.32838 0)
(0.715387 0.336554 0)
(0.688564 0.346518 0)
(0.655486 0.359715 0)
(0.628889 0.374562 0)
(0.607958 0.390401 0)
(0.588166 0.406943 0)
(0.568197 0.423607 0)
(0.548498 0.439381 0)
(0.529433 0.45334 0)
(0.510767 0.46473 0)
(0.491973 0.473268 0)
(0.472588 0.479556 0)
(0.451965 0.484726 0)
(0.429441 0.489895 0)
(0.404613 0.496485 0)
(0.376722 0.505827 0)
(0.344541 0.519019 0)
(0.30686 0.536999 0)
(0.262204 0.560507 0)
(0.207843 0.589986 0)
(0.135593 0.622771 0)
(0.0574952 0.648752 0)
(3 -1.94189e-10 0)
(3 -3.55831e-10 0)
(3 -1.51981e-09 0)
(3 -2.72991e-09 0)
(3 -9.95964e-09 0)
(3 -1.74579e-08 0)
(3 -6.39635e-08 0)
(3 -1.08968e-07 0)
(3 -3.96311e-07 0)
(3 -7.14075e-07 0)
(3 -2.37021e-06 0)
(2.99999 -4.05267e-06 0)
(2.99999 -1.28133e-05 0)
(2.99998 -2.21032e-05 0)
(2.99995 -5.87978e-05 0)
(2.99988 -0.00013478 0)
(2.99968 -0.000416034 0)
(2.99971 -0.000710234 0)
(2.99814 -0.00263733 0)
(2.99764 -0.00415903 0)
(3.00474 -0.0116622 0)
(2.86023 -0.0219532 0)
(2.71212 0.0320253 0)
(2.17363 0.0651448 0)
(0.947678 0.329853 0)
(0.660136 0.359095 0)
(0.67862 0.364267 0)
(0.704621 0.359018 0)
(0.703322 0.361893 0)
(0.682304 0.368855 0)
(0.65416 0.381687 0)
(0.63099 0.396594 0)
(0.613628 0.412271 0)
(0.597945 0.428506 0)
(0.582362 0.444847 0)
(0.567029 0.460515 0)
(0.552146 0.474651 0)
(0.537397 0.486655 0)
(0.522265 0.496503 0)
(0.50643 0.505009 0)
(0.489284 0.512975 0)
(0.470128 0.521726 0)
(0.448613 0.532724 0)
(0.424043 0.547531 0)
(0.395232 0.567649 0)
(0.360651 0.594648 0)
(0.318318 0.630291 0)
(0.264578 0.676547 0)
(0.186304 0.733474 0)
(0.0861473 0.791904 0)
(3 -5.59263e-11 0)
(3 -9.19604e-11 0)
(3 -5.36998e-10 0)
(3 -6.52395e-10 0)
(3 -5.16889e-09 0)
(3 -2.6047e-09 0)
(3 -2.80518e-08 0)
(3 -2.19668e-08 0)
(3 -1.48676e-07 0)
(3 -2.05937e-07 0)
(3 -7.2937e-07 0)
(2.99999 -1.33311e-06 0)
(2.99999 -3.32572e-06 0)
(2.99996 -5.75178e-06 0)
(2.99992 -2.16027e-05 0)
(2.99975 -2.8629e-05 0)
(2.99959 -0.000135997 0)
(2.99857 -0.000112506 0)
(2.99678 -0.00109464 0)
(2.98966 -0.00083171 0)
(2.98859 -0.00716631 0)
(2.88845 -0.0179248 0)
(2.78316 0.0460569 0)
(2.33324 0.0812042 0)
(1.09526 0.380903 0)
(0.691971 0.422126 0)
(0.684914 0.406387 0)
(0.710329 0.389278 0)
(0.714469 0.384692 0)
(0.698095 0.38842 0)
(0.674022 0.400033 0)
(0.652227 0.415177 0)
(0.636296 0.430766 0)
(0.62299 0.446601 0)
(0.610433 0.462571 0)
(0.598319 0.47811 0)
(0.586522 0.492416 0)
(0.574732 0.505158 0)
(0.562814 0.51672 0)
(0.550197 0.527698 0)
(0.536194 0.538788 0)
(0.520514 0.551401 0)
(0.502851 0.567131 0)
(0.482751 0.587791 0)
(0.459345 0.615452 0)
(0.431467 0.652748 0)
(0.397253 0.703382 0)
(0.353293 0.774155 0)
(0.282786 0.876706 0)
(0.153092 1.04281 0)
(3 1.47634e-10 0)
(3 -3.23994e-11 0)
(3 4.07625e-10 0)
(3 -2.50405e-10 0)
(3 1.97975e-09 0)
(3 -5.25981e-10 0)
(3 1.14638e-08 0)
(3 1.09377e-08 0)
(3 5.75785e-08 0)
(3 1.13602e-07 0)
(3 2.83881e-07 0)
(2.99999 4.56869e-07 0)
(2.99999 1.52073e-06 0)
(2.99995 2.38883e-06 0)
(2.99992 7.27405e-06 0)
(2.99975 1.14995e-05 0)
(2.99958 3.99737e-05 0)
(2.99863 5.43359e-05 0)
(2.99746 0.000216051 0)
(2.99106 0.000806358 0)
(2.98548 0.00238755 0)
(2.92319 0.000284423 0)
(2.85681 0.0423092 0)
(2.49203 0.0816147 0)
(1.34495 0.330268 0)
(0.812523 0.468115 0)
(0.733702 0.458654 0)
(0.754837 0.434666 0)
(0.767696 0.416421 0)
(0.759342 0.41508 0)
(0.740946 0.423424 0)
(0.720218 0.437223 0)
(0.702974 0.452239 0)
(0.689499 0.467382 0)
(0.67787 0.482741 0)
(0.666925 0.497812 0)
(0.656429 0.512214 0)
(0.646699 0.526244 0)
(0.637269 0.540215 0)
(0.627239 0.554223 0)
(0.616498 0.569237 0)
(0.605173 0.586587 0)
(0.593346 0.607921 0)
(0.581191 0.635289 0)
(0.569222 0.671133 0)
(0.558448 0.719021 0)
(0.552231 0.784138 0)
(0.559788 0.875394 0)
(0.61127 1.00579 0)
(0.680795 1.20466 0)
(3 1.35629e-10 0)
(3 7.00492e-11 0)
(3 6.85265e-10 0)
(3 4.58433e-10 0)
(3 3.55573e-09 0)
(3 2.20049e-09 0)
(3 1.98399e-08 0)
(3 9.83311e-09 0)
(3 1.065e-07 0)
(3 2.92653e-08 0)
(3 5.73523e-07 0)
(2.99999 5.25778e-10 0)
(2.99999 2.98552e-06 0)
(2.99997 -1.54151e-06 0)
(2.99994 1.40101e-05 0)
(2.99981 -1.55076e-05 0)
(2.99966 5.90407e-05 0)
(2.99885 -0.000128324 0)
(2.99792 0.000162579 0)
(2.99302 -0.00094436 0)
(2.98827 0.00262 0)
(2.94809 0.00211307 0)
(2.91572 0.0344066 0)
(2.63484 0.0719753 0)
(1.73769 0.253907 0)
(1.07659 0.510627 0)
(0.81533 0.509164 0)
(0.814283 0.477979 0)
(0.837926 0.452879 0)
(0.848315 0.44861 0)
(0.836087 0.455591 0)
(0.815308 0.467046 0)
(0.79418 0.480853 0)
(0.776575 0.494788 0)
(0.761867 0.508837 0)
(0.748745 0.522579 0)
(0.737556 0.536398 0)
(0.728099 0.550954 0)
(0.719081 0.566033 0)
(0.710137 0.581926 0)
(0.701786 0.59955 0)
(0.69441 0.620165 0)
(0.688723 0.645216 0)
(0.685674 0.676495 0)
(0.68704 0.716213 0)
(0.696411 0.767194 0)
(0.720147 0.833276 0)
(0.76909 0.918953 0)
(0.882784 1.02608 0)
(1.03894 1.14738 0)
(3 2.94742e-12 0)
(3 3.2064e-10 0)
(3 7.03814e-10 0)
(3 2.27116e-09 0)
(3 4.43145e-09 0)
(3 1.16428e-08 0)
(3 2.35435e-08 0)
(3 4.7976e-08 0)
(3 1.32596e-07 0)
(3 1.97502e-07 0)
(3 7.61371e-07 0)
(3 1.15367e-06 0)
(2.99998 4.1783e-06 0)
(2.99997 5.88805e-06 0)
(2.9999 2.17873e-05 0)
(2.99983 3.05717e-05 0)
(2.99939 0.000112011 0)
(2.99881 0.00015783 0)
(2.9961 0.000636694 0)
(2.99511 0.000826949 0)
(2.99054 0.0045194 0)
(2.97451 0.00618313 0)
(2.97816 0.0281453 0)
(2.75264 0.0580642 0)
(2.18789 0.184256 0)
(1.44451 0.442922 0)
(0.870771 0.501576 0)
(0.836787 0.492022 0)
(0.87705 0.481807 0)
(0.909306 0.48233 0)
(0.906824 0.492529 0)
(0.889161 0.504957 0)
(0.868846 0.518243 0)
(0.849935 0.53096 0)
(0.833855 0.543325 0)
(0.820036 0.555413 0)
(0.809541 0.567998 0)
(0.801167 0.581838 0)
(0.793366 0.596732 0)
(0.786489 0.61317 0)
(0.781431 0.631899 0)
(0.778925 0.653927 0)
(0.779859 0.680385 0)
(0.785857 0.712403 0)
(0.799364 0.751508 0)
(0.824374 0.799002 0)
(0.867559 0.856042 0)
(0.935596 0.9227 0)
(1.05376 0.994868 0)
(1.20476 1.0526 0)
(3 -6.41936e-12 0)
(3 1.24654e-10 0)
(3 2.47918e-10 0)
(3 9.64949e-10 0)
(3 1.78549e-09 0)
(3 5.666e-09 0)
(3 9.83318e-09 0)
(3 3.34923e-08 0)
(3 5.99502e-08 0)
(3 2.15509e-07 0)
(3 3.32645e-07 0)
(3 1.64204e-06 0)
(3 1.65599e-06 0)
(3 7.58944e-06 0)
(2.99998 1.25038e-05 0)
(2.99996 6.17462e-05 0)
(2.99987 8.43961e-05 0)
(2.99973 0.000349489 0)
(2.99903 0.000703736 0)
(2.9995 0.00253939 0)
(2.99713 0.00378607 0)
(2.98903 0.00787367 0)
(2.99925 0.0171864 0)
(2.81181 0.0230492 0)
(2.48045 0.0898121 0)
(1.82498 0.25293 0)
(0.933498 0.463246 0)
(0.825965 0.497661 0)
(0.869643 0.512878 0)
(0.917479 0.518494 0)
(0.929629 0.529185 0)
(0.918907 0.541977 0)
(0.902621 0.554342 0)
(0.886906 0.56586 0)
(0.873929 0.576883 0)
(0.863472 0.587847 0)
(0.857023 0.599551 0)
(0.852796 0.612542 0)
(0.84896 0.626935 0)
(0.846473 0.643117 0)
(0.846463 0.661757 0)
(0.849901 0.68346 0)
(0.857814 0.709062 0)
(0.87192 0.739123 0)
(0.894788 0.774292 0)
(0.929522 0.814725 0)
(0.981299 0.859814 0)
(1.05413 0.907535 0)
(1.16242 0.953689 0)
(1.29117 0.984336 0)
(3 -2.60794e-11 0)
(3 -4.697e-11 0)
(3 -1.82544e-10 0)
(3 -3.34236e-10 0)
(3 -1.06822e-09 0)
(3 -1.97881e-09 0)
(3 -5.86801e-09 0)
(3 -1.02747e-08 0)
(3 -3.12204e-08 0)
(3 -4.51641e-08 0)
(3 -1.51201e-07 0)
(3 -1.58537e-07 0)
(2.99999 -7.45496e-07 0)
(2.99999 -3.5866e-08 0)
(2.99999 -2.74277e-06 0)
(2.99995 4.20018e-06 0)
(2.99987 -3.02928e-06 0)
(2.99984 3.50529e-05 0)
(2.99976 1.35126e-05 0)
(3.00023 0.000369018 0)
(2.9995 -0.000535268 0)
(2.99751 0.00047077 0)
(3.00272 0.000159275 0)
(2.86343 -0.00863338 0)
(2.69694 0.0650704 0)
(2.16405 0.170986 0)
(1.04164 0.49574 0)
(0.807022 0.544104 0)
(0.838301 0.553233 0)
(0.886763 0.553007 0)
(0.914273 0.558009 0)
(0.913989 0.567726 0)
(0.904108 0.578249 0)
(0.893908 0.589267 0)
(0.886358 0.599835 0)
(0.881681 0.610589 0)
(0.881183 0.622378 0)
(0.882683 0.635105 0)
(0.884433 0.649202 0)
(0.887668 0.66518 0)
(0.893677 0.683521 0)
(0.903509 0.704491 0)
(0.918255 0.728472 0)
(0.939262 0.755611 0)
(0.968723 0.785876 0)
(1.0089 0.818869 0)
(1.06329 0.853471 0)
(1.13435 0.887415 0)
(1.23098 0.917522 0)
(1.34038 0.935372 0)
(3 1.96067e-12 0)
(3 1.92657e-11 0)
(3 2.95503e-11 0)
(3 2.00085e-10 0)
(3 3.25677e-10 0)
(3 1.77189e-09 0)
(3 2.12511e-09 0)
(3 1.18101e-08 0)
(3 1.06034e-08 0)
(3 6.36267e-08 0)
(3 7.65249e-08 0)
(3 6.22735e-08 0)
(3 8.23832e-07 0)
(2.99999 2.96776e-06 0)
(2.99999 3.35942e-06 0)
(2.99996 3.99496e-06 0)
(2.99993 1.81642e-05 0)
(2.99975 5.24308e-05 0)
(2.99959 3.04351e-05 0)
(2.99858 3.77531e-05 0)
(2.99729 -0.000590119 0)
(2.99021 -3.41143e-05 0)
(2.98501 -0.000178762 0)
(2.91814 -0.00443309 0)
(2.85227 0.0871987 0)
(2.48328 0.0774862 0)
(1.35473 0.503818 0)
(0.904277 0.580481 0)
(0.857128 0.586114 0)
(0.891574 0.583272 0)
(0.919741 0.580289 0)
(0.921025 0.585223 0)
(0.911964 0.593637 0)
(0.902731 0.603557 0)
(0.896272 0.613827 0)
(0.894713 0.625034 0)
(0.897863 0.637044 0)
(0.903061 0.649479 0)
(0.909441 0.663077 0)
(0.917955 0.678385 0)
(0.929355 0.695693 0)
(0.944471 0.715238 0)
(0.96435 0.737099 0)
(0.990126 0.76125 0)
(1.02355 0.787349 0)
(1.06631 0.814613 0)
(1.12062 0.841772 0)
(1.18797 0.866876 0)
(1.2741 0.887574 0)
(1.36833 0.898762 0)
(3 1.43571e-11 0)
(3 3.20886e-12 0)
(3 5.62805e-11 0)
(3 2.53138e-11 0)
(3 3.20334e-10 0)
(3 1.58629e-10 0)
(3 2.1235e-09 0)
(3 9.33724e-10 0)
(3 1.35641e-08 0)
(3 8.03795e-09 0)
(3 8.64794e-08 0)
(3 6.59655e-08 0)
(3 5.56546e-07 0)
(3 4.74648e-07 0)
(2.99999 3.34988e-06 0)
(2.99997 2.33463e-06 0)
(2.99995 1.85811e-05 0)
(2.99986 1.51239e-05 0)
(2.99973 0.000108874 0)
(2.9992 9.09954e-05 0)
(2.99937 0.00065832 0)
(2.99822 0.000751906 0)
(2.99565 0.00480346 0)
(3.00326 0.00335572 0)
(2.84463 0.0449433 0)
(2.67779 0.0376767 0)
(2.07962 0.255565 0)
(1.0148 0.584457 0)
(0.881921 0.618196 0)
(0.897676 0.616703 0)
(0.924857 0.608473 0)
(0.935909 0.606996 0)
(0.930632 0.611698 0)
(0.922385 0.618985 0)
(0.917426 0.627979 0)
(0.916958 0.638371 0)
(0.920156 0.649323 0)
(0.925975 0.660718 0)
(0.934064 0.673114 0)
(0.944793 0.68686 0)
(0.958913 0.70221 0)
(0.977185 0.7194 0)
(1.0004 0.738444 0)
(1.02942 0.759217 0)
(1.06516 0.781181 0)
(1.10851 0.803571 0)
(1.16106 0.825274 0)
(1.2237 0.844886 0)
(1.30067 0.860488 0)
(1.38316 0.868581 0)