/*--------------------------------*- C++ -*----------------------------------*\
| =========                 |                                                 |
| \\      /  F ield         | OpenFOAM: The Open Source CFD Toolbox           |
|  \\    /   O peration     | Version:  2412                                  |
|   \\  /    A nd           | Website:  www.openfoam.com                      |
|    \\/     M anipulation  |                                                 |
\*---------------------------------------------------------------------------*/
FoamFile
{
    version     2.0;
    format      ascii;
    arch        "LSB;label=32;scalar=64";
    class       volScalarField;
    location    "29";
    object      p;
}
// * * * * * * * * * * * * * * * * * * * * * * * * * * * * * * * * * * * * * //

dimensions      [1 -1 -2 0 0 0 0];

internalField   nonuniform List<scalar> 
7000
(
1.63885
3.75693
11.456
11.5283
11.0978
10.6883
10.5696
10.5842
10.6252
10.6649
10.6867
10.7005
10.715
10.7327
10.7531
10.7753
10.7991
10.8245
10.8517
10.8807
10.9116
10.9442
10.9788
11.0151
11.0533
11.0934
11.1353
11.1789
11.2243
11.2714
11.32
11.3701
11.4215
11.4741
11.5276
11.5818
11.6364
11.691
11.7453
11.7987
11.8507
11.9007
11.9481
11.9923
12.0326
12.0682
12.0985
12.123
12.1406
12.1536
1.63915
3.75564
11.4555
11.5277
11.0973
10.6879
10.5692
10.5838
10.6248
10.6645
10.6862
10.7
10.7145
10.7322
10.7525
10.7747
10.7985
10.8239
10.8511
10.8801
10.9109
10.9435
10.978
11.0143
11.0525
11.0925
11.1344
11.178
11.2233
11.2703
11.3189
11.369
11.4204
11.473
11.5265
11.5807
11.6353
11.6899
11.7441
11.7975
11.8496
11.8997
11.9472
11.9915
12.0319
12.0676
12.098
12.1226
12.1403
12.1533
1.63904
3.7547
11.4536
11.5268
11.0966
10.6872
10.5685
10.5831
10.624
10.6636
10.6853
10.699
10.7134
10.7311
10.7514
10.7735
10.7972
10.8226
10.8497
10.8786
10.9093
10.9418
10.9762
11.0125
11.0505
11.0904
11.1322
11.1757
11.2209
11.2678
11.3162
11.3661
11.4174
11.4698
11.5232
11.5772
11.6316
11.6861
11.7403
11.7936
11.8456
11.8956
11.9431
11.9874
12.0277
12.0635
12.0939
12.1185
12.1361
12.1491
1.63892
3.75342
11.4503
11.5257
11.0957
10.6861
10.5673
10.5819
10.6227
10.6621
10.6837
10.6973
10.7117
10.7293
10.7495
10.7715
10.7951
10.8204
10.8474
10.8761
10.9067
10.9392
10.9734
11.0095
11.0474
11.0871
11.1286
11.1719
11.2169
11.2636
11.3118
11.3615
11.4125
11.4647
11.5178
11.5716
11.6258
11.6801
11.734
11.7871
11.8389
11.8888
11.9362
11.9804
12.0207
12.0565
12.0869
12.1115
12.129
12.1419
1.63874
3.75154
11.4456
11.5243
11.0944
10.6845
10.5656
10.5801
10.6208
10.6601
10.6815
10.695
10.7093
10.7268
10.7468
10.7687
10.7922
10.8173
10.8441
10.8727
10.9031
10.9354
10.9694
11.0052
11.0429
11.0824
11.1236
11.1666
11.2113
11.2577
11.3056
11.3549
11.4056
11.4574
11.5101
11.5635
11.6174
11.6713
11.7249
11.7777
11.8293
11.879
11.9262
11.9703
12.0105
12.0462
12.0766
12.1012
12.1186
12.1316
1.63852
3.74902
11.4393
11.5225
11.0927
10.6824
10.5634
10.5778
10.6184
10.6574
10.6787
10.692
10.7061
10.7234
10.7433
10.765
10.7883
10.8132
10.8398
10.8682
10.8984
10.9303
10.9641
10.9996
11.037
11.0761
11.117
11.1596
11.2039
11.2498
11.2972
11.3461
11.3963
11.4476
11.4998
11.5527
11.6061
11.6595
11.7126
11.765
11.8162
11.8656
11.9125
11.9564
11.9965
12.0321
12.0625
12.0871
12.1045
12.1176
1.63826
3.74579
11.4314
11.5203
11.0907
10.6797
10.5605
10.5748
10.6152
10.654
10.675
10.6882
10.7021
10.7192
10.7389
10.7604
10.7834
10.808
10.8344
10.8625
10.8923
10.9239
10.9573
10.9925
11.0294
11.0681
11.1085
11.1506
11.1944
11.2398
11.2866
11.3349
11.3844
11.435
11.4866
11.5389
11.5915
11.6443
11.6968
11.7486
11.7992
11.8481
11.8947
11.9382
11.9781
12.0136
12.0439
12.0686
12.086
12.0993
1.63794
3.74179
11.4217
11.5176
11.0882
10.6765
10.5569
10.5712
10.6113
10.6498
10.6706
10.6835
10.6972
10.714
10.7334
10.7546
10.7774
10.8017
10.8277
10.8554
10.8849
10.9161
10.949
10.9837
11.0201
11.0583
11.0981
11.1396
11.1827
11.2274
11.2735
11.321
11.3697
11.4195
11.4702
11.5216
11.5734
11.6254
11.677
11.728
11.7779
11.8262
11.8721
11.9153
11.9548
11.9901
12.0203
12.045
12.0624
12.0759
1.63757
3.73699
11.4101
11.5143
11.0852
10.6727
10.5526
10.5667
10.6066
10.6447
10.6652
10.6778
10.6912
10.7077
10.7268
10.7477
10.7701
10.794
10.8196
10.8469
10.8759
10.9066
10.939
10.9731
11.0089
11.0464
11.0855
11.1263
11.1686
11.2124
11.2576
11.3041
11.3519
11.4007
11.4503
11.5006
11.5514
11.6022
11.6528
11.7028
11.7517
11.799
11.8442
11.8867
11.9257
11.9606
11.9906
12.0153
12.0327
12.0466
1.63714
3.73132
11.3966
11.5104
11.0817
10.6682
10.5474
10.5614
10.6009
10.6387
10.6588
10.671
10.6841
10.7003
10.719
10.7395
10.7614
10.7849
10.81
10.8368
10.8652
10.8953
10.9271
10.9605
10.9956
11.0323
11.0706
11.1104
11.1518
11.1946
11.2387
11.2841
11.3306
11.3782
11.4265
11.4755
11.5249
11.5743
11.6236
11.6722
11.7198
11.766
11.8101
11.8516
11.8899
11.9243
11.9539
11.9785
11.996
12.0101
1.63665
3.72473
11.3808
11.5059
11.0776
10.6629
10.5414
10.5552
10.5943
10.6316
10.6512
10.6631
10.6758
10.6916
10.7098
10.7298
10.7513
10.7742
10.7988
10.825
10.8528
10.8822
10.9132
10.9458
10.9801
11.0158
11.0531
11.0919
11.1321
11.1737
11.2165
11.2606
11.3057
11.3517
11.3985
11.4458
11.4935
11.5412
11.5887
11.6356
11.6816
11.7261
11.7688
11.809
11.8461
11.8796
11.9087
11.933
11.9503
11.965
1.6361
3.71719
11.3628
11.5008
11.0729
10.6569
10.5345
10.548
10.5865
10.6234
10.6425
10.6539
10.6662
10.6814
10.6992
10.7187
10.7395
10.7619
10.7858
10.8113
10.8384
10.867
10.8972
10.9289
10.9621
10.9968
11.0329
11.0704
11.1093
11.1495
11.1908
11.2332
11.2766
11.3208
11.3657
11.4111
11.4567
11.5023
11.5476
11.5923
11.6361
11.6785
11.7191
11.7574
11.7929
11.825
11.8531
11.8769
11.894
11.909
1.63548
3.70867
11.3425
11.4949
11.0675
10.65
10.5265
10.5397
10.5776
10.6139
10.6325
10.6434
10.6551
10.6698
10.687
10.7058
10.7261
10.7478
10.7709
10.7956
10.8218
10.8496
10.8787
10.9094
10.9414
10.9749
11.0097
11.0458
11.0831
11.1216
11.1612
11.2018
11.2431
11.2852
11.3278
11.3708
11.4139
11.4569
11.4995
11.5414
11.5823
11.6219
11.6597
11.6953
11.7283
11.7583
11.7846
11.8072
11.8238
11.8394
1.63481
3.6991
11.3198
11.4881
11.0613
10.6422
10.5174
10.5302
10.5674
10.603
10.621
10.6313
10.6424
10.6565
10.6731
10.6912
10.7107
10.7317
10.754
10.7778
10.8031
10.8298
10.8578
10.8873
10.918
10.9501
10.9833
11.0178
11.0534
11.09
11.1275
11.1659
11.2049
11.2445
11.2844
11.3245
11.3646
11.4043
11.4436
11.4819
11.5192
11.5549
11.5888
11.6206
11.6499
11.6766
11.7001
11.7207
11.7359
11.7518
1.63408
3.68847
11.2948
11.4805
11.0543
10.6336
10.5072
10.5195
10.5558
10.5906
10.6079
10.6176
10.628
10.6415
10.6573
10.6747
10.6934
10.7135
10.7349
10.7577
10.7819
10.8074
10.8342
10.8623
10.8916
10.922
10.9536
10.9862
11.0198
11.0542
11.0894
11.1252
11.1615
11.1982
11.2349
11.2717
11.3081
11.3439
11.3789
11.4128
11.4453
11.476
11.5046
11.5309
11.5547
11.5759
11.5945
11.6112
11.624
11.6402
1.63329
3.67686
11.2673
11.4722
11.0467
10.6239
10.4956
10.5074
10.5426
10.5765
10.5931
10.6021
10.6118
10.6245
10.6395
10.6561
10.6739
10.693
10.7134
10.7351
10.7581
10.7823
10.8078
10.8343
10.862
10.8907
10.9203
10.9508
10.9821
11.0141
11.0466
11.0795
11.1127
11.146
11.179
11.2117
11.2438
11.2749
11.3047
11.333
11.3593
11.3833
11.4048
11.4234
11.439
11.4518
11.4623
11.4717
11.479
11.4938
1.63243
3.66431
11.2376
11.4631
11.0383
10.6131
10.4827
10.4937
10.5276
10.5606
10.5764
10.5847
10.5936
10.6054
10.6196
10.6352
10.6521
10.6702
10.6895
10.71
10.7316
10.7545
10.7783
10.8032
10.829
10.8557
10.8832
10.9114
10.9402
10.9694
10.9989
11.0286
11.0582
11.0875
11.1163
11.1443
11.1712
11.1966
11.2202
11.2414
11.26
11.2752
11.2869
11.2946
11.2977
11.297
11.2936
11.2893
11.2853
11.296
1.63153
3.65094
11.2057
11.4532
11.0291
10.6012
10.468
10.4783
10.5107
10.5426
10.5576
10.5651
10.5731
10.5841
10.5973
10.612
10.6278
10.6447
10.6628
10.682
10.7023
10.7235
10.7457
10.7688
10.7926
10.8171
10.8422
10.8678
10.8938
10.9199
10.946
10.972
10.9976
11.0225
11.0464
11.069
11.0898
11.1085
11.1245
11.1371
11.146
11.1498
11.1482
11.1412
11.1263
11.1044
11.0765
11.0458
11.0156
11.0119
1.6306
3.63691
11.1723
11.4428
11.0192
10.5879
10.4517
10.461
10.4916
10.5224
10.5366
10.5432
10.5504
10.5604
10.5726
10.5863
10.601
10.6167
10.6335
10.6512
10.6699
10.6895
10.7098
10.7309
10.7525
10.7747
10.7972
10.8199
10.8428
10.8655
10.888
10.9098
10.9309
10.9508
10.9692
10.9856
10.9995
11.0103
11.0174
11.0194
11.0165
11.007
10.9876
10.9585
10.9177
10.8635
10.7942
10.7122
10.6217
10.5663
1.62964
3.62251
11.1381
11.4317
11.0084
10.5731
10.433
10.4411
10.4697
10.4993
10.5127
10.5185
10.5249
10.5339
10.5451
10.5576
10.5712
10.5856
10.601
10.6173
10.6343
10.6521
10.6704
10.6893
10.7086
10.7282
10.7478
10.7675
10.787
10.806
10.8243
10.8417
10.8578
10.8721
10.8843
10.8938
10.9
10.9014
10.8987
10.8897
10.8712
10.8429
10.8021
10.7458
10.669
10.5659
10.428
10.247
10.0132
9.75881
1.62884
3.60421
11.0974
11.4185
10.9948
10.5538
10.4081
10.4148
10.4406
10.4688
10.4814
10.4863
10.4915
10.4993
10.5091
10.5203
10.5323
10.5452
10.5588
10.5731
10.5881
10.6035
10.6193
10.6355
10.6518
10.668
10.6841
10.6999
10.7151
10.7294
10.7425
10.7541
10.7638
10.7712
10.7753
10.7753
10.7724
10.7635
10.7455
10.7187
10.681
10.6289
10.5581
10.462
10.3311
10.1487
9.88565
9.48045
8.7821
7.25989
1.62804
3.58472
11.0542
11.4012
10.9757
10.5255
10.3719
10.3766
10.3991
10.4266
10.439
10.4434
10.4477
10.4543
10.4629
10.4726
10.4831
10.4942
10.5058
10.5178
10.5303
10.543
10.5559
10.5687
10.5814
10.5938
10.6056
10.6167
10.6267
10.6353
10.6423
10.6471
10.6489
10.648
10.6438
10.6338
10.6168
10.5924
10.5586
10.513
10.4524
10.3722
10.2657
10.1234
9.93036
9.66268
9.27885
8.70991
7.86762
6.48138
1.62758
3.57345
11.0294
11.3896
10.9602
10.4972
10.3328
10.335
10.3538
10.381
10.3935
10.3973
10.4003
10.4056
10.4128
10.4211
10.4299
10.4391
10.4486
10.4584
10.4683
10.4782
10.488
10.4975
10.5065
10.5148
10.5222
10.5285
10.5332
10.536
10.5362
10.5347
10.5299
10.5197
10.5042
10.4829
10.4539
10.4157
10.3661
10.3021
10.2197
10.1138
9.97649
9.79782
9.56247
9.24927
8.82902
8.26149
7.52965
6.5567
1.62695
3.56424
11.0061
11.3683
10.9321
10.4517
10.2778
10.28
10.3004
10.331
10.345
10.3485
10.3507
10.355
10.3612
10.3682
10.3755
10.3829
10.3903
10.3978
10.4051
10.4122
10.4189
10.425
10.4303
10.4346
10.4377
10.439
10.4386
10.4365
10.4312
10.4217
10.4083
10.39
10.3658
10.3346
10.2947
10.2443
10.1808
10.1014
10.002
9.87743
9.72095
9.52375
9.27468
8.95992
8.56487
8.07381
7.49348
6.76446
1.62767
3.5986
11.0675
11.3656
10.9047
10.3861
10.2008
10.2061
10.2343
10.2721
10.2886
10.2922
10.2939
10.2975
10.3031
10.3093
10.3154
10.3213
10.327
10.3324
10.3375
10.342
10.3459
10.3489
10.3509
10.3513
10.3507
10.3483
10.3432
10.335
10.3236
10.3083
10.2885
10.2632
10.2313
10.1917
10.1426
10.0823
10.0085
9.91817
9.80793
9.67337
9.50917
9.30903
9.06565
8.7713
8.41873
8.00078
7.51986
6.96886
1.58996
3.70905
11.0724
11.2744
10.8239
10.3046
10.1317
10.1418
10.1784
10.2183
10.2347
10.2385
10.2405
10.2442
10.249
10.2539
10.2584
10.2625
10.266
10.2691
10.2716
10.2733
10.2742
10.2739
10.2728
10.27
10.2647
10.2574
10.2476
10.2347
10.2182
10.1976
10.1721
10.1407
10.1024
10.0559
9.99989
9.93246
9.85166
9.75495
9.63944
9.50172
9.33793
9.14372
8.91467
8.64631
8.33531
7.97901
7.57938
7.13174
1.55516
4.81622
11.2234
10.9534
10.3122
10.0553
10.051
10.0776
10.125
10.1515
10.1612
10.1654
10.1696
10.1747
10.1798
10.1844
10.1882
10.1914
10.1938
10.1953
10.1959
10.1957
10.1947
10.1922
10.1877
10.1818
10.174
10.1639
10.1509
10.1343
10.1139
10.0888
10.0587
10.0224
9.97917
9.92778
9.86699
9.79519
9.71062
9.61124
9.49475
9.35859
9.20003
9.01617
8.80431
8.56201
8.28781
7.9817
7.64503
7.27057
1.55605
4.8232
11.1732
10.8843
10.2397
10.0003
10.0105
10.053
10.1015
10.1232
10.1292
10.1317
10.1347
10.138
10.1406
10.1421
10.1428
10.1427
10.1421
10.1403
10.1372
10.1332
10.1283
10.122
10.1141
10.1042
10.0919
10.0772
10.0597
10.0389
10.0145
9.98589
9.95217
9.91229
9.86534
9.81047
9.74646
9.67206
9.58589
9.4863
9.37155
9.23974
9.08895
8.91725
8.72301
8.50482
8.26197
7.99396
7.70708
7.39105
1.5662
4.84231
11.2358
10.9042
10.1834
9.92289
9.93801
9.99277
10.0501
10.0745
10.0809
10.0836
10.0869
10.0903
10.0926
10.0936
10.0935
10.0926
10.0901
10.086
10.0808
10.0745
10.0669
10.0575
10.0463
10.033
10.0175
9.99938
9.97841
9.95415
9.92594
9.89315
9.8552
9.8117
9.76192
9.70481
9.63943
9.56437
9.47843
9.38034
9.26894
9.14276
9.00061
8.84117
8.66347
8.46682
8.25153
8.01742
7.76832
7.4979
1.55652
4.82049
11.1599
10.8524
10.1593
9.89811
9.9102
9.9595
10.0157
10.0399
10.0455
10.047
10.049
10.0508
10.0515
10.0511
10.0495
10.0461
10.0413
10.0354
10.0283
10.0198
10.0097
9.99791
9.98408
9.96809
9.94964
9.92855
9.90441
9.87693
9.84555
9.80986
9.76938
9.72341
9.67132
9.61218
9.54528
9.46981
9.38497
9.28967
9.18298
9.06365
8.93067
8.78324
8.62107
8.44408
8.25247
8.04565
7.82725
7.59253
1.52734
4.76287
10.9524
10.7278
10.1508
9.9027
9.90364
9.93308
9.98174
10.005
10.0107
10.0115
10.0121
10.0124
10.0119
10.0102
10.0066
10.0015
9.99523
9.98784
9.97901
9.96862
9.95647
9.94247
9.92636
9.90807
9.88724
9.86373
9.83711
9.80713
9.77341
9.73551
9.69297
9.6452
9.59172
9.53186
9.46498
9.39034
9.30726
9.21488
9.11241
8.9993
8.87502
8.73912
8.5911
8.43064
8.25787
8.07492
7.88222
7.67624
1.51127
4.71737
10.8692
10.7329
10.234
9.94128
9.88954
9.90789
9.94734
9.97142
9.97814
9.97786
9.97669
9.97438
9.97148
9.96765
9.96256
9.9562
9.94855
9.93957
9.92908
9.91699
9.90311
9.88738
9.86953
9.84946
9.82682
9.80149
9.77309
9.74137
9.706
9.66658
9.62279
9.57412
9.52007
9.46016
9.39389
9.32069
9.24001
9.15121
9.05374
8.94713
8.831
8.70499
8.569
8.42312
8.26768
8.10336
7.9314
7.74881
1.6681
3.29282
10.5076
11.013
10.5971
10.0773
9.88919
9.89316
9.91843
9.95148
9.96219
9.96102
9.95706
9.95071
9.94486
9.93893
9.93202
9.92377
9.91411
9.90304
9.89048
9.87626
9.86024
9.84243
9.82255
9.80041
9.77574
9.7484
9.71807
9.68454
9.6475
9.6066
9.56149
9.51178
9.4571
9.3971
9.33143
9.25964
9.18129
9.09596
9.00316
8.90257
8.79395
8.67705
8.55186
8.41852
8.27734
8.1288
7.97409
7.81071
1.67602
3.16922
10.4419
11.1647
10.7159
10.1122
9.86741
9.85458
9.87233
9.9045
9.91493
9.91306
9.90705
9.8977
9.89007
9.88354
9.87659
9.86838
9.85871
9.84756
9.83488
9.82053
9.80438
9.78623
9.76596
9.74338
9.71822
9.69034
9.65944
9.62538
9.58782
9.54658
9.50139
9.45198
9.39809
9.3393
9.27522
9.2055
9.12984
9.04781
8.9592
8.86384
8.76169
8.65289
8.53726
8.41488
8.28594
8.1509
8.01071
7.86327
1.64118
3.05471
9.91305
11.0087
10.6487
10.1098
9.88669
9.86584
9.87681
9.89513
9.89679
9.89284
9.88268
9.86931
9.85814
9.84844
9.83864
9.82788
9.8159
9.80267
9.7881
9.77206
9.75438
9.7349
9.71342
9.68979
9.66379
9.63518
9.6037
9.56918
9.53143
9.4902
9.44527
9.39635
9.34318
9.28546
9.22291
9.15527
9.08231
9.00392
8.91998
8.83029
8.73464
8.63289
8.52493
8.41115
8.29237
8.1689
8.04122
7.90737
1.43608
4.54913
10.3369
10.5123
10.2198
9.92519
9.8172
9.81459
9.82287
9.83337
9.83328
9.82975
9.8207
9.80873
9.79848
9.78935
9.77986
9.76924
9.75733
9.74413
9.72958
9.71352
9.6958
9.67625
9.65473
9.63105
9.60508
9.57652
9.54524
9.51113
9.47394
9.43341
9.38935
9.34154
9.28977
9.2338
9.17341
9.10843
9.03868
8.96402
8.88434
8.79951
8.70948
8.61424
8.51422
8.40947
8.29991
8.18575
8.06801
7.94522
1.63352
3.00324
9.72797
10.8965
10.5816
10.0814
9.8619
9.82764
9.833
9.83948
9.83672
9.82757
9.81089
9.79508
9.78147
9.76891
9.75608
9.74225
9.72722
9.71112
9.69394
9.67545
9.65548
9.63386
9.61043
9.58505
9.55756
9.52791
9.49594
9.46133
9.42387
9.38336
9.33965
9.29259
9.24195
9.1875
9.12908
9.06651
8.99966
8.92841
8.85267
8.7724
8.68762
8.59835
8.50474
8.40692
8.30502
8.19945
8.0908
7.97781
1.64238
2.93513
9.72938
11.0214
10.6401
10.0491
9.7919
9.7584
9.76855
9.7842
9.78311
9.77597
9.76001
9.74291
9.72907
9.71694
9.70469
9.6916
9.67748
9.6621
9.64533
9.62712
9.60737
9.58596
9.56276
9.53763
9.51041
9.48096
9.44914
9.41478
9.37773
9.33786
9.29498
9.24887
9.19941
9.14647
9.08994
9.0297
8.96563
8.89766
8.82572
8.74976
8.66978
8.58583
8.498
8.40643
8.31131
8.21311
8.11224
8.00746
1.64069
2.91583
9.67487
10.9999
10.615
10.009
9.74243
9.70734
9.71848
9.73681
9.7363
9.73006
9.71508
9.69748
9.68336
9.67129
9.6592
9.64614
9.63186
9.61631
9.59943
9.58113
9.56133
9.53989
9.5167
9.49162
9.46452
9.43528
9.40377
9.36985
9.3334
9.29427
9.25232
9.20741
9.1594
9.10819
9.0537
8.99584
8.93453
8.86972
8.80133
8.72935
8.65378
8.57469
8.49219
8.40644
8.31749
8.2257
8.13152
8.03381
1.62633
2.92437
9.50677
10.8594
10.5494
9.99841
9.74283
9.69497
9.69968
9.70796
9.70565
9.6971
9.67988
9.66316
9.64883
9.63574
9.62253
9.60847
9.59336
9.57711
9.55966
9.54089
9.52069
9.49894
9.47551
9.4503
9.42318
9.39403
9.36274
9.32919
9.29323
9.25476
9.21365
9.16983
9.12322
9.07373
9.02124
8.96566
8.90693
8.84503
8.77991
8.71157
8.64002
8.56533
8.48758
8.4069
8.32353
8.23755
8.14928
8.05769
1.39431
4.48177
10.0359
10.3046
10.0239
9.73632
9.62846
9.61932
9.62472
9.6313
9.63023
9.62501
9.61367
9.60096
9.58951
9.57865
9.56729
9.55484
9.54111
9.52605
9.50964
9.49181
9.47248
9.45156
9.42897
9.40458
9.3783
9.35002
9.31967
9.28715
9.25235
9.21518
9.17553
9.13334
9.08851
9.04098
8.99066
8.93746
8.88139
8.8224
8.76051
8.69573
8.62806
8.55752
8.48416
8.40808
8.32948
8.24844
8.16531
8.07912
1.63155
2.94806
9.59404
10.8427
10.4986
9.9098
9.63633
9.594
9.60429
9.62473
9.62632
9.62165
9.60925
9.59192
9.577
9.56387
9.55065
9.53639
9.52083
9.50392
9.4858
9.46628
9.44539
9.42312
9.39942
9.37415
9.34716
9.31835
9.28762
9.25485
9.22004
9.18316
9.14412
9.10282
9.05918
9.0131
8.96453
8.91341
8.85967
8.80326
8.74415
8.68235
8.61788
8.55081
8.48123
8.40925
8.33499
8.25852
8.18007
8.09873
1.6418
3.0775
9.86681
10.7747
10.3921
9.78028
9.5184
9.49826
9.51558
9.54838
9.55784
9.55517
9.54681
9.53257
9.52008
9.50921
9.49813
9.48583
9.47207
9.45694
9.44059
9.42295
9.40382
9.38307
9.3606
9.3364
9.31044
9.28269
9.25308
9.22157
9.1881
9.15257
9.1149
9.07503
9.03288
8.98842
8.94159
8.89235
8.84069
8.78657
8.73001
8.67107
8.60973
8.54598
8.47988
8.41151
8.34097
8.26837
8.19393
8.11676
1.40446
4.54567
10.1046
10.1596
9.8538
9.54643
9.44687
9.45218
9.47156
9.49154
9.49727
9.49575
9.4907
9.48124
9.4719
9.46284
9.45306
9.44196
9.42938
9.41535
9.3999
9.38298
9.36452
9.34443
9.3227
9.29928
9.27416
9.24728
9.21857
9.18799
9.15552
9.12112
9.08472
9.04626
9.00569
8.96296
8.91803
8.87087
8.82147
8.76979
8.71583
8.65958
8.6011
8.54045
8.47766
8.4128
8.3459
8.27704
8.20638
8.13312
1.38841
4.55539
10.0009
10.0257
9.7839
9.55165
9.46926
9.46662
9.47279
9.48221
9.48389
9.48182
9.47587
9.46583
9.45552
9.4451
9.43389
9.4215
9.40781
9.39284
9.37657
9.35899
9.34004
9.31965
9.29777
9.27435
9.24934
9.2227
9.19439
9.16437
9.13253
9.09883
9.06321
9.02563
8.98604
8.94442
8.90071
8.85486
8.80697
8.75711
8.70521
8.65123
8.59516
8.53703
8.47687
8.41471
8.35063
8.28474
8.21722
8.14728
1.42155
4.56884
10.2128
10.1826
9.79856
9.46317
9.37002
9.38198
9.41319
9.43765
9.44457
9.4432
9.43859
9.42998
9.42102
9.4119
9.40194
9.39065
9.3779
9.3637
9.34806
9.33096
9.31238
9.29233
9.27078
9.24769
9.22303
9.19677
9.1689
9.13936
9.10811
9.07511
9.04028
9.00365
8.9652
8.92491
8.88278
8.83881
8.79289
8.74495
8.69501
8.64312
8.58932
8.5336
8.47599
8.41654
8.3553
8.29233
8.22772
8.16065
1.53229
3.35227
9.88913
10.707
10.3192
9.67697
9.39313
9.36732
9.38496
9.42082
9.43498
9.43394
9.42929
9.41951
9.40904
9.39904
9.3886
9.37695
9.36386
9.34934
9.33343
9.31616
9.2975
9.27739
9.2558
9.23269
9.20796
9.1816
9.15374
9.12424
9.09308
9.0602
9.02566
8.98942
8.95147
8.91178
8.87036
8.82717
8.78218
8.7354
8.68683
8.63653
8.58438
8.53041
8.47474
8.41742
8.35848
8.29798
8.23601
8.17188
1.39677
4.53416
10.0664
10.0953
9.79227
9.46719
9.3452
9.34364
9.35505
9.37651
9.38533
9.38464
9.38112
9.37345
9.36449
9.35574
9.34654
9.33618
9.32439
9.31113
9.29647
9.2804
9.2629
9.24392
9.22345
9.20144
9.17786
9.15272
9.12604
9.0978
9.06797
9.03656
9.00353
8.9688
8.93235
8.89417
8.85425
8.81261
8.76922
8.72409
8.67722
8.62858
8.5783
8.52642
8.47291
8.4178
8.36114
8.30299
8.24346
8.18203
1.39416
4.53127
10.049
10.0824
9.77568
9.44781
9.3276
9.32791
9.34048
9.36324
9.37262
9.37174
9.36767
9.35908
9.34941
9.33993
9.32997
9.31885
9.30635
9.29246
9.27725
9.26074
9.24293
9.22377
9.20325
9.18134
9.15805
9.13336
9.10715
9.07939
9.05004
9.01909
8.98657
8.95248
8.91683
8.87959
8.84074
8.80025
8.75813
8.71438
8.66899
8.62199
8.5734
8.52324
8.47151
8.41825
8.36349
8.30727
8.24967
8.19023
1.53047
3.34027
9.84967
10.6879
10.3016
9.63717
9.33338
9.29767
9.31422
9.34902
9.36422
9.36333
9.35876
9.3489
9.33809
9.32813
9.31807
9.30702
9.29459
9.28081
9.26571
9.2493
9.23156
9.21247
9.192
9.17004
9.14678
9.12206
9.09586
9.06816
9.03895
9.00822
8.976
8.94229
8.90707
8.87033
8.83205
8.79225
8.75089
8.708
8.66358
8.61764
8.57019
8.52126
8.47085
8.41902
8.36578
8.31118
8.25534
8.19782
1.40817
4.5477
10.1188
10.0924
9.70693
9.35408
9.24393
9.25319
9.28247
9.31144
9.32104
9.32012
9.31622
9.30816
9.29951
9.29103
9.28199
9.27178
9.2602
9.24728
9.23305
9.21754
9.20073
9.18259
9.1631
9.14223
9.11999
9.09635
9.07128
9.04476
9.01677
8.98735
8.95648
8.92413
8.89029
8.85496
8.81812
8.77978
8.73995
8.69861
8.65574
8.61135
8.56546
8.51809
8.46928
8.41904
8.36738
8.3144
8.26018
8.20431
1.39312
4.55549
10.0079
9.98203
9.66894
9.38858
9.3001
9.30312
9.3153
9.3261
9.32664
9.32415
9.31754
9.30744
9.29741
9.28748
9.27697
9.26542
9.25272
9.23885
9.22382
9.20763
9.19026
9.1717
9.1519
9.13084
9.10851
9.08488
9.05993
9.03366
9.00606
8.97706
8.94664
8.91478
8.88147
8.8467
8.81047
8.77276
8.7336
8.693
8.65099
8.60755
8.56269
8.5164
8.46873
8.41965
8.36925
8.31749
8.26442
8.2096
1.38515
4.54776
9.95918
9.94777
9.65906
9.38732
9.29506
9.29438
9.30054
9.30825
9.3083
9.30605
9.29989
9.28998
9.28005
9.27025
9.2599
9.2486
9.23621
9.22272
9.20814
9.19241
9.17551
9.1574
9.13807
9.11748
9.09563
9.07248
9.04803
9.02224
8.99512
8.96662
8.93674
8.90547
8.87281
8.83875
8.80331
8.76646
8.72819
8.68851
8.6474
8.60487
8.56094
8.51561
8.46893
8.42097
8.37166
8.32098
8.26897
8.21516
1.37724
4.50928
9.91964
10.0317
9.73135
9.40347
9.28223
9.27821
9.28681
9.29916
9.30126
9.2989
9.29221
9.28116
9.27045
9.2603
9.24982
9.23841
9.22589
9.21224
9.19749
9.18162
9.1646
9.14641
9.12704
9.10646
9.08466
9.0616
9.03729
9.01169
8.9848
8.9566
8.92707
8.89621
8.864
8.83043
8.7955
8.7592
8.72153
8.68249
8.64208
8.60032
8.55722
8.51282
8.46706
8.41994
8.37152
8.32181
8.27088
8.21834
1.62614
2.96913
9.52205
10.6177
10.2732
9.64751
9.33807
9.27227
9.27984
9.29805
9.30548
9.30322
9.29568
9.2813
9.2681
9.25679
9.24592
9.23438
9.22174
9.20796
9.19309
9.17715
9.16012
9.14196
9.12265
9.10215
9.08044
9.05751
9.03333
9.00788
8.98116
8.95314
8.92382
8.89317
8.86119
8.82788
8.79323
8.75724
8.7199
8.68122
8.6412
8.59985
8.55719
8.51322
8.46796
8.42142
8.37366
8.32476
8.27477
8.22338
1.63546
2.85388
9.48446
10.8213
10.4149
9.67681
9.30972
9.23179
9.24235
9.26831
9.28295
9.28174
9.2756
9.26221
9.24808
9.23651
9.22607
9.21515
9.20307
9.18977
9.17533
9.15982
9.14322
9.12551
9.10665
9.08662
9.06541
9.04298
9.01932
8.99443
8.96827
8.94084
8.91212
8.88211
8.85079
8.81815
8.7842
8.74892
8.71231
8.67438
8.63513
8.59457
8.55269
8.5095
8.46502
8.41928
8.37233
8.3242
8.27498
8.22441
1.62649
2.96226
9.50663
10.6082
10.2638
9.63142
9.3139
9.24629
9.25467
9.27528
9.28544
9.28356
9.27651
9.26209
9.24823
9.23652
9.22556
9.21406
9.20149
9.1878
9.17305
9.15728
9.14048
9.12261
9.10365
9.08355
9.06231
9.03989
9.01629
8.99147
8.96543
8.93814
8.9096
8.87978
8.84869
8.81631
8.78263
8.74765
8.71136
8.67377
8.63487
8.59468
8.55319
8.51042
8.46638
8.42109
8.37456
8.32683
8.27794
8.22751
1.37422
4.5059
9.90021
10.012
9.70755
9.36544
9.23677
9.23232
9.24184
9.25639
9.25952
9.2573
9.25079
9.23981
9.22921
9.21927
9.20908
9.19802
9.1859
9.17272
9.1585
9.14326
9.12697
9.10961
9.09115
9.07157
9.05084
9.02895
9.00588
8.98161
8.95612
8.92939
8.90141
8.87218
8.84167
8.80987
8.77679
8.74241
8.70674
8.66975
8.63147
8.59188
8.55099
8.50882
8.46537
8.42065
8.37468
8.32745
8.27895
8.2287
1.37999
4.54114
9.9247
9.90722
9.60734
9.33028
9.24239
9.24469
9.2554
9.26537
9.26561
9.26302
9.25606
9.24523
9.23461
9.22434
9.21363
9.20204
9.18944
9.17585
9.16126
9.14568
9.12907
9.11141
9.09267
9.07284
9.05188
9.02979
9.00654
8.9821
8.95647
8.92963
8.90157
8.87226
8.84171
8.8099
8.77681
8.74245
8.70682
8.66989
8.63169
8.59221
8.55145
8.50942
8.46614
8.42162
8.37586
8.32889
8.28071
8.23101
1.40417
4.5624
10.0551
9.9877
9.59234
9.27628
9.19349
9.20509
9.23481
9.25522
9.25777
9.25512
9.24809
9.23771
9.22776
9.21807
9.2078
9.19653
9.1842
9.17084
9.15647
9.1411
9.1247
9.10724
9.0887
9.06906
9.0483
9.0264
9.00334
8.97911
8.95368
8.92703
8.89916
8.87005
8.8397
8.80808
8.77519
8.74103
8.70558
8.66886
8.63085
8.59156
8.55099
8.50916
8.46607
8.42174
8.37619
8.32944
8.28153
8.23226
3.04436
2.45927
3.00495
4.18138
4.12739
4.1104
4.04949
4.01181
3.99892
4.00171
4.0294
4.0731
4.11023
4.14093
4.1749
4.2176
4.26926
4.32734
4.38897
4.45186
4.51427
4.575
4.63352
4.69044
4.74139
4.78671
4.82637
4.86076
4.88987
4.91387
4.93283
4.94689
4.9562
4.96096
4.96136
4.95974
4.95441
4.94312
4.92769
4.90992
4.88992
4.8676
4.8431
4.81667
4.78859
4.75913
4.72854
4.69706
4.66493
4.63237
4.5996
4.56682
4.53424
4.50206
4.47048
4.43971
4.40994
4.38136
4.35419
4.3286
4.3048
4.28297
4.2633
4.24596
4.23108
4.2188
4.20921
4.20234
4.19816
4.19674
4.19697
4.19808
4.20116
4.20795
4.21974
4.2328
4.24619
4.25976
4.27336
4.2867
4.29943
4.31122
4.32183
4.33106
4.33881
4.34503
4.34973
4.35295
4.35477
4.35538
4.35531
4.35493
4.35389
4.35158
4.34764
4.34328
4.33876
4.33407
4.32902
4.32459
4.0969
3.55516
3.75779
4.23597
4.15304
4.09629
4.03691
3.99645
3.98483
3.99709
4.03833
4.08885
4.12065
4.14253
4.17154
4.21246
4.26374
4.32177
4.38328
4.44608
4.5084
4.56926
4.62807
4.68472
4.73575
4.78107
4.82084
4.85537
4.88461
4.90875
4.92781
4.94199
4.95137
4.95615
4.95637
4.95519
4.95093
4.94093
4.92397
4.90559
4.88575
4.86376
4.83951
4.81324
4.78528
4.75593
4.72546
4.69409
4.66207
4.62961
4.59693
4.56423
4.53173
4.49962
4.46811
4.43739
4.40766
4.37913
4.35198
4.32643
4.30265
4.28084
4.26119
4.24387
4.22902
4.21679
4.20726
4.20049
4.19654
4.19561
4.19591
4.19709
4.20017
4.20685
4.21872
4.2321
4.24584
4.25969
4.2735
4.287
4.29987
4.31178
4.32247
4.33177
4.33955
4.34578
4.35045
4.35362
4.35541
4.35592
4.35583
4.35545
4.35442
4.35216
4.34811
4.34361
4.33902
4.3344
4.3296
4.32678
5.22642
4.46547
4.2375
4.26924
4.24993
4.19734
4.11511
4.06203
4.04202
4.04453
4.05711
4.08648
4.12175
4.15319
4.18625
4.22689
4.27586
4.33142
4.3908
4.45173
4.51248
4.57192
4.62921
4.68371
4.73388
4.77872
4.81807
4.85212
4.88093
4.90466
4.92336
4.93718
4.9462
4.95056
4.95049
4.9494
4.94575
4.93713
4.91985
4.90049
4.88004
4.85794
4.83381
4.80769
4.77986
4.75062
4.72025
4.68899
4.65709
4.62475
4.59218
4.5596
4.5272
4.49519
4.46378
4.43315
4.40351
4.37506
4.348
4.32251
4.29881
4.27708
4.2575
4.24026
4.22551
4.21341
4.20405
4.19756
4.19406
4.19377
4.19414
4.19544
4.19866
4.20551
4.21734
4.23097
4.24522
4.25961
4.27387
4.28773
4.30087
4.313
4.32386
4.33326
4.34109
4.34731
4.35194
4.35501
4.35669
4.357
4.35688
4.35644
4.35532
4.35293
4.34879
4.34415
4.33945
4.3349
4.3303
4.32922
5.82988
5.09687
4.66455
4.46789
4.42908
4.36313
4.27074
4.19029
4.13847
4.11825
4.12058
4.13172
4.15802
4.19501
4.2285
4.26336
4.30423
4.35198
4.40505
4.46113
4.51818
4.5747
4.62946
4.68176
4.73017
4.7739
4.81247
4.84576
4.87388
4.897
4.91515
4.92845
4.937
4.94078
4.94061
4.93948
4.93611
4.92833
4.91244
4.89235
4.87102
4.84848
4.82434
4.79843
4.77086
4.74189
4.71178
4.68078
4.64912
4.61703
4.58471
4.55237
4.5202
4.48842
4.45722
4.4268
4.39736
4.36911
4.34224
4.31694
4.29342
4.27187
4.25247
4.23542
4.22088
4.20901
4.19994
4.19389
4.19107
4.19115
4.1917
4.1933
4.19694
4.20441
4.21596
4.22964
4.24438
4.25944
4.27433
4.28869
4.30221
4.3146
4.32563
4.33514
4.34301
4.34921
4.35376
4.35674
4.35825
4.35828
4.35812
4.35757
4.35626
4.35355
4.34939
4.34471
4.33991
4.3354
4.33104
4.33112
6.23285
5.59792
5.12353
4.8344
4.68558
4.5726
4.46112
4.35955
4.28206
4.23461
4.21488
4.21585
4.22221
4.23873
4.27124
4.30401
4.34028
4.38158
4.42773
4.47749
4.5293
4.58159
4.63292
4.68215
4.72824
4.77024
4.80754
4.83968
4.86681
4.88909
4.90645
4.91901
4.92691
4.92993
4.92967
4.92842
4.92506
4.91762
4.90256
4.88282
4.86104
4.83794
4.81351
4.78761
4.76025
4.73156
4.70177
4.67108
4.63974
4.60795
4.57594
4.54389
4.51203
4.48054
4.44963
4.41951
4.39037
4.3624
4.33582
4.31081
4.28758
4.26632
4.24723
4.23047
4.21626
4.20474
4.19615
4.1906
4.18855
4.18873
4.18952
4.19151
4.19577
4.20408
4.21539
4.22898
4.24399
4.25959
4.27508
4.28996
4.30386
4.3165
4.32769
4.33726
4.34514
4.3513
4.35575
4.3586
4.35981
4.35976
4.35947
4.3587
4.35705
4.35395
4.34984
4.34517
4.34032
4.33584
4.33185
4.33215
6.53989
6.00486
5.55031
5.20662
4.97366
4.80723
4.6701
4.55079
4.45269
4.38061
4.33537
4.31354
4.31352
4.31671
4.32741
4.3506
4.38297
4.41896
4.45775
4.49966
4.54432
4.59057
4.63697
4.68223
4.72521
4.76488
4.80043
4.83133
4.85741
4.87875
4.89518
4.90697
4.91421
4.91644
4.9161
4.91475
4.9113
4.90389
4.88928
4.87036
4.84871
4.82529
4.80052
4.77452
4.7473
4.71893
4.68952
4.65925
4.62833
4.59696
4.56535
4.53372
4.50226
4.47119
4.44071
4.41101
4.38229
4.35476
4.32861
4.30404
4.28125
4.26044
4.24179
4.22547
4.21174
4.20077
4.19274
4.18772
4.18649
4.18677
4.18777
4.19019
4.19524
4.20413
4.21557
4.22912
4.24419
4.26002
4.27587
4.29111
4.3053
4.31814
4.32944
4.33904
4.34689
4.35299
4.35737
4.36007
4.36094
4.36084
4.36043
4.35944
4.35737
4.35406
4.3499
4.34523
4.34039
4.33594
4.33224
4.33265
6.78409
6.33363
5.91609
5.55705
5.2765
5.06477
4.897
4.757
4.63988
4.5464
4.47777
4.43308
4.40965
4.40395
4.4056
4.41233
4.42816
4.45662
4.48842
4.52368
4.56168
4.60153
4.64222
4.68275
4.72201
4.75887
4.79234
4.82173
4.84664
4.86695
4.8826
4.89364
4.90014
4.90159
4.90119
4.89972
4.8961
4.88846
4.87431
4.85607
4.8348
4.8114
4.7865
4.76042
4.73331
4.70521
4.67619
4.64638
4.61594
4.58507
4.55396
4.52283
4.49188
4.46133
4.43137
4.40221
4.37404
4.34706
4.32147
4.29748
4.27527
4.25504
4.23699
4.22134
4.20821
4.19783
4.19039
4.186
4.18556
4.18592
4.18714
4.18999
4.19588
4.20527
4.21693
4.23045
4.24539
4.26115
4.27702
4.29234
4.30663
4.31954
4.33086
4.34046
4.34828
4.35432
4.35857
4.36113
4.36169
4.36155
4.36105