/*--------------------------------*- C++ -*----------------------------------*\
| =========                 |                                                 |
| \\      /  F ield         | OpenFOAM: The Open Source CFD Toolbox           |
|  \\    /   O peration     | Version:  2412                                  |
|   \\  /    A nd           | Website:  www.openfoam.com                      |
|    \\/     M anipulation  |                                                 |
\*---------------------------------------------------------------------------*/
FoamFile
{
    version     2.0;
    format      ascii;
    arch        "LSB;label=32;scalar=64";
    class       volScalarField;
    location    "29";
    object      T;
}
// * * * * * * * * * * * * * * * * * * * * * * * * * * * * * * * * * * * * * //

dimensions      [0 0 0 1 0 0 0];

internalField   nonuniform List<scalar> 
7000
(
1.31911
2.65687
2.7198
2.66983
2.66467
2.64799
2.64457
2.64731
2.64936
2.65156
2.65282
2.65382
2.65496
2.65631
2.65781
2.65944
2.66117
2.66303
2.66499
2.6671
2.66931
2.67166
2.67412
2.67672
2.67943
2.68227
2.68521
2.68828
2.69144
2.69472
2.69807
2.70153
2.70504
2.70863
2.71224
2.7159
2.71954
2.72317
2.72673
2.73022
2.73357
2.73678
2.73977
2.74254
2.74499
2.74715
2.74889
2.75029
2.75124
2.75178
1.31918
2.65709
2.72005
2.66993
2.66479
2.64811
2.6447
2.64743
2.64948
2.65168
2.65293
2.65394
2.65507
2.65642
2.65792
2.65954
2.66127
2.66312
2.66509
2.66719
2.6694
2.67175
2.67421
2.6768
2.6795
2.68234
2.68528
2.68834
2.6915
2.69477
2.69812
2.70157
2.70508
2.70866
2.71227
2.71591
2.71954
2.72316
2.72671
2.73019
2.73352
2.73672
2.73969
2.74244
2.74488
2.74699
2.74876
2.75005
2.75098
2.75133
1.31916
2.657
2.71994
2.66991
2.66475
2.64806
2.64464
2.64739
2.64939
2.65163
2.65283
2.65388
2.65497
2.65636
2.65781
2.65947
2.66115
2.66305
2.66496
2.6671
2.66926
2.67165
2.67406
2.67669
2.67934
2.68221
2.6851
2.6882
2.6913
2.69461
2.69791
2.70139
2.70486
2.70846
2.71204
2.7157
2.71932
2.72294
2.7265
2.72997
2.73333
2.73649
2.73951
2.74218
2.74466
2.74675
2.7485
2.74985
2.75068
2.75109
1.31913
2.65683
2.71976
2.66991
2.6647
2.64795
2.64454
2.64725
2.64932
2.65146
2.65274
2.6537
2.65487
2.65617
2.6577
2.65927
2.66104
2.66282
2.66484
2.66686
2.66913
2.67138
2.67391
2.6764
2.67918
2.68189
2.68492
2.68785
2.69111
2.69422
2.69769
2.70097
2.70461
2.708
2.71175
2.7152
2.71897
2.72242
2.72608
2.72945
2.73285
2.73604
2.73899
2.74184
2.74411
2.74634
2.74801
2.74927
2.75028
2.75046
1.3191
2.6566
2.71953
2.66993
2.66466
2.64782
2.64443
2.64703
2.64925
2.65123
2.65265
2.65345
2.65476
2.6559
2.65757
2.65899
2.66087
2.66252
2.66464
2.66654
2.66889
2.67105
2.67363
2.67605
2.67885
2.68153
2.68453
2.68747
2.69065
2.69385
2.69717
2.70059
2.70401
2.70763
2.71107
2.71483
2.71821
2.72202
2.72524
2.72896
2.73197
2.73538
2.73821
2.741
2.74361
2.74541
2.74739
2.74865
2.74931
2.74988
1.31905
2.65631
2.71924
2.66997
2.6646
2.64769
2.64423
2.64703
2.6489
2.65121
2.65227
2.65342
2.65434
2.65585
2.65712
2.65892
2.66039
2.66243
2.66412
2.66642
2.66832
2.67089
2.67301
2.67584
2.67818
2.68126
2.6838
2.68712
2.68988
2.69339
2.69636
2.70002
2.70319
2.70692
2.71027
2.71398
2.71748
2.72104
2.72463
2.72788
2.73143
2.73414
2.73747
2.73981
2.7425
2.74474
2.74609
2.74768
2.74861
2.74859
1.319
2.65595
2.71888
2.67003
2.66454
2.64749
2.64403
2.64677
2.64872
2.65091
2.65207
2.65308
2.65414
2.65548
2.6569
2.6585
2.66016
2.66197
2.66388
2.6659
2.66808
2.67031
2.67276
2.67518
2.67791
2.6805
2.68352
2.68626
2.68954
2.69241
2.69594
2.69891
2.70264
2.70571
2.70955
2.71272
2.71654
2.71979
2.72345
2.72673
2.73005
2.73335
2.73592
2.73892
2.7409
2.74328
2.74517
2.74615
2.74686
2.7476
1.31894
2.65552
2.71844
2.67009
2.66446
2.64725
2.64378
2.64646
2.64847
2.65057
2.65178
2.65271
2.6538
2.65507
2.65652
2.65806
2.65973
2.66149
2.66339
2.66538
2.66752
2.66976
2.67211
2.6746
2.67717
2.6799
2.68266
2.68565
2.68857
2.69181
2.69484
2.69831
2.70138
2.70506
2.7081
2.71191
2.71495
2.71874
2.72179
2.72535
2.72842
2.73154
2.73472
2.73702
2.73974
2.74144
2.74309
2.74487
2.74571
2.74547
1.31887
2.655
2.71792
2.67018
2.66438
2.64697
2.64347
2.64618
2.64809
2.65024
2.65136
2.65233
2.65334
2.65466
2.65602
2.65759
2.65918
2.66097
2.66279
2.6648
2.66685
2.66909
2.67138
2.67384
2.67636
2.67902
2.68178
2.68463
2.68761
2.69062
2.69381
2.69693
2.70034
2.70349
2.70711
2.71016
2.71393
2.71681
2.7206
2.7233
2.72688
2.7295
2.73248
2.7354
2.73717
2.73986
2.74128
2.7422
2.74291
2.74392
1.31879
2.65439
2.71731
2.67028
2.66427
2.64663
2.64312
2.64571
2.64777
2.64972
2.65098
2.65177
2.65292
2.65405
2.65554
2.65693
2.65864
2.66025
2.66217
2.66401
2.66616
2.66823
2.67059
2.67289
2.67546
2.67798
2.68075
2.68347
2.68643
2.68934
2.69246
2.69553
2.69877
2.70198
2.70526
2.7086
2.71181
2.71525
2.71822
2.72171
2.72428
2.72771
2.72985
2.73284
2.73527
2.73651
2.73876
2.74032
2.7411
2.74059
1.3187
2.65369
2.7166
2.6704
2.66415
2.64626
2.64267
2.64537
2.64719
2.64932
2.65034
2.65131
2.65222
2.65353
2.65478
2.65634
2.65782
2.65958
2.66128
2.66326
2.66518
2.66738
2.66952
2.67192
2.67428
2.67688
2.67945
2.68222
2.68499
2.68791
2.69086
2.6939
2.69699
2.70011
2.70331
2.70645
2.7097
2.71277
2.71601
2.7189
2.72203
2.72456
2.72748
2.72943
2.73209
2.73436
2.73508
2.73612
2.7368
2.7382
1.31859
2.65288
2.7158
2.67053
2.66401
2.64579
2.6422
2.64473
2.64676
2.64861
2.64984
2.65054
2.65166
2.65268
2.65415
2.65542
2.65711
2.65858
2.66048
2.66216
2.66428
2.66617
2.6685
2.67059
2.67312
2.67541
2.67813
2.68059
2.68348
2.68611
2.68913
2.69191
2.69501
2.69791
2.70104
2.70404
2.70709
2.71017
2.71301
2.71614
2.71863
2.72169
2.72378
2.72636
2.72793
2.72982
2.73212
2.73329
2.73396
2.73306
1.31847
2.65197
2.71488
2.67068
2.66385
2.6453
2.64162
2.64422
2.64604
2.64802
2.64904
2.64987
2.65078
2.65195
2.65319
2.65461
2.65605
2.65768
2.65931
2.66116
2.66299
2.66505
2.66707
2.66933
2.67153
2.67398
2.67635
2.67898
2.6815
2.68427
2.68691
2.68982
2.69253
2.69554
2.69827
2.70133
2.70402
2.70705
2.70966
2.71248
2.71508
2.71737
2.72009
2.72174
2.72417
2.7254
2.726
2.72688
2.7274
2.72926
1.31834
2.65097
2.71381
2.67104
2.66347
2.64474
2.64097
2.64351
2.64533
2.64721
2.64826
2.64898
2.64992
2.65096
2.65224
2.65352
2.65501
2.65647
2.65817
2.65982
2.66173
2.66356
2.66567
2.66766
2.66997
2.67212
2.67459
2.67689
2.6795
2.68194
2.68464
2.6872
2.68994
2.6926
2.69532
2.69802
2.70068
2.70333
2.70591
2.70833
2.71078
2.71288
2.71479
2.71683
2.71786
2.72001
2.72157
2.72239
2.72272
2.7211
1.3182
2.64989
2.71254
2.67175
2.66277
2.64411
2.64023
2.64267
2.64453
2.64627
2.64735
2.64795
2.64892
2.64984
2.65113
2.6523
2.65378
2.65515
2.6568
2.65838
2.66019
2.66199
2.66394
2.66594
2.66801
2.67022
2.67237
2.67478
2.67698
2.67956
2.68179
2.6845
2.68672
2.68949
2.69171
2.69441
2.69663
2.6991
2.70133
2.7035
2.70558
2.70752
2.70926
2.71059
2.71193
2.71185
2.71225
2.71241
2.71297
2.71469
1.31805
2.64868
2.71118
2.67234
2.66211
2.64341
2.63937
2.64187
2.64348
2.64534
2.6462
2.64692
2.64765
2.64871
2.64975
2.65107
2.65227
2.65379
2.65514
2.65687
2.65837
2.6603
2.66193
2.66403
2.6658
2.66805
2.66993
2.67229
2.6743
2.67669
2.67884
2.68118
2.68346
2.68566
2.68805
2.69004
2.69241
2.69418
2.69631
2.69788
2.6995
2.7008
2.70203
2.70304
2.70357
2.70492
2.70455
2.70452
2.7032
2.70084
1.31788
2.64734
2.70973
2.67289
2.66143
2.64261
2.63841
2.64095
2.64233
2.64427
2.64494
2.64574
2.64629
2.64741
2.64826
2.64962
2.65066
2.65217
2.6534
2.65506
2.65648
2.65826
2.65986
2.66173
2.66351
2.66543
2.66738
2.66933
2.67141
2.67335
2.67552
2.67742
2.67959
2.68147
2.68349
2.68536
2.68707
2.68893
2.69021
2.6918
2.69275
2.69354
2.69384
2.69394
2.69328
2.69146
2.69077
2.68861
2.68795
2.68784
1.3177
2.64589
2.70817
2.67346
2.6607
2.64169
2.63736
2.63973
2.6412
2.64288
2.64369
2.64423
2.64493
2.64576
2.6468
2.64783
2.64906
2.65022
2.65163
2.65293
2.65451
2.65592
2.65765
2.65917
2.66101
2.66262
2.66453
2.66623
2.66814
2.66991
2.67174
2.67356
2.67524
2.67703
2.67848
2.6801
2.6813
2.68247
2.68352
2.68389
2.6847
2.68461
2.68424
2.68327
2.68206
2.68042
2.67613
2.67256
2.66672
2.6607
1.31751
2.64435
2.70652
2.67405
2.65988
2.64068
2.63616
2.63841
2.63987
2.64139
2.64222
2.64263
2.64332
2.64403
2.64502
2.64596
2.6471
2.64821
2.64946
2.65073
2.65208
2.65351
2.65493
2.65649
2.65794
2.65962
2.66108
2.66283
2.66427
2.66603
2.66743
2.6691
2.67044
2.67189
2.67314
2.67417
2.67526
2.67562
2.67625
2.67609
2.67523
2.67447
2.67205
2.66994
2.66528
2.65993
2.65477
2.64502
2.63539
2.62274
1.31731
2.64275
2.70484
2.67462
2.65895
2.63957
2.63477
2.63709
2.6382
2.63987
2.64044
2.64101
2.64144
2.64231
2.643
2.64411
2.64494
2.64618
2.64714
2.64849
2.64957
2.651
2.65217
2.65365
2.6549
2.65637
2.65768
2.65908
2.66041
2.66167
2.66299
2.66401
2.66524
2.66595
2.66695
2.66725
2.66791
2.66779
2.66744
2.66658
2.6655
2.66283
2.66061
2.65531
2.65066
2.64069
2.62786
2.61095
2.58208
2.51104
1.31729
2.64181
2.7005
2.67513
2.65755
2.63782
2.63271
2.63482
2.63594
2.63733
2.63804
2.63831
2.63887
2.63939
2.64025
2.64096
2.64198
2.64279
2.64393
2.64482
2.64606
2.64701
2.64832
2.64929
2.65063
2.65158
2.6529
2.65379
2.65501
2.65579
2.65681
2.65741
2.65806
2.65836
2.65857
2.65825
2.65766
2.65676
2.65487
2.65283
2.64872
2.64513
2.63749
2.63141
2.61844
2.60622
2.58348
2.54736
2.48962
2.36406
1.31727
2.64083
2.69578
2.67532
2.65564
2.63545
2.62984
2.63192
2.63279
2.63422
2.63484
2.63513
2.63553
2.63606
2.63671
2.63744
2.63819
2.63901
2.63983
2.64073
2.64159
2.64253
2.64339
2.64435
2.64515
2.64609
2.64678
2.64764
2.64815
2.64887
2.6491
2.6496
2.64956
2.64938
2.6489
2.64832
2.6468
2.64552
2.64241
2.63998
2.63489
2.62896
2.62129
2.60788
2.59493
2.56854
2.5418
2.49173
2.41723
2.31802
1.31724
2.64017
2.69331
2.67516
2.65406
2.63316
2.62693
2.62877
2.62953
2.63096
2.63154
2.63178
2.63207
2.63252
2.63307
2.6337
2.63435
2.63505
2.63575
2.6365
2.63723
2.638
2.63871
2.63945
2.6401
2.64073
2.64124
2.64167
2.64193
2.64209
2.64193
2.64154
2.64099
2.63981
2.63856
2.63623
2.63413
2.63022
2.6271
2.62081
2.61617
2.60616
2.59869
2.58345
2.56681
2.54294
2.50654
2.46404
2.39209
2.31853
1.31712
2.63902
2.6925
2.67397
2.65212
2.63036
2.62367
2.62561
2.62645
2.62796
2.62849
2.62855
2.62865
2.62892
2.62917
2.62962
2.62993
2.63042
2.63076
2.63128
2.63166
2.63219
2.63258
2.6331
2.63348
2.63394
2.63425
2.63465
2.63476
2.63483
2.63472
2.63438
2.63379
2.6325
2.63123
2.62844
2.62611
2.62119
2.61682
2.60953
2.60135
2.59132
2.57735
2.56329
2.54112
2.51832
2.48442
2.44403
2.39092
2.32901
1.31689
2.64023
2.70399
2.6706
2.6521
2.62873
2.62152
2.62425
2.62521
2.62706
2.62753
2.62748
2.62744
2.62748
2.62756
2.62767
2.62773
2.62776
2.62775
2.6277
2.62763
2.62746
2.6273
2.62696
2.62668
2.62621
2.62584
2.62503
2.62455
2.62346
2.62281
2.62135
2.62048
2.61845
2.61715
2.61432
2.6118
2.60796
2.60281
2.59718
2.58815
2.57881
2.56471
2.54882
2.52839
2.50259
2.47341
2.43473
2.39202
2.34483
1.30178
2.58662
2.69855
2.67706
2.65967
2.63615
2.62926
2.63216
2.63322
2.63475
2.63461
2.63418
2.6335
2.63296
2.63237
2.63184
2.63121
2.63065
2.62999
2.62944
2.62876
2.62824
2.6275
2.62702
2.62613
2.62559
2.62435
2.62343
2.62158
2.62026
2.61761
2.61579
2.61228
2.61003
2.60556
2.60278
2.59709
2.59356
2.58643
2.58094
2.57197
2.56269
2.55066
2.53539
2.51801
2.49464
2.46888
2.43592
2.3983
2.35813
1.72048
2.46903
2.72876
2.70695
2.68437
2.67407
2.67461
2.67615
2.67755
2.67782
2.67663
2.67517
2.67355
2.67176
2.66979
2.66759
2.66518
2.66257
2.65974
2.65677
2.65356
2.65031
2.64676
2.6433
2.63931
2.63539
2.63096
2.62787
2.62401
2.62146
2.61779
2.6151
2.6108
2.60715
2.60193
2.5969
2.59074
2.58379
2.57683
2.56746
2.55926
2.54695
2.5364
2.52035
2.50557
2.48453
2.46328
2.43571
2.40599
2.37322
1.73237
2.46211
2.72327
2.70221
2.67743
2.66845
2.67235
2.67405
2.67673
2.67756
2.67775
2.67761
2.67735
2.67706
2.67637
2.67577
2.67445
2.67348
2.67145
2.67014
2.6674
2.66569
2.66227
2.65998
2.65605
2.65343
2.64902
2.64488
2.63924
2.63383
2.62723
2.62107
2.61487
2.60889
2.60317
2.59615
2.59013
2.58138
2.57387
2.56307
2.55341
2.54033
2.52777
2.51213
2.49581
2.47697
2.45611
2.43322
2.4078
2.38173
1.72913
2.46766
2.72524
2.70251
2.67386
2.66439
2.66922
2.67166
2.67483
2.67594
2.67629
2.67643
2.67659
2.67657
2.67648
2.67622
2.67563
2.67523
2.67431
2.6736
2.67202
2.67095
2.66871
2.66702
2.66414
2.66151
2.65809
2.65445
2.65031
2.64539
2.64067
2.63415
2.62808
2.61909
2.61182
2.60172
2.59375
2.58349
2.5749
2.56369
2.55334
2.54052
2.52748
2.51228
2.49618
2.47791
2.45812
2.43634
2.41284
2.3899
1.73183
2.46095
2.72071
2.69702
2.67079
2.66114
2.6657
2.66796
2.67112
2.67238
2.67278
2.67306
2.6734
2.6737
2.67396
2.674
2.67392
2.67367
2.67323
2.67254
2.67185
2.67055
2.66957
2.66757
2.66625
2.66354
2.66174
2.65804
2.65565
2.65073
2.64763
2.64139
2.6371
2.62958
2.62345
2.61426
2.6057
2.59435
2.58351
2.57072
2.55815
2.54443
2.53051
2.51521
2.49912
2.48152
2.46336
2.44331
2.42226
2.40156
1.741
2.44279
2.70918
2.68466
2.66706
2.65769
2.66065
2.66236
2.66544
2.6665
2.66715
2.66724
2.66746
2.66758
2.66771
2.66771
2.66766
2.66748
2.6673
2.66683
2.66649
2.66569
2.66511
2.66385
2.66291
2.66086
2.65948
2.6565
2.65457
2.65056
2.64764
2.64271
2.6386
2.63263
2.62695
2.61965
2.61223
2.6032
2.59352
2.58228
2.57014
2.55619
2.54157
2.52548
2.50916
2.49141
2.47319
2.45389
2.43387
2.41438
1.73595
2.43636
2.70583
2.67714
2.66927
2.65604
2.65615
2.65816
2.66116
2.66227
2.66334
2.66344
2.66371
2.6639
2.66407
2.66414
2.66412
2.66402
2.66386
2.66351
2.66322
2.66255
2.66204
2.66093
2.66014
2.65842
2.65724
2.65474
2.65299
2.64969
2.64697
2.64279
2.63879
2.63366
2.62847
2.62208
2.61544
2.60755
2.59926
2.58964
2.57941
2.56768
2.55515
2.54099
2.52591
2.50944
2.4922
2.47385
2.45474
2.43611
1.35699
2.46746
2.67924
2.66854
2.64653
2.62388
2.61685
2.62089
2.62286
2.62574
2.62717
2.6282
2.629
2.63001
2.63073
2.63182
2.63248
2.63346
2.63396
2.63479
2.63511
2.63585
2.63598
2.63616
2.63617
2.63607
2.63584
2.63526
2.63468
2.63348
2.6323
2.6304
2.62841
2.62543
2.62219
2.6176
2.61256
2.60617
2.59926
2.591
2.5823
2.5722
2.56157
2.54972
2.53699
2.52308
2.50826
2.49239
2.47559
2.45913
1.36041
2.47703
2.68636
2.67711
2.65249
2.62352
2.61389
2.61472
2.6167
2.61866
2.61948
2.61957
2.61977
2.6198
2.62006
2.6204
2.62077
2.62109
2.62143
2.62166
2.62194
2.62203
2.62219
2.62211
2.62194
2.62156
2.62117
2.6203
2.61961
2.61812
2.61698
2.61477
2.61286
2.60991
2.60709
2.60355
2.5999
2.59544
2.59049
2.58483
2.57811
2.57053
2.56153
2.55162
2.54077
2.52911
2.51674
2.50353
2.48943
2.47563
1.34961
2.41271
2.66944
2.66958
2.65017
2.62378
2.61401
2.61406
2.61477
2.61532
2.61499
2.61412
2.61337
2.61234
2.61167
2.61098
2.61048
2.60983
2.60934
2.6087
2.60823
2.60759
2.6071
2.60642
2.60586
2.60508
2.60437
2.60353
2.60265
2.60156
2.60019
2.59865
2.59663
2.59447
2.59166
2.58871
2.58503
2.58116
2.57651
2.57145
2.56571
2.55963
2.55294
2.54565
2.53758
2.52822
2.51769
2.50661
2.49481
2.48345
1.74167
2.39665
2.67504
2.66133
2.65255
2.63864
2.63347
2.63372
2.63348
2.63319
2.63239
2.63116
2.62976
2.6281
2.62648
2.6249
2.62322
2.6215
2.61965
2.61779
2.61579
2.61382
2.61168
2.60961
2.60733
2.60521
2.60282
2.60072
2.59824
2.59581
2.59325
2.59061
2.58781
2.58476
2.58158
2.57794
2.5742
2.56981
2.56534
2.56004
2.55467
2.54836
2.542
2.53467
2.52709
2.51908
2.51096
2.50194
2.49221
2.48263
1.34702
2.39567
2.66023
2.66583
2.6495
2.62422
2.61562
2.61428
2.61554
2.61581
2.61553
2.61518
2.6143
2.61338
2.61273
2.61188
2.61116
2.6101
2.60915
2.60782
2.60668
2.60531
2.60415
2.60265
2.60138
2.59952
2.59793
2.59542
2.59341
2.59069
2.58834
2.58526
2.58246
2.5789
2.57567
2.57174
2.56803
2.56363
2.55929
2.5543
2.54915
2.54336
2.53724
2.5306
2.52342
2.51584
2.50771
2.49929
2.49033
2.48172
1.34834
2.40656
2.66742
2.67129
2.65098
2.62226
2.611
2.61081
2.61178
2.61249
2.61236
2.61167
2.61091
2.60991
2.60932
2.60858
2.60798
2.60709
2.60628
2.60515
2.604
2.60234
2.60066
2.5985
2.59633
2.59383
2.59131
2.58851
2.5856
2.5825
2.5792
2.57581
2.57224
2.56868
2.56473
2.56081
2.5564
2.55212
2.54725
2.54255
2.53721
2.53208
2.52621
2.52051
2.51404
2.50765
2.50046
2.49318
2.48535
2.47801
1.34776
2.40221
2.66464
2.66934
2.64838
2.61896
2.60696
2.60682
2.60762
2.60853
2.60825
2.6074
2.60658
2.60547
2.60476
2.604
2.60338
2.60257
2.60181
2.60088
2.59991
2.59876
2.59748
2.596
2.59429
2.59238
2.59017
2.58779
2.58504
2.58217
2.57887
2.57547
2.57164
2.56777
2.56347
2.5591
2.55426
2.5493
2.54395
2.53843
2.53262
2.52659
2.52034
2.51382
2.50715
2.50015
2.49312
2.48563
2.47808
2.47071
1.34492
2.3792
2.64748
2.66157
2.64242
2.61458
2.60277
2.60134
2.60164
2.60188
2.60122
2.60045
2.59911
2.59802
2.59694
2.59607
2.59502
2.5941
2.59295
2.59191
2.59065
2.58952
2.58815
2.5869
2.58539
2.58396
2.58223
2.58051
2.57845
2.57635
2.57388
2.57128
2.5683
2.56505
2.56143
2.55751
2.5533
2.54873
2.54389
2.53861
2.53313
2.52718
2.52106
2.51447
2.50775
2.50058
2.49334
2.48583
2.47821
2.47087
1.75128
2.37314
2.64571
2.64176
2.62831
2.61421
2.60933
2.60957
2.60956
2.60944
2.60886
2.6082
2.60697
2.60583
2.60455
2.60343
2.60206
2.60074
2.59916
2.59762
2.59583
2.59406
2.59207
2.59009
2.5879
2.58569
2.5833
2.58084
2.57821
2.57548
2.57267
2.5697
2.56664
2.56331
2.55988
2.55608
2.55217
2.54783
2.54329
2.53833
2.53311
2.52751
2.52172
2.51559
2.50927
2.50262
2.49575
2.48859
2.48109
2.47395
1.34702
2.38882
2.65262
2.65983
2.63929
2.60895
2.59761
2.59626
2.59788
2.59921
2.59905
2.59854
2.59796
2.59669
2.59602
2.59481
2.59407
2.59259
2.59164
2.58991
2.58838
2.58653
2.58472
2.58258
2.58051
2.57827
2.5762
2.5739
2.57175
2.5693
2.56677
2.56387
2.56091
2.55764
2.55429
2.55067
2.54692
2.54294
2.53884
2.53451
2.52999
2.52518
2.52009
2.51464
2.50889
2.50284
2.49651
2.48997
2.48312
2.47657
1.35072
2.41208
2.65483
2.64887
2.62692
2.59636
2.58561
2.58587
2.58766
2.58958
2.58992
2.58968
2.58921
2.58844
2.58793
2.58741
2.58695
2.58633
2.58567
2.58487
2.58398
2.58296
2.58181
2.5805
2.57901
2.57717
2.57508
2.57269
2.57006
2.56718
2.56419
2.561
2.55767
2.55415
2.55048
2.54663
2.54261
2.53841
2.53403
2.52949
2.52475
2.51986
2.51485
2.50974
2.50439
2.4989
2.49313
2.48717
2.48092
2.47496
1.77118
2.3722
2.63849
2.61755
2.61122
2.59593
2.59319
2.59395
2.59506
2.59634
2.59608
2.59559
2.59524
2.59457
2.594
2.59342
2.59284
2.59216
2.59144
2.59061
2.58973
2.58873
2.58765
2.58642
2.58508
2.58357
2.5819
2.58001
2.57793
2.57553
2.57279
2.56977
2.56643
2.56284
2.55896
2.55486
2.55051
2.54596
2.54119
2.53626
2.53107
2.52571
2.52005
2.51423
2.50824
2.50211
2.4959
2.48959
2.48316
2.47703
1.7977
2.35517
2.62649
2.60588
2.60271
2.59278
2.5894
2.58962
2.58987
2.59043
2.59017
2.58955
2.58891
2.58788
2.58686
2.58573
2.58455
2.58322
2.58182
2.58029
2.5787
2.57699
2.57529
2.57352
2.57175
2.56992
2.56809
2.56618
2.56426
2.5623
2.56041
2.55838
2.55639
2.5542
2.55197
2.54947
2.54688
2.54392
2.5406
2.53692
2.53302
2.52884
2.52444
2.51973
2.51479
2.50955
2.50403
2.49819
2.4921
2.48619
1.76253
2.38166
2.6501
2.6193
2.61351
2.59937
2.5962
2.59831
2.59978
2.60062
2.60035
2.59986
2.59881
2.59761
2.59633
2.59502
2.59358
2.59207
2.59043
2.58873
2.58692
2.58508
2.58299
2.58079
2.57835
2.57582
2.57305
2.57023
2.56718
2.56411
2.56082
2.55756
2.55411
2.5506
2.54689
2.54316
2.53923
2.53532
2.53143
2.5275
2.52342
2.51924
2.51487
2.51045
2.50586
2.50118
2.49631
2.49134
2.48611
2.48117
1.28618
2.49458
2.64473
2.64203
2.61676
2.58405
2.572
2.57244
2.57508
2.57746
2.57872
2.57894
2.57917
2.57914
2.57908
2.57901
2.57885
2.57854
2.57808
2.57743
2.5766
2.57555
2.5744
2.57305
2.57158
2.56989
2.56816
2.56602
2.56378
2.56138
2.55877
2.55599
2.55288
2.54969
2.54619
2.54261
2.53876
2.53484
2.53066
2.52645
2.52201
2.51755
2.51305
2.50832
2.50346
2.49838
2.4932
2.4878
2.4823
2.47703
1.77179
2.36723
2.63954
2.61694
2.61065
2.59524
2.5903
2.59121
2.59163
2.59322
2.59284
2.59227
2.59182
2.59102
2.59028
2.58942
2.58865
2.58768
2.58675
2.58559
2.58449
2.58314
2.58183
2.58027
2.57874
2.57692
2.57513
2.57302
2.57071
2.5681
2.56531
2.56223
2.55915
2.55583
2.5525
2.54889
2.54526
2.54131
2.53734
2.53301
2.52869
2.52399
2.51913
2.51406
2.50891
2.50355
2.49811
2.49249
2.48677
2.48129
1.7732
2.36542
2.63744
2.61503
2.60879
2.5935
2.58854
2.58965
2.5907
2.5918
2.59233
2.59183
2.5914
2.5906
2.58975
2.58881
2.58782
2.58668
2.58544
2.58405
2.58258
2.58098
2.57929
2.57751
2.57561
2.57365
2.57156
2.56945
2.56738
2.56522
2.56305
2.56072
2.55821
2.55551
2.55261
2.54955
2.54633
2.54295
2.53939
2.53569
2.53179
2.52776
2.52351
2.51914
2.51455
2.50985
2.50492
2.4999
2.49464
2.48955
1.28559
2.49097
2.64204
2.63936
2.61361
2.57897
2.56604
2.56554
2.56807
2.57013
2.57108
2.57102
2.57089
2.5705
2.57019
2.56972
2.56943
2.5688
2.56836
2.56747
2.56682
2.56567
2.56478
2.56335
2.56223
2.56061
2.55897
2.5572
2.5553
2.55329
2.55116
2.54895
2.54663
2.54422
2.54168
2.53902
2.53621
2.53326
2.53016
2.52689
2.52347
2.51987
2.51613
2.51221
2.50816
2.50391
2.49955
2.49499
2.49032
2.48579
1.76673
2.37287
2.64063
2.60989
2.60347
2.5875
2.58444
2.58662
2.58752
2.58963
2.58939
2.58885
2.58839
2.58755
2.58676
2.58587
2.58501
2.58397
2.58291
2.58168
2.58043
2.57903
2.57758
2.576
2.57433
2.57257
2.57067
2.56869
2.56655
2.56432
2.56194
2.55932
2.55657
2.5536
2.55051
2.54722
2.54382
2.54021
2.53653
2.53272
2.52883
2.5248
2.52066
2.51639
2.51198
2.50746
2.50279
2.49801
2.49307
2.48835
1.79461
2.35599
2.62404
2.59594
2.59192
2.58021
2.57694
2.57814
2.57845
2.57916
2.57898
2.57857
2.57812
2.57737
2.57666
2.5759
2.5751
2.57419
2.57321
2.57212
2.57095
2.56968
2.56832
2.56687
2.56533
2.5637
2.56198
2.56016
2.55825
2.55625
2.55416
2.5521
2.54993
2.54777
2.54545
2.54313
2.54062
2.53803
2.5352
2.53224
2.52904
2.52575
2.52225
2.51866
2.51487
2.51098
2.50689
2.5027
2.49829
2.49411
1.79922
2.35075
2.61902
2.59275
2.58911
2.57786
2.57404
2.57472
2.5749
2.57529
2.57515
2.57474
2.57424
2.57348
2.57271
2.57193
2.57106
2.57013
2.56909
2.56797
2.56673
2.56541
2.56397
2.56244
2.56078
2.55904
2.55716
2.5552
2.55309
2.5509
2.54857
2.54614
2.54359
2.54094
2.53817
2.53531
2.53233
2.52932
2.5262
2.52305
2.51978
2.51643
2.51295
2.50937
2.50566
2.50185
2.49791
2.49385
2.48964
2.48564
1.77977
2.35597
2.61659
2.60301
2.59366
2.57721
2.57218
2.57266
2.57327
2.57389
2.57387
2.5734
2.57287
2.57205
2.57124
2.57046
2.56961
2.5687
2.56768
2.56658
2.56539
2.56411
2.56272
2.56125
2.55966
2.55798
2.55617
2.55427
2.55225
2.55012
2.54786
2.54549
2.54299
2.54037
2.53762
2.53475
2.53175
2.52862
2.52537
2.522
2.51851
2.5149
2.51117
2.50733
2.50337
2.49929
2.49509
2.49077
2.48633
2.48208
1.34477
2.37988
2.63801
2.63738
2.61519
2.58174
2.56753
2.56515
2.56646
2.56758
2.56753
2.56727
2.56658
2.56558
2.56467
2.56388
2.56305
2.56218
2.56118
2.56011
2.55892
2.55767
2.55628
2.55482
2.55323
2.55155
2.54974
2.54783
2.54578
2.54364
2.54135
2.53896
2.53642
2.53378
2.53098
2.52809
2.52503
2.52187
2.51855
2.51513
2.51154
2.50786
2.504
2.50006
2.49594
2.49175
2.48739
2.48296
2.47836
2.47398
1.34602
2.38749
2.65289
2.657
2.63096
2.59246
2.57494
2.57258
2.57423
2.57551
2.57596
2.57561
2.57478
2.57378
2.57272
2.57185
2.57097
2.57006
2.56903
2.56794
2.56674
2.56548
2.56411
2.56268
2.56113
2.55953
2.55779
2.55599
2.55406
2.55207
2.54993
2.54772
2.54537
2.54294
2.54036
2.5377
2.53489
2.53199
2.52893
2.52578
2.52247
2.51906
2.51549
2.51182
2.50799
2.50406
2.49998
2.49579
2.49145
2.48728
1.3451
2.37935
2.63635
2.63635
2.61344
2.58011
2.56495
2.56296
2.56431
2.56523
2.56564
2.56521
2.56451
2.56348
2.56254
2.56171
2.56091
2.56003
2.55908
2.55804
2.55693
2.55573
2.55447
2.55311
2.55168
2.55014
2.54854
2.54682
2.54503
2.54312
2.54114
2.53904
2.53685
2.53454
2.53215
2.52962
2.52701
2.52426
2.52143
2.51845
2.5154
2.51218
2.50889
2.50544
2.50191
2.49822
2.49445
2.49051
2.48649
2.48257
1.78105
2.35424
2.61407
2.59972
2.59006
2.57218
2.5671
2.56746
2.56805
2.56909
2.56893
2.56839
2.5679
2.56702
2.56626
2.56545
2.56467
2.56374
2.56281
2.56172
2.56063
2.55938
2.55813
2.55671
2.55529
2.5537
2.55209
2.55032
2.54853
2.54656
2.54458
2.54241
2.54022
2.53785
2.53546
2.53287
2.53026
2.52746
2.52462
2.52159
2.51853
2.51527
2.51198
2.50849
2.50496
2.50123
2.49746
2.49348
2.48944
2.4855
1.80127
2.34725
2.61462
2.5874
2.58386
2.57259
2.5691
2.57018
2.57048
2.57091
2.57077
2.57025
2.5697
2.5688
2.56798
2.56709
2.56621
2.56518
2.56414
2.56294
2.56173
2.56036
2.55897
2.55743
2.55585
2.55412
2.55234
2.55041
2.54843
2.54629
2.54411
2.54176
2.53935
2.53678
2.53416
2.53136
2.52851
2.52549
2.5224
2.51915
2.51583
2.51234
2.50879
2.50507
2.50128
2.49732
2.4933
2.48911
2.48483
2.4807
1.78824
2.36086
2.62703
2.59541
2.58879
2.57468
2.5722
2.57423
2.57572
2.57664
2.57661
2.5761
2.57556
2.57473
2.57396
2.57314
2.57229
2.57132
2.57029
2.56916
2.56797
2.56666
2.5653
2.56382
2.56228
2.56061
2.55888
2.55702
2.5551
2.55304
2.5509
2.54864
2.54629
2.54381
2.54125
2.53854
2.53576
2.53283
2.52981
2.52665
2.5234
2.52
2.51651
2.51288
2.50915
2.50528
2.50132
2.49721
2.49301
2.48895
2.17225
2.34553
2.7626
2.86066
2.85308
2.81291
2.81162
2.81122
2.80415
2.80311
2.80632
2.8079
2.80936
2.81027
2.81218
2.81359
2.8158
2.81768
2.81938
2.82049
2.82101
2.8212
2.82025
2.8194
2.81657
2.81412
2.81033
2.80649
2.80175
2.7968
2.79121
2.78537
2.77907
2.77253
2.76588
2.75893
2.75192
2.74415
2.73614
2.72804
2.71998
2.71179
2.70363
2.69538
2.68721
2.679
2.67091
2.66284
2.65493
2.64709
2.63946
2.63194
2.62468
2.61759
2.6108
2.60423
2.59802
2.59209
2.58658
2.58141
2.57672
2.57244
2.5687
2.56541
2.56272
2.56053
2.55896
2.5579
2.55744
2.55731
2.55743
2.55778
2.55865
2.5601
2.56217
2.56437
2.56659
2.56884
2.57105
2.57319
2.57519
2.57703
2.57864
2.58003
2.58116
2.58206
2.58269
2.58312
2.58331
2.58334
2.58324
2.58299
2.58264
2.5819
2.58116
2.5801
2.57925
2.57809
2.57717
2.5741
2.18043
2.26047
2.45066
2.62852
2.69741
2.73191
2.75788
2.78203
2.79575
2.80834
2.81617
2.82613
2.83155
2.83116
2.8273
2.82216
2.81488
2.80776
2.79876
2.79022
2.78028
2.77098
2.7607
2.75117
2.74052
2.73049
2.71953
2.70926
2.69822
2.68786
2.67685
2.66648
2.65556
2.64526
2.63473
2.62488
2.61473
2.60448
2.59385
2.58355
2.57349
2.56361
2.55387
2.54429
2.53488
2.52565
2.51662
2.5078
2.4992
2.49083
2.4827
2.47483
2.46724
2.45992
2.45293
2.44626
2.43995
2.43399
2.42846
2.42333
2.41866
2.41446
2.41077
2.40759
2.40497
2.40289
2.4014
2.40045
2.40007
2.40008
2.40036
2.40093
2.40206
2.40386
2.40632
2.40901
2.41174
2.4145
2.4172
2.41981
2.42225
2.42447
2.42642
2.42808
2.42943
2.43048
2.43121
2.43167
2.43184
2.43182
2.43168
2.43139
2.43102
2.43023
2.42947
2.42836
2.42751
2.42633
2.42556
2.42269
2.2268
2.21307
2.27121
2.35877
2.41084
2.461
2.49462
2.52184
2.54281
2.55861
2.57039
2.57952
2.58622
2.58875
2.58806
2.58643
2.58261
2.57824
2.57284
2.56701
2.56041
2.5537
2.54644
2.53933
2.53159
2.52402
2.51583
2.50795
2.49954
2.49152
2.48301
2.47495
2.4664
2.45833
2.45001
2.4424
2.43447
2.42647
2.41786
2.40953
2.40135
2.3934
2.38546
2.37768
2.36993
2.36237
2.35486
2.34756
2.34035
2.33337
2.32649
2.31988
2.3134
2.30722
2.30121
2.29553
2.29008
2.28499
2.28017
2.27577
2.2717
2.26808
2.26484
2.26212
2.25981
2.25805
2.25674
2.25599
2.2557
2.25581
2.25614
2.25666
2.25771
2.25935
2.26164
2.26412
2.2667
2.26926
2.27179
2.27418
2.27643
2.27845
2.28024
2.28173
2.28296
2.28387
2.28453
2.2849
2.28503
2.28499
2.28486
2.28459
2.28426
2.28355
2.28288
2.28188
2.28115
2.28014
2.27965
2.27725
2.25964
2.22042
2.21606
2.24113
2.27161
2.29415
2.30938
2.32122
2.33175
2.34102
2.34868
2.35481
2.35956
2.36317
2.36471
2.36498
2.36493
2.36484
2.36465
2.36437
2.36387
2.36322
2.36247
2.36117
2.35962
2.3578
2.35549
2.35296
2.34996
2.34682
2.34324
2.33955
2.33541
2.33124
2.32686
2.32275
2.31836
2.31359
2.30814
2.3026
2.29701
2.29154
2.28593
2.28038
2.27468
2.26906
2.26333
2.25772
2.25205
2.24653
2.24099
2.23563
2.2303
2.22519
2.22015
2.21538
2.21073
2.20641
2.20224
2.19846
2.1949
2.19177
2.18891
2.18653
2.18448
2.18296
2.1818
2.1812
2.181
2.18116
2.18149
2.18201
2.18303
2.18458
2.18669
2.18901
2.19148
2.19391
2.19632
2.19856
2.20069
2.20255
2.20422
2.20558
2.20672
2.20753
2.20813
2.20841
2.20853
2.20846
2.20836
2.20813
2.20784
2.20719
2.20662
2.20572
2.20512
2.20425
2.204
2.20192
2.27512
2.241
2.21932
2.21186
2.21891
2.22354
2.22559
2.22619
2.22721
2.22906
2.23191
2.23421
2.23629
2.23812
2.24089
2.24316
2.2454
2.24783
2.25053
2.25336
2.25627
2.25904
2.26167
2.2639
2.26584
2.26719
2.26816
2.26863
2.26835
2.2678
2.2667
2.26525
2.26324
2.26099
2.25847
2.25603
2.25324
2.24997
2.24594
2.24162
2.23714
2.23264
2.22801
2.22333
2.21849
2.21364
2.20866
2.20371
2.19868
2.19372
2.18873
2.18386
2.179
2.1743
2.16967
2.16526
2.16096
2.15693
2.15306
2.14952
2.1462
2.14327
2.1406
2.13838
2.13647
2.13506
2.134
2.13352
2.13341
2.13361
2.13392
2.1345
2.13552
2.13707
2.13904
2.14124
2.14363
2.14601
2.14835
2.15054
2.15257
2.15436
2.15594
2.15723
2.15829
2.15905
2.15958
2.15983
2.15991
2.15983
2.15973
2.15948
2.15918
2.15851
2.15802
2.15713
2.15661
2.15579
2.15566
2.15366
2.29858
2.25478
2.23057
2.21071
2.20094
2.19406
2.18833
2.18223
2.17741
2.17362
2.17191
2.17143
2.17205
2.17243
2.17353
2.17576
2.17834
2.18152
2.18447
2.18809
2.19148
2.19533
2.19866
2.20218
2.20493
2.20764
2.20943
2.21106
2.21176
2.21232
2.2121
2.21143
2.21025
2.20874
2.207
2.20526
2.20316
2.20054
2.19721
2.1935
2.18957
2.18552
2.18135
2.1771
2.17274
2.1683
2.16376
2.15919
2.15456
2.14994
2.14531
2.14073
2.13619
2.13177
2.12742
2.12324
2.1192
2.11537
2.11173
2.10836
2.10524
2.10244
2.09994
2.09783
2.09606
2.09472
2.09381
2.09342
2.09339
2.09358
2.09391
2.09452
2.09558
2.0971
2.09897
2.10109
2.10336
2.10568
2.10795
2.11008
2.11204
2.11377
2.11528
2.11651
2.1175
2.11822
2.1187
2.11893
2.11897
2.1189
2.11878
2.1185
2.1182
2.11751
2.11707
2.11619
2.11571
2.11493
2.11487
2.11293
2.3222
2.28221
2.24855
2.22374
2.20331
2.18835
2.17595
2.16546
2.15595
2.1485
2.14263
2.13915
2.13704
2.13668
2.13673
2.13731
2.13919
2.14203
2.14526
2.14864
2.15231
2.15607
2.15986
2.16356
2.16698
2.1701
2.1727
2.17487
2.17641
2.17753
2.17798
2.1781
2.1775
2.17658
2.17552
2.17435
2.17285
2.17078
2.16806
2.16492
2.16152
2.15789
2.15416
2.15028
2.14634
2.14226
2.13813
2.13389
2.12962
2.1253
2.12099
2.11667
2.11242
2.10822
2.10414
2.10015
2.09633
2.09267
2.08924
2.08601
2.08307
2.08039
2.07804
2.07601
2.07439
2.07314
2.07235
2.07203
2.07208
2.07225
2.0726
2.07326
2.07436
2.07588
2.07769
2.07973
2.08191
2.08415
2.08635
2.08842
2.09032
2.092
2.09344
2.09464
2.09558
2.09628