/*--------------------------------*- C++ -*----------------------------------*\
| =========                 |                                                 |
| \\      /  F ield         | OpenFOAM: The Open Source CFD Toolbox           |
|  \\    /   O peration     | Version:  2412                                  |
|   \\  /    A nd           | Website:  www.openfoam.com                      |
|    \\/     M anipulation  |                                                 |
\*---------------------------------------------------------------------------*/
FoamFile
{
    version     2.0;
    format      ascii;
    arch        "LSB;label=32;scalar=64";
    class       volScalarField;
    location    "23.5";
    object      Ma;
}
// * * * * * * * * * * * * * * * * * * * * * * * * * * * * * * * * * * * * * //

dimensions      [0 0 0 0 0 0 0];

internalField   nonuniform List<scalar> 
7000
(
2.256
0.994206
0.300548
0.338439
0.401063
0.442391
0.450598
0.446128
0.439774
0.434864
0.432018
0.429746
0.427147
0.424059
0.420588
0.416813
0.412747
0.408368
0.403657
0.398597
0.393175
0.387378
0.381192
0.3746
0.367587
0.360134
0.352225
0.343838
0.334958
0.32556
0.315626
0.305134
0.294064
0.282395
0.270109
0.257185
0.243612
0.229374
0.214466
0.198883
0.182634
0.165728
0.14819
0.130054
0.111369
0.0921931
0.0725912
0.0528473
0.0319233
0.0155245
2.25605
0.994267
0.300346
0.338273
0.400908
0.442243
0.450451
0.445984
0.439636
0.434733
0.431892
0.429623
0.427027
0.423944
0.420477
0.416707
0.412646
0.408273
0.403569
0.398515
0.393101
0.387312
0.381134
0.374552
0.367549
0.360108
0.352212
0.343839
0.334974
0.325592
0.315677
0.305205
0.294158
0.282512
0.270253
0.257359
0.243817
0.229615
0.214747
0.199209
0.183011
0.166165
0.148702
0.130661
0.112103
0.0931178
0.0738195
0.0546561
0.0351575
0.0220574
2.25618
0.994465
0.300479
0.338308
0.400938
0.442276
0.450484
0.446024
0.439693
0.434801
0.431974
0.429709
0.427125
0.424047
0.420594
0.416832
0.412787
0.408424
0.403737
0.398695
0.393301
0.387527
0.381373
0.37481
0.367836
0.360419
0.352556
0.344214
0.335388
0.326045
0.316178
0.305754
0.294764
0.28318
0.27099
0.258173
0.244719
0.230615
0.215859
0.200452
0.184404
0.167742
0.1505
0.132745
0.114566
0.0961172
0.0776342
0.0598401
0.0430411
0.0335724
2.25636
0.99477
0.30075
0.338386
0.401019
0.442375
0.450587
0.446141
0.439824
0.43496
0.432143
0.429898
0.42732
0.424265
0.420823
0.417086
0.413054
0.40872
0.404048
0.399041
0.393666
0.387932
0.381803
0.375287
0.368343
0.360981
0.353157
0.344881
0.336104
0.32684
0.317035
0.306704
0.295795
0.284322
0.272236
0.259554
0.246234
0.232297
0.217718
0.202524
0.18672
0.170347
0.153463
0.136149
0.118555
0.100897
0.083551
0.0674578
0.0533031
0.0461807
2.25661
0.995201
0.301099
0.338455
0.401104
0.442496
0.450717
0.446291
0.439986
0.435164
0.432358
0.430145
0.427576
0.424555
0.421128
0.41743
0.413417
0.409124
0.404479
0.399517
0.394176
0.388494
0.382409
0.375951
0.369064
0.361769
0.354018
0.345819
0.337134
0.32796
0.31827
0.308047
0.29728
0.285939
0.274029
0.261511
0.24841
0.234683
0.22038
0.205466
0.190017
0.174038
0.15764
0.140922
0.124073
0.107409
0.0913722
0.0770296
0.0651086
0.0594946
2.25693
0.995774
0.301542
0.338527
0.4012
0.442641
0.450886
0.446462
0.440216
0.435399
0.432652
0.430438
0.427926
0.424906
0.421542
0.417849
0.413906
0.409625
0.405056
0.400112
0.394858
0.389203
0.383216
0.376799
0.370023
0.362785
0.355158
0.347038
0.338496
0.329428
0.3199
0.309819
0.299238
0.288082
0.27639
0.264111
0.25127
0.237853
0.223871
0.20936
0.194333
0.178894
0.163089
0.147117
0.131166
0.115613
0.100984
0.0882977
0.0781881
0.07362
2.25735
0.9965
0.302086
0.338602
0.401307
0.442819
0.45109
0.446694
0.440477
0.435711
0.432992
0.430822
0.428335
0.425365
0.42203
0.418397
0.414487
0.410275
0.405745
0.400884
0.395676
0.39012
0.384189
0.377889
0.371183
0.364087
0.356548
0.348597
0.340165
0.331298
0.321913
0.31207
0.301675
0.290797
0.279347
0.267396
0.254873
0.241845
0.228282
0.214247
0.199773
0.18494
0.169888
0.154752
0.139834
0.125479
0.112235
0.101078
0.0924449
0.0886254
2.25787
0.997392
0.302737
0.338683
0.401427
0.44303
0.451338
0.446975
0.440796
0.436086
0.433406
0.431285
0.428837
0.425919
0.422632
0.419058
0.415205
0.41106
0.406599
0.401815
0.396692
0.391225
0.3854
0.379204
0.372628
0.365654
0.358277
0.35047
0.342239
0.333545
0.324407
0.314773
0.304683
0.294066
0.282987
0.271368
0.259291
0.246692
0.233666
0.220192
0.206376
0.192283
0.17805
0.163896
0.150054
0.136958
0.125075
0.115263
0.107843
0.104623
2.25848
0.998461
0.303507
0.338771
0.401563
0.443275
0.451634
0.447304
0.441186
0.436526
0.433906
0.431831
0.429441
0.426576
0.423355
0.419843
0.416066
0.411994
0.407622
0.402925
0.397907
0.392547
0.386844
0.38078
0.374351
0.367539
0.360336
0.35273
0.344706
0.33626
0.327372
0.318045
0.308251
0.298017
0.287297
0.276151
0.26452
0.252502
0.240042
0.227276
0.214189
0.200957
0.187671
0.174547
0.161896
0.150028
0.139453
0.130889
0.124493
0.121716
2.25921
0.999721
0.304404
0.338868
0.401717
0.443564
0.451982
0.447705
0.441638
0.437058
0.434487
0.432485
0.430145
0.42736
0.424199
0.420777
0.417073
0.413103
0.408819
0.40424
0.39933
0.394108
0.388539
0.382639
0.376373
0.369756
0.362755
0.355383
0.347609
0.339444
0.330864
0.321876
0.312464
0.302637
0.292393
0.281738
0.270697
0.259275
0.247545
0.235513
0.223322
0.211001
0.198786
0.186794
0.175338
0.164784
0.155439
0.147991
0.14249
0.140145
2.26005
1.00118
0.305437
0.338977
0.401893
0.443896
0.452393
0.448161
0.442187
0.437665
0.435182
0.433233
0.430985
0.428261
0.425201
0.421853
0.418261
0.414381
0.410226
0.405757
0.400997
0.395912
0.390519
0.384787
0.378731
0.372322
0.365571
0.358455
0.350981
0.343132
0.334912
0.326314
0.31734
0.307993
0.298278
0.288216
0.277817
0.267127
0.256173
0.245039
0.233781
0.222546
0.211438
0.200704
0.190518
0.181223
0.173165
0.166807
0.162134
0.160099
2.26101
1.00286
0.306615
0.339101
0.402093
0.444284
0.452869
0.448713
0.442809
0.438393
0.435971
0.434123
0.431938
0.429325
0.426341
0.423116
0.419615
0.415874
0.41183
0.407523
0.4029
0.398004
0.392779
0.387272
0.381424
0.375281
0.368788
0.36199
0.354835
0.347367
0.339542
0.331402
0.322915
0.314121
0.305008
0.295614
0.285957
0.276073
0.266028
0.255858
0.245697
0.235599
0.225772
0.216328
0.207539
0.199608
0.192763
0.187489
0.183631
0.182024
2.26209
1.00475
0.307945
0.339243
0.402323
0.444724
0.453422
0.449338
0.443552
0.43922
0.436903
0.435132
0.433057
0.43053
0.42767
0.424546
0.421186
0.417564
0.413683
0.409521
0.40509
0.400369
0.395374
0.390081
0.384507
0.378627
0.372462
0.365987
0.359226
0.352155
0.344805
0.337154
0.329241
0.321049
0.312631
0.303976
0.295158
0.286181
0.277141
0.268076
0.259097
0.250316
0.24183
0.233865
0.226515
0.220065
0.214645
0.210545
0.207568
0.206265
2.2633
1.00687
0.309428
0.339398
0.402595
0.445221
0.454057
0.450069
0.444401
0.440185
0.437964
0.4363
0.434326
0.43192
0.429173
0.426187
0.422958
0.419497
0.41577
0.411798
0.407552
0.403059
0.398288
0.393267
0.387965
0.382414
0.37658
0.3705
0.364145
0.357552
0.350699
0.343625
0.336323
0.32883
0.321161
0.313353
0.305449
0.297499
0.289565
0.281731
0.274077
0.26673
0.259805
0.253422
0.24778
0.242929
0.239022
0.236288
0.234366
0.233713
2.26463
1.00921
0.311067
0.339557
0.40292
0.44578
0.454786
0.450912
0.445378
0.441294
0.439178
0.437633
0.435771
0.433497
0.43088
0.428041
0.424963
0.421671
0.418126
0.414352
0.410326
0.406068
0.401564
0.396824
0.391847
0.386632
0.381195
0.375521
0.369648
0.363547
0.357281
0.350808
0.344216
0.337462
0.33065
0.323756
0.316885
0.310055
0.303364
0.296885
0.290717
0.284969
0.279764
0.275237
0.271479
0.268668
0.266694
0.265722
0.265191
0.265156
2.26609
1.01178
0.312871
0.339754
0.403285
0.446425
0.45563
0.451882
0.446527
0.442564
0.440584
0.439147
0.43743
0.435277
0.432823
0.430123
0.427231
0.424104
0.420776
0.417202
0.413432
0.409417
0.405217
0.400776
0.39616
0.391313
0.386305
0.381086
0.375725
0.370186
0.36453
0.358752
0.352895
0.346995
0.341075
0.335223
0.329448
0.323881
0.318544
0.313585
0.309075
0.305153
0.301926
0.299522
0.298081
0.297581
0.298078
0.299507
0.301152
0.302677
2.26767
1.01458
0.314832
0.339983
0.403704
0.447178
0.456612
0.453017
0.447863
0.444034
0.442195
0.440878
0.439311
0.437297
0.435011
0.432471
0.429769
0.426835
0.423726
0.420387
0.416874
0.413147
0.409252
0.405162
0.400911
0.396491
0.391922
0.387221
0.382393
0.37748
0.372478
0.367453
0.362403
0.357409
0.352492
0.347731
0.343199
0.338958
0.33515
0.33183
0.329179
0.327314
0.326392
0.326517
0.327917
0.330657
0.334523
0.339628
0.344727
0.348726
2.26936
1.01757
0.316935
0.340248
0.404193
0.448064
0.457762
0.454362
0.449408
0.445757
0.444037
0.442876
0.441439
0.439602
0.437462
0.435123
0.432592
0.42989
0.42699
0.423924
0.420668
0.417264
0.413685
0.409978
0.406116
0.402152
0.398062
0.393902
0.389664
0.385399
0.381123
0.376878
0.372719
0.368678
0.36485
0.36127
0.358064
0.355309
0.353122
0.351687
0.351062
0.351509
0.353201
0.356411
0.36133
0.36807
0.376901
0.387634
0.39937
0.409973
2.27113
1.02073
0.319159
0.340563
0.404773
0.449109
0.459119
0.455939
0.451217
0.447741
0.446153
0.445141
0.443855
0.44219
0.440227
0.438081
0.435759
0.43328
0.430632
0.42783
0.424879
0.42179
0.41858
0.415249
0.411833
0.408323
0.404771
0.401163
0.397571
0.39398
0.390479
0.387065
0.383836
0.380823
0.378122
0.37582
0.373999
0.372845
0.372424
0.372925
0.374589
0.377707
0.382629
0.389496
0.398924
0.411252
0.426948
0.447108
0.470991
0.498598
2.27295
1.02397
0.321439
0.340942
0.405482
0.45037
0.460764
0.457827
0.453392
0.45006
0.448619
0.447724
0.44661
0.445092
0.443327
0.441352
0.439259
0.436994
0.434618
0.432083
0.429455
0.426696
0.42387
0.420947
0.417987
0.414974
0.411964
0.408963
0.406018
0.403167
0.400445
0.397931
0.395652
0.393733
0.392206
0.391244
0.390885
0.391314
0.392699
0.395385
0.399591
0.405688
0.413894
0.425054
0.439621
0.459159
0.485084
0.520597
0.571929
0.664907
2.27503
1.0277
0.32397
0.341215
0.406282
0.451968
0.462916
0.460352
0.456265
0.453161
0.451879
0.451206
0.450307
0.449065
0.447546
0.445885
0.444079
0.44218
0.440151
0.438049
0.435841
0.433596
0.431278
0.428965
0.426619
0.42433
0.422066
0.419924
0.417885
0.416056
0.414438
0.413145
0.412217
0.411774
0.411917
0.412689
0.414251
0.417017
0.421208
0.426899
0.43459
0.444561
0.457832
0.474819
0.497605
0.527613
0.569595
0.63115
0.729828
0.881482
2.27723
1.03168
0.326981
0.342166
0.408012
0.454837
0.466506
0.464321
0.460553
0.457507
0.456267
0.455684
0.454945
0.45388
0.452581
0.451146
0.449622
0.448019
0.44635
0.444623
0.442863
0.441079
0.439305
0.437549
0.435858
0.434238
0.432755
0.431416
0.430308
0.42944
0.428933
0.428802
0.429166
0.430048
0.431685
0.434273
0.437987
0.442904
0.44947
0.457794
0.468593
0.482307
0.499814
0.522624
0.551795
0.591358
0.643915
0.718037
0.828983
0.967141
2.27852
1.03399
0.328853
0.343226
0.410175
0.458583
0.471231
0.469544
0.466104
0.463078
0.461874
0.461409
0.460836
0.459949
0.458838
0.45761
0.45632
0.454983
0.453614
0.452225
0.45084
0.449476
0.448167
0.446931
0.445809
0.444828
0.444037
0.443475
0.443205
0.443294
0.443752
0.444656
0.446241
0.448646
0.451868
0.456156
0.461591
0.468581
0.477196
0.488164
0.501497
0.518495
0.539213
0.565771
0.599045
0.641715
0.697373
0.767757
0.864172
0.967485
2.27968
1.03611
0.332167
0.346924
0.415039
0.464997
0.478241
0.476425
0.472635
0.469262
0.467983
0.467622
0.467212
0.466501
0.465595
0.464598
0.463592
0.462566
0.461554
0.460543
0.45958
0.45866
0.457837
0.457114
0.456549
0.456159
0.456014
0.456127
0.456544
0.457355
0.458728
0.46071
0.463359
0.466848
0.471241
0.476843
0.483682
0.492271
0.50262
0.515407
0.530888
0.54972
0.57284
0.600702
0.635326
0.677098
0.728929
0.79095
0.868872
0.949916
2.27611
1.02971
0.334307
0.356825
0.427461
0.479823
0.493325
0.490526
0.485524
0.481276
0.479618
0.479063
0.47849
0.477621
0.476561
0.475468
0.474405
0.473381
0.472405
0.471494
0.470668
0.469959
0.46938
0.468982
0.468786
0.468824
0.469096
0.469764
0.470844
0.472447
0.474541
0.477329
0.480777
0.485173
0.490484
0.497078
0.504979
0.514559
0.526086
0.539792
0.556357
0.575913
0.599483
0.627367
0.660594
0.700055
0.746337
0.800705
0.86421
0.928789
2.28204
1.02256
0.358759
0.382361
0.44848
0.498373
0.510285
0.506533
0.50079
0.496408
0.494706
0.494017
0.493318
0.492369
0.491303
0.490226
0.489195
0.488198
0.487261
0.48638
0.485604
0.48493
0.484418
0.484034
0.483905
0.48406
0.484606
0.485471
0.486862
0.488709
0.49126
0.494406
0.49849
0.503355
0.509466
0.516592
0.52536
0.535463
0.547711
0.561827
0.578648
0.598177
0.621061
0.647789
0.678649
0.714593
0.755564
0.802437
0.85563
0.909189
1.87634
0.772024
0.273279
0.344119
0.41775
0.441224
0.441131
0.437151
0.433507
0.433413
0.435587
0.438476
0.441476
0.444519
0.447658
0.450906
0.454225
0.457567
0.460906
0.464222
0.467497
0.470676
0.473819
0.47696
0.480152
0.483333
0.486624
0.489945
0.493568
0.497377
0.50168
0.50637
0.511805
0.517902
0.525025
0.53316
0.542611
0.553549
0.566088
0.580728
0.597304
0.616692
0.638461
0.663788
0.692065
0.724539
0.760526
0.800999
0.845807
0.890551
1.8689
0.771413
0.282182
0.35535
0.428332
0.44779
0.443319
0.435959
0.430301
0.428406
0.428318
0.428721
0.429322
0.430226
0.431574
0.433355
0.435613
0.43822
0.441297
0.444723
0.448607
0.452674
0.457151
0.461796
0.466829
0.471984
0.477523
0.483251
0.489343
0.495668
0.502401
0.509472
0.517033
0.525169
0.533966
0.543714
0.554316
0.566338
0.57953
0.594601
0.611249
0.630228
0.651269
0.675026
0.701364
0.730672
0.762985
0.798109
0.836511
0.874187
1.86794
0.7701
0.284315
0.365064
0.443617
0.463692
0.457507
0.448132
0.441126
0.438394
0.437494
0.436896
0.436308
0.435906
0.435819
0.436089
0.436719
0.437722
0.439255
0.441239
0.443727
0.446644
0.450162
0.454165
0.458798
0.463942
0.469669
0.475921
0.482713
0.490083
0.497959
0.506547
0.515636
0.525589
0.536009
0.547452
0.55951
0.572782
0.586951
0.602626
0.619552
0.638285
0.658701
0.681201
0.705736
0.732545
0.761587
0.792789
0.826402
0.858931
1.86943
0.773382
0.290109
0.367278
0.443687
0.464289
0.459068
0.450549
0.44397
0.441606
0.441131
0.440953
0.440736
0.440625
0.44071
0.441016
0.441604
0.442512
0.4437
0.445182
0.446986
0.44922
0.451861
0.455072
0.458758
0.463138
0.46805
0.473771
0.480044
0.487241
0.494986
0.503746
0.513051
0.523422
0.534434
0.546567
0.559477
0.573577
0.588573
0.604828
0.62219
0.640929
0.661015
0.682664
0.705846
0.730694
0.757141
0.785236
0.815024
0.843674
1.87254
0.780063
0.297792
0.361237
0.429064
0.450303
0.448019
0.441953
0.436344
0.434469
0.434507
0.435037
0.435625
0.436339
0.437231
0.438403
0.439864
0.441548
0.443419
0.445526
0.44787
0.450533
0.453491
0.456861
0.460598
0.464875
0.469591
0.475
0.480927
0.487699
0.495078
0.503401
0.512439
0.522484
0.533353
0.545264
0.558089
0.572006
0.586944
0.603046
0.620271
0.638756
0.6584
0.679343
0.701464
0.724937
0.749546
0.77527
0.802286
0.828123
1.88112
0.786643
0.300042
0.349026
0.412195
0.441239
0.44421
0.439523
0.434371
0.432089
0.431845
0.432367
0.433086
0.434006
0.435102
0.436435
0.438031
0.439887
0.442001
0.444397
0.447072
0.450079
0.453389
0.457089
0.461126
0.465643
0.470549
0.47605
0.482011
0.488684
0.495929
0.503987
0.512753
0.52241
0.532897
0.544363
0.556739
0.570158
0.584552
0.600043
0.616558
0.634206
0.652905
0.672755
0.693655
0.71564
0.738563
0.762387
0.787205
0.810854
2.2631
1.10603
0.407209
0.399185
0.459367
0.508062
0.519353
0.514462
0.507539
0.50149
0.497974
0.495502
0.493391
0.491373
0.489345
0.487373
0.485649
0.48416
0.483012
0.482165
0.481737
0.481688
0.482142
0.483075
0.484556
0.486621
0.489305
0.492666
0.496706
0.501516
0.507074
0.513488
0.520731
0.528924
0.538019
0.548146
0.559234
0.571403
0.584577
0.598861
0.614151
0.630546
0.647922
0.666331
0.685686
0.705975
0.727101
0.74898
0.771692
0.793301
2.27251
1.12792
0.391686
0.377131
0.449996
0.510712
0.52911
0.528228
0.524006
0.520202
0.51876
0.518385
0.518369
0.51833
0.517915
0.517286
0.516614
0.515985
0.515417
0.514942
0.514575
0.514381
0.514379
0.514652
0.515235
0.516206
0.517602
0.519534
0.521998
0.525149
0.528936
0.533551
0.538909
0.545194
0.552333
0.560463
0.569558
0.579712
0.59091
0.603182
0.616554
0.630976
0.646474
0.662951
0.68038
0.698692
0.717793
0.737589
0.758146
0.777712
2.29744
1.17664
0.434266
0.383998
0.447093
0.503385
0.521863
0.522891
0.521066
0.519881
0.5203
0.521532
0.523327
0.525128
0.526536
0.527736
0.52886
0.530007
0.531156
0.532337
0.533523
0.534767
0.53606
0.537463
0.538977
0.540674
0.542572
0.544744
0.547236
0.550115
0.553448
0.557286
0.561727
0.566801
0.572629
0.579219
0.586691
0.595029
0.604335
0.614581
0.625813
0.638003
0.651179
0.665324
0.680411
0.696411
0.713224
0.730698
0.74892
0.766303
1.90075
0.805034
0.305817
0.31689
0.374006
0.414891
0.429172
0.432999
0.435822
0.439474
0.444405
0.450152
0.45659
0.463085
0.469263
0.47526
0.481225
0.487188
0.493133
0.499018
0.504841
0.510579
0.516254
0.521841
0.527378
0.53284
0.538296
0.543716
0.549193
0.554718
0.560362
0.56617
0.572206
0.578537
0.585216
0.592341
0.599939
0.608131
0.616903
0.626394
0.636556
0.64753
0.659225
0.671749
0.684985
0.698952
0.713585
0.72891
0.744925
0.76024
2.30595
1.19378
0.449609
0.386643
0.440666
0.492238
0.509239
0.509299
0.506153
0.503676
0.502418
0.502233
0.502689
0.503084
0.503408
0.503913
0.504738
0.506014
0.50771
0.509868
0.512441
0.515483
0.518945
0.522871
0.527185
0.531944
0.537028
0.542531
0.548291
0.554428
0.560813
0.567553
0.574533
0.581872
0.589464
0.597447
0.605737
0.614464
0.623569
0.633167
0.643225
0.653827
0.664956
0.676647
0.688907
0.701719
0.715091
0.728934
0.743336
0.757055
2.31119
1.20375
0.432909
0.369735
0.438376
0.500634
0.522087
0.523499
0.52128
0.519809
0.519937
0.521068
0.522798
0.524303
0.525327
0.526175
0.527009
0.527958
0.529033
0.530321
0.53183
0.533645
0.535752
0.538237
0.541085
0.544361
0.548055
0.55221
0.556822
0.561906
0.567462
0.573476
0.579956
0.586875
0.594267
0.602072
0.610342
0.619
0.628126
0.637627
0.647603
0.657948
0.668784
0.679988
0.691678
0.703732
0.716244
0.729078
0.742359
0.754961
2.31391
1.20958
0.437086
0.371776
0.441503
0.505356
0.527733
0.529413
0.52725
0.525902
0.526374
0.527891
0.530161
0.532355
0.534074
0.535603
0.537129
0.538761
0.540493
0.542355
0.544343
0.54649
0.548811
0.55134
0.554108
0.557141
0.560482
0.564145
0.56818
0.572589
0.577429
0.582685
0.588415
0.594589
0.601258
0.608384
0.61601
0.624092
0.632661
0.641679
0.651158
0.661073
0.671414
0.68217
0.693303
0.704823
0.716664
0.72884
0.741343
0.753233
2.3169
1.2173
0.463456
0.387833
0.4471
0.506227
0.528786
0.532017
0.531139
0.530769
0.531661
0.533589
0.536128
0.538426
0.540453
0.542356
0.544314
0.546356
0.548533
0.550814
0.553245
0.555796
0.558521
0.561393
0.564471
0.56773
0.571232
0.574959
0.578972
0.583257
0.587874
0.59282
0.59814
0.603838
0.609942
0.61646
0.623405
0.630797
0.638626
0.646915
0.655633
0.664808
0.674391
0.684408
0.694796
0.705572
0.716665
0.728073
0.739816
0.750993
1.90563
0.813587
0.324718
0.323678
0.37648
0.414372
0.427259
0.430302
0.432593
0.435933
0.440704
0.446615
0.453342
0.46016
0.466869
0.47353
0.480263
0.487058
0.493923
0.500801
0.507699
0.514578
0.521454
0.528303
0.535148
0.541976
0.548815
0.555661
0.562539
0.569461
0.576442
0.583514
0.590688
0.598006
0.605474
0.613144
0.621011
0.629132
0.637496
0.646144
0.655068
0.664295
0.673808
0.683632
0.693742
0.704148
0.714823
0.725759
0.737005
0.747681
2.312
1.20861
0.464974
0.403504
0.466207
0.527392
0.549319
0.550246
0.546102
0.54227
0.540063
0.538691
0.538097
0.5377
0.536967
0.536245
0.535679
0.535526
0.535715
0.536402
0.537516
0.539129
0.54121
0.543799
0.546858
0.550415
0.554428
0.558924
0.563844
0.569213
0.574974
0.581135
0.587643
0.59451
0.601695
0.609204
0.617008
0.625111
0.633491
0.642156
0.651093
0.660307
0.669788
0.679534
0.689531
0.699766
0.710228
0.720891
0.731819
0.742182
2.29404
1.1696
0.460076
0.422694
0.485802
0.546198
0.566083
0.566122
0.562402
0.559165
0.558409
0.558812
0.559898
0.561162
0.562034
0.562673
0.563265
0.563923
0.564658
0.565482
0.566403
0.567466
0.568719
0.570202
0.571951
0.574009
0.576393
0.579136
0.582254
0.585769
0.589685
0.594023
0.598787
0.603985
0.609615
0.615673
0.622151
0.62904
0.636327
0.643996
0.65203
0.660408
0.669112
0.678124
0.68744
0.697027
0.706883
0.716969
0.72734
0.737192
1.88783
0.805074
0.340782
0.355366
0.406343
0.443122
0.452857
0.452686
0.45175
0.452602
0.455915
0.460539
0.466079
0.472144
0.478234
0.484355
0.490572
0.496893
0.503268
0.509656
0.516018
0.522344
0.528621
0.53485
0.541026
0.54716
0.553261
0.559352
0.565453
0.571597
0.577809
0.584108
0.590528
0.597089
0.603818
0.610732
0.617855
0.625197
0.632775
0.640591
0.648666
0.656993
0.665585
0.674421
0.683502
0.692816
0.702348
0.712088
0.722076
0.731569
1.87402
0.796328
0.339526
0.356662
0.398325
0.426966
0.434881
0.434834
0.433827
0.433315
0.434048
0.435682
0.438239
0.441447
0.444939
0.448771
0.453027
0.457745
0.462906
0.468488
0.474453
0.480775
0.487413
0.494341
0.501517
0.508914
0.516492
0.524231
0.532095
0.540072
0.548136
0.556296
0.564526
0.572846
0.581234
0.58972
0.598287
0.606965
0.615749
0.624647
0.633654
0.64279
0.652055
0.661461
0.671006
0.680699
0.690535
0.700509
0.710661
0.720273
1.88891
0.806049
0.345026
0.37365
0.430941
0.466895
0.473624
0.46957
0.464488
0.461386
0.460434
0.460404
0.460996
0.461961
0.463001
0.464174
0.465606
0.467367
0.469493
0.471995
0.474898
0.478209
0.481959
0.486141
0.490772
0.495838
0.501348
0.50727
0.513607
0.520322
0.527419
0.534849
0.542612
0.550664
0.558996
0.567565
0.576366
0.585358
0.594532
0.603879
0.613393
0.623051
0.63285
0.642767
0.652806
0.662945
0.673192
0.683524
0.694008
0.703902
2.34073
1.12429
0.469037
0.44757
0.513136
0.574876
0.595494
0.594885
0.589586
0.584283
0.581272
0.579363
0.577798
0.576427
0.574873
0.57314
0.571367
0.569654
0.568045
0.566567
0.565244
0.564112
0.563198
0.562549
0.562194
0.562184
0.562535
0.563308
0.564494
0.566133
0.568254
0.570864
0.573989
0.577609
0.581752
0.586386
0.591529
0.597144
0.603241
0.609772
0.616739
0.624095
0.631823
0.639917
0.648331
0.65705
0.666034
0.675271
0.684768
0.693826
1.88937
0.807239
0.346163
0.363473
0.415823
0.456083
0.468554
0.469559
0.46901
0.468988
0.471276
0.474793
0.479001
0.483735
0.488559
0.49337
0.49821
0.503139
0.508114
0.513125
0.518115
0.523092
0.528016
0.532915
0.537757
0.54258
0.54736
0.552137
0.556915
0.561722
0.566566
0.571482
0.576466
0.581574
0.586802
0.592203
0.597767
0.603549
0.60953
0.615766
0.622228
0.628965
0.63595
0.643195
0.650688
0.65844
0.666432
0.674661
0.683143
0.691249
1.8891
0.807387
0.347474
0.36454
0.416096
0.454587
0.465036
0.463971
0.461096
0.458537
0.458071
0.458912
0.460498
0.462705
0.465124
0.467714
0.470582
0.473811
0.477404
0.481347
0.485613
0.490184
0.49504
0.500162
0.505528
0.511113
0.516898
0.522857
0.528973
0.535245
0.541648
0.548181
0.554832
0.561593
0.568459
0.575424
0.582491
0.58966
0.596937
0.604321
0.611822
0.619436
0.627175
0.635034
0.643031
0.651154
0.65942
0.667811
0.676377
0.684511
2.34275
1.12798
0.47272
0.449636
0.51639
0.580629
0.603077
0.603179
0.5981
0.593031
0.590248
0.588693
0.587566
0.586715
0.585712
0.584547
0.583322
0.582198
0.581161
0.580303
0.579564
0.579053
0.578709
0.578649
0.578807
0.579288
0.580053
0.581141
0.582568
0.584343
0.586473
0.588957
0.591797
0.59499
0.598536
0.602432
0.606674
0.611252
0.616158
0.621385
0.626917
0.632747
0.638858
0.645243
0.651883
0.658774
0.665895
0.673238
0.680808
0.688049
1.88982
0.808781
0.353433
0.381414
0.439687
0.479635
0.489593
0.487912
0.484867
0.483482
0.484908
0.487583
0.490931
0.494765
0.498665
0.502615
0.506678
0.510906
0.515269
0.519751
0.524313
0.528946
0.533629
0.538359
0.543129
0.547933
0.552774
0.557651
0.562576
0.56755
0.572583
0.577689
0.58287
0.588146
0.593517
0.599004
0.604603
0.610334
0.616193
0.622195
0.628345
0.63465
0.641115
0.64774
0.654529
0.661483
0.668602
0.675875
0.68333
0.690429
1.87526
0.799752
0.351159
0.378103
0.427535
0.459447
0.467095
0.465965
0.464284
0.46357
0.464097
0.465295
0.467195
0.46948
0.471832
0.474313
0.47702
0.480004
0.483272
0.486821
0.490643
0.494729
0.499072
0.503664
0.508494
0.513552
0.518824
0.524299
0.529962
0.535801
0.541804
0.547954
0.554256
0.560687
0.567257
0.573943
0.580758
0.587684
0.594733
0.601888
0.609159
0.616529
0.624011
0.63159
0.639279
0.647064
0.654957
0.662946
0.671078
0.678778
1.87423
0.799385
0.351684
0.375351
0.422433
0.454101
0.462314
0.461852
0.460735
0.460116
0.460385
0.46121
0.462693
0.464529
0.466377
0.468279
0.470335
0.472591
0.475064
0.477754
0.480671
0.483818
0.487205
0.490833
0.494709
0.498831
0.503204
0.507822
0.512689
0.517797
0.523149
0.528735
0.534554
0.540594
0.546851
0.553311
0.559971
0.566813
0.57384
0.581036
0.5884
0.595921
0.603599
0.611416
0.619367
0.627443
0.63565
0.64398
0.652466
0.660524
1.88906
0.809114
0.35486
0.36266
0.413296
0.452094
0.463036
0.462622
0.460834
0.459587
0.459623
0.460433
0.461973
0.463876
0.465703
0.46751
0.469428
0.47152
0.473805
0.47628
0.478946
0.481804
0.484861
0.488116
0.491576
0.495241
0.499117
0.503203
0.507505
0.51202
0.516754
0.521705
0.526876
0.532263
0.537868
0.543687
0.54972
0.555962
0.562411
0.56906
0.575906
0.582941
0.590157
0.597551
0.605123
0.612866
0.620768
0.628821
0.637046
0.644868
2.31232
1.20466
0.485423
0.431476
0.492573
0.556802
0.582791
0.586284
0.58362
0.580888
0.5796
0.579285
0.579774
0.580604
0.581143
0.581433
0.581666
0.581948
0.582325
0.582792
0.583358
0.584022
0.584799
0.585694
0.586724
0.587893
0.589216
0.590698
0.592353
0.594184
0.596207
0.598422
0.600847
0.603479
0.606333
0.609408
0.612716
0.616253
0.620033
0.624048
0.62831
0.632808
0.637553
0.642533
0.647759
0.653213
0.658898
0.664791
0.670922
0.676816
2.32253
1.22876
0.466104
0.405368
0.481442
0.557502
0.588667
0.593346
0.590713
0.58785
0.586862
0.587315
0.588606
0.590421
0.592103
0.5935
0.594831
0.596244
0.597797
0.599477
0.60128
0.603191
0.60522
0.60736
0.609622
0.611999
0.614502
0.617124
0.619876
0.622751
0.625761
0.6289
0.632179
0.635593
0.639153
0.642855
0.646708
0.650709
0.654868
0.659181
0.663657
0.668291
0.673095
0.678062
0.6832
0.6885
0.693967
0.699588
0.705386
0.710926
2.31273
1.20617
0.48667
0.432539
0.494353
0.559809
0.58687
0.59102
0.588969
0.586856
0.586287
0.586944
0.588453
0.590442
0.592241
0.593835
0.595408
0.597091
0.59892
0.600895
0.603004
0.605248
0.607626
0.610143
0.612799
0.615601
0.618543
0.621634
0.624868
0.628252
0.63178
0.635461
0.639287
0.643266
0.64739
0.651669
0.656094
0.660673
0.665398
0.670277
0.675301
0.680479
0.6858
0.691275
0.696891
0.702658
0.708563
0.714614
0.720821
0.72676
1.88895
0.809181
0.356064
0.364306
0.416386
0.457005
0.469104
0.469121
0.467535
0.466521
0.467165
0.468792
0.471274
0.47423
0.477164
0.48013
0.483238
0.486566
0.49011
0.493871
0.497825
0.50198
0.506315
0.510841
0.51554
0.520422
0.525466
0.530684
0.536054
0.541589
0.547267
0.553101
0.55907
0.565186
0.57143
0.577813
0.584315
0.590951
0.5977
0.604576
0.611558
0.618664
0.625869
0.633192
0.640608
0.648137
0.655757
0.663492
0.671354
0.678841
1.87422
0.800022
0.355299
0.380474
0.428586
0.460132
0.467652
0.466485
0.464744
0.463862
0.464079
0.464931
0.466472
0.468353
0.470186
0.472037
0.474001
0.47614
0.478451
0.480945
0.48361
0.48646
0.489487
0.492707
0.49611
0.499711
0.5035
0.50749
0.511671
0.516054
0.520628
0.525405
0.530372
0.535538
0.540893
0.546443
0.552177
0.558102
0.564204
0.57049
0.576947
0.583581
0.590377
0.59734
0.604456
0.61173
0.619147
0.626714
0.634439
0.641801
1.87704
0.803105
0.359371
0.395142
0.451554
0.484557
0.490479
0.486947
0.482763
0.480816
0.480805
0.481601
0.483011
0.484677
0.486274
0.487896
0.48964
0.491552
0.493627
0.495865
0.498257
0.500811
0.503523
0.506402
0.509445
0.512659
0.516041
0.519598
0.523326
0.527233
0.531312
0.535572
0.540006
0.544622
0.549413
0.554385
0.559532
0.564859
0.570359
0.576037
0.581885
0.587908
0.594096
0.600454
0.606972
0.613653
0.620487
0.627473
0.634618
0.64143
1.19155
1.04888
0.49757
0.190557
0.0107917
0.108721
0.160209
0.208556
0.230155
0.234521
0.222833
0.211371
0.20105
0.191515
0.179479
0.165025
0.147694
0.12776
0.105939
0.0827961
0.0589737
0.0352611
0.0158694
0.0232581
0.0469848
0.0712818
0.0954267
0.119131
0.14245
0.165352
0.187853
0.209927
0.231562
0.252704
0.272713
0.291815
0.311353
0.331725
0.351688
0.370854
0.389366
0.407361
0.424878
0.441929
0.458501
0.474595
0.490201
0.505319
0.519938
0.534058
0.547663
0.56075
0.573298
0.585298
0.596725
0.607564
0.617785
0.627368
0.636276
0.644488
0.651962
0.658676
0.664587
0.669676
0.673909
0.677278
0.679767
0.681397
0.682176
0.682353
0.682178
0.681624
0.680299
0.677802
0.674429
0.670825
0.667151
0.663436
0.659751
0.656174
0.65281
0.649728
0.647
0.644657
0.642735
0.641228
0.640143
0.63945
0.639127
0.639105
0.639267
0.639608
0.640248
0.641343
0.642732
0.64425
0.6458
0.647472
0.649113
0.653888
1.12193
1.03602
0.806155
0.549232
0.502257
0.431273
0.381344
0.340594
0.31031
0.291751
0.260404
0.230141
0.210569
0.208826
0.215963
0.226516
0.238975
0.252891
0.26802
0.283877
0.300255
0.316727
0.333052
0.349226
0.365958
0.382942
0.400105
0.417204
0.4343
0.451231
0.468083
0.484712
0.501209
0.517442
0.533099
0.548014
0.563013
0.578731
0.594595
0.609819
0.624537
0.638907
0.652987
0.666761
0.680216
0.693331
0.706101
0.718512
0.730559
0.742228
0.753511
0.76439
0.774852
0.784878
0.794449
0.803542
0.812133
0.820196
0.827703
0.834624
0.840928
0.846585
0.851565
0.855838
0.859382
0.862177
0.864217
0.865502
0.866065
0.866081
0.865788
0.865126
0.863783
0.861407
0.858195
0.854724
0.851176
0.847612
0.844099
0.840709
0.83753
0.834633
0.83208
0.829905
0.828131
0.826761
0.825791
0.825194
0.824968
0.824998
0.825177
0.825515
0.826085
0.827054
0.828266
0.829609
0.830931
0.832347
0.833539
0.837339
1.07464
1.07548
1.00807
0.899647
0.831172
0.780904
0.744982
0.714888
0.69007
0.671979
0.656881
0.642549
0.63255
0.62742
0.625901
0.626159
0.627666
0.630075
0.633459
0.637728
0.642844
0.648617
0.654979
0.661812
0.669367
0.677526
0.686295
0.695449
0.70502
0.714821
0.724933
0.735181
0.74567
0.756215
0.7666
0.776542
0.786615
0.797395
0.80876
0.819854
0.830662
0.841278
0.851795
0.86219
0.872466
0.882574
0.892517
0.902251
0.911786
0.921078
0.930137
0.938917
0.947423
0.955608
0.963473
0.970969
0.978093
0.984793
0.991064
0.996852
1.00215
1.0069
1.0111
1.01469
1.01767
1.02
1.02169
1.0227
1.02306
1.02294
1.02259
1.02191
1.0206
1.0184
1.01545
1.01221
1.00886
1.00552
1.00224
0.999107
0.996177
0.993529