/*--------------------------------*- C++ -*----------------------------------*\
| =========                 |                                                 |
| \\      /  F ield         | OpenFOAM: The Open Source CFD Toolbox           |
|  \\    /   O peration     | Version:  2412                                  |
|   \\  /    A nd           | Website:  www.openfoam.com                      |
|    \\/     M anipulation  |                                                 |
\*---------------------------------------------------------------------------*/
FoamFile
{
    version     2.0;
    format      ascii;
    arch        "LSB;label=32;scalar=64";
    class       volScalarField;
    location    "23.5";
    object      p;
}
// * * * * * * * * * * * * * * * * * * * * * * * * * * * * * * * * * * * * * //

dimensions      [1 -1 -2 0 0 0 0];

internalField   nonuniform List<scalar> 
7000
(
1.63883
3.75675
11.4556
11.5282
11.0977
10.6882
10.5694
10.584
10.625
10.6648
10.6866
10.7004
10.7149
10.7326
10.7529
10.7752
10.799
10.8244
10.8516
10.8806
10.9115
10.9441
10.9786
11.015
11.0532
11.0933
11.1352
11.1788
11.2242
11.2712
11.3199
11.37
11.4214
11.474
11.5275
11.5817
11.6363
11.6909
11.7452
11.7986
11.8506
11.9006
11.948
11.9922
12.0325
12.0681
12.0984
12.1229
12.1405
12.1535
1.63914
3.75546
11.4551
11.5276
11.0972
10.6878
10.5691
10.5837
10.6247
10.6644
10.6861
10.6999
10.7144
10.7321
10.7524
10.7746
10.7984
10.8238
10.851
10.88
10.9108
10.9434
10.9779
11.0142
11.0524
11.0924
11.1342
11.1779
11.2232
11.2702
11.3188
11.3689
11.4203
11.4729
11.5264
11.5806
11.6351
11.6898
11.744
11.7974
11.8495
11.8996
11.9471
11.9914
12.0318
12.0675
12.0979
12.1225
12.1402
12.1532
1.63903
3.75453
11.4532
11.5267
11.0965
10.6871
10.5684
10.583
10.6239
10.6635
10.6851
10.6989
10.7133
10.7309
10.7512
10.7734
10.7971
10.8224
10.8495
10.8784
10.9092
10.9417
10.9761
11.0123
11.0504
11.0903
11.132
11.1755
11.2208
11.2676
11.3161
11.366
11.4173
11.4697
11.523
11.5771
11.6315
11.686
11.7402
11.7935
11.8455
11.8955
11.943
11.9873
12.0276
12.0634
12.0938
12.1184
12.136
12.149
1.6389
3.75324
11.4499
11.5256
11.0956
10.686
10.5672
10.5818
10.6226
10.662
10.6836
10.6972
10.7116
10.7292
10.7494
10.7714
10.795
10.8203
10.8472
10.876
10.9066
10.939
10.9733
11.0094
11.0473
11.087
11.1285
11.1718
11.2168
11.2635
11.3117
11.3614
11.4124
11.4646
11.5177
11.5715
11.6257
11.68
11.7339
11.787
11.8388
11.8887
11.9361
11.9803
12.0206
12.0564
12.0868
12.1114
12.1289
12.1418
1.63873
3.75137
11.4451
11.5242
11.0943
10.6844
10.5655
10.58
10.6207
10.66
10.6814
10.6949
10.7092
10.7266
10.7467
10.7686
10.7921
10.8172
10.844
10.8726
10.903
10.9352
10.9693
11.0051
11.0428
11.0823
11.1235
11.1665
11.2112
11.2576
11.3055
11.3548
11.4055
11.4572
11.51
11.5634
11.6173
11.6712
11.7248
11.7776
11.8292
11.8789
11.9261
11.9702
12.0104
12.0461
12.0765
12.1011
12.1185
12.1315
1.63851
3.74884
11.4389
11.5224
11.0926
10.6823
10.5632
10.5777
10.6182
10.6573
10.6785
10.6919
10.706
10.7233
10.7432
10.7649
10.7882
10.8131
10.8397
10.8681
10.8982
10.9302
10.9639
10.9995
11.0368
11.076
11.1169
11.1595
11.2038
11.2497
11.2971
11.346
11.3962
11.4475
11.4997
11.5526
11.606
11.6594
11.7125
11.7649
11.8161
11.8654
11.9124
11.9563
11.9964
12.032
12.0624
12.087
12.1044
12.1175
1.63824
3.74561
11.431
11.5202
11.0906
10.6796
10.5603
10.5747
10.6151
10.6539
10.6749
10.6881
10.702
10.7191
10.7388
10.7603
10.7833
10.8079
10.8343
10.8623
10.8922
10.9238
10.9572
10.9924
11.0293
11.068
11.1084
11.1505
11.1943
11.2396
11.2865
11.3348
11.3843
11.4349
11.4865
11.5388
11.5914
11.6442
11.6967
11.7485
11.7991
11.848
11.8946
11.9381
11.978
12.0135
12.0438
12.0685
12.0859
12.0992
1.63793
3.74162
11.4213
11.5174
11.0881
10.6764
10.5568
10.571
10.6112
10.6497
10.6704
10.6833
10.697
10.7139
10.7333
10.7545
10.7772
10.8016
10.8276
10.8553
10.8847
10.9159
10.9489
10.9836
11.02
11.0581
11.098
11.1395
11.1826
11.2272
11.2734
11.3209
11.3696
11.4194
11.4701
11.5215
11.5733
11.6252
11.6769
11.7279
11.7778
11.8261
11.872
11.9151
11.9547
11.99
12.0202
12.0449
12.0623
12.0758
1.63756
3.73681
11.4097
11.5142
11.0851
10.6726
10.5524
10.5666
10.6064
10.6446
10.665
10.6777
10.6911
10.7076
10.7267
10.7476
10.7699
10.7939
10.8195
10.8468
10.8758
10.9065
10.9389
10.973
11.0088
11.0463
11.0854
11.1261
11.1684
11.2122
11.2575
11.304
11.3518
11.4006
11.4502
11.5005
11.5512
11.6021
11.6527
11.7027
11.7516
11.7989
11.8441
11.8866
11.9256
11.9605
11.9905
12.0152
12.0326
12.0465
1.63713
3.73114
11.3961
11.5103
11.0816
10.6681
10.5473
10.5613
10.6008
10.6386
10.6586
10.6709
10.684
10.7002
10.7189
10.7393
10.7613
10.7848
10.8099
10.8367
10.8651
10.8952
10.927
10.9604
10.9955
11.0322
11.0705
11.1103
11.1517
11.1944
11.2386
11.284
11.3305
11.3781
11.4264
11.4754
11.5247
11.5742
11.6234
11.6721
11.7197
11.7658
11.81
11.8515
11.8898
11.9241
11.9538
11.9784
11.9958
12.01
1.63664
3.72456
11.3804
11.5058
11.0775
10.6628
10.5413
10.5551
10.5941
10.6315
10.6511
10.663
10.6757
10.6914
10.7097
10.7297
10.7512
10.7741
10.7987
10.8249
10.8527
10.8821
10.9131
10.9457
10.9799
11.0157
11.053
11.0918
11.132
11.1735
11.2164
11.2604
11.3055
11.3516
11.3984
11.4457
11.4934
11.5411
11.5886
11.6355
11.6815
11.726
11.7687
11.8089
11.846
11.8795
11.9086
11.9329
11.9502
11.9649
1.63609
3.71702
11.3624
11.5006
11.0728
10.6567
10.5343
10.5479
10.5864
10.6232
10.6424
10.6538
10.666
10.6813
10.6991
10.7185
10.7394
10.7618
10.7857
10.8112
10.8382
10.8669
10.897
10.9287
10.9619
10.9966
11.0328
11.0703
11.1092
11.1493
11.1907
11.2331
11.2765
11.3207
11.3656
11.411
11.4566
11.5022
11.5475
11.5922
11.636
11.6784
11.719
11.7573
11.7928
11.8249
11.853
11.8768
11.8939
11.9089
1.63547
3.70849
11.3421
11.4948
11.0674
10.6499
10.5264
10.5396
10.5775
10.6137
10.6324
10.6433
10.6549
10.6697
10.6869
10.7057
10.726
10.7476
10.7708
10.7955
10.8217
10.8494
10.8786
10.9093
10.9413
10.9748
11.0096
11.0457
11.083
11.1215
11.1611
11.2016
11.243
11.2851
11.3277
11.3707
11.4138
11.4568
11.4994
11.5413
11.5822
11.6218
11.6596
11.6952
11.7282
11.7581
11.7844
11.8071
11.8237
11.8393
1.63479
3.69892
11.3194
11.488
11.0612
10.6421
10.5173
10.5301
10.5673
10.6028
10.6209
10.6312
10.6423
10.6564
10.6729
10.6911
10.7106
10.7315
10.7539
10.7777
10.803
10.8296
10.8577
10.8871
10.9179
10.9499
10.9832
11.0177
11.0533
11.0899
11.1274
11.1658
11.2048
11.2444
11.2843
11.3244
11.3645
11.4042
11.4435
11.4818
11.519
11.5548
11.5887
11.6205
11.6498
11.6764
11.6999
11.7206
11.7358
11.7517
1.63407
3.6883
11.2944
11.4804
11.0542
10.6335
10.5071
10.5194
10.5557
10.5904
10.6078
10.6175
10.6279
10.6413
10.6571
10.6746
10.6933
10.7133
10.7348
10.7576
10.7818
10.8073
10.8341
10.8622
10.8915
10.9219
10.9535
10.9861
11.0197
11.0541
11.0893
11.1251
11.1614
11.1981
11.2348
11.2715
11.3079
11.3438
11.3788
11.4127
11.4452
11.4759
11.5045
11.5308
11.5546
11.5758
11.5944
11.6111
11.6239
11.6401
1.63328
3.67669
11.2669
11.472
11.0466
10.6238
10.4955
10.5073
10.5425
10.5764
10.593
10.602
10.6117
10.6243
10.6394
10.6559
10.6738
10.6929
10.7133
10.735
10.758
10.7822
10.8076
10.8342
10.8619
10.8905
10.9202
10.9507
10.982
11.014
11.0465
11.0794
11.1126
11.1458
11.1789
11.2116
11.2437
11.2748
11.3046
11.3329
11.3592
11.3832
11.4047
11.4233
11.4389
11.4517
11.4622
11.4716
11.4789
11.4937
1.63242
3.66414
11.2372
11.4629
11.0382
10.613
10.4825
10.4936
10.5275
10.5604
10.5763
10.5845
10.5935
10.6053
10.6194
10.6351
10.652
10.67
10.6893
10.7098
10.7315
10.7543
10.7782
10.8031
10.8289
10.8556
10.8831
10.9113
10.9401
10.9693
10.9988
11.0284
11.058
11.0874
11.1162
11.1442
11.1711
11.1965
11.2201
11.2413
11.2599
11.2751
11.2868
11.2944
11.2976
11.2969
11.2935
11.2892
11.2852
11.2959
1.63152
3.65077
11.2053
11.4531
11.029
10.6011
10.4679
10.4782
10.5106
10.5424
10.5575
10.5649
10.573
10.5839
10.5971
10.6118
10.6277
10.6446
10.6627
10.6819
10.7021
10.7234
10.7456
10.7686
10.7925
10.817
10.8421
10.8677
10.8936
10.9198
10.9459
10.9719
10.9975
11.0224
11.0463
11.0689
11.0897
11.1084
11.1244
11.137
11.1458
11.1497
11.1481
11.1411
11.1262
11.1043
11.0764
11.0457
11.0155
11.0118
1.63058
3.63674
11.1719
11.4426
11.0191
10.5878
10.4515
10.4609
10.4915
10.5223
10.5365
10.5431
10.5503
10.5603
10.5725
10.5861
10.6008
10.6166
10.6333
10.6511
10.6698
10.6894
10.7097
10.7308
10.7524
10.7746
10.7971
10.8198
10.8427
10.8654
10.8878
10.9097
10.9308
10.9507
10.9691
10.9855
10.9994
11.0102
11.0173
11.0193
11.0164
11.0069
10.9875
10.9584
10.9176
10.8633
10.7941
10.7121
10.6216
10.5662
1.62963
3.62234
11.1377
11.4315
11.0083
10.573
10.4328
10.441
10.4696
10.4991
10.5126
10.5184
10.5247
10.5337
10.5449
10.5575
10.571
10.5855
10.6009
10.6172
10.6342
10.652
10.6703
10.6892
10.7085
10.728
10.7477
10.7674
10.7868
10.8059
10.8242
10.8416
10.8577
10.872
10.8842
10.8937
10.8999
10.9013
10.8986
10.8896
10.871
10.8428
10.802
10.7457
10.6689
10.5658
10.4278
10.2469
10.0131
9.75869
1.62883
3.60404
11.097
11.4184
10.9947
10.5537
10.408
10.4146
10.4404
10.4686
10.4813
10.4862
10.4914
10.4991
10.509
10.5202
10.5322
10.5451
10.5587
10.573
10.5879
10.6034
10.6192
10.6354
10.6516
10.6679
10.684
10.6998
10.7149
10.7292
10.7424
10.754
10.7637
10.771
10.7752
10.7751
10.7722
10.7634
10.7454
10.7186
10.6808
10.6287
10.558
10.4619
10.331
10.1486
9.88554
9.48033
8.78197
7.25976
1.62803
3.58455
11.0539
11.4011
10.9755
10.5254
10.3718
10.3764
10.399
10.4264
10.4389
10.4433
10.4475
10.4541
10.4627
10.4725
10.483
10.494
10.5056
10.5177
10.5302
10.5429
10.5558
10.5686
10.5813
10.5937
10.6055
10.6166
10.6266
10.6352
10.6422
10.647
10.6488
10.6478
10.6436
10.6337
10.6167
10.5923
10.5585
10.5128
10.4523
10.3721
10.2656
10.1233
9.93024
9.66256
9.27872
8.70978
7.86749
6.48121
1.62757
3.57328
11.029
11.3895
10.9601
10.497
10.3327
10.3348
10.3536
10.3808
10.3934
10.3971
10.4002
10.4055
10.4127
10.4209
10.4298
10.4389
10.4485
10.4582
10.4682
10.4781
10.4879
10.4974
10.5064
10.5147
10.5221
10.5283
10.5331
10.5359
10.5361
10.5346
10.5298
10.5196
10.5041
10.4827
10.4538
10.4156
10.366
10.302
10.2195
10.1137
9.97637
9.7977
9.56235
9.24915
8.82889
8.26135
7.5295
6.55653
1.62694
3.56408
11.0057
11.3681
10.932
10.4516
10.2777
10.2799
10.3002
10.3309
10.3448
10.3484
10.3506
10.3548
10.361
10.3681
10.3754
10.3828
10.3902
10.3977
10.405
10.4121
10.4188
10.4249
10.4302
10.4345
10.4375
10.4389
10.4385
10.4363
10.4311
10.4216
10.4082
10.3899
10.3657
10.3345
10.2945
10.2441
10.1807
10.1013
10.0018
9.8773
9.72082
9.52363
9.27455
8.95978
8.56473
8.07365
7.49331
6.76426
1.62766
3.59844
11.0672
11.3654
10.9046
10.3859
10.2007
10.206
10.2342
10.272
10.2885
10.292
10.2937
10.2974
10.303
10.3092
10.3152
10.3211
10.3268
10.3323
10.3373
10.3419
10.3458
10.3488
10.3507
10.3512
10.3505
10.3482
10.3431
10.3349
10.3235
10.3082
10.2883
10.2631
10.2312
10.1916
10.1425
10.0822
10.0083
9.91805
9.8078
9.67324
9.50904
9.3089
9.06552
8.77116
8.41859
8.00062
7.51969
6.96867
1.58995
3.70891
11.072
11.2743
10.8238
10.3045
10.1316
10.1416
10.1782
10.2182
10.2346
10.2384
10.2404
10.244
10.2489
10.2538
10.2583
10.2623
10.2659
10.269
10.2715
10.2732
10.274
10.2738
10.2727
10.2698
10.2646
10.2573
10.2475
10.2346
10.2181
10.1975
10.1719
10.1405
10.1022
10.0558
9.99977
9.93234
9.85154
9.75482
9.63931
9.50159
9.33779
9.14358
8.91453
8.64616
8.33516
7.97884
7.57921
7.13155
1.55512
4.81613
11.2231
10.9532
10.3121
10.0552
10.0509
10.0774
10.1248
10.1513
10.161
10.1652
10.1695
10.1746
10.1797
10.1842
10.1881
10.1912
10.1936
10.1952
10.1958
10.1956
10.1946
10.1921
10.1876
10.1816
10.1739
10.1638
10.1507
10.1342
10.1138
10.0887
10.0585
10.0223
9.97905
9.92766
9.86686
9.79506
9.71049
9.61111
9.49462
9.35846
9.19989
9.01604
8.80417
8.56186
8.28766
7.98154
7.64486
7.27038
1.55601
4.82311
11.1729
10.8841
10.2396
10.0002
10.0104
10.0529
10.1014
10.123
10.1291
10.1316
10.1346
10.1378
10.1404
10.142
10.1427
10.1426
10.1419
10.1401
10.137
10.1331
10.1282
10.1219
10.1139
10.104
10.0918
10.0771
10.0596
10.0388
10.0144
9.98577
9.95204
9.91216
9.86521
9.81034
9.74633
9.67193
9.58576
9.48617
9.37142
9.2396
9.08882
8.91711
8.72287
8.50467
8.26182
7.99379
7.7069
7.39087
1.56616
4.84222
11.2355
10.904
10.1833
9.92278
9.93789
9.99262
10.05
10.0744
10.0807
10.0835
10.0868
10.0902
10.0925
10.0935
10.0934
10.0924
10.09
10.0858
10.0807
10.0744
10.0667
10.0574
10.0462
10.0329
10.0174
9.99926
9.97828
9.95402
9.92581
9.89302
9.85507
9.81157
9.76179
9.70468
9.6393
9.56424
9.47829
9.3802
9.26881
9.14262
9.00047
8.84103
8.66333
8.46667
8.25138
8.01725
7.76815
7.49772
1.55648
4.82041
11.1596
10.8522
10.1592
9.898
9.91007
9.95935
10.0155
10.0398
10.0454
10.0469
10.0488
10.0507
10.0514
10.051
10.0494
10.046
10.0412
10.0353
10.0282
10.0197
10.0096
9.99778
9.98395
9.96796
9.94951
9.92842
9.90428
9.8768
9.84542
9.80973
9.76925
9.72328
9.67119
9.61205
9.54515
9.46968
9.38484
9.28953
9.18284
9.06351
8.93053
8.7831
8.62092
8.44393
8.25232
8.04549
7.82708
7.59235
1.5273
4.7628
10.9521
10.7276
10.1507
9.90259
9.90352
9.93293
9.98159
10.0049
10.0106
10.0114
10.012
10.0122
10.0118
10.0101
10.0065
10.0013
9.9951
9.9877
9.97888
9.96849
9.95634
9.94234
9.92623
9.90794
9.88711
9.8636
9.83698
9.807
9.77328
9.73538
9.69284
9.64507
9.59159
9.53173
9.46484
9.39021
9.30712
9.21475
9.11228
8.99916
8.87488
8.73898
8.59095
8.43049
8.25771
8.07476
7.88205
7.67606
1.51123
4.71729
10.8689
10.7327
10.2339
9.94118
9.88941
9.90775
9.94719
9.97128
9.978
9.97773
9.97656
9.97425
9.97135
9.96752
9.96243
9.95607
9.94842
9.93944
9.92894
9.91686
9.90298
9.88725
9.8694
9.84933
9.82669
9.80136
9.77296
9.74124
9.70587
9.66645
9.62266
9.57399
9.51994
9.46002
9.39375
9.32056
9.23988
9.15107
9.0536
8.94699
8.83085
8.70484
8.56885
8.42297
8.26753
8.1032
7.93123
7.74864
1.66808
3.2927
10.5072
11.0129
10.597
10.0772
9.88906
9.89303
9.91829
9.95134
9.96205
9.96089
9.95693
9.95057
9.94473
9.9388
9.93189
9.92363
9.91398
9.90291
9.89035
9.87613
9.86011
9.8423
9.82242
9.80028
9.77561
9.74827
9.71794
9.68442
9.64737
9.60647
9.56136
9.51165
9.45697
9.39697
9.3313
9.25951
9.18115
9.09582
9.00302
8.90243
8.79381
8.6769
8.55171
8.41837
8.27718
8.12864
7.97392
7.81054
1.676
3.16909
10.4415
11.1646
10.7159
10.1121
9.86728
9.85445
9.87219
9.90436
9.9148
9.91293
9.90692
9.89757
9.88994
9.8834
9.87646
9.86825
9.85858
9.84743
9.83475
9.8204
9.80425
9.7861
9.76583
9.74325
9.71809
9.69021
9.65931
9.62525
9.58769
9.54645
9.50126
9.45184
9.39796
9.33917
9.27509
9.20536
9.1297
9.04768
8.95906
8.8637
8.76155
8.65274
8.53711
8.41473
8.28579
8.15074
8.01055
7.86311
1.64117
3.05458
9.91266
11.0086
10.6486
10.1097
9.88656
9.8657
9.87667
9.89499
9.89665
9.8927
9.88255
9.86918
9.85801
9.8483
9.83851
9.82775
9.81577
9.80253
9.78796
9.77193
9.75425
9.73477
9.71329
9.68966
9.66366
9.63505
9.60357
9.56905
9.5313
9.49007
9.44514
9.39622
9.34305
9.28532
9.22277
9.15513
9.08217
9.00378
8.91984
8.83015
8.7345
8.63274
8.52479
8.411
8.29222
8.16875
8.04106
7.90721
1.43604
4.54907
10.3366
10.5122
10.2197
9.92505
9.81707
9.81445
9.82273
9.83324
9.83315
9.82961
9.82056
9.8086
9.79834
9.78921
9.77972
9.7691
9.7572
9.744
9.72945
9.71339
9.69567
9.67612
9.6546
9.63092
9.60494
9.57639
9.54511
9.511
9.47381
9.43328
9.38922
9.34141
9.28964
9.23366
9.17328
9.10829
9.03854
8.96388
8.8842
8.79937
8.70933
8.6141
8.51407
8.40932
8.29976
8.1856
8.06785
7.94506
1.63351
3.00311
9.72759
10.8964
10.5815
10.0813
9.86177
9.82751
9.83287
9.83935
9.83659
9.82743
9.81075
9.79495
9.78134
9.76878
9.75595
9.74212
9.72709
9.71099
9.6938
9.67532
9.65535
9.63373
9.61029
9.58492
9.55743
9.52778
9.49581
9.4612
9.42374
9.38323
9.33952
9.29245
9.24181
9.18737
9.12894
9.06637
8.99953
8.92827
8.85253
8.77226
8.68747
8.5982
8.50459
8.40677
8.30487
8.1993
8.09064
7.97765
1.64237
2.935
9.72898
11.0213
10.64
10.049
9.79177
9.75826
9.76842
9.78406
9.78298
9.77583
9.75987
9.74278
9.72894
9.71681
9.70456
9.69146
9.67734
9.66197
9.6452
9.62699
9.60724
9.58583
9.56263
9.5375
9.51027
9.48083
9.44901
9.41465
9.37759
9.33772
9.29484
9.24874
9.19927
9.14634
9.08981
9.02956
8.96549
8.89752
8.82558
8.74962
8.66964
8.58569
8.49786
8.40628
8.31116
8.21296
8.11208
8.0073
1.64068
2.91569
9.67448
10.9997
10.6149
10.0089
9.74231
9.7072
9.71834
9.73667
9.73617
9.72992
9.71495
9.69734
9.68322
9.67116
9.65907
9.646
9.63173
9.61618
9.5993
9.581
9.5612
9.53976
9.51656
9.49148
9.46439
9.43515
9.40364
9.36972
9.33327
9.29413
9.25218
9.20727
9.15926
9.10805
9.05356
8.99571
8.9344
8.86958
8.80119
8.7292
8.65364
8.57455
8.49205
8.40629
8.31734
8.22555
8.13137
8.03366
1.62632
2.92425
9.50639
10.8593
10.5493
9.9983
9.74271
9.69483
9.69954
9.70783
9.70551
9.69696
9.67974
9.66302
9.6487
9.63561
9.62239
9.60834
9.59323
9.57698
9.55952
9.54075
9.52055
9.4988
9.47538
9.45017
9.42304
9.39389
9.3626
9.32905
9.2931
9.25462
9.21352
9.1697
9.12308
9.07359
9.0211
8.96553
8.90679
8.84489
8.77977
8.71143
8.63988
8.56518
8.48743
8.40675
8.32338
8.2374
8.14913
8.05754
1.39427
4.48171
10.0357
10.3045
10.0238
9.73619
9.62832
9.61918
9.62458
9.63116
9.63009
9.62486
9.61353
9.60082
9.58937
9.57851
9.56716
9.5547
9.54097
9.52592
9.50951
9.49167
9.47234
9.45143
9.42883
9.40445
9.37817
9.34989
9.31953
9.28701
9.25222
9.21504
9.17539
9.1332
9.08838
9.04085
8.99052
8.93732
8.88125
8.82226
8.76037
8.69559
8.62792
8.55737
8.48401
8.40793
8.32933
8.24829
8.16516
8.07897
1.63154
2.94794
9.59367
10.8426
10.4985
9.90969
9.6362
9.59386
9.60415
9.62459
9.62618
9.62151
9.60911
9.59179
9.57686
9.56374
9.55051
9.53626
9.52069
9.50379
9.48566
9.46614
9.44525
9.42299
9.39929
9.37402
9.34703
9.31822
9.28748
9.25472
9.21991
9.18302
9.14399
9.10269
9.05905
9.01297
8.96439
8.91327
8.85954
8.80312
8.74401
8.68221
8.61773
8.55066
8.48108
8.4091
8.33484
8.25837
8.17992
8.09858
1.64179
3.0774
9.86649
10.7745
10.392
9.78016
9.51826
9.49811
9.51543
9.54823
9.55769
9.55503
9.54666
9.53243
9.51994
9.50907
9.49799
9.48569
9.47194
9.4568
9.44045
9.42282
9.40369
9.38294
9.36047
9.33626
9.31031
9.28256
9.25294
9.22144
9.18796
9.15243
9.11476
9.07489
9.03275
8.98828
8.94145
8.89222
8.84055
8.78643
8.72987
8.67093
8.60959
8.54584
8.47973
8.41137
8.34083
8.26822
8.19378
8.11661
1.40442
4.54562
10.1043
10.1594
9.85364
9.54628
9.44672
9.45203
9.47141
9.49139
9.49712
9.4956
9.49056
9.4811
9.47176
9.4627
9.45292
9.44182
9.42924
9.41521
9.39976
9.38285
9.36438
9.3443
9.32256
9.29914
9.27402
9.24714
9.21844
9.18785
9.15539
9.12098
9.08459
9.04612
9.00555
8.96282
8.9179
8.87073
8.82133
8.76965
8.71569
8.65944
8.60096
8.54031
8.47752
8.41265
8.34576
8.2769
8.20623
8.13297
1.38837
4.55534
10.0007
10.0256
9.78374
9.55151
9.46912
9.46648
9.47265
9.48206
9.48375
9.48167
9.47572
9.46568
9.45538
9.44496
9.43375
9.42136
9.40767
9.3927
9.37644
9.35885
9.3399
9.31952
9.29764
9.27422
9.24921
9.22256
9.19426
9.16424
9.1324
9.0987
9.06308
9.02549
8.9859
8.94428
8.90057
8.85472
8.80683
8.75697
8.70507
8.65109
8.59502
8.53689
8.47673
8.41456
8.35048
8.2846
8.21707
8.14713
1.42151
4.56879
10.2126
10.1824
9.79842
9.46303
9.36987
9.38183
9.41304
9.4375
9.44442
9.44305
9.43844
9.42983
9.42088
9.41176
9.4018
9.39051
9.37776
9.36356
9.34792
9.33082
9.31224
9.29219
9.27064
9.24755
9.22289
9.19663
9.16876
9.13923
9.10798
9.07497
9.04014
9.00351
8.96506
8.92477
8.88264
8.83867
8.79275
8.74481
8.69487
8.64298
8.58918
8.53346
8.47585
8.4164
8.35516
8.29218
8.22757
8.1605
1.53228
3.35218
9.88884
10.7069
10.319
9.67685
9.39299
9.36717
9.38481
9.42067
9.43483
9.4338
9.42914
9.41936
9.4089
9.3989
9.38846
9.37681
9.36372
9.3492
9.3333
9.31603
9.29736
9.27726
9.25566
9.23255
9.20782
9.18146
9.1536
9.12411
9.09294
9.06007
9.02552
8.98928
8.95133
8.91165
8.87022
8.82703
8.78205
8.73526
8.68669
8.63639
8.58424
8.53027
8.4746
8.41728
8.35834
8.29783
8.23587
8.17174
1.39674
4.53411
10.0662
10.0952
9.79211
9.46704
9.34505
9.34349
9.3549
9.37636
9.38518
9.38449
9.38097
9.37331
9.36435
9.35559
9.3464
9.33604
9.32424
9.31099
9.29633
9.28026
9.26276
9.24378
9.22331
9.2013
9.17772
9.15258
9.12591
9.09766
9.06783
9.03642
9.00339
8.96866
8.93221
8.89403
8.85412
8.81247
8.76908
8.72395
8.67708
8.62844
8.57816
8.52628
8.47277
8.41766
8.361
8.30284
8.24332
8.18188
1.39413
4.53122
10.0487
10.0822
9.77553
9.44766
9.32746
9.32776
9.34033
9.36308
9.37247
9.37159
9.36753
9.35894
9.34927
9.33978
9.32983
9.31871
9.3062
9.29232
9.27711
9.2606
9.24279
9.22363
9.20311
9.1812
9.15791
9.13322
9.10702
9.07925
9.04991
9.01896
8.98643
8.95234
8.91669
8.87946
8.8406
8.80012
8.758
8.71424
8.66886
8.62185
8.57326
8.52309
8.47137
8.41811
8.36334
8.30713
8.24953
8.19008
1.53046
3.34018
9.8494
10.6877
10.3015
9.63705
9.33324
9.29752
9.31407
9.34887
9.36407
9.36318
9.35861
9.34876
9.33794
9.32798
9.31793
9.30687
9.29445
9.28067
9.26556
9.24916
9.23142
9.21233
9.19186
9.16991
9.14664
9.12193
9.09573
9.06802
9.03881
9.00808
8.97586
8.94215
8.90693
8.87019
8.83192
8.79211
8.75075
8.70786
8.66344
8.6175
8.57005
8.52112
8.47071
8.41888
8.36564
8.31104
8.25519
8.19768
1.40813
4.54766
10.1185
10.0922
9.70679
9.35394
9.24378
9.25303
9.28232
9.31129
9.32089
9.31996
9.31607
9.30801
9.29936
9.29088
9.28184
9.27163
9.26006
9.24714
9.23291
9.2174
9.20059
9.18245
9.16296
9.14209
9.11985
9.09621
9.07115
9.04463
9.01663
8.98721
8.95634
8.924
8.89016
8.85482
8.81798
8.77964
8.73981
8.69847
8.6556
8.61121
8.56532
8.51795
8.46914
8.4189
8.36724
8.31426
8.26004
8.20417
1.39308
4.55545
10.0076
9.98183
9.66879
9.38843
9.29996
9.30297
9.31514
9.32595
9.32649
9.324
9.31739
9.30729
9.29726
9.28734
9.27682
9.26528
9.25258
9.23871
9.22368
9.20749
9.19012
9.17156
9.15176
9.1307
9.10837
9.08474
9.0598
9.03352
9.00592
8.97693
8.9465
8.91464
8.88133
8.84657
8.81033
8.77263
8.73346
8.69287
8.65085
8.60741
8.56255
8.51626
8.46859
8.41951
8.36911
8.31735
8.26428
8.20946
1.38512
4.54772
9.95896
9.94757
9.6589
9.38718
9.29491
9.29423
9.30039
9.30809
9.30815
9.3059
9.29974
9.28984
9.2799
9.2701
9.25976
9.24845
9.23606
9.22258
9.208
9.19227
9.17537
9.15726
9.13793
9.11734
9.09549
9.07234
9.04789
9.02211
8.99498
8.96648
8.9366
8.90534
8.87267
8.83862
8.80317
8.76633
8.72806
8.68837
8.64726
8.60473
8.5608
8.51547
8.46879
8.42083
8.37152
8.32084
8.26883
8.21502
1.37721
4.50924
9.91941
10.0315
9.73119
9.40332
9.28208
9.27806
9.28666
9.29901
9.30111
9.29876
9.29207
9.28101
9.2703
9.26016
9.24968
9.23827
9.22575
9.2121
9.19735
9.18147
9.16446
9.14627
9.1269
9.10632
9.08452
9.06147
9.03715
9.01156
8.98467
8.95646
8.92694
8.89607
8.86386
8.83029
8.79536
8.75907
8.7214
8.68235
8.64194
8.60018
8.55708
8.51268
8.46692
8.41981
8.37138
8.32167
8.27074
8.2182
1.62613
2.96903
9.52177
10.6176
10.2731
9.64738
9.33793
9.27212
9.27968
9.29789
9.30533
9.30307
9.29553
9.28115
9.26796
9.25664
9.24578
9.23423
9.22159
9.20781
9.19295
9.17701
9.15998
9.14182
9.12251
9.10201
9.0803
9.05737
9.03319
9.00775
8.98102
8.95301
8.92368
8.89303
8.86106
8.82775
8.7931
8.7571
8.71976
8.68108
8.64106
8.59971
8.55705
8.51308
8.46782
8.42128
8.37352
8.32462
8.27463
8.22324
1.63545
2.85378
9.48415
10.8212
10.4148
9.6767
9.30959
9.23164
9.24219
9.26816
9.2828
9.28159
9.27545
9.26206
9.24794
9.23636
9.22593
9.21501
9.20293
9.18962
9.17519
9.15967
9.14308
9.12537
9.10651
9.08648
9.06527
9.04284
9.01919
8.99429
8.96813
8.9407
8.91199
8.88197
8.85065
8.81801
8.78406
8.74878
8.71218
8.67425
8.635
8.59443
8.55255
8.50936
8.46488
8.41914
8.37219
8.32406
8.27484
8.22427
1.62645
2.96228
9.5063
10.6081
10.2636
9.63129
9.31376
9.24614
9.25452
9.27513
9.28529
9.28341
9.27636
9.26194
9.24808
9.23637
9.22542
9.21391
9.20134
9.18765
9.17291
9.15714
9.14034
9.12247
9.10351
9.08341
9.06217
9.03975
9.01615
8.99133
8.96529
8.938
8.90946
8.87965
8.84855
8.81617
8.78249
8.74751
8.71122
8.67363
8.63473
8.59454
8.55305
8.51028
8.46624
8.42095
8.37442
8.32669
8.2778
8.22737
1.37418
4.50586
9.89999
10.0119
9.70739
9.3653
9.23662
9.23217
9.24169
9.25624
9.25937
9.25714
9.25064
9.23966
9.22906
9.21912
9.20893
9.19788
9.18576
9.17257
9.15836
9.14312
9.12683
9.10947
9.09101
9.07143
9.0507
9.02881
9.00574
8.98147
8.95598
8.92925
8.90127
8.87204
8.84153
8.80974
8.77665
8.74228
8.7066
8.66962
8.63133
8.59174
8.55085
8.50868
8.46523
8.42052
8.37455
8.32731
8.27881
8.22856
1.37995
4.5411
9.92449
9.90703
9.60719
9.33013
9.24224
9.24454
9.25525
9.26522
9.26546
9.26287
9.25591
9.24508
9.23447
9.22419
9.21349
9.2019
9.1893
9.1757
9.16112
9.14554
9.12893
9.11127
9.09253
9.0727
9.05174
9.02965
9.0064
8.98196
8.95634
8.9295
8.90143
8.87213
8.84157
8.80976
8.77667
8.74232
8.70668
8.66976
8.63155
8.59207
8.55131
8.50929
8.46601
8.42148
8.37572
8.32875
8.28057
8.23087
1.40414
4.56236
10.0549
9.98752
9.59219
9.27614
9.19333
9.20494
9.23466
9.25507
9.25762
9.25497
9.24794
9.23756
9.22761
9.21792
9.20766
9.19639
9.18405
9.17069
9.15633
9.14096
9.12456
9.1071
9.08856
9.06892
9.04816
9.02626
9.0032
8.97897
8.95354
8.92689
8.89902
8.86992
8.83956
8.80794
8.77505
8.74089
8.70544
8.66872
8.63071
8.59142
8.55085
8.50902
8.46593
8.4216
8.37605
8.3293
8.28139
8.23212
3.04421
2.45898
3.00442
4.181
4.12703
4.11017
4.04929
4.01161
3.99871
4.00148
4.02912
4.07277
4.10988
4.14058
4.17455
4.21726
4.26892
4.32699
4.38863
4.45153
4.51394
4.57467
4.63321
4.69013
4.7411
4.78643
4.8261
4.8605
4.88962
4.91364
4.9326
4.94667
4.95598
4.96075
4.96115
4.95953
4.9542
4.94291
4.92748
4.90971
4.8897
4.86737
4.84286
4.81642
4.78834
4.75886
4.72826
4.69677
4.66463
4.63205
4.59926
4.56646
4.53386
4.50165
4.47005
4.43925
4.40945
4.38084
4.35363
4.32801
4.30417
4.2823
4.26258
4.24519
4.23026
4.21794
4.20829
4.20137
4.19715
4.19567
4.19589
4.19697
4.2
4.20669
4.21843
4.23146
4.24483
4.25838
4.27197
4.2853
4.29802
4.30981
4.32042
4.32965
4.3374
4.34362
4.34831
4.35152
4.35334
4.35394
4.35387
4.35349
4.35244
4.35012
4.34618
4.3418
4.33728
4.33259
4.32755
4.32313
4.0967
3.5548
3.75739
4.23555
4.15272
4.09603
4.0367
3.99627
3.98463
3.99685
4.03803
4.0885
4.12028
4.14218
4.17121
4.21213
4.2634
4.32143
4.38294
4.44574
4.50806
4.56893
4.62775
4.68441
4.73545
4.78079
4.82057
4.85511
4.88436
4.90851
4.92758
4.94177
4.95115
4.95594
4.95616
4.95498
4.95072
4.94072
4.92376
4.90538
4.88553
4.86353
4.83927
4.813
4.78503
4.75567
4.72518
4.6938
4.66176
4.62929
4.59659
4.56387
4.53134
4.49921
4.46767
4.43692
4.40717
4.3786
4.35142
4.32583
4.30201
4.28017
4.26047
4.2431
4.2282
4.21592
4.20634
4.19952
4.19552
4.19454
4.19482
4.19598
4.19901
4.2056
4.21741
4.23075
4.24447
4.25831
4.2721
4.28559
4.29846
4.31037
4.32106
4.33036
4.33814
4.34437
4.34904
4.3522
4.35398
4.35449
4.3544
4.35401
4.35297
4.3507
4.34664
4.34213
4.33753
4.33292
4.32812
4.32532
5.22619
4.4652
4.23711
4.26886
4.24958
4.19703
4.11489
4.06185
4.04182
4.0443
4.05684
4.08614
4.12141
4.15283
4.18591
4.22656
4.27552
4.33109
4.39046
4.45139
4.51215
4.5716
4.6289
4.68341
4.73359
4.77844
4.8178
4.85186
4.88068
4.90442
4.92313
4.93696
4.94598
4.95035
4.95027
4.94918
4.94554
4.93691
4.91964
4.90027
4.87981
4.85771
4.83357
4.80745
4.77961
4.75035
4.71997
4.6887
4.65678
4.62442
4.59184
4.55923
4.52682
4.49479
4.46335
4.43269
4.40302
4.37454
4.34744
4.32192
4.29818
4.2764
4.25678
4.23949
4.2247
4.21254
4.20313
4.19659
4.19303
4.19269
4.19305
4.19433
4.19751
4.20427
4.21603
4.22962
4.24385
4.25822
4.27247
4.28632
4.29946
4.31159
4.32245
4.33185
4.33968
4.3459
4.35053
4.35359
4.35526
4.35557
4.35544
4.355
4.35387
4.35147
4.34731
4.34266
4.33795
4.3334
4.3288
4.32774
5.82964
5.09661
4.66419
4.46756
4.42876
4.36287
4.27055
4.19013
4.1383
4.11802
4.12034
4.13144
4.15767
4.19466
4.22816
4.26303
4.3039
4.35165
4.40471
4.46079
4.51784
4.57437
4.62914
4.68144
4.72986
4.77361
4.81219
4.84549
4.87362
4.89675
4.91491
4.92821
4.93677
4.94056
4.94039
4.93926
4.93589
4.92811
4.91222
4.89213
4.87079
4.84825
4.8241
4.79818
4.77061
4.74162
4.7115
4.68048
4.64881
4.61671
4.58437
4.55201
4.51982
4.48801
4.45679
4.42634
4.39688
4.36859
4.34169
4.31635
4.29279
4.2712
4.25176
4.23466
4.22007
4.20815
4.19902
4.19291
4.19002
4.19009
4.19063
4.1922
4.19578
4.20316
4.21465
4.2283
4.24301
4.25805
4.27293
4.28728
4.30079
4.31319
4.32422
4.33373
4.3416
4.3478
4.35234
4.35533
4.35682
4.35684
4.35668
4.35612
4.3548
4.35207
4.3479
4.34321
4.3384
4.33389
4.32953
4.32961
6.23263
5.59768
5.12323
4.83409
4.68528
4.57233
4.4609
4.35936
4.28187
4.23439
4.21463
4.21559
4.22192
4.23839
4.2709
4.30367
4.33994
4.38125
4.42739
4.47715
4.52896
4.58126
4.6326
4.68184
4.72794
4.76994
4.80726
4.83941
4.86655
4.88884
4.9062
4.91878
4.92668
4.9297
4.92944
4.9282
4.92484
4.9174
4.90235
4.8826
4.86082
4.83772
4.81327
4.78736
4.75999
4.7313
4.70149
4.67079
4.63943
4.60763
4.5756
4.54353
4.51165
4.48014
4.44921
4.41906
4.38989
4.36189
4.33527
4.31023
4.28696
4.26566
4.24652
4.22972
4.21546
4.20389
4.19524
4.18963
4.18751
4.18768
4.18845
4.19041
4.19461
4.20285
4.2141
4.22765
4.24263
4.2582
4.27367
4.28854
4.30244
4.31509
4.32627
4.33585
4.34373
4.34989
4.35434
4.35719
4.35838
4.35832
4.35803
4.35726
4.35558
4.35246
4.34834
4.34365
4.3388
4.3343
4.33031
4.33061
6.53968
6.00463
5.55005
5.20633
4.97337
4.80697
4.66986
4.55059
4.4525
4.38041
4.33515
4.3133
4.31322
4.31641
4.3271
4.35027
4.38264
4.41863
4.45741
4.49932
4.54397
4.59023
4.63664
4.6819
4.72489
4.76458
4.80014
4.83105
4.85714
4.87849
4.89492
4.90673
4.91397
4.91621
4.91587
4.91452
4.91107
4.90367
4.88906
4.87014
4.84849
4.82506
4.80028
4.77427
4.74705
4.71866
4.68924
4.65896
4.62802
4.59663
4.56501
4.53336
4.50189
4.47079
4.44029
4.41056
4.38182
4.35426
4.32807
4.30347
4.28064
4.25978
4.24109
4.22472
4.21095
4.19992
4.19183
4.18676
4.18546
4.18572
4.18671
4.1891
4.19409
4.20291
4.21429
4.22779
4.24282
4.25863
4.27446
4.28969
4.30388
4.31673
4.32802
4.33762
4.34548
4.35158
4.35595
4.35866
4.3595
4.3594
4.35898
4.35798
4.3559
4.35256
4.34839
4.3437
4.33884
4.33438
4.33067
4.33108
6.78389
6.3334
5.91585
5.55679
5.27624
5.0645
4.89676
4.75679
4.63968
4.5462
4.47756
4.43285
4.40939
4.40365
4.4053
4.41201
4.42782
4.45628
4.48807
4.52333
4.56133
4.60118
4.64188
4.68242
4.72169
4.75856
4.79204
4.82144
4.84636
4.86668
4.88235
4.89339
4.8999
4.90136
4.90096
4.89948
4.89587
4.88823
4.87409
4.85585
4.83458
4.81118
4.78626
4.76018
4.73305
4.70494
4.67592
4.64609
4.61564
4.58475
4.55362
4.52247
4.49151
4.46093
4.43095
4.40176
4.37356
4.34656
4.32094
4.29691
4.27466
4.2544
4.2363
4.2206
4.20742
4.19699
4.18949
4.18504
4.18454
4.18489
4.18609
4.18891
4.19472
4.20406
4.21567
4.22914
4.24404
4.25977
4.27562
4.29092
4.30521
4.31812
4.32944
4.33904
4.34687
4.3529
4.35715
4.3597
4.36025
4.3601