/*--------------------------------*- C++ -*----------------------------------*\
| =========                 |                                                 |
| \\      /  F ield         | OpenFOAM: The Open Source CFD Toolbox           |
|  \\    /   O peration     | Version:  2412                                  |
|   \\  /    A nd           | Website:  www.openfoam.com                      |
|    \\/     M anipulation  |                                                 |
\*---------------------------------------------------------------------------*/
FoamFile
{
    version     2.0;
    format      ascii;
    arch        "LSB;label=32;scalar=64";
    class       surfaceScalarField;
    location    "23.5";
    object      phi;
}
// * * * * * * * * * * * * * * * * * * * * * * * * * * * * * * * * * * * * * //

dimensions      [1 0 -1 0 0 0 0];

oriented        oriented;

internalField   nonuniform List<scalar> 
13790
(
0.00292374
-1.97098e-07
0.00274462
9.30887e-07
0.002804
3.25406e-06
0.00280525
5.58917e-06
0.00279922
6.47591e-06
0.00279209
7.16771e-06
0.00278413
7.96042e-06
0.00277522
8.91046e-06
0.00276522
9.99813e-06
0.00275398
1.12426e-05
0.0027414
1.25746e-05
0.00272745
1.39558e-05
0.00271206
1.53885e-05
0.00269517
1.68897e-05
0.0026767
1.84718e-05
0.00265656
2.01408e-05
0.00263466
2.18998e-05
0.0026109
2.37533e-05
0.00258519
2.57073e-05
0.00255743
2.77694e-05
0.00252748
2.99475e-05
0.00249523
3.22505e-05
0.00246054
3.46875e-05
0.00242327
3.72685e-05
0.00238327
4.00038e-05
0.00234036
4.29042e-05
0.00229438
4.59807e-05
0.00224514
4.92442e-05
0.00219243
5.27056e-05
0.00213606
5.63746e-05
0.0020758
6.02606e-05
0.00201143
6.43699e-05
0.00194272
6.87081e-05
0.00186944
7.32748e-05
0.00179137
7.8068e-05
0.0017083
8.30758e-05
0.00162002
8.82838e-05
0.00152635
9.36616e-05
0.00142718
9.91764e-05
0.0013224
0.000104772
0.00121201
0.000110391
0.00109607
0.000115946
0.000974711
0.000121356
0.000848211
0.0001265
0.000716917
0.000131293
0.000581309
0.000135608
0.000441835
0.000139474
0.000299161
0.000142674
0.000152277
0.000146884
0.000152277
0.00303216
2.04365e-08
0.0028463
8.42634e-07
0.00290647
8.61735e-06
0.0029078
1.12913e-05
0.00290193
1.28137e-05
0.00289475
1.43806e-05
0.00288656
1.61537e-05
0.00287731
1.81563e-05
0.00286691
2.0396e-05
0.00285524
2.29117e-05
0.00284221
2.56039e-05
0.00282776
2.84089e-05
0.00281182
3.13275e-05
0.00279432
3.43878e-05
0.00277518
3.76111e-05
0.00275431
4.10104e-05
0.00273162
4.4592e-05
0.00270701
4.83666e-05
0.00268037
5.23454e-05
0.00265159
5.65449e-05
0.00262056
6.09801e-05
0.00258714
6.56702e-05
0.0025512
7.06325e-05
0.00251258
7.58888e-05
0.00247112
8.14587e-05
0.00242666
8.73658e-05
0.00237901
9.36312e-05
0.00232797
0.000100278
0.00227335
0.000107329
0.00221492
0.000114803
0.00215246
0.000122721
0.00208574
0.000131094
0.00201451
0.000139937
0.00193854
0.000149246
0.00185758
0.000159022
0.00177142
0.000169236
0.00167984
0.000179866
0.00158266
0.000190846
0.00147972
0.000202115
0.00137093
0.000213555
0.00125627
0.000225056
0.00113578
0.000236433
0.00100961
0.000247528
0.000878012
0.000258097
0.000741359
0.000267946
0.000600112
0.000276855
0.000454842
0.000284744
0.000306088
0.000291428
0.0001542
0.000298772
0.000306476
0.00314487
9.21547e-08
0.00295181
1.21258e-06
0.00301442
1.38908e-05
0.0030157
1.72793e-05
0.00300971
1.92993e-05
0.0030024
2.1727e-05
0.00299398
2.45771e-05
0.00298442
2.77084e-05
0.00297366
3.11612e-05
0.00296158
3.49944e-05
0.00294809
3.90862e-05
0.00293315
4.33567e-05
0.00291666
4.78163e-05
0.00289855
5.24905e-05
0.00287875
5.74181e-05
0.00285715
6.26057e-05
0.00283367
6.80781e-05
0.00280819
7.38371e-05
0.00278062
7.99165e-05
0.00275085
8.63231e-05
0.00271873
9.30997e-05
0.00268414
0.000100254
0.00264694
0.000107836
0.00260697
0.000115854
0.00256407
0.000124365
0.00251806
0.000133375
0.00246874
0.00014295
0.00241593
0.000153091
0.00235939
0.000163868
0.00229891
0.000175275
0.00223425
0.000187381
0.00216518
0.000200166
0.00209143
0.000213692
0.00201276
0.000227915
0.0019289
0.000242878
0.00183964
0.000258502
0.00174472
0.000274784
0.00164396
0.000291606
0.00153719
0.000308884
0.00142429
0.00032645
0.00130525
0.000344102
0.00118005
0.000361633
0.00104889
0.000378681
0.000911945
0.000395046
0.000769667
0.000410224
0.000622493
0.000424029
0.000471053
0.000436184
0.000316165
0.000446316
0.000158592
0.000456344
0.000465068
0.0032618
1.16193e-07
0.00306156
1.67009e-06
0.00312674
1.90935e-05
0.00312806
2.34717e-05
0.00312189
2.59923e-05
0.0031144
2.92446e-05
0.00310578
3.32083e-05
0.00309594
3.75431e-05
0.00308482
4.22795e-05
0.00307234
4.74781e-05
0.00305842
5.30052e-05
0.00304299
5.87907e-05
0.00302596
6.48387e-05
0.00300726
7.11899e-05
0.00298681
7.78747e-05
0.00296449
8.49201e-05
0.00294023
9.2339e-05
0.00291391
0.000100159
0.00288543
0.000108399
0.00285465
0.000117099
0.00282147
0.000126281
0.00278573
0.000135996
0.0027473
0.000146268
0.00270599
0.000157158
0.00266167
0.000168685
0.00261412
0.000180927
0.00256318
0.000193894
0.00250859
0.000207678
0.00245018
0.000222273
0.00238767
0.000237785
0.00232087
0.000254183
0.00224945
0.000271584
0.00217323
0.000289912
0.00209186
0.000309292
0.00200515
0.000329581
0.00191276
0.000350898
0.00181453
0.000373008
0.00171014
0.000395994
0.00159952
0.00041951
0.00148242
0.000443551
0.00135884
0.000467673
0.0012288
0.000491675
0.00109236
0.000515119
0.000949929
0.000537481
0.000801616
0.000558537
0.000648239
0.000577407
0.000490305
0.000594117
0.00032867
0.000607951
0.00016476
0.000620254
0.000629829
0.00338304
1.39621e-07
0.00317539
2.15955e-06
0.00324315
2.43232e-05
0.0032446
2.97961e-05
0.00323827
3.28591e-05
0.00323061
3.69419e-05
0.0032218
4.20197e-05
0.0032117
4.76489e-05
0.00320025
5.37288e-05
0.00318739
6.03372e-05
0.00317306
6.73387e-05
0.00315716
7.46896e-05
0.00313962
8.23745e-05
0.00312035
9.04625e-05
0.00309926
9.89597e-05
0.00307626
0.000107927
0.00305124
0.000117352
0.0030241
0.000127302
0.00299473
0.000137768
0.00296299
0.000148835
0.00292878
0.000160498
0.00289192
0.000172854
0.00285228
0.000185901
0.00280969
0.000199748
0.00276398
0.000214395
0.00271496
0.000229957
0.00266241
0.000246442
0.00260612
0.00026396
0.00254587
0.000282529
0.00248141
0.000302243
0.00241246
0.000323129
0.0023388
0.000345243
0.00226009
0.000368624
0.00217612
0.000393259
0.00208651
0.000419194
0.0019911
0.000446303
0.00188947
0.000474644
0.00178156
0.000503901
0.00166692
0.000534152
0.00154565
0.000564817
0.00141736
0.000595964
0.00128231
0.000626728
0.0011404
0.000657033
0.000991918
0.00068596
0.000837465
0.00071299
0.000677148
0.000737723
0.000512231
0.000759034
0.000343477
0.000776705
0.000172035
0.000791695
0.000801864
0.00350879
1.63345e-07
0.00329346
2.65542e-06
0.0033639
2.95968e-05
0.00336551
3.62234e-05
0.00335906
3.98866e-05
0.00335124
4.48018e-05
0.00334219
5.10717e-05
0.00333188
5.79554e-05
0.00332016
6.54476e-05
0.00330697
7.35265e-05
0.00329224
8.2075e-05
0.0032759
9.10215e-05
0.00325786
0.000100415
0.00323805
0.000110273
0.00321635
0.000120666
0.00319269
0.000131588
0.00316693
0.000143111
0.00313901
0.000155221
0.00310876
0.000168016
0.00307612
0.000181479
0.00304088
0.000195736
0.00300297
0.000210763
0.00296216
0.000226713
0.00291835
0.000243549
0.00287129
0.000261457
0.00282087
0.000280382
0.00276677
0.00030054
0.00270887
0.000321853
0.00264684
0.000344565
0.00258051
0.00036857
0.00250952
0.000394123
0.00243367
0.000421089
0.00235259
0.000449705
0.00226604
0.000479807
0.00217367
0.000511568
0.00207518
0.000544796
0.00197029
0.000579526
0.00185865
0.000615541
0.00174017
0.000652637
0.00161439
0.00069059
0.00148155
0.000728812
0.00134108
0.000767189
0.00119357
0.000804545
0.00103876
0.000840777
0.000877304
0.00087444
0.000709977
0.00090505
0.000537036
0.000931975
0.000360124
0.000953617
0.000180624
0.000971196
0.000982487
0.00363923
1.87409e-07
0.00341591
3.1531e-06
0.00348916
3.49098e-05
0.00349097
4.27283e-05
0.00348444
4.70248e-05
0.00347648
5.28015e-05
0.00346728
6.02708e-05
0.00345675
6.84857e-05
0.00344478
7.74231e-05
0.00343127
8.70348e-05
0.00341618
9.7166e-05
0.00339942
0.000107777
0.00338092
0.000118913
0.00336058
0.000130618
0.0033383
0.000142939
0.00331399
0.000155904
0.00328755
0.000169553
0.00325884
0.000183924
0.00322779
0.000199068
0.00319423
0.000215043
0.00315806
0.000231908
0.00311908
0.00024974
0.0030772
0.000268596
0.00303217
0.000288581
0.00298388
0.000309742
0.00293204
0.000332217
0.00287655
0.00035603
0.00281705
0.000381362
0.00275342
0.000408193
0.00268524
0.000436751
0.0026124
0.000466957
0.00253441
0.000499079
0.00245116
0.000532952
0.00236211
0.000568864
0.00226713
0.000606549
0.00216567
0.000646251
0.00205759
0.000687609
0.0019424
0.000730728
0.0018199
0.000775136
0.00168982
0.000820676
0.00155185
0.000866783
0.00140622
0.000912818
0.00125242
0.000958342
0.0010912
0.001002
0.000922297
0.00104334
0.000746703
0.00108064
0.000565541
0.00111314
0.000379442
0.00113972
0.000190151
0.00116049
0.00117264
0.00377453
2.11626e-07
0.00354291
3.64987e-06
0.00361911
4.02451e-05
0.00362115
4.92817e-05
0.00361458
5.42349e-05
0.00360652
6.09022e-05
0.00359721
6.95895e-05
0.0035865
7.9185e-05
0.00357431
8.96212e-05
0.00356053
0.000100811
0.00354512
0.000112579
0.00352799
0.000124903
0.00350907
0.000137838
0.00348825
0.00015144
0.00346543
0.000165751
0.00344053
0.000180808
0.00341343
0.00019665
0.00338403
0.000213327
0.0033522
0.000230898
0.00331782
0.000249428
0.00328073
0.00026899
0.00324081
0.000289663
0.00319787
0.000311536
0.00315175
0.000334696
0.00310224
0.00035925
0.00304917
0.000385288
0.00299227
0.000412937
0.00293135
0.000442277
0.00286608
0.000473463
0.00279629
0.000506543
0.00272155
0.000541701
0.00264171
0.000578919
0.00255623
0.000618431
0.002465
0.000660087
0.00236738
0.000704171
0.00226328
0.00075035
0.00215201
0.000798884
0.00203348
0.000849252
0.00190706
0.000901559
0.00177263
0.000955105
0.00162979
0.00100963
0.00147829
0.00106432
0.00131843
0.0011182
0.00114975
0.00117067
0.000973232
0.00121986
0.000788854
0.00126502
0.000597625
0.00130437
0.000401354
0.00133599
0.00020156
0.00136028
0.0013742
0.00391488
2.35859e-07
0.00367462
4.14248e-06
0.00375393
4.55727e-05
0.00375625
5.58456e-05
0.00374968
6.14786e-05
0.00374157
6.90566e-05
0.00373215
7.90116e-05
0.00372135
8.99909e-05
0.00370899
0.000101978
0.003695
0.000114804
0.00367931
0.000128265
0.00366186
0.000142354
0.00364255
0.000157143
0.0036213
0.000172694
0.003598
0.000189051
0.00357256
0.000206252
0.00354486
0.000224344
0.00351481
0.000243381
0.00348227
0.000263434
0.00344713
0.000284575
0.00340923
0.000306889
0.00336842
0.000330468
0.00332455
0.00035541
0.00327742
0.000381822
0.00322686
0.000409817
0.00317263
0.000439517
0.00311452
0.000471042
0.00305227
0.000504529
0.00298564
0.000540097
0.00291428
0.000577895
0.00283797
0.000618019
0.00275625
0.000660631
0.00266893
0.000705759
0.00257542
0.000753593
0.00247558
0.000804008
0.00236869
0.00085724
0.00225467
0.000912902
0.00213267
0.000971257
0.00200268
0.00103154
0.00186383
0.00109396
0.00171615
0.0011573
0.00155904
0.00122144
0.00139232
0.00128491
0.00121645
0.00134655
0.00103081
0.00140549
0.000836925
0.00145891
0.000635286
0.00150601
0.000427027
0.00154425
0.000214247
0.00157306
0.00158844
0.00406045
2.59759e-07
0.00381121
4.62692e-06
0.00389382
5.08459e-05
0.00389647
6.23689e-05
0.00388998
6.86952e-05
0.00388187
7.7213e-05
0.00387246
8.84303e-05
0.00386157
0.000100876
0.0038491
0.000114453
0.00383494
0.000128961
0.00381904
0.000144165
0.00380132
0.000160076
0.00378169
0.000176769
0.00376006
0.000194324
0.00373634
0.000212775
0.00371041
0.000232176
0.00368219
0.000252563
0.00365156
0.000274017
0.00361839
0.000296595
0.00358257
0.000320403
0.00354394
0.000345514
0.00350236
0.000372054
0.00345765
0.000400111
0.00340964
0.000429833
0.00335814
0.000461322
0.00330291
0.000494744
0.00324374
0.000530213
0.00318036
0.00056791
0.0031125
0.000607954
0.00303986
0.000650536
0.00296211
0.000695769
0.00287891
0.000743834
0.00278984
0.000794822
0.00269456
0.000848877
0.00259253
0.00090604
0.00248341
0.000966351
0.00236653
0.00102979
0.00224164
0.00109615
0.00210784
0.00116535
0.00196508
0.00123672
0.00181227
0.00131011
0.0016496
0.00138411
0.0014761
0.00145841
0.00129191
0.00153073
0.00109758
0.00159983
0.00089241
0.00166407
0.000678316
0.0017201
0.000456722
0.00176584
0.000229857
0.00179992
0.0018183
0.00421145
2.83108e-07
0.00395288
5.09723e-06
0.00403898
5.60027e-05
0.00404205
6.87872e-05
0.00403567
7.584e-05
0.00402764
8.52988e-05
0.00401823
9.78436e-05
0.00400738
0.000111721
0.00399489
0.000126943
0.00398065
0.000143201
0.0039646
0.000160217
0.00394668
0.000177997
0.0039268
0.000196653
0.00390487
0.000216255
0.00388078
0.000236859
0.00385446
0.000258497
0.00382579
0.000281236
0.00379467
0.000305138
0.00376096
0.000330297
0.00372457
0.000356799
0.00368532
0.000384761
0.00364308
0.000414288
0.00359768
0.000445516
0.00354894
0.000478573
0.00349665
0.000513613
0.0034406
0.000550787
0.00338056
0.000590261
0.00331626
0.000632209
0.00324741
0.0006768
0.00317372
0.00072423
0.00309483
0.000774656
0.00301038
0.000828285
0.00291996
0.000885238
0.00282312
0.000945714
0.00271941
0.00100976
0.00260825
0.00107751
0.00248914
0.00114889
0.00236139
0.0012239
0.00222451
0.00130222
0.00207761
0.00138362
0.00192037
0.00146735
0.00175169
0.00155279
0.00157159
0.00163852
0.00137894
0.00172338
0.00117402
0.00180475
0.000957737
0.00188036
0.000729836
0.001948
0.000492306
0.00200337
0.000247511
0.00204472
0.00206581
0.00436807
3.04263e-07
0.0040998
5.54794e-06
0.00418966
6.09447e-05
0.00419321
7.50221e-05
0.00418704
8.28344e-05
0.00417917
9.32221e-05
0.00416994
0.000107075
0.00415917
0.000122488
0.00414672
0.000139401
0.00413246
0.000157458
0.00411635
0.000176329
0.0040983
0.000196047
0.00407825
0.000216706
0.00405608
0.00023842
0.00403173
0.000261205
0.00400509
0.000285142
0.00397607
0.000310253
0.00394455
0.00033666
0.00391044
0.000364411
0.00387357
0.000393663
0.00383385
0.000424479
0.00379109
0.000457047
0.00374517
0.000491443
0.00369585
0.000527889
0.00364299
0.000566475
0.00358632
0.000607457
0.00352565
0.000650932
0.00346066
0.000697191
0.00339113
0.000746338
0.00331667
0.000798685
0.00323698
0.000854342
0.00315165
0.000913623
0.00306025
0.000976634
0.00296231
0.00104365
0.00285729
0.00111477
0.00274465
0.00119015
0.00262368
0.00126986
0.00249378
0.0013538
0.00235402
0.00144199
0.00220382
0.00153381
0.00204199
0.00162918
0.00186808
0.0017267
0.00168079
0.00182581
0.00147993
0.00192425
0.00126437
0.00202031
0.00103402
0.0021107
0.00079045
0.00219157
0.000534732
0.00225909
0.000270106
0.00230935
0.00233592
0.00453054
3.17889e-07
0.00425218
5.9827e-06
0.00434608
6.55242e-05
0.00435021
8.09998e-05
0.00434429
8.96372e-05
0.00433674
0.000100832
0.00432773
0.000116083
0.00431719
0.000133026
0.0043049
0.00015169
0.00429074
0.00017162
0.00427464
0.000192427
0.00425657
0.000214125
0.00423642
0.000236855
0.00421413
0.000260708
0.0041896
0.000285737
0.00416275
0.000311987
0.00413348
0.000339527
0.0041017
0.00036844
0.00406727
0.000398836
0.00403011
0.000430826
0.00399004
0.000464545
0.00394696
0.000500128
0.00390066
0.000537739
0.00385101
0.000577539
0.00379777
0.000619718
0.00374076
0.000664462
0.00367971
0.000711991
0.00361439
0.000762512
0.00354445
0.000816274
0.00346964
0.000873495
0.00338952
0.000934459
0.00330377
0.000999373
0.00321185
0.00106855
0.00311335
0.00114215
0.0030076
0.00122052
0.00289407
0.00130369
0.00277193
0.001392
0.00264046
0.00148527
0.00249872
0.00158372
0.00234564
0.0016869
0.00218032
0.0017945
0.00200114
0.00190588
0.00180748
0.00201946
0.0015975
0.00213424
0.00137095
0.00224685
0.00112699
0.00235466
0.000865201
0.00245336
0.000587465
0.00253682
0.000296634
0.00260018
0.00263255
0.00469909
3.27203e-07
0.0044102
6.38714e-06
0.00450836
6.96999e-05
0.00451323
8.65638e-05
0.00450778
9.60266e-05
0.00450067
0.000108013
0.00449206
0.000124694
0.00448185
0.000143236
0.00446983
0.000163712
0.00445585
0.000185599
0.00443988
0.000208394
0.00442187
0.000232143
0.00440174
0.00025698
0.00437942
0.000283033
0.00435483
0.000310326
0.00432787
0.00033894
0.00429849
0.000368909
0.00426656
0.000400372
0.004232
0.000433395
0.00419467
0.000468158
0.00415447
0.000504745
0.00411122
0.000543375
0.00406481
0.00058415
0.00401502
0.000627328
0.0039617
0.000673034
0.00390461
0.000721561
0.00384353
0.000773066
0.00377818
0.000827865
0.00370829
0.00088616
0.00363351
0.000948276
0.00355349
0.00101447
0.00346781
0.00108505
0.00337601
0.00116036
0.00327755
0.00124062
0.00317182
0.00132625
0.00305812
0.00141738
0.00293569
0.00151443
0.00280354
0.00161742
0.00266072
0.00172654
0.00250589
0.00184173
0.00233778
0.00196261
0.00215487
0.00208879
0.00195515
0.00221919
0.00173736
0.00235203
0.00149874
0.00248546
0.00123861
0.00261479
0.000956595
0.00273538
0.000653279
0.00284014
0.000332524
0.00292093
0.00296507
0.00487393
3.46372e-07
0.00457409
6.71083e-06
0.00467665
7.35574e-05
0.00468249
9.14504e-05
0.00467791
0.000101625
0.00467134
0.000114658
0.0046633
0.000132739
0.00465358
0.000152956
0.00464192
0.000175377
0.00462824
0.000199271
0.00461251
0.000224124
0.00459468
0.000249979
0.00457467
0.000276982
0.00455244
0.000305268
0.0045279
0.000334867
0.00450099
0.000365853
0.00447161
0.000398282
0.00443971
0.000432278
0.00440515
0.000467948
0.00436787
0.000505443
0.0043277
0.000544914
0.00428455
0.000586521
0.00423823
0.000630472
0.00418863
0.000676931
0.00413548
0.000726175
0.00407869
0.000778359
0.0040179
0.000833849
0.003953
0.000892774
0.00388355
0.000955609
0.00380937
0.00102245
0.00372996
0.00109388
0.00364505
0.00116997
0.00355402
0.00125139
0.00345643
0.0013382
0.00335158
0.0014311
0.00323875
0.00153021
0.0031171
0.00163609
0.00298553
0.00174899
0.0028429
0.00186917
0.00268774
0.00199689
0.00251833
0.00213202
0.00233276
0.00227436
0.00212881
0.00242313
0.00190367
0.00257717
0.00165516
0.00273397
0.00137939
0.00289055
0.00107443
0.00304034
0.000739556
0.00317502
0.000377702
0.00328278
0.00334278
0.00505528
3.61227e-07
0.00474407
6.97254e-06
0.00485155
7.67116e-05
0.00485853
9.55108e-05
0.00485492
0.000106354
0.00484919
0.00012047
0.00484187
0.000140061
0.0048328
0.000162022
0.0048217
0.000186479
0.00480849
0.000212484
0.00479311
0.000239499
0.00477558
0.000267512
0.00475581
0.000296748
0.00473379
0.000327288
0.00470942
0.000359236
0.00468269
0.000392587
0.00465347
0.000427498
0.00462175
0.000463996
0.00458739
0.000502314
0.00455034
0.000542491
0.00451043
0.000584818
0.00446761
0.00062934
0.00442168
0.000676408
0.00437253
0.000726078
0.00431995
0.00077876
0.00426377
0.000834531
0.00420377
0.000893853
0.00413969
0.000956848
0.00407129
0.00102401
0.0039982
0.00109554
0.00392016
0.00117192
0.00383662
0.00125351
0.00374729
0.00134072
0.00365139
0.0014341
0.00354853
0.00153396
0.00343769
0.00164105
0.00331819
0.00175559
0.00318876
0.00187842
0.00304814
0.00200979
0.00289471
0.00215032
0.00272642
0.00230031
0.00254076
0.00246001
0.00233474
0.00262916
0.00210497
0.00280694
0.00184636
0.00299258
0.00155518
0.00318173
0.00122623
0.00336929
0.000855754
0.00354549
0.000444115
0.00369442
0.00378689
0.00524337
3.69447e-07
0.0049204
7.14603e-06
0.00503328
7.88564e-05
0.00504173
9.84217e-05
0.00503936
0.000109935
0.00503476
0.000125165
0.00502839
0.000146428
0.00502017
0.000170237
0.00500981
0.000196839
0.00499718
0.000225113
0.00498229
0.000254388
0.00496516
0.000284644
0.00494576
0.000316148
0.00492407
0.000348982
0.00490003
0.000383276
0.0048736
0.00041902
0.00484473
0.000456368
0.00481334
0.000495377
0.0047794
0.000536258
0.00474278
0.000579112
0.00470342
0.000624175
0.00466117
0.000671592
0.00461596
0.000721617
0.00456758
0.000774459
0.00451596
0.000830381
0.00446082
0.000889672
0.00440207
0.000952597
0.00433938
0.00101955
0.0042726
0.00109078
0.00420133
0.00116681
0.00412534
0.00124792
0.00404415
0.0013347
0.00395735
0.00142752
0.00386443
0.00152702
0.00376464
0.00163374
0.0036574
0.00174829
0.00354151
0.00187148
0.00341615
0.00200378
0.00327961
0.00214633
0.00313029
0.00229964
0.00296608
0.00246452
0.0027839
0.00264219
0.00258005
0.00283301
0.00235069
0.0030363
0.00208924
0.00325404
0.00178648
0.00348448
0.00143338
0.00372239
0.00101965
0.00395922
0.000538156
0.00417592
0.00432505
0.00543846
3.70445e-07
0.0051033
7.1997e-06
0.00522214
7.96258e-05
0.00523251
9.97292e-05
0.00523184
0.000111928
0.00522872
0.000128376
0.00522368
0.000151474
0.00521653
0.000177377
0.00520705
0.000206326
0.00519513
0.000237035
0.00518085
0.000268662
0.00516424
0.000301255
0.00514534
0.000335052
0.00512408
0.000370242
0.00510049
0.000406863
0.0050745
0.000445011
0.00504612
0.000484743
0.00501526
0.000526237
0.00498192
0.000569601
0.00494596
0.000615066
0.00490738
0.000662761
0.004866
0.000712962
0.0048218
0.000765825
0.00477458
0.000821672
0.00472426
0.0008807
0.00467066
0.000943273
0.00461361
0.00100965
0.00455292
0.00108023
0.00448833
0.00115538
0.00441965
0.00123549
0.00434647
0.00132109
0.0042686
0.00141258
0.00418545
0.00151066
0.0040967
0.00161577
0.00400162
0.00172882
0.00389956
0.00185035
0.00378967
0.00198136
0.00367062
0.00212284
0.00354143
0.00227551
0.00339943
0.00244164
0.0032435
0.00262045
0.00307143
0.00281426
0.00287665
0.00302779
0.0026518
0.00326115
0.00239139
0.00351444
0.00208591
0.00378997
0.001718
0.00409031
0.00126609
0.00441112
0.000701246
0.00474076
0.00502629
0.00564081
3.50379e-07
0.00529303
7.10553e-06
0.00541858
7.84596e-05
0.00543148
9.88231e-05
0.00543305
0.000111792
0.00543185
0.000129679
0.00542842
0.000154907
0.00542262
0.000183176
0.00541413
0.000214819
0.00540303
0.000248136
0.00538945
0.000282241
0.00537349
0.00031721
0.00535518
0.000353359
0.00533454
0.000390888
0.00531154
0.000429863
0.0052862
0.000470344
0.00525849
0.000512455
0.00522841
0.000556315
0.00519589
0.000602129
0.00516091
0.000650042
0.00512336
0.000700309
0.00508324
0.000753085
0.00504038
0.000808689
0.00499476
0.000867285
0.00494619
0.000929272
0.00489463
0.000994828
0.00483985
0.00106444
0.00478177
0.00113831
0.00472011
0.00121703
0.00465474
0.00130086
0.00458536
0.00139047
0.00451168
0.00148626
0.00443341
0.00158894
0.00435
0.00169918
0.00426117
0.00181766
0.004166
0.00194552
0.00406417
0.00208318
0.0039541
0.00223291
0.00383573
0.00239387
0.00370883
0.00256855
0.00356682
0.00276246
0.00340585
0.00297523
0.00322581
0.00320782
0.00302107
0.00346589
0.00278112
0.0037544
0.00249013
0.00408095
0.00212836
0.00445208
0.00165433
0.00488516
0.000999293
0.0053958
0.00602558
0.00585083
2.02482e-07
0.00548957
7.14659e-06
0.00562298
7.45247e-05
0.00563947
9.46202e-05
0.005644
0.00010883
0.00564539
0.000128397
0.00564399
0.000156312
0.00563971
0.000187448
0.00563237
0.000222164
0.00562214
0.000258368
0.00560929
0.00029509
0.005594
0.000332501
0.00557631
0.000371049
0.00555629
0.000410905
0.00553394
0.000452212
0.00550931
0.000494974
0.00548239
0.000539372
0.0054532
0.000585504
0.00542171
0.000633625
0.00538789
0.000683862
0.00535169
0.000736502
0.00531308
0.000791702
0.00527198
0.000849781
0.00522832
0.000910948
0.00518205
0.000975546
0.00513301
0.00104386
0.00508119
0.00111626
0.00502636
0.00119314
0.00496851
0.00127487
0.00490734
0.00136203
0.00484285
0.00145496
0.00477462
0.00155449
0.0047026
0.00166096
0.00462632
0.00177545
0.00454552
0.00189845
0.00445932
0.00203173
0.0043686
0.0021739
0.00427378
0.00232774
0.00416939
0.00249826
0.00405336
0.00268458
0.00392867
0.00288716
0.00379289
0.00311101
0.00364123
0.00335948
0.00346869
0.00363844
0.00326851
0.00395458
0.00302853
0.00432093
0.00272152
0.00475909
0.00229838
0.0053083
0.00164581
0.00604837
0.00767139
0.00846011
1.38704e-07
0.00793537
6.23176e-06
0.00813429
6.48229e-05
0.00816376
8.30807e-05
0.00817641
9.84852e-05
0.00818338
0.000121592
0.00818561
0.000154084
0.00818293
0.000190124
0.00817532
0.000229773
0.00816332
0.000270366
0.00814756
0.000310856
0.00812835
0.000351713
0.00810588
0.000393512
0.00808022
0.000436571
0.0080515
0.000480934
0.00801974
0.000526724
0.00798509
0.000574028
0.0079475
0.000623093
0.00790707
0.000674058
0.00786371
0.000727214
0.00781751
0.000782701
0.00776836
0.000840852
0.00771632
0.000901821
0.00766127
0.000965998
0.00760326
0.00103356
0.00754216
0.00110496
0.00747799
0.00118043
0.00741066
0.00126047
0.00734013
0.0013454
0.00726636
0.0014358
0.00718922
0.00153211
0.00710876
0.00163495
0.00702462
0.0017451
0.00693732
0.00186274
0.00684747
0.00198831
0.00675543
0.00212376
0.00665655
0.00227279
0.00655062
0.00243366
0.00644176
0.00260711
0.00633066
0.00279568
0.00621378
0.00300404
0.00609261
0.00323218
0.00596542
0.00348666
0.00583399
0.00376987
0.0057004
0.00408817
0.0055721
0.00444923
0.00548242
0.00484877
0.00550627
0.00528445
0.00591276
0.00564187
0.0054776
0.00810655
0.00846191
1.06716e-07
0.0079348
3.86571e-06
0.00814843
4.23566e-05
0.00818871
6.09198e-05
0.00821068
7.88514e-05
0.00822465
0.000107793
0.00823094
0.00014779
0.00823052
0.000190545
0.00822383
0.000236465
0.0082127
0.000281499
0.00819812
0.000325432
0.00818041
0.000369417
0.00815968
0.00041424
0.0081361
0.000460157
0.0081098
0.000507237
0.00808094
0.000555574
0.00804962
0.000605356
0.00801591
0.000656797
0.00797984
0.000710134
0.00794148
0.000765575
0.0079008
0.000823377
0.0078579
0.000883752
0.00781272
0.000946998
0.00776538
0.00101334
0.00771581
0.00108313
0.00766417
0.00115661
0.00761036
0.00123423
0.0075546
0.00131624
0.00749681
0.00140319
0.00743721
0.0014954
0.00737562
0.0015937
0.00731322
0.00169734
0.00725068
0.00180765
0.00718641
0.001927
0.00711892
0.00205581
0.00704926
0.00219341
0.00698158
0.00234047
0.00691584
0.0024994
0.00685177
0.00267119
0.00679015
0.00285729
0.00673545
0.00305874
0.00668815
0.00327948
0.00665837
0.00351645
0.00664932
0.00377891
0.00668184
0.00405565
0.00677866
0.0043524
0.00698572
0.00464171
0.00738565
0.00488452
0.00800262
0.00502491
0.00467585
0.00880438
0.00846264
1.52513e-07
0.00793449
7.48926e-07
0.00816344
5.50532e-06
0.00822211
2.04624e-05
0.00825923
4.40822e-05
0.00828287
8.43263e-05
0.00829423
0.000136432
0.00829476
0.000190005
0.00828897
0.000242259
0.00827928
0.000291193
0.00826634
0.000338369
0.00825025
0.00038551
0.00823119
0.000433302
0.00820942
0.000481918
0.00818522
0.000531437
0.0081588
0.000581998
0.00813026
0.000633889
0.00809974
0.000687325
0.00806729
0.000742582
0.00803302
0.000799844
0.007997
0.000859399
0.00795932
0.000921432
0.00792006
0.000986253
0.00787934
0.00105406
0.00783727
0.00112519
0.00779399
0.00119989
0.00774968
0.00127854
0.00770445
0.00136147
0.00765875
0.00144889
0.00761343
0.00154072
0.00756917
0.00163796
0.00752367
0.00174284
0.007477
0.00185432
0.00743187
0.00197213
0.00739036
0.00209731
0.00735199
0.00223178
0.00731775
0.00237471
0.00728824
0.00252891
0.007267
0.00269244
0.0072548
0.00286949
0.00725687
0.00305668
0.00727794
0.00325841
0.00732469
0.0034697
0.00741268
0.00369092
0.00755118
0.00391716
0.00777066
0.00413292
0.00808362
0.00432874
0.00851004
0.0044581
0.00903002
0.00450493
0.00424758
0.00945828
0.00846124
1.29598e-06
0.00794075
-9.84111e-06
0.00821697
-7.85103e-05
0.00830512
-4.95076e-05
0.00835092
6.58887e-07
0.00837143
6.39948e-05
0.00837574
0.000132122
0.00837148
0.000194253
0.00836379
0.00024996
0.00835439
0.000300589
0.00834244
0.000350316
0.0083276
0.000400356
0.0083102
0.000450698
0.00829057
0.000501551
0.00826911
0.000552896
0.00824595
0.000605155
0.00822116
0.000658683
0.0081948
0.000713681
0.00816696
0.000770425
0.0081377
0.000829099
0.00810711
0.000889994
0.00807526
0.000953283
0.00804227
0.00101924
0.00800827
0.00108806
0.00797345
0.00116001
0.00793792
0.00123542
0.00790233
0.00131412
0.00786731
0.00139649
0.00783267
0.00148353
0.00779725
0.00157614
0.00776181
0.00167339
0.00772921
0.00177544
0.00770026
0.00188328
0.00767461
0.00199778
0.00765359
0.00211833
0.00763853
0.00224684
0.00763123
0.00238201
0.00763394
0.0025262
0.00764842
0.00267795
0.00767961
0.0028383
0.00772906
0.00300722
0.00780566
0.00318181
0.00791202
0.00336334
0.00806018
0.00354275
0.00825816
0.00371918
0.00851404
0.00387704
0.00883832
0.00400446
0.00921589
0.00408053
0.00966983
0.00405099
0.00392822
0.00998919
0.00845143
9.92618e-06
0.00798013
-6.57258e-05
0.00836219
-0.000271035
0.00854388
-0.000213054
0.0085869
-4.00666e-05
0.00857778
7.32841e-05
0.00856109
0.000148815
0.00854534
0.000210003
0.00853272
0.000262583
0.00851971
0.000313601
0.0085036
0.000366418
0.00848461
0.000419352
0.00846352
0.000471785
0.00844119
0.000523881
0.00841754
0.000576543
0.00839267
0.000630021
0.00836676
0.000684599
0.00833992
0.000740517
0.00831231
0.000798036
0.00828404
0.000857373
0.00825524
0.000918791
0.00822601
0.000982509
0.00819652
0.00104874
0.00816701
0.00111756
0.00813803
0.00118899
0.00810997
0.00126348
0.00808188
0.00134222
0.00805366
0.00142471
0.00802649
0.0015107
0.00800205
0.00160059
0.00798028
0.00169516
0.00796134
0.00179437
0.00794596
0.00189866
0.0079357
0.00200804
0.00793096
0.00212308
0.00793443
0.00224337
0.00794645
0.00236999
0.00797139
0.00250125
0.00800984
0.00263951
0.00806729
0.00278085
0.00814638
0.00292813
0.00825238
0.00307582
0.00839136
0.00322436
0.00856632
0.00336779
0.00878574
0.00349976
0.00904818
0.0036146
0.00935679
0.00369585
0.00970206
0.00373526
0.010049
0.00370403
0.00359523
0.010382
0.0085192
1.56282e-05
0.00824796
-0.000394626
0.00879251
-0.000604519
0.00889068
-0.000291177
0.00887204
-1.84511e-05
0.00880406
0.000141487
0.00877209
0.000180786
0.00875218
0.000229905
0.00874248
0.000272289
0.00872795
0.00032813
0.00870899
0.000385379
0.00868794
0.000440402
0.00866593
0.000493797
0.00864292
0.000546888
0.00861894
0.00060052
0.00859389
0.000655067
0.00856776
0.000710733
0.00854062
0.000767658
0.00851258
0.000826068
0.00848382
0.000886137
0.00845439
0.000948225
0.00842465
0.00101225
0.0083951
0.00107828
0.00836599
0.00114668
0.00833652
0.00121846
0.00830738
0.00129262
0.00828033
0.00136927
0.00825629
0.00144876
0.00823484
0.00153214
0.00821691
0.00161852
0.00820271
0.00170936
0.00819361
0.00180347
0.00818968
0.00190259
0.00819273
0.00200499
0.00820302
0.00211279
0.00822265
0.00222374
0.00825259
0.00234005
0.00829488
0.00245896
0.00835253
0.00258187
0.00842677
0.0027066
0.00852309
0.0028318
0.00864211
0.0029568
0.00879075
0.00307572
0.00896918
0.00318936
0.0091824
0.00328654
0.00942924
0.00336776
0.00970742
0.00341767
0.0100122
0.00343046
0.0103155