/*--------------------------------*- C++ -*----------------------------------*\
| =========                 |                                                 |
| \\      /  F ield         | OpenFOAM: The Open Source CFD Toolbox           |
|  \\    /   O peration     | Version:  2412                                  |
|   \\  /    A nd           | Website:  www.openfoam.com                      |
|    \\/     M anipulation  |                                                 |
\*---------------------------------------------------------------------------*/
FoamFile
{
    version     2.0;
    format      ascii;
    arch        "LSB;label=32;scalar=64";
    class       volScalarField;
    location    "23.5";
    object      T;
}
// * * * * * * * * * * * * * * * * * * * * * * * * * * * * * * * * * * * * * //

dimensions      [0 0 0 1 0 0 0];

internalField   nonuniform List<scalar> 
7000
(
1.31911
2.65686
2.71978
2.66984
2.66466
2.64798
2.64456
2.6473
2.64935
2.65155
2.65281
2.65382
2.65495
2.6563
2.6578
2.65943
2.66116
2.66302
2.66498
2.66709
2.6693
2.67165
2.67412
2.67671
2.67942
2.68226
2.6852
2.68827
2.69143
2.69471
2.69807
2.70152
2.70504
2.70862
2.71224
2.71589
2.71953
2.72316
2.72672
2.73022
2.73356
2.73678
2.73976
2.74253
2.74498
2.74714
2.74889
2.75029
2.75123
2.75177
1.31917
2.65707
2.72003
2.66993
2.66479
2.64811
2.64469
2.64743
2.64948
2.65167
2.65293
2.65393
2.65506
2.65641
2.65791
2.65954
2.66126
2.66312
2.66508
2.66718
2.6694
2.67174
2.6742
2.67679
2.6795
2.68233
2.68527
2.68833
2.69149
2.69476
2.69812
2.70157
2.70507
2.70865
2.71226
2.71591
2.71953
2.72315
2.7267
2.73018
2.73352
2.73671
2.73969
2.74243
2.74488
2.74699
2.74875
2.75004
2.75097
2.75132
1.31915
2.65698
2.71993
2.66992
2.66475
2.64805
2.64463
2.64738
2.64939
2.65162
2.65282
2.65387
2.65496
2.65635
2.6578
2.65947
2.66114
2.66304
2.66495
2.66709
2.66925
2.67164
2.67405
2.67668
2.67933
2.68221
2.68509
2.68819
2.6913
2.6946
2.69791
2.70139
2.70485
2.70846
2.71204
2.7157
2.71932
2.72294
2.72649
2.72996
2.73332
2.73648
2.7395
2.74218
2.74466
2.74674
2.74849
2.74984
2.75067
2.75109
1.31913
2.65681
2.71975
2.66991
2.6647
2.64794
2.64453
2.64724
2.64931
2.65145
2.65273
2.65369
2.65486
2.65616
2.65769
2.65926
2.66103
2.66281
2.66483
2.66685
2.66912
2.67138
2.6739
2.67639
2.67917
2.68189
2.68492
2.68784
2.6911
2.69422
2.69769
2.70096
2.7046
2.70799
2.71174
2.71519
2.71896
2.72241
2.72608
2.72945
2.73285
2.73604
2.73898
2.74183
2.7441
2.74633
2.748
2.74926
2.75027
2.75046
1.31909
2.65658
2.71952
2.66993
2.66465
2.64781
2.64442
2.64702
2.64924
2.65122
2.65264
2.65345
2.65475
2.6559
2.65756
2.65898
2.66087
2.66252
2.66463
2.66653
2.66889
2.67104
2.67363
2.67604
2.67884
2.68152
2.68453
2.68747
2.69065
2.69384
2.69716
2.70059
2.704
2.70762
2.71106
2.71482
2.71821
2.72201
2.72524
2.72896
2.73197
2.73538
2.7382
2.74099
2.74361
2.74541
2.74738
2.74865
2.7493
2.74988
1.31905
2.65629
2.71922
2.66998
2.6646
2.64768
2.64422
2.64702
2.64889
2.6512
2.65226
2.65341
2.65434
2.65584
2.65711
2.65891
2.66038
2.66243
2.66411
2.66642
2.66832
2.67089
2.673
2.67584
2.67817
2.68125
2.6838
2.68712
2.68987
2.69339
2.69635
2.70002
2.70318
2.70692
2.71026
2.71398
2.71747
2.72103
2.72463
2.72787
2.73143
2.73413
2.73746
2.73981
2.74249
2.74474
2.74608
2.74767
2.7486
2.74858
1.319
2.65593
2.71886
2.67003
2.66454
2.64748
2.64402
2.64676
2.64871
2.6509
2.65206
2.65307
2.65413
2.65547
2.65689
2.65849
2.66016
2.66196
2.66388
2.6659
2.66808
2.6703
2.67275
2.67517
2.67791
2.6805
2.68351
2.68625
2.68954
2.6924
2.69593
2.6989
2.70263
2.7057
2.70954
2.71271
2.71653
2.71978
2.72344
2.72673
2.73005
2.73334
2.73591
2.73892
2.7409
2.74327
2.74516
2.74615
2.74685
2.7476
1.31894
2.6555
2.71842
2.6701
2.66446
2.64724
2.64378
2.64645
2.64846
2.65056
2.65177
2.6527
2.6538
2.65506
2.65652
2.65805
2.65973
2.66148
2.66338
2.66538
2.66751
2.66975
2.67211
2.67459
2.67716
2.6799
2.68266
2.68565
2.68856
2.6918
2.69483
2.6983
2.70137
2.70505
2.7081
2.71191
2.71494
2.71873
2.72178
2.72535
2.72842
2.73154
2.73471
2.73701
2.73973
2.74144
2.74309
2.74487
2.7457
2.74546
1.31887
2.65498
2.7179
2.67018
2.66437
2.64696
2.64346
2.64617
2.64808
2.65023
2.65135
2.65233
2.65334
2.65465
2.65601
2.65759
2.65917
2.66096
2.66278
2.66479
2.66685
2.66908
2.67137
2.67383
2.67636
2.67902
2.68177
2.68462
2.6876
2.69061
2.6938
2.69693
2.70033
2.70348
2.7071
2.71016
2.71392
2.7168
2.7206
2.72329
2.72688
2.72949
2.73247
2.7354
2.73716
2.73986
2.74127
2.74219
2.74291
2.74392
1.31879
2.65438
2.71729
2.67028
2.66427
2.64662
2.64311
2.6457
2.64776
2.64972
2.65097
2.65176
2.65291
2.65404
2.65553
2.65692
2.65863
2.66024
2.66216
2.664
2.66615
2.66822
2.67058
2.67288
2.67546
2.67797
2.68075
2.68347
2.68643
2.68934
2.69245
2.69553
2.69876
2.70198
2.70525
2.70859
2.7118
2.71524
2.71821
2.72171
2.72427
2.72771
2.72984
2.73283
2.73527
2.7365
2.73876
2.74031
2.7411
2.74058
1.31869
2.65367
2.71659
2.6704
2.66415
2.64625
2.64267
2.64536
2.64718
2.64932
2.65033
2.65131
2.65221
2.65352
2.65477
2.65634
2.65781
2.65958
2.66127
2.66325
2.66517
2.66737
2.66951
2.67191
2.67427
2.67687
2.67944
2.68221
2.68498
2.6879
2.69085
2.69389
2.69699
2.7001
2.70331
2.70644
2.7097
2.71277
2.71601
2.7189
2.72203
2.72456
2.72747
2.72943
2.73208
2.73435
2.73508
2.73612
2.7368
2.73819
1.31859
2.65287
2.71578
2.67053
2.66401
2.64579
2.64219
2.64472
2.64675
2.64861
2.64984
2.65053
2.65165
2.65267
2.65414
2.65542
2.6571
2.65857
2.66047
2.66215
2.66427
2.66616
2.66849
2.67058
2.67312
2.6754
2.67812
2.68058
2.68347
2.6861
2.68912
2.6919
2.69501
2.69791
2.70103
2.70403
2.70708
2.71016
2.713
2.71613
2.71863
2.72168
2.72378
2.72635
2.72792
2.72981
2.73211
2.73328
2.73396
2.73305
1.31846
2.65195
2.71486
2.67069
2.66384
2.6453
2.64161
2.64421
2.64603
2.64801
2.64904
2.64987
2.65077
2.65194
2.65318
2.6546
2.65604
2.65767
2.65931
2.66115
2.66298
2.66504
2.66706
2.66932
2.67153
2.67397
2.67635
2.67897
2.68149
2.68427
2.6869
2.68981
2.69253
2.69553
2.69826
2.70133
2.70401
2.70704
2.70965
2.71247
2.71507
2.71737
2.72008
2.72174
2.72416
2.72539
2.72599
2.72688
2.7274
2.72925
1.31833
2.65095
2.71379
2.67105
2.66346
2.64474
2.64096
2.6435
2.64532
2.6472
2.64825
2.64897
2.64991
2.65095
2.65223
2.65351
2.655
2.65646
2.65817
2.65981
2.66173
2.66355
2.66567
2.66766
2.66996
2.67211
2.67459
2.67689
2.6795
2.68193
2.68463
2.68719
2.68993
2.69259
2.69531
2.69802
2.70068
2.70332
2.70591
2.70832
2.71077
2.71288
2.71479
2.71682
2.71785
2.72
2.72156
2.72238
2.72271
2.72109
1.3182
2.64988
2.71251
2.67176
2.66276
2.6441
2.64022
2.64266
2.64452
2.64626
2.64735
2.64794
2.64891
2.64983
2.65112
2.65229
2.65377
2.65514
2.65679
2.65837
2.66018
2.66198
2.66393
2.66593
2.668
2.67021
2.67236
2.67477
2.67697
2.67956
2.68178
2.6845
2.68672
2.68949
2.6917
2.6944
2.69663
2.6991
2.70132
2.7035
2.70557
2.70751
2.70925
2.71058
2.71193
2.71185
2.71225
2.7124
2.71296
2.71468
1.31805
2.64866
2.71116
2.67235
2.6621
2.6434
2.63937
2.64186
2.64348
2.64533
2.64619
2.64691
2.64764
2.6487
2.64974
2.65106
2.65226
2.65378
2.65513
2.65686
2.65836
2.66029
2.66192
2.66403
2.66579
2.66804
2.66993
2.67228
2.67429
2.67668
2.67883
2.68117
2.68345
2.68566
2.68804
2.69003
2.69241
2.69417
2.6963
2.69788
2.6995
2.70079
2.70202
2.70303
2.70356
2.70491
2.70454
2.70451
2.7032
2.70083
1.31788
2.64732
2.70971
2.6729
2.66142
2.6426
2.6384
2.64094
2.64232
2.64426
2.64493
2.64573
2.64628
2.6474
2.64825
2.64961
2.65065
2.65217
2.6534
2.65505
2.65647
2.65825
2.65985
2.66172
2.6635
2.66543
2.66737
2.66932
2.6714
2.67334
2.67551
2.67741
2.67958
2.68146
2.68348
2.68536
2.68706
2.68892
2.69021
2.6918
2.69274
2.69353
2.69383
2.69393
2.69327
2.69146
2.69076
2.6886
2.68794
2.68784
1.3177
2.64587
2.70815
2.67347
2.66069
2.64169
2.63735
2.63972
2.64119
2.64287
2.64369
2.64422
2.64492
2.64575
2.64679
2.64782
2.64905
2.65021
2.65163
2.65292
2.6545
2.65592
2.65764
2.65916
2.661
2.66261
2.66452
2.66622
2.66813
2.6699
2.67174
2.67356
2.67523
2.67703
2.67847
2.68009
2.68129
2.68246
2.68351
2.68389
2.68469
2.6846
2.68423
2.68326
2.68205
2.68041
2.67612
2.67255
2.66672
2.6607
1.31751
2.64433
2.7065
2.67405
2.65987
2.64067
2.63615
2.6384
2.63986
2.64138
2.64221
2.64262
2.64331
2.64402
2.64501
2.64596
2.64709
2.6482
2.64945
2.65072
2.65207
2.6535
2.65492
2.65648
2.65793
2.65961
2.66107
2.66282
2.66426
2.66602
2.66742
2.66909
2.67043
2.67188
2.67313
2.67416
2.67525
2.67561
2.67624
2.67608
2.67522
2.67446
2.67204
2.66993
2.66528
2.65992
2.65476
2.64502
2.63538
2.62273
1.3173
2.64273
2.70482
2.67463
2.65894
2.63956
2.63477
2.63708
2.63819
2.63987
2.64044
2.641
2.64143
2.64231
2.64299
2.6441
2.64493
2.64617
2.64713
2.64848
2.64956
2.65099
2.65217
2.65364
2.65489
2.65637
2.65767
2.65907
2.66041
2.66166
2.66298
2.664
2.66523
2.66595
2.66695
2.66725
2.6679
2.66778
2.66743
2.66657
2.66549
2.66283
2.66061
2.65531
2.65066
2.64068
2.62785
2.61094
2.58207
2.51103
1.31729
2.64181
2.70045
2.67514
2.65754
2.63781
2.6327
2.6348
2.63593
2.63732
2.63803
2.6383
2.63886
2.63938
2.64024
2.64095
2.64197
2.64278
2.64392
2.64481
2.64605
2.647
2.64831
2.64928
2.65062
2.65157
2.65289
2.65378
2.65501
2.65578
2.6568
2.6574
2.65805
2.65836
2.65857
2.65825
2.65766
2.65676
2.65486
2.65282
2.64871
2.64512
2.63748
2.6314
2.61844
2.60621
2.58348
2.54735
2.4896
2.36404
1.31727
2.64082
2.69573
2.67532
2.65563
2.63544
2.62983
2.6319
2.63278
2.63421
2.63482
2.63512
2.63551
2.63605
2.6367
2.63742
2.63818
2.639
2.63982
2.64071
2.64157
2.64252
2.64337
2.64434
2.64514
2.64608
2.64677
2.64763
2.64814
2.64886
2.64909
2.64959
2.64955
2.64937
2.64889
2.64831
2.64679
2.64552
2.6424
2.63997
2.63488
2.62895
2.62129
2.60787
2.59492
2.56853
2.54179
2.49172
2.41722
2.318
1.31724
2.64016
2.69327
2.67516
2.65405
2.63315
2.62691
2.62875
2.62952
2.63095
2.63153
2.63177
2.63206
2.6325
2.63306
2.63368
2.63433
2.63504
2.63574
2.63649
2.63722
2.63799
2.6387
2.63944
2.64008
2.64072
2.64123
2.64166
2.64192
2.64208
2.64192
2.64153
2.64098
2.6398
2.63856
2.63622
2.63412
2.63021
2.62709
2.6208
2.61616
2.60615
2.59868
2.58345
2.56679
2.54293
2.50652
2.46403
2.39208
2.31851
1.31712
2.63902
2.69245
2.67397
2.65211
2.63035
2.62365
2.6256
2.62644
2.62795
2.62847
2.62854
2.62864
2.62891
2.62916
2.62961
2.62992
2.6304
2.63075
2.63127
2.63164
2.63218
2.63257
2.63309
2.63346
2.63393
2.63424
2.63464
2.63475
2.63482
2.63471
2.63437
2.63377
2.63249
2.63122
2.62843
2.6261
2.62118
2.61681
2.60953
2.60134
2.59131
2.57734
2.56328
2.54112
2.5183
2.48442
2.444
2.39091
2.32898
1.31689
2.64021
2.70397
2.67061
2.65209
2.62872
2.62151
2.62424
2.6252
2.62705
2.62753
2.62747
2.62743
2.62747
2.62755
2.62766
2.62772
2.62775
2.62774
2.62769
2.62762
2.62745
2.62729
2.62695
2.62667
2.6262
2.62583
2.62502
2.62454
2.62345
2.6228
2.62133
2.62046
2.61844
2.61713
2.61431
2.61179
2.60795
2.60279
2.59716
2.58814
2.5788
2.5647
2.54881
2.52839
2.50258
2.47341
2.43471
2.39201
2.34481
1.30178
2.5866
2.69853
2.67706
2.65966
2.63614
2.62925
2.63215
2.63321
2.63474
2.6346
2.63417
2.63349
2.63295
2.63236
2.63183
2.6312
2.63064
2.62998
2.62943
2.62875
2.62823
2.6275
2.62701
2.62612
2.62558
2.62434
2.62342
2.62157
2.62025
2.61759
2.61578
2.61227
2.61002
2.60554
2.60276
2.59708
2.59354
2.58642
2.58091
2.57196
2.56266
2.55066
2.53537
2.518
2.49463
2.46888
2.4359
2.39829
2.35811
1.72049
2.469
2.72875
2.70693
2.68435
2.67405
2.67459
2.67613
2.67753
2.6778
2.67662
2.67515
2.67353
2.67175
2.66978
2.66758
2.66517
2.66255
2.65973
2.65676
2.65355
2.6503
2.64675
2.64329
2.6393
2.63539
2.63095
2.62786
2.62401
2.62145
2.61778
2.61508
2.61079
2.60714
2.60192
2.59688
2.59074
2.58377
2.57683
2.56744
2.55925
2.54693
2.53639
2.52033
2.50556
2.48451
2.46327
2.43569
2.40597
2.3732
1.73239
2.46208
2.72325
2.70218
2.67741
2.66844
2.67233
2.67403
2.67672
2.67754
2.67774
2.6776
2.67734
2.67704
2.67636
2.67575
2.67443
2.67347
2.67144
2.67012
2.66738
2.66567
2.66226
2.65997
2.65604
2.65342
2.64901
2.64486
2.63924
2.63382
2.62723
2.62106
2.61487
2.60887
2.60317
2.59613
2.59013
2.58136
2.57386
2.56305
2.5534
2.54031
2.52776
2.51211
2.49579
2.47695
2.4561
2.4332
2.40779
2.38171
1.72914
2.46763
2.72523
2.70248
2.67385
2.66438
2.66921
2.67165
2.67481
2.67593
2.67627
2.67641
2.67658
2.67656
2.67646
2.67621
2.67561
2.67521
2.6743
2.67358
2.67201
2.67094
2.66871
2.667
2.66414
2.66149
2.65808
2.65443
2.6503
2.64537
2.64066
2.63413
2.62808
2.61907
2.61182
2.60171
2.59375
2.58348
2.57489
2.56368
2.55333
2.5405
2.52747
2.51227
2.49617
2.47789
2.4581
2.43632
2.41282
2.38988
1.73184
2.46092
2.72069
2.69699
2.67078
2.66113
2.66569
2.66794
2.67111
2.67236
2.67277
2.67305
2.67338
2.67368
2.67395
2.67399
2.6739
2.67365
2.67322
2.67252
2.67184
2.67053
2.66956
2.66755
2.66623
2.66353
2.66173
2.65803
2.65563
2.65071
2.64762
2.64137
2.63709
2.62956
2.62343
2.61424
2.60569
2.59433
2.5835
2.57071
2.55814
2.54441
2.53049
2.5152
2.4991
2.4815
2.46334
2.44329
2.42224
2.40154
1.74101
2.44276
2.70916
2.68464
2.66705
2.65768
2.66063
2.66234
2.66542
2.66648
2.66714
2.66722
2.66744
2.66756
2.6677
2.6677
2.66764
2.66747
2.66729
2.66681
2.66647
2.66568
2.6651
2.66384
2.6629
2.66085
2.65946
2.65649
2.65455
2.65054
2.64763
2.64269
2.63859
2.63261
2.62694
2.61964
2.61221
2.60318
2.5935
2.58227
2.57012
2.55618
2.54155
2.52547
2.50914
2.49139
2.47317
2.45387
2.43386
2.41436
1.73596
2.43634
2.70581
2.67711
2.66925
2.65602
2.65613
2.65814
2.66114
2.66225
2.66332
2.66342
2.66369
2.66389
2.66405
2.66413
2.6641
2.664
2.66385
2.6635
2.6632
2.66253
2.66202
2.66091
2.66012
2.6584
2.65722
2.65472
2.65297
2.64967
2.64696
2.64277
2.63877
2.63364
2.62846
2.62206
2.61542
2.60753
2.59924
2.58962
2.5794
2.56767
2.55513
2.54098
2.52589
2.50943
2.49218
2.47384
2.45473
2.43609
1.35699
2.46743
2.67923
2.66853
2.64652
2.62388
2.61684
2.62088
2.62285
2.62573
2.62716
2.62819
2.62899
2.63
2.63071
2.63181
2.63246
2.63344
2.63395
2.63478
2.6351
2.63583
2.63596
2.63614
2.63615
2.63604
2.63582
2.63523
2.63465
2.63345
2.63228
2.63038
2.62839
2.6254
2.62217
2.61758
2.61254
2.60616
2.59924
2.59098
2.58229
2.57219
2.56156
2.5497
2.53697
2.52306
2.50824
2.49237
2.47558
2.45911
1.36041
2.477
2.68635
2.67711
2.65248
2.62351
2.61389
2.61471
2.61669
2.61866
2.61947
2.61956
2.61977
2.6198
2.62006
2.6204
2.62076
2.62109
2.62143
2.62166
2.62193
2.62202
2.62218
2.6221
2.62193
2.62155
2.62116
2.62029
2.61959
2.61811
2.61697
2.61475
2.61284
2.60989
2.60706
2.60353
2.59987
2.59541
2.59047
2.58481
2.57809
2.57051
2.56151
2.5516
2.54075
2.52909
2.51672
2.50351
2.48941
2.47561
1.34961
2.41268
2.66942
2.66957
2.65016
2.62377
2.614
2.61406
2.61476
2.61531
2.61498
2.61412
2.61336
2.61233
2.61166
2.61097
2.61047
2.60982
2.60934
2.60869
2.60822
2.60758
2.60709
2.60642
2.60585
2.60507
2.60436
2.60353
2.60264
2.60156
2.60018
2.59864
2.59662
2.59446
2.59165
2.5887
2.58502
2.58115
2.5765
2.57143
2.56569
2.55961
2.55292
2.54563
2.53756
2.52819
2.51766
2.50658
2.49479
2.48342
1.74167
2.39663
2.67501
2.66131
2.65253
2.63862
2.63345
2.6337
2.63346
2.63317
2.63237
2.63115
2.62974
2.62808
2.62646
2.62488
2.62321
2.62149
2.61963
2.61778
2.61577
2.61381
2.61167
2.6096
2.60732
2.6052
2.60281
2.60071
2.59823
2.5958
2.59324
2.59061
2.5878
2.58475
2.58157
2.57794
2.57419
2.5698
2.56533
2.56003
2.55466
2.54835
2.54198
2.53465
2.52707
2.51906
2.51094
2.50191
2.49219
2.4826
1.34701
2.39564
2.66021
2.66583
2.64949
2.62421
2.61561
2.61426
2.61553
2.6158
2.61552
2.61517
2.61428
2.61336
2.61272
2.61186
2.61114
2.61008
2.60913
2.6078
2.60667
2.6053
2.60414
2.60264
2.60136
2.5995
2.59791
2.59541
2.5934
2.59068
2.58833
2.58524
2.58245
2.57888
2.57566
2.57173
2.56801
2.56361
2.55928
2.55429
2.54914
2.54335
2.53723
2.53059
2.5234
2.51582
2.50769
2.49928
2.49031
2.4817
1.34834
2.40653
2.6674
2.67129
2.65097
2.62225
2.61099
2.6108
2.61177
2.61248
2.61235
2.61166
2.6109
2.6099
2.60931
2.60857
2.60797
2.60708
2.60627
2.60514
2.60399
2.60233
2.60065
2.59849
2.59632
2.59382
2.5913
2.5885
2.58558
2.58248
2.57919
2.57579
2.57223
2.56867
2.56471
2.5608
2.55639
2.55211
2.54723
2.54254
2.53719
2.53207
2.5262
2.5205
2.51403
2.50764
2.50045
2.49316
2.48534
2.478
1.34776
2.40218
2.66462
2.66933
2.64838
2.61895
2.60695
2.60681
2.60761
2.60852
2.60824
2.60739
2.60657
2.60546
2.60474
2.60399
2.60337
2.60256
2.6018
2.60087
2.5999
2.59875
2.59747
2.59599
2.59428
2.59237
2.59016
2.58778
2.58503
2.58215
2.57886
2.57546
2.57163
2.56776
2.56346
2.55908
2.55424
2.54929
2.54393
2.53842
2.5326
2.52658
2.52033
2.5138
2.50713
2.50013
2.49311
2.48562
2.47807
2.47069
1.34492
2.37917
2.64746
2.66156
2.64241
2.61457
2.60276
2.60133
2.60163
2.60187
2.60121
2.60044
2.5991
2.59801
2.59693
2.59605
2.59501
2.59409
2.59294
2.5919
2.59064
2.58951
2.58814
2.58689
2.58538
2.58395
2.58222
2.5805
2.57844
2.57634
2.57388
2.57127
2.56829
2.56504
2.56142
2.5575
2.55329
2.54872
2.54388
2.53859
2.53311
2.52716
2.52105
2.51445
2.50773
2.50057
2.49333
2.48582
2.47819
2.47086
1.75129
2.37312
2.64568
2.64174
2.62828
2.61419
2.60931
2.60955
2.60953
2.60942
2.60884
2.60818
2.60695
2.60581
2.60453
2.60341
2.60204
2.60073
2.59914
2.5976
2.59581
2.59404
2.59206
2.59007
2.58789
2.58568
2.58328
2.58082
2.5782
2.57547
2.57266
2.56969
2.56663
2.5633
2.55987
2.55607
2.55216
2.54782
2.54328
2.53832
2.5331
2.5275
2.52171
2.51557
2.50926
2.50261
2.49574
2.48858
2.48108
2.47393
1.34701
2.38879
2.6526
2.65982
2.63928
2.60894
2.5976
2.59625
2.59787
2.59919
2.59904
2.59853
2.59795
2.59668
2.59601
2.5948
2.59406
2.59258
2.59163
2.5899
2.58836
2.58652
2.5847
2.58256
2.58049
2.57826
2.57618
2.57389
2.57174
2.56928
2.56675
2.56386
2.5609
2.55762
2.55427
2.55065
2.5469
2.54292
2.53883
2.53449
2.52998
2.52517
2.52007
2.51463
2.50888
2.50282
2.49649
2.48996
2.48311
2.47655
1.35071
2.41205
2.65482
2.64886
2.62691
2.59635
2.58559
2.58586
2.58765
2.58957
2.58991
2.58967
2.5892
2.58843
2.58792
2.5874
2.58694
2.58632
2.58566
2.58486
2.58397
2.58295
2.5818
2.58049
2.579
2.57716
2.57507
2.57268
2.57005
2.56717
2.56417
2.56099
2.55766
2.55414
2.55047
2.54662
2.5426
2.5384
2.53402
2.52947
2.52474
2.51984
2.51484
2.50972
2.50437
2.49888
2.49311
2.48716
2.48091
2.47494
1.77119
2.37218
2.63846
2.61753
2.6112
2.5959
2.59317
2.59392
2.59504
2.59631
2.59605
2.59557
2.59522
2.59455
2.59398
2.5934
2.59282
2.59214
2.59142
2.5906
2.58971
2.58871
2.58763
2.5864
2.58506
2.58355
2.58189
2.58
2.57792
2.57552
2.57278
2.56975
2.56641
2.56282
2.55895
2.55485
2.55049
2.54595
2.54117
2.53624
2.53106
2.5257
2.52003
2.51422
2.50823
2.5021
2.49589
2.48958
2.48315
2.47702
1.79771
2.35515
2.62646
2.60586
2.60268
2.59276
2.58938
2.5896
2.58984
2.5904
2.59014
2.58953
2.58889
2.58786
2.58683
2.58571
2.58453
2.5832
2.5818
2.58026
2.57868
2.57697
2.57527
2.57349
2.57173
2.56989
2.56807
2.56615
2.56424
2.56228
2.56039
2.55836
2.55637
2.55418
2.55196
2.54945
2.54686
2.54391
2.54059
2.5369
2.53301
2.52883
2.52442
2.51972
2.51478
2.50954
2.50401
2.49818
2.49208
2.48618
1.76254
2.38164
2.65007
2.61928
2.61349
2.59934
2.59618
2.59829
2.59976
2.60059
2.60033
2.59984
2.59879
2.59759
2.59631
2.59499
2.59356
2.59205
2.5904
2.58871
2.5869
2.58506
2.58297
2.58077
2.57832
2.5758
2.57303
2.57021
2.56715
2.56409
2.5608
2.55754
2.55409
2.55058
2.54687
2.54314
2.53921
2.5353
2.5314
2.52748
2.5234
2.51922
2.51485
2.51043
2.50584
2.50116
2.49629
2.49132
2.48609
2.48116
1.28618
2.49455
2.64472
2.64202
2.61675
2.58404
2.57198
2.57243
2.57506
2.57745
2.57871
2.57893
2.57916
2.57913
2.57907
2.57899
2.57884
2.57853
2.57806
2.57741
2.57658
2.57554
2.57438
2.57304
2.57157
2.56987
2.56814
2.566
2.56376
2.56136
2.55875
2.55597
2.55286
2.54967
2.54617
2.5426
2.53874
2.53482
2.53064
2.52643
2.52199
2.51753
2.51303
2.5083
2.50344
2.49836
2.49318
2.48778
2.48227
2.47701
1.77181
2.36721
2.63951
2.61692
2.61063
2.59522
2.59028
2.59119
2.59161
2.5932
2.59282
2.59225
2.5918
2.591
2.59026
2.5894
2.58863
2.58766
2.58673
2.58558
2.58447
2.58312
2.58182
2.58025
2.57872
2.57691
2.57511
2.57301
2.57069
2.56808
2.56529
2.56221
2.55913
2.55581
2.55249
2.54888
2.54524
2.54129
2.53732
2.533
2.52867
2.52397
2.51911
2.51404
2.50889
2.50353
2.49809
2.49248
2.48675
2.48127
1.77321
2.3654
2.63742
2.61501
2.60877
2.59348
2.58852
2.58962
2.59068
2.59177
2.59231
2.59181
2.59138
2.59058
2.58972
2.58879
2.5878
2.58666
2.58542
2.58403
2.58256
2.58096
2.57927
2.57748
2.57559
2.57363
2.57154
2.56943
2.56736
2.5652
2.56303
2.5607
2.55819
2.55549
2.55259
2.54953
2.54631
2.54293
2.53937
2.53567
2.53177
2.52774
2.52349
2.51912
2.51453
2.50983
2.5049
2.49988
2.49462
2.48953
1.28558
2.49094
2.64203
2.63935
2.6136
2.57896
2.56603
2.56553
2.56806
2.57012
2.57107
2.57101
2.57087
2.57048
2.57018
2.56971
2.56942
2.56879
2.56835
2.56745
2.56681
2.56565
2.56477
2.56334
2.56222
2.56059
2.55896
2.55719
2.55528
2.55327
2.55115
2.54894
2.54662
2.5442
2.54167
2.539
2.53619
2.53324
2.53015
2.52687
2.52345
2.51985
2.51611
2.51219
2.50814
2.50389
2.49953
2.49498
2.4903
2.48577
1.76674
2.37285
2.6406
2.60986
2.60345
2.58748
2.58442
2.58659
2.58749
2.58961
2.58937
2.58883
2.58837
2.58753
2.58674
2.58585
2.58499
2.58395
2.58289
2.58166
2.58041
2.57901
2.57756
2.57599
2.57432
2.57255
2.57066
2.56867
2.56654
2.5643
2.56192
2.5593
2.55655
2.55358
2.5505
2.5472
2.5438
2.5402
2.53651
2.53271
2.52881
2.52479
2.52064
2.51637
2.51197
2.50744
2.50277
2.49799
2.49306
2.48833
1.79462
2.35597
2.62402
2.59592
2.59189
2.58019
2.57692
2.57811
2.57842
2.57914
2.57896
2.57855
2.57809
2.57735
2.57663
2.57588
2.57507
2.57417
2.57318
2.5721
2.57093
2.56966
2.5683
2.56685
2.56531
2.56368
2.56195
2.56014
2.55823
2.55623
2.55414
2.55208
2.54991
2.54774
2.54543
2.54311
2.5406
2.53801
2.53518
2.53222
2.52902
2.52573
2.52223
2.51864
2.51485
2.51096
2.50687
2.50268
2.49827
2.49409
1.79923
2.35073
2.61899
2.59273
2.58908
2.57783
2.57402
2.5747
2.57487
2.57527
2.57513
2.57471
2.57422
2.57346
2.57268
2.5719
2.57104
2.57011
2.56906
2.56794
2.5667
2.56539
2.56394
2.56242
2.56076
2.55902
2.55714
2.55517
2.55307
2.55087
2.54854
2.54612
2.54356
2.54092
2.53814
2.53528
2.5323
2.52929
2.52618
2.52302
2.51976
2.51641
2.51292
2.50935
2.50563
2.50183
2.49788
2.49383
2.48962
2.48562
1.77978
2.35595
2.61656
2.60299
2.59363
2.57718
2.57216
2.57264
2.57324
2.57387
2.57385
2.57338
2.57285
2.57202
2.57121
2.57043
2.56958
2.56867
2.56765
2.56656
2.56536
2.56408
2.56269
2.56122
2.55963
2.55795
2.55615
2.55425
2.55222
2.55009
2.54783
2.54546
2.54296
2.54034
2.53759
2.53473
2.53172
2.5286
2.52535
2.52198
2.51848
2.51487
2.51115
2.5073
2.50334
2.49926
2.49506
2.49075
2.4863
2.48206
1.34476
2.37986
2.63799
2.63737
2.61518
2.58173
2.56752
2.56514
2.56644
2.56756
2.56751
2.56725
2.56656
2.56556
2.56465
2.56387
2.56304
2.56216
2.56116
2.5601
2.55891
2.55765
2.55627
2.55481
2.55321
2.55154
2.54972
2.54782
2.54576
2.54362
2.54133
2.53894
2.5364
2.53376
2.53096
2.52807
2.52501
2.52186
2.51853
2.51511
2.51152
2.50784
2.50398
2.50004
2.49592
2.49173
2.48736
2.48294
2.47834
2.47395
1.34602
2.38746
2.65288
2.65699
2.63095
2.59245
2.57493
2.57257
2.57421
2.57549
2.57594
2.5756
2.57477
2.57377
2.57271
2.57184
2.57096
2.57005
2.56902
2.56793
2.56672
2.56547
2.56409
2.56267
2.56112
2.55951
2.55778
2.55598
2.55405
2.55205
2.54992
2.54771
2.54536
2.54293
2.54035
2.53769
2.53487
2.53197
2.52891
2.52576
2.52245
2.51905
2.51548
2.51181
2.50798
2.50405
2.49996
2.49578
2.49143
2.48726
1.3451
2.37934
2.63633
2.63635
2.61342
2.5801
2.56493
2.56294
2.5643
2.56522
2.56563
2.5652
2.5645
2.56346
2.56253
2.5617
2.56089
2.56002
2.55907
2.55802
2.55692
2.55572
2.55445
2.55309
2.55166
2.55013
2.54852
2.54681
2.54502
2.54311
2.54113
2.53902
2.53684
2.53453
2.53214
2.52961
2.527
2.52425
2.52142
2.51844
2.51538
2.51217
2.50888
2.50543
2.5019
2.4982
2.49443
2.4905
2.48648
2.48255
1.78106
2.35422
2.61404
2.5997
2.59003
2.57215
2.56708
2.56744
2.56803
2.56907
2.56891
2.56836
2.56787
2.56699
2.56624
2.56542
2.56464
2.56372
2.56278
2.5617
2.5606
2.55936
2.5581
2.55669
2.55526
2.55367
2.55207
2.5503
2.54851
2.54654
2.54456
2.54239
2.5402
2.53783
2.53543
2.53285
2.53024
2.52744
2.5246
2.52157
2.51851
2.51525
2.51196
2.50847
2.50494
2.50121
2.49744
2.49346
2.48942
2.48548
1.80128
2.34722
2.6146
2.58738
2.58384
2.57257
2.56908
2.57016
2.57045
2.57089
2.57074
2.57022
2.56968
2.56878
2.56796
2.56707
2.56618
2.56516
2.56411
2.56292
2.5617
2.56034
2.55895
2.5574
2.55582
2.55409
2.55232
2.55038
2.54841
2.54627
2.54408
2.54173
2.53933
2.53676
2.53413
2.53134
2.52848
2.52546
2.52238
2.51912
2.5158
2.51232
2.50876
2.50504
2.50125
2.4973
2.49327
2.48908
2.48481
2.48067
1.78825
2.36084
2.62701
2.59539
2.58877
2.57466
2.57218
2.57421
2.5757
2.57662
2.57659
2.57608
2.57554
2.57471
2.57393
2.57311
2.57226
2.57129
2.57027
2.56913
2.56794
2.56664
2.56528
2.5638
2.56226
2.56059
2.55886
2.557
2.55507
2.55301
2.55088
2.54861
2.54627
2.54379
2.54122
2.53852
2.53573
2.5328
2.52979
2.52662
2.52337
2.51997
2.51649
2.51285
2.50913
2.50526
2.5013
2.49719
2.49299
2.48893
2.17223
2.34542
2.76269
2.86055
2.85756
2.81629
2.81475
2.81424
2.8071
2.80602
2.80915
2.8107
2.81211
2.81297
2.81482
2.81619
2.81832
2.82015
2.82178
2.82282
2.82329
2.82344
2.8223
2.82148
2.81858
2.81618
2.81229
2.80846
2.80364
2.79869
2.79303
2.78719
2.78082
2.77428
2.76758
2.76063
2.75357
2.7458
2.73774
2.72964
2.72153
2.71335
2.70515
2.6969
2.68869
2.68048
2.67236
2.66429
2.65636
2.64852
2.64086
2.63335
2.62607
2.61897
2.61216
2.60559
2.59936
2.59344
2.58791
2.58274
2.57803
2.57375
2.56999
2.56671
2.56401
2.56182
2.56024
2.55918
2.55871
2.5586
2.55872
2.55907
2.55994
2.5614
2.56345
2.56569
2.5679
2.57017
2.57238
2.57455
2.57654
2.57841
2.58002
2.58144
2.58256
2.58349
2.58412
2.58457
2.58476
2.58482
2.58471
2.58447
2.58412
2.5834
2.58266
2.58161
2.58076
2.57961
2.57869
2.57565
2.1804
2.26042
2.45054
2.62854
2.69726
2.73291
2.75954
2.78404
2.79805
2.81071
2.81862
2.82861
2.83411
2.83372
2.82985
2.82461
2.81723
2.80996
2.80083
2.79212
2.78205
2.77259
2.76219
2.75251
2.74175
2.73159
2.72053
2.71016
2.69902
2.68857
2.67747
2.66703
2.65604
2.64569
2.63509
2.62519
2.61498
2.6047
2.59401
2.58368
2.57357
2.56367
2.55388
2.54428
2.53483
2.52559
2.51653
2.50769
2.49906
2.49067
2.48252
2.47464
2.46702
2.4597
2.45268
2.446
2.43966
2.4337
2.42814
2.423
2.41831
2.4141
2.41039
2.4072
2.40456
2.40248
2.40096
2.40001
2.3996
2.39961
2.39988
2.40044
2.40157
2.40334
2.4058
2.40847
2.41121
2.41396
2.41666
2.41926
2.4217
2.42392
2.42586
2.42753
2.42887
2.42992
2.43065
2.4311
2.43126
2.43124
2.43109
2.43079
2.43041
2.42962
2.42885
2.42773
2.42687
2.42569
2.42492
2.42204
2.22679
2.21301
2.27124
2.35861
2.41091
2.46081
2.49448
2.52177
2.54285
2.55871
2.57055
2.57968
2.58642
2.58891
2.5882
2.58653
2.58265
2.57821
2.57275
2.56685
2.56019
2.55342
2.54612
2.53895
2.53118
2.52356
2.51535
2.50744
2.49901
2.49098
2.48246
2.47438
2.46583
2.45775
2.44943
2.44181
2.43389
2.42588
2.41728
2.40895
2.40077
2.39281
2.38488
2.3771
2.36936
2.36179
2.35429
2.34699
2.33978
2.33279
2.32592
2.3193
2.31283
2.30664
2.30064
2.29495
2.28949
2.2844
2.27958
2.27517
2.27108
2.26746
2.26421
2.26147
2.25916
2.25738
2.25606
2.2553
2.255
2.2551
2.25542
2.25593
2.25696
2.25859
2.26086
2.26333
2.2659
2.26845
2.27097
2.27335
2.2756
2.27761
2.27939
2.28088
2.2821
2.28301
2.28366
2.28402
2.28415
2.2841
2.28397
2.28369
2.28336
2.28264
2.28196
2.28095
2.28022
2.2792
2.27871
2.27631
2.25963
2.22038
2.21601
2.24106
2.27158
2.2941
2.30934
2.32116
2.3317
2.34096
2.34862
2.35474
2.35947
2.36309
2.36463
2.36488
2.36483
2.36473
2.36454
2.36427
2.36377
2.36312
2.36238
2.36109
2.35955
2.35775
2.35544
2.35292
2.34995
2.34682
2.34325
2.33957
2.33546
2.33129
2.32693
2.32283
2.31845
2.31369
2.30825
2.30272
2.29714
2.29167
2.28608
2.28053
2.27484
2.26922
2.2635
2.25789
2.25222
2.2467
2.24116
2.23581
2.23047
2.22537
2.22032
2.21556
2.2109
2.20657
2.20241
2.19862
2.19505
2.19192
2.18905
2.18667
2.18461
2.18308
2.18191
2.1813
2.1811
2.18126
2.18158
2.18209
2.18311
2.18464
2.18675
2.18905
2.19153
2.19394
2.19636
2.19859
2.20072
2.20258
2.20425
2.2056
2.20675
2.20755
2.20816
2.20843
2.20855
2.20847
2.20837
2.20814
2.20785
2.2072
2.20663
2.20572
2.20512
2.20425
2.204
2.20193
2.2751
2.24098
2.21929
2.21181
2.21887
2.2235
2.22555
2.22615
2.22716
2.22902
2.23185
2.23416
2.23622
2.23806
2.24081
2.24309
2.24532
2.24776
2.25045
2.25329
2.2562
2.25897
2.26159
2.26383
2.26577
2.26713
2.26809
2.26857
2.26829
2.26774
2.26664
2.26519
2.26317
2.26092
2.25839
2.25595
2.25317
2.24989
2.24586
2.24153
2.23705
2.23254
2.2279
2.22322
2.21838
2.21352
2.20854
2.20358
2.19855
2.19358
2.18859
2.18371
2.17885
2.17415
2.16951
2.16509
2.16078
2.15675
2.15287
2.14933
2.146
2.14306
2.14038
2.13815
2.13624
2.13481
2.13375
2.13325
2.13314
2.13333
2.13364
2.13421
2.13522
2.13675
2.13872
2.14091
2.14329
2.14566
2.14801
2.15019
2.15222
2.15401
2.15559
2.15687
2.15793
2.15869
2.15922
2.15946
2.15954
2.15945
2.15935
2.1591
2.1588
2.15812
2.15763
2.15674
2.15621
2.15538
2.15525
2.15325
2.29856
2.25475
2.23055
2.21068
2.2009
2.19403
2.1883
2.1822
2.17738
2.17359
2.17187
2.17139
2.17201
2.17238
2.17348
2.17571
2.17828
2.18146
2.18441
2.18804
2.19142
2.19528
2.19861
2.20212
2.20488
2.20759
2.20938
2.21101
2.21172
2.21228
2.21206
2.2114
2.21021
2.2087
2.20696
2.20522
2.20313
2.20051
2.19718
2.19347
2.18955
2.18549
2.18133
2.17707
2.17271
2.16827
2.16373
2.15916
2.15453
2.1499
2.14527
2.14069
2.13615
2.13172
2.12738
2.12319
2.11914
2.11531
2.11167
2.10829
2.10516
2.10236
2.09985
2.09773
2.09595
2.09461
2.09369
2.09329
2.09325
2.09344
2.09376
2.09437
2.09542
2.09693
2.0988
2.1009
2.10317
2.10548
2.10775
2.10988
2.11184
2.11357
2.11507
2.11631
2.11729
2.11801
2.11849
2.11871
2.11875
2.11868
2.11856
2.11827
2.11797
2.11728
2.11683
2.11595
2.11547
2.11469
2.11463
2.11268
2.32218
2.28219
2.24852
2.22372
2.20328
2.18832
2.17593
2.16544
2.15593
2.14847
2.1426
2.13911
2.137
2.13664
2.13669
2.13726
2.13914
2.14198
2.14521
2.14859
2.15225
2.15603
2.15981
2.16351
2.16694
2.17006
2.17266
2.17484
2.17637
2.1775
2.17795
2.17806
2.17747
2.17655
2.17548
2.17432
2.17281
2.17074
2.16803
2.16489
2.16148
2.15786
2.15412
2.15025
2.1463
2.14222
2.13808
2.13385
2.12957
2.12525
2.12093
2.11662
2.11236
2.10816
2.10407
2.10008
2.09626
2.09259
2.08915
2.08592
2.08297
2.08029
2.07793
2.0759
2.07426
2.07301
2.07221
2.07189
2.07192
2.07209
2.07244
2.07309
2.07418
2.07569
2.0775
2.07953
2.0817
2.08394
2.08613
2.0882
2.0901
2.09178
2.09323
2.09442
2.09536
2.09606
2.09651
2.09671
2.09673
2.09665
2.09653
2.09622