/*--------------------------------*- C++ -*----------------------------------*\
| =========                 |                                                 |
| \\      /  F ield         | OpenFOAM: The Open Source CFD Toolbox           |
|  \\    /   O peration     | Version:  2412                                  |
|   \\  /    A nd           | Website:  www.openfoam.com                      |
|    \\/     M anipulation  |                                                 |
\*---------------------------------------------------------------------------*/
FoamFile
{
    version     2.0;
    format      ascii;
    arch        "LSB;label=32;scalar=64";
    class       volVectorField;
    location    "23.5";
    object      U;
}
// * * * * * * * * * * * * * * * * * * * * * * * * * * * * * * * * * * * * * //

dimensions      [0 1 -1 0 0 0 0];

internalField   nonuniform List<vector> 
7000
(
(2.59106 -7.24879e-05 0)
(1.62054 0.000178369 0)
(0.495656 0.000208967 0)
(0.552995 0.000350753 0)
(0.654685 0.000446552 0)
(0.719884 0.000524593 0)
(0.732766 0.000592436 0)
(0.725873 0.000662732 0)
(0.715811 0.000741194 0)
(0.708113 0.00083161 0)
(0.703645 0.000930254 0)
(0.700077 0.00103346 0)
(0.695992 0.00114043 0)
(0.691136 0.00125209 0)
(0.685672 0.00136948 0)
(0.679725 0.00149317 0)
(0.673313 0.00162345 0)
(0.666402 0.00176065 0)
(0.658957 0.00190519 0)
(0.650952 0.00205763 0)
(0.642364 0.00221858 0)
(0.633171 0.0023887 0)
(0.623346 0.00256869 0)
(0.612862 0.00275934 0)
(0.601691 0.00296145 0)
(0.589803 0.00317591 0)
(0.577164 0.00340362 0)
(0.563742 0.00364555 0)
(0.549502 0.00390266 0)
(0.534407 0.00417594 0)
(0.51842 0.00446635 0)
(0.501504 0.00477478 0)
(0.483619 0.00510212 0)
(0.46473 0.00544897 0)
(0.444799 0.00581595 0)
(0.423794 0.00620313 0)
(0.401685 0.00661057 0)
(0.378447 0.00703743 0)
(0.354063 0.0074828 0)
(0.328526 0.00794447 0)
(0.301839 0.00842008 0)
(0.274021 0.00890553 0)
(0.245107 0.00939687 0)
(0.21515 0.00988774 0)
(0.184223 0.0103736 0)
(0.15242 0.0108475 0)
(0.119821 0.0113136 0)
(0.0868497 0.0117556 0)
(0.0514915 0.0123442 0)
(0.0221146 0.0131963 0)
(2.59119 -4.80903e-05 0)
(1.6207 0.000347461 0)
(0.495345 0.000828077 0)
(0.552734 0.00113975 0)
(0.654447 0.00137488 0)
(0.719658 0.00159691 0)
(0.732541 0.00180493 0)
(0.725652 0.00202023 0)
(0.715599 0.00225774 0)
(0.70791 0.00252752 0)
(0.703449 0.00282032 0)
(0.699885 0.00312657 0)
(0.695803 0.00344408 0)
(0.690953 0.00377514 0)
(0.685494 0.00412237 0)
(0.679553 0.00448717 0)
(0.673146 0.00487026 0)
(0.666241 0.00527232 0)
(0.658803 0.00569446 0)
(0.650805 0.00613793 0)
(0.642224 0.00660424 0)
(0.633037 0.00709488 0)
(0.62322 0.00761158 0)
(0.612745 0.00815598 0)
(0.601583 0.00872999 0)
(0.589703 0.00933532 0)
(0.577074 0.009974 0)
(0.563662 0.0106476 0)
(0.549431 0.0113581 0)
(0.534345 0.0121067 0)
(0.518368 0.012895 0)
(0.50146 0.0137233 0)
(0.483583 0.0145924 0)
(0.464699 0.0155013 0)
(0.444772 0.0164492 0)
(0.423768 0.0174326 0)
(0.401655 0.0184482 0)
(0.378408 0.0194892 0)
(0.354008 0.0205483 0)
(0.328447 0.0216141 0)
(0.301727 0.0226743 0)
(0.273862 0.0237121 0)
(0.244887 0.02471 0)
(0.214852 0.0256468 0)
(0.183828 0.0265018 0)
(0.151908 0.0272555 0)
(0.119164 0.0279056 0)
(0.0860644 0.0284261 0)
(0.0505457 0.0290768 0)
(0.0211887 0.0298267 0)
(2.59132 4.76365e-05 0)
(1.621 0.00039237 0)
(0.495551 0.001605 0)
(0.552786 0.00198057 0)
(0.654488 0.00230477 0)
(0.719701 0.00267039 0)
(0.732584 0.00303982 0)
(0.725706 0.00341867 0)
(0.715674 0.00382877 0)
(0.708007 0.00428669 0)
(0.703559 0.00478138 0)
(0.700005 0.00530002 0)
(0.695933 0.00583967 0)
(0.691093 0.00640321 0)
(0.685647 0.0069946 0)
(0.67972 0.00761586 0)
(0.673327 0.00826862 0)
(0.666437 0.00895395 0)
(0.659015 0.00967408 0)
(0.651033 0.0104309 0)
(0.64247 0.0112274 0)
(0.633303 0.0120659 0)
(0.623506 0.0129498 0)
(0.613052 0.0138816 0)
(0.601913 0.014865 0)
(0.590058 0.0159029 0)
(0.577455 0.0169992 0)
(0.564069 0.0181565 0)
(0.549867 0.0193787 0)
(0.534811 0.0206678 0)
(0.518863 0.022027 0)
(0.501985 0.0234574 0)
(0.484138 0.0249606 0)
(0.465283 0.0265353 0)
(0.445382 0.0281805 0)
(0.4244 0.0298914 0)
(0.402305 0.0316622 0)
(0.379069 0.0334831 0)
(0.354671 0.0353406 0)
(0.329099 0.0372186 0)
(0.302354 0.0390937 0)
(0.274446 0.0409413 0)
(0.245407 0.0427288 0)
(0.215284 0.0444241 0)
(0.184144 0.0459905 0)
(0.152084 0.0473929 0)
(0.11917 0.0486189 0)
(0.0859281 0.0496292 0)
(0.0502701 0.0506815 0)
(0.0207491 0.0516743 0)
(2.59149 5.4118e-05 0)
(1.62144 0.000535857 0)
(0.495979 0.00235103 0)
(0.552909 0.0028144 0)
(0.65461 0.00323708 0)
(0.719843 0.0037571 0)
(0.732731 0.00430342 0)
(0.725868 0.00485936 0)
(0.715865 0.0054521 0)
(0.70823 0.00610435 0)
(0.703806 0.00680586 0)
(0.700268 0.00754275 0)
(0.696213 0.00831123 0)
(0.691393 0.0091144 0)
(0.685969 0.00995684 0)
(0.680065 0.0108414 0)
(0.673696 0.0117704 0)
(0.666831 0.0127456 0)
(0.659436 0.01377 0)
(0.651483 0.0148466 0)
(0.64295 0.0159793 0)
(0.633815 0.0171717 0)
(0.624054 0.0184282 0)
(0.613637 0.0197531 0)
(0.602538 0.021151 0)
(0.590725 0.0226267 0)
(0.578166 0.0241849 0)
(0.564828 0.0258307 0)
(0.550674 0.0275682 0)
(0.535669 0.0294022 0)
(0.519774 0.0313356 0)
(0.502949 0.0333721 0)
(0.485155 0.0355121 0)
(0.466353 0.0377569 0)
(0.446502 0.0401025 0)
(0.425566 0.042546 0)
(0.403511 0.0450765 0)
(0.380305 0.047684 0)
(0.355926 0.0503479 0)
(0.330358 0.0530475 0)
(0.303595 0.0557507 0)
(0.275647 0.0584212 0)
(0.24654 0.0610169 0)
(0.216317 0.0634865 0)
(0.185044 0.0657856 0)
(0.152817 0.067858 0)
(0.119701 0.0696751 0)
(0.086276 0.0711833 0)
(0.0504194 0.0726084 0)
(0.0206052 0.0737643 0)
(2.59174 6.77523e-05 0)
(1.62208 0.000716401 0)
(0.49653 0.00310379 0)
(0.553019 0.00367975 0)
(0.654738 0.00421148 0)
(0.720015 0.00488559 0)
(0.732917 0.00560898 0)
(0.726072 0.00634908 0)
(0.716106 0.0071332 0)
(0.708512 0.00798598 0)
(0.70412 0.00889955 0)
(0.70061 0.00986105 0)
(0.696581 0.0108657 0)
(0.69179 0.011917 0)
(0.686398 0.0130192 0)
(0.680527 0.0141768 0)
(0.674195 0.0153917 0)
(0.667367 0.0166677 0)
(0.660012 0.0180075 0)
(0.652101 0.0194162 0)
(0.643614 0.0208977 0)
(0.634529 0.022458 0)
(0.624819 0.0241015 0)
(0.614459 0.0258352 0)
(0.603419 0.0276639 0)
(0.591669 0.0295952 0)
(0.579176 0.0316341 0)
(0.565908 0.0337883 0)
(0.551829 0.0360625 0)
(0.5369 0.0384638 0)
(0.521084 0.0409956 0)
(0.504341 0.0436633 0)
(0.486628 0.0464676 0)
(0.467906 0.0494101 0)
(0.448133 0.0524869 0)
(0.427269 0.0556928 0)
(0.405277 0.0590166 0)
(0.382124 0.0624423 0)
(0.357781 0.0659483 0)
(0.332227 0.0695027 0)
(0.305453 0.0730707 0)
(0.277462 0.076599 0)
(0.248272 0.0800361 0)
(0.217927 0.0833118 0)
(0.186486 0.0863601 0)
(0.15405 0.0891152 0)
(0.120673 0.0915184 0)
(0.0869963 0.0934925 0)
(0.0508512 0.09523 0)
(0.0206231 0.0964786 0)
(2.59208 8.00414e-05 0)
(1.62292 0.000900513 0)
(0.497229 0.00385564 0)
(0.553134 0.00455772 0)
(0.654881 0.00520474 0)
(0.720225 0.00603324 0)
(0.733154 0.0069392 0)
(0.726335 0.00786851 0)
(0.716412 0.00885264 0)
(0.708868 0.00991481 0)
(0.704519 0.0110489 0)
(0.701044 0.0122427 0)
(0.697051 0.013492 0)
(0.692299 0.0147999 0)
(0.686949 0.0161713 0)
(0.681123 0.0176106 0)
(0.674837 0.0191213 0)
(0.668059 0.0207072 0)
(0.660757 0.0223727 0)
(0.652903 0.0241232 0)
(0.644476 0.0259645 0)
(0.635455 0.0279031 0)
(0.625815 0.0299458 0)
(0.615529 0.0320999 0)
(0.604568 0.0343731 0)
(0.592903 0.036773 0)
(0.5805 0.0393083 0)
(0.567327 0.0419864 0)
(0.553348 0.0448158 0)
(0.538524 0.047803 0)
(0.522816 0.0509555 0)
(0.506183 0.0542773 0)
(0.488583 0.0577729 0)
(0.469973 0.061442 0)
(0.450309 0.0652829 0)
(0.429548 0.0692878 0)
(0.407648 0.0734457 0)
(0.384573 0.0777357 0)
(0.360287 0.082133 0)
(0.334765 0.0865979 0)
(0.307987 0.0910857 0)
(0.279952 0.0955369 0)
(0.250668 0.09988 0)
(0.220172 0.104033 0)
(0.188521 0.107901 0)
(0.155814 0.111394 0)
(0.122104 0.114432 0)
(0.0880674 0.116902 0)
(0.051512 0.118952 0)
(0.0207745 0.120272 0)
(2.59251 9.27064e-05 0)
(1.624 0.0010868 0)
(0.498085 0.00461527 0)
(0.553255 0.00545124 0)
(0.655039 0.00622001 0)
(0.720477 0.00720666 0)
(0.733445 0.00830266 0)
(0.726658 0.00942575 0)
(0.71679 0.0106167 0)
(0.709305 0.0118967 0)
(0.705008 0.0132593 0)
(0.701579 0.0146932 0)
(0.697632 0.016195 0)
(0.692929 0.0177677 0)
(0.687632 0.0194168 0)
(0.681862 0.0211468 0)
(0.675636 0.0229624 0)
(0.668921 0.0248677 0)
(0.661685 0.0268687 0)
(0.653902 0.0289713 0)
(0.645553 0.0311831 0)
(0.636614 0.0335113 0)
(0.627061 0.0359647 0)
(0.616869 0.0385517 0)
(0.606009 0.0412821 0)
(0.594451 0.0441651 0)
(0.582163 0.0472111 0)
(0.569111 0.0504295 0)
(0.555259 0.0538306 0)
(0.540569 0.0574232 0)
(0.525001 0.0612159 0)
(0.508512 0.0652157 0)
(0.491058 0.0694271 0)
(0.472595 0.0738524 0)
(0.453075 0.0784894 0)
(0.432452 0.0833309 0)
(0.41068 0.0883642 0)
(0.387714 0.0935668 0)
(0.363513 0.0989089 0)
(0.338042 0.104346 0)
(0.311276 0.109822 0)
(0.283197 0.115266 0)
(0.253812 0.120594 0)
(0.223137 0.125703 0)
(0.191232 0.130477 0)
(0.158187 0.134795 0)
(0.124045 0.138537 0)
(0.0895425 0.141559 0)
(0.0524191 0.143968 0)
(0.0210219 0.145392 0)
(2.59304 0.000105487 0)
(1.62532 0.00127359 0)
(0.499112 0.00538071 0)
(0.553385 0.00635432 0)
(0.655215 0.00724844 0)
(0.720773 0.00839743 0)
(0.733795 0.00968606 0)
(0.727049 0.0110102 0)
(0.717247 0.0124162 0)
(0.709832 0.0139221 0)
(0.705598 0.0155209 0)
(0.702226 0.0172026 0)
(0.698336 0.0189648 0)
(0.693695 0.0208109 0)
(0.688462 0.0227464 0)
(0.682762 0.0247762 0)
(0.676608 0.0269057 0)
(0.66997 0.0291401 0)
(0.662816 0.0314862 0)
(0.655121 0.0339512 0)
(0.646866 0.0365438 0)
(0.638028 0.0392729 0)
(0.628584 0.0421484 0)
(0.618507 0.0451808 0)
(0.607772 0.0483813 0)
(0.596346 0.0517614 0)
(0.584199 0.0553329 0)
(0.571297 0.0591081 0)
(0.557604 0.0630984 0)
(0.54308 0.0673158 0)
(0.527685 0.0717702 0)
(0.511376 0.0764708 0)
(0.494106 0.0814247 0)
(0.475828 0.0866349 0)
(0.456492 0.092102 0)
(0.436047 0.0978182 0)
(0.414441 0.103772 0)
(0.391622 0.109938 0)
(0.36754 0.116284 0)
(0.34215 0.12276 0)
(0.315413 0.129304 0)
(0.287302 0.135832 0)
(0.257804 0.142237 0)
(0.22693 0.148406 0)
(0.194718 0.154185 0)
(0.161264 0.159425 0)
(0.126584 0.163976 0)
(0.0914605 0.167637 0)
(0.0536161 0.170464 0)
(0.0214116 0.172026 0)
(2.59368 0.000118335 0)
(1.6269 0.00146001 0)
(0.500325 0.00614929 0)
(0.553526 0.00726288 0)
(0.655413 0.00828556 0)
(0.72112 0.00960109 0)
(0.734214 0.011088 0)
(0.72752 0.0126186 0)
(0.717796 0.014247 0)
(0.710463 0.0159866 0)
(0.706302 0.0178296 0)
(0.702999 0.0197673 0)
(0.699178 0.0217982 0)
(0.69461 0.0239261 0)
(0.689456 0.0261564 0)
(0.683837 0.0284948 0)
(0.67777 0.030947 0)
(0.671225 0.0335193 0)
(0.664169 0.0362196 0)
(0.65658 0.0390564 0)
(0.648438 0.0420395 0)
(0.639721 0.0451794 0)
(0.630407 0.0484877 0)
(0.620471 0.0519766 0)
(0.609885 0.0556593 0)
(0.59862 0.0595491 0)
(0.586645 0.0636604 0)
(0.573924 0.0680072 0)
(0.560423 0.0726042 0)
(0.546103 0.0774647 0)
(0.53092 0.0826024 0)
(0.514831 0.088028 0)
(0.497787 0.0937519 0)
(0.479739 0.0997788 0)
(0.460632 0.106112 0)
(0.440411 0.112745 0)
(0.419016 0.119667 0)
(0.396389 0.126853 0)
(0.372467 0.134269 0)
(0.347195 0.141862 0)
(0.320517 0.14956 0)
(0.292389 0.157273 0)
(0.262782 0.164875 0)
(0.231682 0.172224 0)
(0.199115 0.17915 0)
(0.165163 0.185448 0)
(0.129835 0.190925 0)
(0.0939379 0.195332 0)
(0.0551454 0.19867 0)
(0.0219194 0.200424 0)
(2.59443 0.000131111 0)
(1.62877 0.00164479 0)
(0.501737 0.00691592 0)
(0.553683 0.00817091 0)
(0.655638 0.00932433 0)
(0.721526 0.01081 0)
(0.734709 0.0124991 0)
(0.728079 0.014242 0)
(0.718449 0.0161004 0)
(0.711209 0.018082 0)
(0.707133 0.0201776 0)
(0.703911 0.0223797 0)
(0.700173 0.0246877 0)
(0.695692 0.0271057 0)
(0.690629 0.0296394 0)
(0.685108 0.0322947 0)
(0.679143 0.0350781 0)
(0.672707 0.037997 0)
(0.665767 0.0410601 0)
(0.658302 0.0442774 0)
(0.650293 0.0476601 0)
(0.64172 0.0512202 0)
(0.632561 0.054971 0)
(0.62279 0.0589266 0)
(0.612382 0.0631022 0)
(0.601308 0.0675133 0)
(0.589536 0.0721769 0)
(0.577032 0.0771093 0)
(0.563762 0.082328 0)
(0.549684 0.0878493 0)
(0.534757 0.0936901 0)
(0.518935 0.0998643 0)
(0.502167 0.106385 0)
(0.4844 0.113261 0)
(0.465576 0.120498 0)
(0.445633 0.128093 0)
(0.424505 0.136036 0)
(0.402123 0.144307 0)
(0.378417 0.152867 0)
(0.353308 0.161665 0)
(0.326732 0.170622 0)
(0.298614 0.179639 0)
(0.268906 0.188576 0)
(0.237571 0.197265 0)
(0.2046 0.205499 0)
(0.170063 0.213037 0)
(0.133931 0.219623 0)
(0.0970634 0.224933 0)
(0.0571065 0.228894 0)
(0.0226248 0.2309 0)
(2.5953 0.000143689 0)
(1.63093 0.00182616 0)
(0.503364 0.00767323 0)
(0.553859 0.00907095 0)
(0.655895 0.0103574 0)
(0.721998 0.0120154 0)
(0.73529 0.0139119 0)
(0.72874 0.015872 0)
(0.719219 0.0179671 0)
(0.712087 0.0201993 0)
(0.708108 0.0225565 0)
(0.704981 0.0250316 0)
(0.701339 0.0276251 0)
(0.696959 0.0303416 0)
(0.692003 0.0331869 0)
(0.686594 0.0361673 0)
(0.680748 0.0392901 0)
(0.674438 0.0425634 0)
(0.667633 0.0459975 0)
(0.660313 0.0496033 0)
(0.652459 0.0533937 0)
(0.644053 0.0573822 0)
(0.635074 0.0615841 0)
(0.625497 0.0660154 0)
(0.615297 0.0706935 0)
(0.604445 0.0756365 0)
(0.592912 0.0808635 0)
(0.580665 0.0863941 0)
(0.567666 0.0922487 0)
(0.553876 0.0984472 0)
(0.539253 0.105009 0)
(0.523749 0.111954 0)
(0.507312 0.119298 0)
(0.489885 0.127054 0)
(0.471407 0.135232 0)
(0.451808 0.143834 0)
(0.431016 0.152855 0)
(0.40895 0.162277 0)
(0.385525 0.172065 0)
(0.360648 0.18217 0)
(0.334228 0.192507 0)
(0.30617 0.202971 0)
(0.276386 0.213412 0)
(0.244814 0.223635 0)
(0.211401 0.2334 0)
(0.176186 0.242402 0)
(0.139116 0.25032 0)
(0.101045 0.256751 0)
(0.0595849 0.261521 0)
(0.0235146 0.263877 0)
(2.5963 0.000155766 0)
(1.63341 0.00200209 0)
(0.505218 0.00841009 0)
(0.554059 0.00995388 0)
(0.656188 0.0113766 0)
(0.722544 0.0132057 0)
(0.735969 0.0153131 0)
(0.729513 0.0174957 0)
(0.720123 0.0198359 0)
(0.713113 0.0223279 0)
(0.709247 0.024956 0)
(0.706227 0.027713 0)
(0.702696 0.0306005 0)
(0.698432 0.0336238 0)
(0.693598 0.0367887 0)
(0.688317 0.0401019 0)
(0.682607 0.0435714 0)
(0.676442 0.0472066 0)
(0.669792 0.0510185 0)
(0.662638 0.0550198 0)
(0.654963 0.0592248 0)
(0.64675 0.0636488 0)
(0.637977 0.0683089 0)
(0.628624 0.0732234 0)
(0.618665 0.0784119 0)
(0.608072 0.0838951 0)
(0.596817 0.089695 0)
(0.584866 0.0958345 0)
(0.572185 0.102337 0)
(0.558733 0.109227 0)
(0.544468 0.116527 0)
(0.52934 0.124262 0)
(0.513297 0.132453 0)
(0.496278 0.14112 0)
(0.478219 0.150276 0)
(0.459043 0.159933 0)
(0.438669 0.170089 0)
(0.417005 0.180735 0)
(0.39395 0.191842 0)
(0.369392 0.203363 0)
(0.343212 0.215221 0)
(0.315286 0.227301 0)
(0.285485 0.239449 0)
(0.253697 0.251444 0)
(0.219823 0.263013 0)
(0.183838 0.273802 0)
(0.145637 0.283387 0)
(0.106104 0.291243 0)
(0.0627948 0.297062 0)
(0.0247286 0.299902 0)
(2.59743 0.000165146 0)
(1.63622 0.00217206 0)
(0.507313 0.00910894 0)
(0.554292 0.0108071 0)
(0.656524 0.0123737 0)
(0.723171 0.0143649 0)
(0.736758 0.0166881 0)
(0.730419 0.0190996 0)
(0.721181 0.0216936 0)
(0.71431 0.0244558 0)
(0.710569 0.0273646 0)
(0.707671 0.0304128 0)
(0.704266 0.033603 0)
(0.700133 0.0369412 0)
(0.695438 0.0404334 0)
(0.690302 0.0440868 0)
(0.684746 0.0479099 0)
(0.678744 0.0519132 0)
(0.67227 0.0561091 0)
(0.665305 0.0605117 0)
(0.657833 0.0651368 0)
(0.649839 0.0700018 0)
(0.641304 0.0751255 0)
(0.632206 0.0805287 0)
(0.622523 0.0862332 0)
(0.612227 0.0922629 0)
(0.601291 0.0986425 0)
(0.589684 0.105399 0)
(0.57737 0.112558 0)
(0.564311 0.12015 0)
(0.550463 0.128203 0)
(0.535778 0.136746 0)
(0.5202 0.145805 0)
(0.503668 0.15541 0)
(0.486112 0.16558 0)
(0.467452 0.176336 0)
(0.447596 0.187686 0)
(0.426442 0.19963 0)
(0.40387 0.212152 0)
(0.37975 0.225213 0)
(0.353928 0.238746 0)
(0.326246 0.252641 0)
(0.296521 0.26674 0)
(0.264583 0.280811 0)
(0.230263 0.294537 0)
(0.193462 0.307505 0)
(0.153972 0.319195 0)
(0.112634 0.328927 0)
(0.0669416 0.336195 0)
(0.0262951 0.339743 0)
(2.59869 0.00017047 0)
(1.63936 0.00233389 0)
(0.509645 0.00975608 0)
(0.554567 0.0116125 0)
(0.656902 0.0133283 0)
(0.723879 0.0154724 0)
(0.737668 0.0180218 0)
(0.731466 0.0206685 0)
(0.722408 0.0235252 0)
(0.715696 0.0265681 0)
(0.712094 0.0297682 0)
(0.709332 0.0331171 0)
(0.706068 0.0366189 0)
(0.702084 0.0402798 0)
(0.697543 0.0441065 0)
(0.69257 0.0481062 0)
(0.687187 0.0522885 0)
(0.681369 0.0566649 0)
(0.675093 0.0612492 0)
(0.66834 0.0660571 0)
(0.661098 0.0711059 0)
(0.653353 0.0764151 0)
(0.645086 0.0820056 0)
(0.636278 0.0879006 0)
(0.626907 0.0941244 0)
(0.61695 0.100704 0)
(0.606379 0.107667 0)
(0.595164 0.115045 0)
(0.583273 0.122867 0)
(0.570666 0.131169 0)
(0.557302 0.139984 0)
(0.543132 0.149347 0)
(0.528102 0.159293 0)
(0.512146 0.169858 0)
(0.495193 0.181074 0)
(0.477158 0.192971 0)
(0.457941 0.205572 0)
(0.437429 0.21889 0)
(0.415486 0.232926 0)
(0.391958 0.247657 0)
(0.366661 0.263035 0)
(0.339388 0.278966 0)
(0.309903 0.295302 0)
(0.277945 0.311813 0)
(0.24325 0.328163 0)
(0.205598 0.343872 0)
(0.164652 0.358296 0)
(0.121175 0.370556 0)
(0.0725091 0.37986 0)
(0.028495 0.384471 0)
(2.60008 0.000178112 0)
(1.64283 0.00247651 0)
(0.512213 0.0103557 0)
(0.554885 0.0123513 0)
(0.657329 0.0141995 0)
(0.724679 0.0165121 0)
(0.738717 0.0192861 0)
(0.732676 0.0221784 0)
(0.723828 0.0253145 0)
(0.717293 0.0286512 0)
(0.713846 0.0321531 0)
(0.711235 0.0358128 0)
(0.708128 0.0396352 0)
(0.704307 0.0436275 0)
(0.699938 0.0477959 0)
(0.695146 0.0521486 0)
(0.689954 0.0566954 0)
(0.684341 0.0614496 0)
(0.678285 0.0664257 0)
(0.67177 0.0716416 0)
(0.664786 0.0771159 0)
(0.657318 0.0828705 0)
(0.649352 0.0889282 0)
(0.64087 0.0953149 0)
(0.631853 0.102057 0)
(0.622278 0.109186 0)
(0.612121 0.116732 0)
(0.601353 0.124731 0)
(0.589943 0.133217 0)
(0.577855 0.14223 0)
(0.565048 0.15181 0)
(0.551476 0.162 0)
(0.537083 0.172843 0)
(0.521806 0.184385 0)
(0.505571 0.196671 0)
(0.48829 0.209743 0)
(0.469858 0.223644 0)
(0.450152 0.238405 0)
(0.429021 0.254051 0)
(0.406288 0.270588 0)
(0.381737 0.287994 0)
(0.355112 0.30621 0)
(0.326111 0.325113 0)
(0.294381 0.344499 0)
(0.259518 0.364034 0)
(0.22113 0.383207 0)
(0.17864 0.401245 0)
(0.132609 0.417051 0)
(0.0800916 0.42939 0)
(0.031527 0.435739 0)
(2.60161 0.000187965 0)
(1.64664 0.0025939 0)
(0.515044 0.0108869 0)
(0.555253 0.012995 0)
(0.657827 0.0149555 0)
(0.725611 0.017454 0)
(0.739937 0.0204578 0)
(0.734099 0.0236077 0)
(0.725493 0.0270398 0)
(0.719151 0.0306843 0)
(0.71587 0.0344997 0)
(0.713424 0.0384794 0)
(0.710488 0.0426296 0)
(0.706847 0.0469589 0)
(0.702665 0.0514732 0)
(0.698071 0.0561816 0)
(0.693089 0.0610949 0)
(0.687701 0.0662276 0)
(0.681887 0.071596 0)
(0.675634 0.0772194 0)
(0.668933 0.0831186 0)
(0.661773 0.0893172 0)
(0.654142 0.0958404 0)
(0.646023 0.102716 0)
(0.6374 0.109975 0)
(0.628253 0.11765 0)
(0.61856 0.125776 0)
(0.608295 0.134391 0)
(0.59743 0.143537 0)
(0.585931 0.153258 0)
(0.573761 0.163602 0)
(0.560875 0.174618 0)
(0.547221 0.186361 0)
(0.532738 0.198887 0)
(0.517351 0.212256 0)
(0.500974 0.226528 0)
(0.483499 0.241765 0)
(0.464797 0.258026 0)
(0.444708 0.275367 0)
(0.423034 0.293832 0)
(0.399532 0.313446 0)
(0.373896 0.334207 0)
(0.345751 0.356047 0)
(0.314635 0.378816 0)
(0.279979 0.402279 0)
(0.241126 0.425899 0)
(0.197196 0.44879 0)
(0.148339 0.469682 0)
(0.0910097 0.486699 0)
(0.0361562 0.496108 0)
(2.60326 0.000194226 0)
(1.65078 0.00268371 0)
(0.518126 0.011299 0)
(0.555673 0.0135032 0)
(0.658412 0.01557 0)
(0.726705 0.0182548 0)
(0.741368 0.0215119 0)
(0.735772 0.0249357 0)
(0.727443 0.028681 0)
(0.721311 0.0326544 0)
(0.718208 0.0368033 0)
(0.715937 0.0411197 0)
(0.713186 0.0456121 0)
(0.709738 0.0502893 0)
(0.705759 0.0551589 0)
(0.701378 0.0602295 0)
(0.696623 0.0655134 0)
(0.691481 0.0710259 0)
(0.685931 0.0767855 0)
(0.679966 0.0828129 0)
(0.673577 0.0891314 0)
(0.666757 0.0957665 0)
(0.659494 0.102746 0)
(0.651777 0.110101 0)
(0.643591 0.117864 0)
(0.634919 0.126072 0)
(0.625742 0.134764 0)
(0.616039 0.143982 0)
(0.605785 0.153774 0)
(0.594951 0.164188 0)
(0.583502 0.175281 0)
(0.571399 0.18711 0)
(0.558594 0.199742 0)
(0.545031 0.213244 0)
(0.53064 0.227693 0)
(0.515337 0.243171 0)
(0.499019 0.259762 0)
(0.481555 0.27756 0)
(0.462785 0.296659 0)
(0.442501 0.317158 0)
(0.420442 0.33913 0)
(0.396264 0.362689 0)
(0.369517 0.38786 0)
(0.339675 0.414521 0)
(0.305954 0.442716 0)
(0.267304 0.472032 0)
(0.222423 0.501634 0)
(0.170703 0.530077 0)
(0.107365 0.554886 0)
(0.0434832 0.570066 0)
(2.60501 0.000196872 0)
(1.65519 0.00273474 0)
(0.521434 0.0115423 0)
(0.556157 0.0138275 0)
(0.659108 0.0159954 0)
(0.728004 0.0188684 0)
(0.743063 0.0223971 0)
(0.737748 0.0261129 0)
(0.72974 0.0301889 0)
(0.723839 0.0345045 0)
(0.720923 0.038994 0)
(0.718837 0.0436495 0)
(0.716281 0.0484838 0)
(0.713039 0.0535079 0)
(0.709276 0.058731 0)
(0.705122 0.0641622 0)
(0.70061 0.069815 0)
(0.69573 0.0757062 0)
(0.690465 0.0818557 0)
(0.684809 0.088286 0)
(0.678758 0.095022 0)
(0.672306 0.102091 0)
(0.665446 0.109523 0)
(0.658168 0.117351 0)
(0.65046 0.125611 0)
(0.642311 0.134342 0)
(0.633705 0.143587 0)
(0.624625 0.153393 0)
(0.615051 0.163812 0)
(0.604958 0.1749 0)
(0.59432 0.186719 0)
(0.583102 0.199338 0)
(0.571264 0.212832 0)
(0.558758 0.227285 0)
(0.545524 0.242791 0)
(0.531486 0.259452 0)
(0.51655 0.277385 0)
(0.500601 0.296719 0)
(0.483484 0.31759 0)
(0.464985 0.340206 0)
(0.444876 0.364633 0)
(0.422807 0.391073 0)
(0.398169 0.419904 0)
(0.370516 0.451186 0)
(0.338954 0.485053 0)
(0.301909 0.521516 0)
(0.257458 0.56024 0)
(0.203861 0.600014 0)
(0.133823 0.638295 0)
(0.0565606 0.666336 0)
(2.60685 0.000195349 0)
(1.65984 0.00273566 0)
(0.524935 0.0115429 0)
(0.556732 0.0138936 0)
(0.65995 0.0161697 0)
(0.729551 0.0192589 0)
(0.745077 0.0231086 0)
(0.740088 0.0271759 0)
(0.732436 0.0316491 0)
(0.726772 0.0363603 0)
(0.724042 0.0412308 0)
(0.722145 0.0462564 0)
(0.719793 0.0514553 0)
(0.716769 0.0568422 0)
(0.713236 0.0624257 0)
(0.709325 0.0682168 0)
(0.705076 0.0742308 0)
(0.700479 0.0804872 0)
(0.695522 0.0870086 0)
(0.690203 0.0938201 0)
(0.684518 0.100949 0)
(0.678466 0.108426 0)
(0.672042 0.116283 0)
(0.665241 0.124555 0)
(0.658056 0.133282 0)
(0.650477 0.142506 0)
(0.642495 0.152274 0)
(0.634097 0.162636 0)
(0.625271 0.173649 0)
(0.615998 0.185374 0)
(0.60626 0.197882 0)
(0.596031 0.211249 0)
(0.585282 0.225563 0)
(0.573976 0.24092 0)
(0.562068 0.257435 0)
(0.549498 0.27523 0)
(0.536195 0.294439 0)
(0.522052 0.315286 0)
(0.506996 0.337856 0)
(0.49075 0.362399 0)
(0.473061 0.389346 0)
(0.453923 0.418924 0)
(0.432712 0.451617 0)
(0.408627 0.487924 0)
(0.380859 0.528296 0)
(0.347862 0.573461 0)
(0.306993 0.62424 0)
(0.255016 0.680968 0)
(0.180394 0.743012 0)
(0.0832312 0.80317 0)
(2.60874 0.000141594 0)
(1.66461 0.00273064 0)
(0.528529 0.0112094 0)
(0.557421 0.0135549 0)
(0.660997 0.0159246 0)
(0.731449 0.0192125 0)
(0.747543 0.0233854 0)
(0.742947 0.0278075 0)
(0.735694 0.0326814 0)
(0.730263 0.0377818 0)
(0.727707 0.0430206 0)
(0.72599 0.048406 0)
(0.72384 0.0539667 0)
(0.721033 0.0597196 0)
(0.717728 0.0656731 0)
(0.714063 0.0718374 0)
(0.71008 0.0782279 0)
(0.705775 0.0848651 0)
(0.701141 0.0917728 0)
(0.696176 0.0989771 0)
(0.690881 0.106507 0)
(0.685257 0.114393 0)
(0.679304 0.122671 0)
(0.673019 0.131377 0)
(0.666398 0.140553 0)
(0.659439 0.150244 0)
(0.652136 0.1605 0)
(0.644485 0.171376 0)
(0.636477 0.182933 0)
(0.628105 0.195239 0)
(0.619358 0.20837 0)
(0.610224 0.222412 0)
(0.600688 0.237462 0)
(0.59073 0.253627 0)
(0.580324 0.271047 0)
(0.569416 0.289903 0)
(0.558029 0.310213 0)
(0.545997 0.332257 0)
(0.53321 0.356421 0)
(0.519849 0.382909 0)
(0.505631 0.412242 0)
(0.490262 0.444855 0)
(0.473488 0.481238 0)
(0.454817 0.522376 0)
(0.433604 0.569445 0)
(0.408678 0.624265 0)
(0.377649 0.68973 0)
(0.336608 0.770916 0)
(0.270945 0.878173 0)
(0.14644 1.0434 0)
(2.61111 8.10602e-05 0)
(1.67039 0.0026005 0)
(0.532279 0.0103844 0)
(0.557938 0.0128199 0)
(0.662137 0.0154345 0)
(0.733804 0.019187 0)
(0.750725 0.0239847 0)
(0.746681 0.0290438 0)
(0.739963 0.0345611 0)
(0.734824 0.0402288 0)
(0.7325 0.0459575 0)
(0.731053 0.051783 0)
(0.729218 0.0577557 0)
(0.726752 0.0639025 0)
(0.723808 0.0702381 0)
(0.720527 0.0767767 0)
(0.716959 0.0835392 0)
(0.713108 0.0905511 0)
(0.708969 0.0978409 0)
(0.704546 0.105439 0)
(0.699844 0.113376 0)
(0.694868 0.121687 0)
(0.689623 0.130408 0)
(0.684113 0.139579 0)
(0.678342 0.149243 0)
(0.672314 0.159447 0)
(0.666033 0.170243 0)
(0.659504 0.181689 0)
(0.652732 0.193849 0)
(0.645722 0.206795 0)
(0.638482 0.220608 0)
(0.631017 0.235378 0)
(0.623332 0.251233 0)
(0.615453 0.268257 0)
(0.607442 0.286541 0)
(0.599072 0.306337 0)
(0.590392 0.327871 0)
(0.581882 0.351325 0)
(0.573397 0.377131 0)
(0.564716 0.405648 0)
(0.555958 0.437225 0)
(0.54721 0.472573 0)
(0.538662 0.512527 0)
(0.53054 0.558374 0)
(0.523385 0.611897 0)
(0.518375 0.675861 0)
(0.51823 0.754727 0)
(0.531154 0.855926 0)
(0.587126 0.990636 0)
(0.657201 1.18531 0)
(2.61363 5.93484e-05 0)
(1.67653 0.0019424 0)
(0.536802 0.00776391 0)
(0.559572 0.00992446 0)
(0.664781 0.0125057 0)
(0.738193 0.0166807 0)
(0.756193 0.0222112 0)
(0.75275 0.028051 0)
(0.746493 0.0343821 0)
(0.741422 0.0407703 0)
(0.739115 0.0471472 0)
(0.737769 0.0535888 0)
(0.736114 0.06016 0)
(0.733872 0.0668874 0)
(0.731182 0.0737818 0)
(0.72819 0.080858 0)
(0.724957 0.0881395 0)
(0.721491 0.0956547 0)
(0.717793 0.103434 0)
(0.713867 0.111509 0)
(0.709721 0.119913 0)
(0.705366 0.128684 0)
(0.70081 0.137858 0)
(0.696062 0.147479 0)
(0.691133 0.157591 0)
(0.686034 0.168245 0)
(0.680778 0.179496 0)
(0.67538 0.191403 0)
(0.669859 0.204032 0)
(0.664234 0.217464 0)
(0.658524 0.231801 0)
(0.652795 0.247061 0)
(0.647025 0.263362 0)
(0.641139 0.28092 0)
(0.635377 0.299865 0)
(0.629951 0.320333 0)
(0.624752 0.342669 0)
(0.61985 0.367069 0)
(0.615471 0.393725 0)
(0.611772 0.423091 0)
(0.609027 0.455686 0)
(0.607714 0.492164 0)
(0.608499 0.533442 0)
(0.612475 0.580669 0)
(0.621466 0.635508 0)
(0.63879 0.700119 0)
(0.670457 0.777416 0)
(0.725477 0.870835 0)
(0.836627 0.980403 0)
(0.984482 1.09497 0)
(2.61508 7.01862e-05 0)
(1.68009 0.00130453 0)
(0.539658 0.00545783 0)
(0.56132 0.0079094 0)
(0.668132 0.0111021 0)
(0.743958 0.0164646 0)
(0.763403 0.0232623 0)
(0.760691 0.0301967 0)
(0.754904 0.0372574 0)
(0.749827 0.0440634 0)
(0.747529 0.0507378 0)
(0.74632 0.0574579 0)
(0.74487 0.0643038 0)
(0.742852 0.071296 0)
(0.740398 0.0784408 0)
(0.737668 0.0857615 0)
(0.734736 0.0932915 0)
(0.731615 0.101065 0)
(0.728311 0.109117 0)
(0.724829 0.117478 0)
(0.721184 0.126185 0)
(0.717391 0.135271 0)
(0.713463 0.144775 0)
(0.709419 0.154737 0)
(0.705274 0.165199 0)
(0.70105 0.176211 0)
(0.696769 0.187822 0)
(0.692454 0.200101 0)
(0.688144 0.213099 0)
(0.683909 0.226847 0)
(0.679655 0.241459 0)
(0.675417 0.257078 0)
(0.671529 0.273767 0)
(0.668029 0.291688 0)
(0.664835 0.311038 0)
(0.662103 0.331898 0)
(0.660008 0.354441 0)
(0.658725 0.378932 0)
(0.658535 0.405661 0)
(0.659805 0.434972 0)
(0.663001 0.467321 0)
(0.668872 0.503228 0)
(0.678478 0.543351 0)
(0.693303 0.588457 0)
(0.71573 0.6394 0)
(0.749215 0.697025 0)
(0.799345 0.761602 0)
(0.87172 0.832177 0)
(0.984649 0.903794 0)
(1.12029 0.956622 0)
(2.61629 3.72397e-05 0)
(1.68316 -0.00152845 0)
(0.54502 -0.00484936 0)
(0.56729 -0.00305223 0)
(0.6759 0.000995315 0)
(0.754093 0.00904966 0)
(0.774415 0.0185837 0)
(0.771479 0.0278677 0)
(0.765096 0.0364537 0)
(0.759427 0.0442548 0)
(0.756951 0.0517466 0)
(0.755826 0.0592246 0)
(0.754544 0.0667667 0)
(0.752711 0.0743922 0)
(0.750469 0.0820965 0)
(0.748007 0.0899154 0)
(0.745406 0.0978944 0)
(0.742675 0.106075 0)
(0.739813 0.114494 0)
(0.736826 0.12319 0)
(0.733729 0.132201 0)
(0.730538 0.141566 0)
(0.72727 0.151326 0)
(0.723947 0.161521 0)
(0.720594 0.172198 0)
(0.717235 0.183417 0)
(0.713919 0.195198 0)
(0.710666 0.207585 0)
(0.707435 0.22068 0)
(0.704352 0.234561 0)
(0.701628 0.249279 0)
(0.699232 0.264999 0)
(0.697177 0.281811 0)
(0.69563 0.299732 0)
(0.694694 0.318915 0)
(0.694533 0.339517 0)
(0.695367 0.361707 0)
(0.69745 0.385684 0)
(0.701141 0.411675 0)
(0.706868 0.439932 0)
(0.715239 0.47074 0)
(0.727065 0.504426 0)
(0.743481 0.541273 0)
(0.765982 0.581558 0)
(0.796623 0.625364 0)
(0.838095 0.672411 0)
(0.894032 0.721642 0)
(0.967131 0.770468 0)
(1.06831 0.814671 0)
(1.18133 0.840227 0)
(2.61196 0.00228877 0)
(1.67313 -0.00676424 0)
(0.549552 -0.0137857 0)
(0.583067 -0.00801617 0)
(0.696129 -0.000388121 0)
(0.777888 0.00988786 0)
(0.798491 0.0200815 0)
(0.794069 0.0297277 0)
(0.785737 0.0382403 0)
(0.778694 0.0461001 0)
(0.77558 0.0537802 0)
(0.7741 0.0614369 0)
(0.772516 0.0691048 0)
(0.770377 0.0768156 0)
(0.767842 0.0846221 0)
(0.765154 0.0925772 0)
(0.762395 0.100725 0)
(0.759568 0.109104 0)
(0.756674 0.117746 0)
(0.753725 0.126685 0)
(0.750737 0.135953 0)
(0.747732 0.145584 0)
(0.744729 0.155611 0)
(0.741755 0.166065 0)
(0.738865 0.176958 0)
(0.736037 0.188349 0)
(0.733271 0.200318 0)
(0.730728 0.212882 0)
(0.728503 0.226108 0)
(0.726579 0.240103 0)
(0.725018 0.254899 0)
(0.723926 0.27052 0)
(0.723391 0.287079 0)
(0.723558 0.304668 0)
(0.72459 0.323391 0)
(0.726669 0.343381 0)
(0.730045 0.364756 0)
(0.734995 0.387668 0)
(0.741898 0.412251 0)
(0.751218 0.438655 0)
(0.763554 0.467009 0)
(0.779678 0.497418 0)
(0.800563 0.529901 0)
(0.827462 0.564343 0)
(0.861896 0.600399 0)
(0.905698 0.637307 0)
(0.961153 0.673733 0)
(1.02986 0.707342 0)
(1.11622 0.735209 0)
(1.20905 0.748957 0)
(2.60369 0.00790499 0)
(1.64293 -0.0735123 0)
(0.584857 -0.0725482 0)
(0.623931 -0.0457591 0)
(0.731378 -0.0057608 0)
(0.808998 0.0165298 0)
(0.826995 0.0266297 0)
(0.821034 0.0352874 0)
(0.811519 0.0426511 0)
(0.80416 0.0507652 0)
(0.800786 0.0592946 0)
(0.798928 0.0677261 0)
(0.796947 0.0759361 0)
(0.794505 0.0840045 0)
(0.791781 0.0920684 0)
(0.78895 0.100206 0)
(0.786071 0.108467 0)
(0.783143 0.116891 0)
(0.780166 0.125521 0)
(0.777153 0.134404 0)
(0.774124 0.143589 0)
(0.771107 0.153099 0)
(0.768122 0.162953 0)
(0.765164 0.173202 0)
(0.762309 0.183914 0)
(0.7597 0.195096 0)
(0.757321 0.206804 0)
(0.755174 0.219098 0)
(0.753377 0.231997 0)
(0.752004 0.245557 0)
(0.75113 0.259849 0)
(0.750866 0.274939 0)
(0.751339 0.290885 0)
(0.752704 0.30777 0)
(0.755135 0.325652 0)
(0.758832 0.344619 0)
(0.764044 0.364739 0)
(0.771072 0.386093 0)