/*--------------------------------*- C++ -*----------------------------------*\
| =========                 |                                                 |
| \\      /  F ield         | OpenFOAM: The Open Source CFD Toolbox           |
|  \\    /   O peration     | Version:  2412                                  |
|   \\  /    A nd           | Website:  www.openfoam.com                      |
|    \\/     M anipulation  |                                                 |
\*---------------------------------------------------------------------------*/
FoamFile
{
    version     2.0;
    format      ascii;
    arch        "LSB;label=32;scalar=64";
    class       volScalarField;
    location    "6.5";
    object      Ma;
}
// * * * * * * * * * * * * * * * * * * * * * * * * * * * * * * * * * * * * * //

dimensions      [0 0 0 0 0 0 0];

internalField   nonuniform List<scalar> 
7000
(
3.00001
3.00001
3
3.00003
2.99995
3.00042
2.99908
2.99866
2.98451
2.99238
2.92328
3.11873
2.81063
2.40292
1.54307
0.803426
0.322882
0.378263
0.438256
0.466206
0.464809
0.451335
0.430419
0.410828
0.395138
0.380417
0.36609
0.351653
0.336292
0.321172
0.306601
0.292659
0.280092
0.268445
0.255929
0.241716
0.227741
0.213803
0.199945
0.186383
0.171571
0.155332
0.138667
0.122663
0.106329
0.0889223
0.0707823
0.0520972
0.031554
0.0151112
3
3
2.99999
3
2.99992
3.00037
2.9989
2.9986
2.98514
2.99254
2.92278
3.11905
2.81142
2.40398
1.54413
0.803983
0.322926
0.378264
0.438159
0.466035
0.464544
0.450904
0.429893
0.410406
0.394905
0.380604
0.366953
0.353398
0.339104
0.324956
0.311078
0.297391
0.284702
0.272774
0.26005
0.245698
0.231708
0.218027
0.204481
0.191368
0.176855
0.160451
0.142957
0.125608
0.107866
0.0894207
0.0709899
0.052895
0.0339266
0.0206564
3
3
2.99997
2.99997
2.9998
3.00015
2.99838
2.99832
2.98528
2.99328
2.92345
3.11972
2.81252
2.40525
1.54572
0.805251
0.323233
0.37853
0.438289
0.466227
0.464866
0.451352
0.430456
0.411061
0.395509
0.38104
0.367144
0.353119
0.338323
0.323792
0.309689
0.296031
0.283624
0.27209
0.259813
0.245982
0.232495
0.21932
0.206244
0.193616
0.179585
0.163548
0.146199
0.128757
0.110879
0.0924501
0.0744403
0.0574092
0.0407821
0.0308841
3
3
2.99995
2.99995
2.99966
2.99958
2.99778
2.9967
2.98484
2.9936
2.92522
3.12187
2.81454
2.40675
1.54798
0.807347
0.324144
0.379249
0.438625
0.466638
0.465453
0.452135
0.431483
0.412425
0.39719
0.383049
0.369585
0.355829
0.341185
0.326758
0.312672
0.298939
0.286395
0.274632
0.262072
0.248018
0.234423
0.221291
0.208375
0.196069
0.182487
0.166944
0.150038
0.13298
0.115508
0.097586
0.0803284
0.0645039
0.0499991
0.0421972
3
3
2.99995
2.99994
2.99963
2.99957
2.99772
2.99688
2.98605
2.99423
2.92521
3.12365
2.8175
2.40977
1.55191
0.810468
0.325261
0.379981
0.438753
0.466859
0.465723
0.452337
0.431685
0.412666
0.397437
0.383381
0.370086
0.356513
0.342136
0.328002
0.314182
0.300671
0.288299
0.276669
0.264232
0.250281
0.236823
0.223907
0.211244
0.199291
0.186199
0.171233
0.154927
0.138481
0.121698
0.104559
0.0882357
0.0736082
0.0608141
0.0543008
3
2.99999
2.99995
2.99993
2.99963
2.99956
2.99774
2.99692
2.98652
2.99494
2.92661
3.12547
2.82073
2.4129
1.55711
0.815278
0.327196
0.381111
0.438968
0.467212
0.466182
0.452709
0.432138
0.41318
0.397873
0.383719
0.370325
0.356663
0.342296
0.328253
0.314576
0.301307
0.289258
0.278015
0.266065
0.25257
0.239565
0.227141
0.214927
0.203456
0.190956
0.17664
0.161011
0.145286
0.129355
0.113173
0.097884
0.0844184
0.0729917
0.0673224
3
3
2.99995
2.99994
2.99964
2.99957
2.99786
2.99709
2.98728
2.99584
2.92774
3.12852
2.82441
2.41561
1.56332
0.821166
0.32986
0.382823
0.439397
0.467815
0.467007
0.453601
0.433215
0.41443
0.399145
0.384981
0.371552
0.357691
0.343231
0.329198
0.315594
0.302508
0.290758
0.279895
0.268435
0.255453
0.242978
0.231145
0.219465
0.208566
0.196759
0.18318
0.168306
0.15337
0.138396
0.123279
0.109085
0.0967228
0.0864274
0.0813522
3
3
2.99995
2.99995
2.99966
2.99959
2.99798
2.99727
2.98787
2.9968
2.9294
3.131
2.82795
2.41926
1.57221
0.828392
0.334052
0.385387
0.440122
0.468628
0.468174
0.454967
0.434886
0.416395
0.401288
0.3873
0.374045
0.360142
0.345591
0.331485
0.317802
0.304755
0.293184
0.282583
0.271512
0.259014
0.247084
0.235889
0.224805
0.214554
0.203532
0.190792
0.176779
0.162731
0.148798
0.134814
0.121728
0.110441
0.101098
0.0964952
3
3
2.99995
2.99995
2.99969
2.99963
2.99818
2.99751
2.9889
2.99754
2.93094
3.13235
2.83207
2.42717
1.58447
0.836193
0.339697
0.388687
0.440665
0.469098
0.468994
0.456018
0.436178
0.417914
0.403132
0.389547
0.376724
0.363212
0.349012
0.335175
0.321659
0.308744
0.297315
0.286854
0.276022
0.26384
0.252289
0.241633
0.231121
0.221524
0.211324
0.199503
0.186457
0.173397
0.160576
0.147777
0.135819
0.125553
0.11709
0.112851
3
3
2.99996
2.99996
2.99973
2.99965
2.99836
2.99768
2.98965
2.99848
2.93309
3.13301
2.8368
2.43715
1.60035
0.848812
0.346099
0.391853
0.441717
0.470321
0.470586
0.457657
0.437945
0.419993
0.405508
0.392407
0.380141
0.367047
0.353338
0.339951
0.326739
0.314095
0.302891
0.292595
0.281991
0.270099
0.258849
0.248638
0.238655
0.229692
0.220356
0.209517
0.197502
0.185485
0.17383
0.16225
0.151429
0.14218
0.134501
0.130622
3
3
2.99997
2.99997
2.9998
2.99984
2.99879
2.99882
2.9906
3.00001
2.93568
3.13327
2.84172
2.44826
1.61799
0.864862
0.354522
0.394383
0.442457
0.471782
0.472395
0.459447
0.439699
0.421897
0.407648
0.395142
0.383466
0.370814
0.357699
0.344898
0.332147
0.320001
0.30923
0.299284
0.289088
0.277622
0.266754
0.257048
0.247614
0.239285
0.230845
0.221031
0.210103
0.199199
0.188735
0.178403
0.168721
0.160458
0.153592
0.149997
3
3
2.99997
2.99997
2.99979
2.99973
2.99867
2.9982
2.99118
3.0009
2.93868
3.13409
2.84797
2.46167
1.6391
0.884274
0.365638
0.395945
0.443674
0.473913
0.474798
0.461589
0.441877
0.424279
0.410267
0.398365
0.386793
0.374309
0.361663
0.34942
0.337203
0.325789
0.315709
0.306393
0.296912
0.286166
0.27588
0.266816
0.258052
0.250451
0.24301
0.234286
0.224478
0.214716
0.20549
0.196437
0.187936
0.180704
0.174598
0.171382
3
3
2.99998
2.99998
2.99983
2.99977
2.99894
2.9986
2.99276
3.00212
2.94168
3.13408
2.85453
2.47693
1.66317
0.90733
0.378295
0.396971
0.445451
0.476224
0.477162
0.463579
0.443913
0.426472
0.412787
0.401333
0.389831
0.377643
0.365579
0.353999
0.342496
0.331933
0.322682
0.314162
0.305624
0.295822
0.286244
0.277951
0.270023
0.263284
0.25699
0.249479
0.240888
0.232282
0.224332
0.216637
0.209371
0.203276
0.198071
0.195153
3
3
2.99999
2.99998
2.99986
2.99982
2.99913
2.99893
2.99377
3.00355
2.94511
3.13404
2.86148
2.49357
1.69008
0.933882
0.392746
0.399065
0.447533
0.478837
0.479752
0.46578
0.446204
0.428893
0.415495
0.404349
0.393128
0.381518
0.370249
0.359501
0.348894
0.339288
0.330906
0.323209
0.315659
0.306883
0.298047
0.290573
0.283609
0.277852
0.272876
0.266724
0.259471
0.252168
0.24562
0.239394
0.233537
0.228728
0.224532
0.22216
3.00001
3.00001
3
2.99999
2.99992
2.99986
2.99941
2.99926
2.99525
3.00471
2.94857
3.13348
2.86901
2.51212
1.72007
0.963774
0.408615
0.401334
0.448984
0.480802
0.481508
0.467131
0.447787
0.430889
0.418248
0.407649
0.396968
0.386258
0.37606
0.366317
0.356752
0.348222
0.340731
0.333839
0.327197
0.319401
0.311393
0.3048
0.298927
0.294262
0.290759
0.286163
0.280461
0.274627
0.269658
0.265155
0.260965
0.257876
0.255
0.25327
3.00001
3.00001
3
3
2.99994
2.99991
2.99956
2.99962
2.99684
3.00566
2.95259
3.13294
2.87699
2.53189
1.75282
0.996591
0.42551
0.403447
0.450056
0.482249
0.482639
0.467854
0.448865
0.433126
0.422052
0.412174
0.40229
0.392704
0.383686
0.374852
0.366442
0.359007
0.35241
0.346328
0.340579
0.333794
0.326541
0.320772
0.316107
0.312579
0.310558
0.307809
0.303988
0.299905
0.29687
0.294529
0.292589
0.291602
0.290985
0.290479
3.00001
3.00001
3.00001
3.00002
3.00001
3.00003
2.99981
3.00022
2.99786
3.00685
2.95661
3.13174
2.8851
2.55277
1.78878
1.03283
0.444046
0.40586
0.4507
0.482609
0.482325
0.467488
0.44943
0.435701
0.426295
0.417727
0.409281
0.401134
0.393187
0.385526
0.378468
0.37211
0.366411
0.361119
0.35618
0.350314
0.343861
0.338918
0.335406
0.332956
0.332403
0.331745
0.330154
0.328479
0.327755
0.328171
0.329255
0.331722
0.334386
0.336351
3.00001
3.00002
3.00002
3.00004
3.00006
3.0002
3.00022
3.00082
2.99904
3.00801
2.96111
3.12976
2.89375
2.57478
1.82934
1.07379
0.463462
0.406953
0.449241
0.480338
0.479921
0.46624
0.450504
0.439314
0.431455
0.424551
0.417866
0.411119
0.404682
0.398702
0.393059
0.387856
0.383085
0.378567
0.374377
0.369367
0.363603
0.359379
0.356907
0.355516
0.35636
0.35809
0.359295
0.360466
0.362627
0.36675
0.372285
0.379938
0.389318
0.397458
3.00001
3.00002
3.00002
3.00006
3.00007
3.00029
3.0005
3.00162
3.0006
3.00911
2.96567
3.12674
2.90374
2.59769
1.87371
1.11727
0.479744
0.406443
0.446268
0.476561
0.476762
0.464955
0.452107
0.44331
0.437691
0.433075
0.428281
0.423485
0.419148
0.414978
0.410835
0.406821
0.402957
0.399147
0.395568
0.391276
0.3861
0.382397
0.380651
0.380308
0.382565
0.38716
0.391469
0.395948
0.401978
0.411142
0.423228
0.439806
0.460772
0.485863
3.00001
3.00001
3.00001
3.00004
3.00006
3.00021
3.00046
3.00179
3.00154
3.01315
2.97593
3.14415
2.91562
2.63719
1.93951
1.18033
0.492847
0.405293
0.443193
0.473045
0.474666
0.466082
0.456835
0.450931
0.447729
0.445097
0.442294
0.43977
0.437338
0.434735
0.431867
0.428844
0.425725
0.422473
0.419329
0.415673
0.41104
0.407549
0.406269
0.407209
0.411075
0.418212
0.425639
0.433954
0.444997
0.460775
0.482509
0.513596
0.561964
0.651382
3.00001
3.00001
3
3
2.99998
2.99999
2.99997
3.0004
2.99974
3.00494
2.99088
3.07178
2.92752
2.76932
2.03613
1.27258
0.507311
0.404942
0.442318
0.475552
0.482236
0.478933
0.474383
0.470868
0.468982
0.468145
0.467536
0.46681
0.465715
0.464131
0.462002
0.459498
0.456761
0.453846
0.45108
0.448053
0.444237
0.441533
0.441928
0.445252
0.451133
0.461412
0.473851
0.487818
0.506161
0.531792
0.568735
0.625185
0.718371
0.864497
3.00001
3
3
2.99997
2.99997
2.99986
2.99976
2.99921
2.9988
2.99543
2.98702
2.97472
2.91911
2.65224
2.19293
1.39951
0.59252
0.421776
0.451021
0.483287
0.496277
0.499706
0.499229
0.496664
0.494677
0.494218
0.494175
0.493594
0.492215
0.49007
0.487334
0.484339
0.481329
0.47862
0.476412
0.474366
0.472221
0.472101
0.475263
0.48103
0.488984
0.501917
0.519691
0.539644
0.564578
0.598387
0.645544
0.712371
0.816311
0.941298
3.00001
3
3
2.99997
2.99996
2.9998
2.99972
2.99881
2.99833
2.99346
2.98974
2.96723
2.92767
2.82002
2.36127
1.62743
0.705608
0.440621
0.45672
0.489063
0.515338
0.524405
0.525534
0.523467
0.519936
0.517496
0.515497
0.51309
0.51012
0.506707
0.503164
0.499914
0.497352
0.495665
0.494769
0.494459
0.495357
0.498635
0.504627
0.51298
0.523528
0.538688
0.560257
0.585265
0.614898
0.652334
0.701423
0.764209
0.851529
0.941672
3.00001
3
3
2.99998
2.99997
2.99987
2.99978
2.99912
2.99869
2.99435
2.99075
2.96445
2.94778
2.77263
2.53886
1.85865
0.870131
0.506139
0.463712
0.493849
0.530366
0.544877
0.545981
0.541449
0.534901
0.529507
0.525489
0.521766
0.517941
0.514123
0.510704
0.508207
0.506906
0.506606
0.507421
0.509866
0.514097
0.520379
0.528961
0.539741
0.552888
0.569909
0.593042
0.620974
0.652666
0.68981
0.735748
0.789127
0.859278
0.926343
3.00001
3
3
2.99999
2.99995
2.99996
2.99975
2.99937
2.99877
2.99632
2.99277
2.97941
2.94698
2.84925
2.6189
2.03521
1.11739
0.629642
0.464273
0.490745
0.534376
0.55505
0.555168
0.547415
0.538802
0.532005
0.526896
0.52258
0.518859
0.515814
0.513637
0.512537
0.512653
0.514151
0.517523
0.522618
0.529152
0.537723
0.548473
0.561266
0.576397
0.594659
0.618113
0.645828
0.678143
0.713192
0.754907
0.801115
0.856583
0.911765
3.00001
3
2.99999
2.99999
2.99992
2.99991
2.99949
2.99943
2.99721
2.99634
2.98721
2.99145
2.95406
2.96368
2.71952
2.22708
1.36735
0.743705
0.441256
0.473969
0.526037
0.550583
0.552042
0.544202
0.536583
0.530583
0.526322
0.523014
0.52038
0.518501
0.51747
0.517359
0.518671
0.5217
0.526459
0.532832
0.540963
0.551227
0.563454
0.577605
0.593945
0.613276
0.636672
0.663298
0.69357
0.727061
0.763998
0.805313
0.851354
0.896865
3.00001
3.00001
3
3
2.99997
2.99997
2.99985
2.99979
2.99897
2.99815
2.9937
2.98554
2.95485
2.9347
2.71663
2.34499
1.54215
0.6402
0.382155
0.431781
0.485649
0.513712
0.521264
0.520582
0.519022
0.518031
0.517621
0.517588
0.517971
0.518633
0.519739
0.521574
0.52445
0.528841
0.5348
0.542333
0.551686
0.562984
0.576055
0.590989
0.608357
0.628646
0.651167
0.67636
0.704249
0.735039
0.768648
0.80504
0.844281
0.88338
3.00001
3.00001
3
3
2.99998
2.99997
2.99985
2.99977
2.99901
2.9984
2.99471
2.98869
2.9642
2.9394
2.7319
2.49858
1.79031
0.799646
0.461456
0.446196
0.475814
0.503094
0.513432
0.516086
0.516947
0.51797
0.519511
0.521947
0.524644
0.527072
0.529546
0.532487
0.536264
0.541297
0.547743
0.555902
0.565937
0.577602
0.59091
0.606076
0.623287
0.642677
0.663807
0.687071
0.712557
0.740153
0.769904
0.802141
0.83571
0.869248
3.00001
3.00001
3
3
2.99998
2.99997
2.99989
2.99974
2.99924
2.99863
2.99532
2.99213
2.96861
2.95093
2.82227
2.59902
1.9865
1.04084
0.595461
0.464777
0.483597
0.51665
0.53945
0.547872
0.549175
0.549032
0.549251
0.550122
0.551235
0.552306
0.553581
0.555227
0.557686
0.561481
0.566743
0.573751
0.582933
0.594248
0.607104
0.621576
0.637528
0.655311
0.674552
0.695385
0.717964
0.742633
0.769061
0.797878
0.827269
0.85613
3.00001
3
3
3
2.99999
2.99996
2.99991
2.99978
2.99929
2.99898
2.99588
2.99381
2.97994
2.95695
2.86929
2.71287
2.20002
1.34868
0.742228
0.469714
0.493454
0.538379
0.572158
0.581861
0.57948
0.576104
0.574253
0.57399
0.574404
0.575012
0.575856
0.577196
0.579207
0.582144
0.58645
0.592244
0.599918
0.609917
0.62162
0.63471
0.649361
0.665159
0.682551
0.701114
0.72124
0.743891
0.766855
0.792114
0.818082
0.842745
3.00001
3.00001
3
2.99999
2.99999
2.99993
2.99991
2.99952
2.99945
2.9971
2.99601
2.98297
2.99025
2.91855
3.1129
2.79316
2.3691
1.51408
0.814029
0.412527
0.457298
0.516972
0.561948
0.575905
0.575928
0.573972
0.573742
0.57553
0.578061
0.580692
0.583398
0.586386
0.589903
0.593823
0.598505
0.604447
0.611546
0.620269
0.631281
0.643612
0.657261
0.671662
0.687313
0.704366
0.722151
0.742226
0.761999
0.78351
0.80643
0.827791
3.00001
3.00001
3.00001
3
3
2.99996
2.99995
2.99971
2.99965
2.99836
2.9978
2.99019
2.99879
2.93629
3.13108
2.8411
2.46225
1.64162
0.891406
0.416022
0.451801
0.50495
0.548708
0.563066
0.564502
0.564277
0.565941
0.569089
0.572809
0.576771
0.580931
0.585512
0.59059
0.595732
0.601215
0.607823
0.615413
0.623755
0.633653
0.645624
0.659064
0.673127
0.688138
0.704494
0.720958
0.738441
0.756324
0.775115
0.795287
0.814262
3.00001
3.00001
3.00001
3
3
2.99997
2.99996
2.99982
2.99974
2.999
2.99841
2.99392
2.99
2.96279
2.93723
2.77108
2.52737
1.86421
0.86593
0.467919
0.428896
0.474608
0.517077
0.536749
0.543947
0.547868
0.552147
0.557038
0.562185
0.56742
0.572887
0.578719
0.585056
0.591699
0.598561
0.60614
0.614509
0.623441
0.633347
0.645064
0.65848
0.67259
0.687226
0.702549
0.717913
0.734076
0.75083
0.768047
0.786301
0.803557
3.00001
3.00001
3.00001
3
3
2.99998
2.99997
2.99984
2.99982
2.99912
2.99889
2.99537
2.99167
2.97373
2.94538
2.83339
2.60284
2.0181
1.05135
0.589372
0.452413
0.482042
0.520661
0.545867
0.55571
0.558875
0.561206
0.564247
0.567904
0.571838
0.575931
0.58051
0.585879
0.592064
0.598996
0.60673
0.615297
0.624447
0.634414
0.645754
0.658345
0.671573
0.685114
0.699184
0.71366
0.72897
0.744745
0.761252
0.778062
0.794212
3.00001
3.00001
3.00001
3
3
2.99998
2.99998
2.99988
2.99984
2.99938
2.99895
2.99669
2.99345
2.98014
2.9564
2.87853
2.68101
2.19916
1.30412
0.716751
0.472029
0.497562
0.543831
0.579859
0.591285
0.591438
0.589493
0.588612
0.588827
0.589748
0.59099
0.592666
0.595219
0.598889
0.60361
0.609683
0.617252
0.62585
0.635357
0.64584
0.657013
0.668913
0.681487
0.694831
0.708597
0.723226
0.738164
0.75398
0.769882
0.785203
3.00001
3.00001
3.00001
3.00001
3.00001
3
3
3
3.00001
2.99999
3.00012
2.99968
3.0007
2.9973
3.0188
2.97071
2.81547
2.13982
1.38195
0.568835
0.383014
0.430089
0.491024
0.531413
0.550094
0.558347
0.564175
0.569598
0.57513
0.580758
0.585519
0.589235
0.593068
0.597395
0.602103
0.608033
0.615709
0.624126
0.63328
0.643195
0.653777
0.665041
0.67678
0.689313
0.702086
0.715959
0.729826
0.744834
0.760004
0.774471
3.00001
3.00001
3.00001
3
2.99999
2.99999
2.99992
2.9999
2.99953
2.99936
2.99729
2.99571
2.98403
2.98484
2.91818
3.01853
2.77951
2.39538
1.53374
0.84069
0.470776
0.473702
0.511048
0.544019
0.554662
0.555847
0.557006
0.559764
0.564128
0.570097
0.576088
0.580551
0.584705
0.589448
0.594931
0.600886
0.608579
0.618504
0.628708
0.638979
0.649699
0.660974
0.672662
0.685008
0.69752
0.710798
0.724133
0.738002
0.752257
0.76564
3.00001
3.00001
3.00001
3.00001
3
3
2.99997
2.99997
2.99979
2.99973
2.99874
2.99835
2.99201
3.00112
2.94166
3.1301
2.85449
2.48333
1.68508
0.942768
0.446722
0.451098
0.50083
0.543258
0.556387
0.556618
0.555965
0.556398
0.558664
0.562895
0.568279
0.572744
0.576735
0.581652
0.587549
0.594009
0.601601
0.611292
0.622293
0.633697
0.645362
0.657209
0.669282
0.681767
0.694366
0.707397
0.720457
0.733841
0.747245
0.75994
3.00001
3.00001
3.00001
3.00001
3
3
2.99999
2.99998
2.9999
2.99984
2.9994
2.99924
2.99595
3.00398
2.95216
3.12751
2.87809
2.54151
1.781
1.02813
0.460357
0.432363
0.484236
0.530632
0.545454
0.546129
0.54422
0.543671
0.545176
0.549733
0.556065
0.562093
0.568016
0.574252
0.581508
0.589402
0.598054
0.608026
0.619393
0.631189
0.643292
0.655622
0.668047
0.680668
0.693381
0.706274
0.719117
0.732028
0.7447
0.756635
3.00001
3.00001
3.00001
3.00001
3.00001
3.00001
3.00001
3.00002
3.00001
3.00004
2.99991
3.0004
2.99847
3.00708
2.96213
3.12644
2.89651
2.60076
1.85806
1.09932
0.477477
0.4086
0.460031
0.509344
0.528088
0.530252
0.528934
0.52907
0.531748
0.537478
0.54504
0.553205
0.561563
0.570139
0.578736
0.587893
0.597943
0.60848
0.61972
0.631734
0.643986
0.656325
0.668684
0.681102
0.693494
0.7059
0.718151
0.730373
0.742202
0.753243
3.00001
3.00001
3.00001
3.00001
3
3
2.99999
2.99998
2.99988
2.99985
2.9993
2.99905
2.99591
2.99347
2.97344
2.95733
2.8439
2.61614
2.02594
1.04444
0.553266
0.419339
0.466528
0.517304
0.54287
0.546972
0.543826
0.541323
0.541591
0.54567
0.551616
0.558227
0.565347
0.573309
0.581916
0.590738
0.600238
0.610587
0.621616
0.632831
0.644196
0.655783
0.667267
0.678656
0.689965
0.701557
0.712981
0.724612
0.735644
0.746027
3.00001
3.00001
3.00001
3.00001
3.00001
3
3
2.99999
2.99997
2.99996
2.99996
3.00036
3.00047
3.0068
2.9993
3.08315
2.92993
2.77841
1.99572
1.20752
0.442813
0.361096
0.42219
0.484223
0.514159
0.526317
0.531009
0.534732
0.539641
0.545849
0.553808
0.561906
0.569438
0.576976
0.585029
0.593487
0.602246
0.611764
0.621706
0.632028
0.642672
0.653333
0.663985
0.674596
0.684873
0.69507
0.704979
0.715428
0.725845
0.735919
3.00001
3.00001
3.00001
3.00001
3.00001
3
3
2.99996
2.99996
2.99981
2.99969
2.99927
2.99835
2.99987
2.99628
3.04304
2.93438
2.76741
2.03546
1.24608
0.440872
0.326012
0.389016
0.458066
0.492815
0.511264
0.523192
0.532918
0.541885
0.550801
0.559024
0.566589
0.573955
0.581074
0.588348
0.59599
0.604052
0.61252
0.621491
0.630877
0.640255
0.649557
0.658889
0.668218
0.677458
0.686645
0.695682
0.705038
0.714952
0.72457
3.00001
3.00001
3.00001
3.00001
3.00001
3
3
2.99994
2.99994
2.99956
2.99952
2.99757
2.99684
2.98873
2.98987
2.9474
3.00061
2.68416
2.13711
1.23461
0.647339
0.368307
0.417815
0.487273
0.522857
0.535673
0.540946
0.545605
0.551452
0.557924
0.563979
0.569604
0.575229
0.581089
0.587191
0.593778
0.601108
0.609112
0.617565
0.62624
0.635097
0.644046
0.652835
0.661441
0.669936
0.67838
0.686909
0.695546
0.704629
0.713722
3.00001
3.00001
3.00001
3.00001
3.00001
3
3
2.99996
2.99995
2.99967
2.99963
2.99761
2.99673
2.98414
2.99303
2.91656
3.11528
2.77277
2.29573
1.39654
0.709256
0.323783
0.401431
0.485194
0.521199
0.529578
0.530622
0.532614
0.537209
0.543739
0.551376
0.558807
0.565998
0.573639
0.581516
0.589362
0.597327
0.605641
0.614052
0.622447
0.630808
0.639218
0.64757
0.655864
0.66407
0.672243
0.680439
0.688666
0.697219
0.705555
3.00001
3.00001
3.00001
3.00001
3.00001
3
3
2.99998
2.99996
2.99976
2.99972
2.99822
2.99761
2.98784
2.99738
2.92522
3.13059
2.79847
2.35958
1.46573
0.746196
0.310563
0.391294
0.470553
0.50568
0.51451
0.515903
0.5181
0.523266
0.531165
0.54102
0.551074
0.560925
0.571073
0.581279
0.591159
0.600671
0.609919
0.618428
0.626296
0.633834
0.641007
0.647986
0.655029
0.662288
0.669798
0.677326
0.68512
0.693053
0.700649
3.00001
3.00001
3.00001
3.00001
3.00001
3
3
2.99999
2.99994
2.99983
2.99975
2.9989
2.99917
2.99518
2.99099
2.96447
2.94781
2.80363
2.28071
1.47672
0.529998
0.268529
0.358679
0.438307
0.475457
0.491689
0.499889
0.507421
0.516771
0.527587
0.539074
0.550031
0.560855
0.571834
0.58257
0.592731
0.602232
0.611037
0.619266
0.626416
0.632151
0.637623
0.643432
0.649595
0.655764
0.662689
0.670928
0.679659
0.688144
0.696341
3.00001
3.00001
3.00001
3.00001
3.00001
3.00001
3.00001
3
2.99999
2.9999
2.99985
2.99905
2.99889
2.99206
3.00216
2.93459
3.13908
2.82241
2.41084
1.53915
0.798043
0.324555
0.379706
0.439312
0.476094
0.487993
0.492549
0.498337
0.507531
0.519761
0.533307
0.546646
0.559283
0.571099
0.582136
0.592271
0.601408
0.609592
0.617112
0.623887
0.629063
0.633384
0.638126
0.643469
0.649307
0.655475
0.662688
0.67184
0.681473
0.690393
3.00001
3.00001
3.00001
3.00001
3.00001
3.00001
3.00001
3.00001
3.00001
2.99998
2.99998
2.99968
2.99974
2.9951
3.00546
2.94318
3.14233
2.84345
2.45065
1.60439
0.832758
0.308467
0.366469
0.427058
0.470591
0.48376
0.485432
0.489077
0.498121
0.510809
0.524507
0.538336
0.551687
0.563934
0.575087
0.585321
0.594966
0.60415
0.612378
0.619157
0.624857
0.630072
0.634722
0.639526
0.644968
0.650897
0.657669
0.666059
0.675465
0.684185
3.00001
3.00001
3.00001
3.00001
3.00001
3.00001
2.99999
2.99999
2.99992
2.99991
2.99952
2.99945
2.99764
2.9963
2.99022
2.97345
2.9425
2.77876
2.46355
1.68857
0.640473
0.302508
0.357788
0.423802
0.476177
0.498163
0.502423
0.503252
0.507073
0.513466
0.521172
0.529769
0.538987
0.548693
0.558605
0.568427
0.578073
0.587313
0.596043
0.604386
0.612267
0.619627
0.626643
0.63381
0.640816
0.648021
0.6556
0.663929
0.672892
0.681672
3.00001
3.00001
3.00001
3.00001
3.00001
3.00001
3
3
3
3.00002
3.00009
3.00017
3.00119
2.99952
3.00987
2.95392
3.15321
2.85844
2.48028
1.66012
0.864295
0.313435
0.343881
0.411049
0.472734
0.498011
0.503964
0.506417
0.51063
0.516311
0.522662
0.529536
0.536917
0.544643
0.553073
0.562356
0.571505
0.58025
0.58854
0.596578
0.60449
0.612532
0.620724
0.629092
0.637468
0.646126
0.654802
0.663963
0.67309
0.681915
3.00001
3.00001
3.00001
3.00001
3.00001
3.00001
3
3
2.99999
2.99998
3.00001
2.99999
3.00081
3.00001
3.01204
2.96882
3.16396
2.86932
2.51549
1.72392
0.912254
0.294872
0.321739
0.39454
0.460361
0.48894
0.499232
0.506867
0.515596
0.524752
0.532717
0.538839
0.54438
0.549971
0.555486
0.561429
0.569475
0.57815
0.586166
0.593843
0.601581
0.609691
0.618211
0.627194
0.636434
0.646036
0.655635
0.665599
0.675254
0.68451
3.00001
3.00001
3.00001
3.00001
3.00001
3.00001
3
3
2.99998
2.99996
2.99991
2.99981
2.99999
2.9995
3.00573
2.98251
3.12522
2.86455
2.58862
1.79606
0.969666
0.305223
0.305725
0.380976
0.452093
0.485989
0.501126
0.512329
0.523082
0.533159
0.540921
0.54539
0.548504
0.551357
0.554132
0.557474
0.563947
0.572232
0.580474
0.589055
0.597966
0.607275
0.61703
0.627272
0.637867
0.648741
0.659566
0.670377
0.680711
0.690391
3.00001
3.00001
3.00001
3.00001
3.00001
3.00001
3
3
2.99998
2.99996
2.9999
2.99974
2.99983
2.99931
3.00424
2.98857
3.09349
2.8844
2.65967
1.84821
1.01441
0.333936
0.289193
0.368683
0.445554
0.479339
0.492197
0.501527
0.511434
0.5216
0.52979
0.534757
0.538464
0.541869
0.544748
0.548812
0.556711
0.565602
0.574486
0.583759
0.593626
0.60416
0.615304
0.626893
0.638736
0.650648
0.662374
0.673627
0.684142
0.693541
3.00001
3.00001
3.00001
3.00001
3.00001
3.00001
3
2.99999
2.99993
2.99992
2.99954
2.99951
2.99755
2.99721
2.98794
2.98324
2.92903
2.92954
2.62302
1.97064
0.990267
0.500536
0.31512
0.394493
0.479274
0.509815
0.511348
0.507392
0.50627
0.506277
0.506884
0.508415
0.509827
0.512809
0.51824
0.525357
0.534463
0.544793
0.55532
0.56638
0.578101
0.590383
0.603011
0.615764
0.628409
0.640644
0.65224
0.663135
0.673359
0.682455
3.00001
3.00001
3.00001
3.00001
3.00001
3.00001
3
2.99999
2.99993
2.99992
2.99951
2.99949
2.99735
2.99684
2.98772
2.98319
2.94829
2.8735
2.69135
2.08444
1.116
0.556825
0.311168
0.399219
0.488989
0.518452
0.513748
0.503515
0.496974
0.493041
0.49084
0.490835
0.493556
0.497733
0.503379
0.511504
0.521193
0.531741
0.542744
0.553473
0.564559
0.577553
0.590955
0.603486
0.615234
0.626258
0.636641
0.646508
0.656045
0.664914
3.00001
3.00001
3.00001
3.00001
3.00001
3.00001
2.99999
2.99999
2.99994
2.99993
2.99963
2.99958
2.99797
2.99743
2.98932
2.98839
2.94472
2.86986
2.65292
2.00337
1.01304
0.520522
0.356942
0.41873
0.487572
0.513985
0.509899
0.499912
0.495981
0.495271
0.496965
0.5008
0.506703
0.514794
0.523212
0.531498
0.540499
0.549698
0.55871
0.567087
0.574346
0.582172
0.592111
0.602029
0.611361
0.620419
0.629257
0.638067
0.646911
0.655661
3.00001
3.00001
3.00001
3.00001
3.00001
3.00001
3
3.00001
3
2.99999
2.99994
3.0001
2.99966
3.00092
3.00904
2.98896
3.1248
2.8915
2.67156
1.89672
1.09991
0.390189
0.324542
0.382763
0.438786
0.458527
0.460431
0.460932
0.464034
0.469285
0.476332
0.484526
0.493101
0.502486
0.513953
0.525191
0.535156
0.544067
0.552188
0.559909
0.567143
0.574335
0.581814
0.589592
0.597783
0.606192
0.614891
0.624647
0.63474
0.644985
3.00001
3.00001
3.00001
3.00001
3.00001
3.00001
3
3
3
2.99998
3
3
3.00095
3.00059
3.01111
2.97783
3.14799
2.89222
2.60714
1.87187
1.08896
0.406208
0.351964
0.40323
0.453866
0.470529
0.472301
0.472248
0.471954
0.473635
0.478662
0.485697
0.49286
0.502575
0.514423
0.524856
0.534168
0.542844
0.551088
0.559128
0.567402
0.574847
0.580542
0.586235
0.592644
0.599889
0.607872
0.616139
0.625133
0.635493
3.00001
3.00001
3.00001
3.00001
3.00001
3.00001
3.00001
3.00001
3.00001
3.00002
3.00012
3.00011
3.00168
3.00106
3.01372
2.9766
3.15342
2.89967
2.59327
1.85467
1.07054
0.402352
0.358876
0.414291
0.463452
0.476128
0.474416
0.471593
0.469776
0.470925
0.475406
0.482549
0.490299
0.500646
0.513185
0.524669
0.535236
0.545152
0.554379
0.562828
0.570919
0.57825
0.583171
0.58691
0.591586
0.597368
0.604113
0.61129
0.619741
0.630144
1.14116
0.846366
0.414641
0.175724
0.121181
0.224636
0.266462
0.286297
0.286146
0.271823
0.262149
0.253104
0.24517
0.235362
0.221734
0.20482
0.185036
0.163145
0.139836
0.115596
0.0908559
0.066051
0.0413836
0.0200673
0.0176504
0.0401183
0.0640558
0.0879595
0.111412
0.134237
0.15673
0.178382
0.199284
0.218942
0.238329
0.258737
0.279337
0.298749
0.317815
0.336118
0.354182
0.371753
0.389054
0.405846
0.422402
0.438461
0.454438
0.469937
0.48537
0.500392
0.515392
0.529983
0.544554
0.558771
0.572928
0.586762
0.600527
0.613935
0.627301
0.640284
0.653194
0.665777
0.678195
0.69036
0.702293
0.713998
0.725462
0.736692
0.747686
0.758437
0.768933
0.77919
0.789157
0.798871
0.808261
0.817349
0.82608
0.834432
0.842367
0.849823
0.856762
0.863099
0.868695
0.873533
0.877247
0.879917
0.881965
0.883857
0.884946
0.884904
0.882775
0.879425
0.874937
0.870214
0.864686
0.859619
0.854471
0.850899
0.848113
0.853531
1.07059
0.911946
0.702611
0.504989
0.451038
0.385022
0.322055
0.271993
0.237002
0.191887
0.158547
0.139615
0.134106
0.141962
0.152425
0.165209
0.18089
0.199073
0.217639
0.236452
0.255345
0.274334
0.293166
0.311865
0.330028
0.348363
0.366758
0.385339
0.403774
0.422167
0.440282
0.458161
0.475493
0.492056
0.507824
0.523959
0.540508
0.556493
0.571797
0.586559
0.601048
0.6151
0.628817
0.642109
0.654994
0.667612
0.679773
0.691794
0.703407
0.714962
0.726161
0.73742
0.748273
0.759319
0.769887
0.780783
0.791127
0.80192
0.812094
0.822701
0.832712
0.843123
0.852918
0.863092
0.87261
0.882494
0.891705
0.901241
0.910144
0.919285
0.927876
0.936574
0.94483
0.953028
0.960885
0.968523
0.975874
0.982882
0.989562
0.995834
1.00163
1.00697
1.01161
1.01559
1.01864
1.02059
1.02211
1.02343
1.02413
1.02382
1.02164
1.01857
1.01413
1.00973
1.00418
0.999348
0.993926
0.990318
0.986684
0.990851
1.03059
0.998176
0.917496
0.838121
0.781141
0.735635
0.696295
0.660138
0.632572
0.608229
0.587847
0.574038
0.566123
0.563538
0.563712
0.566604
0.571461
0.57777
0.585136
0.593303
0.602072
0.611258
0.620819
0.63064
0.640527
0.650468
0.660532
0.670765
0.681113
0.691938
0.703691
0.715809
0.727584
0.738748
0.748899
0.759375
0.770435
0.781985
0.79302
0.804108
0.815088
0.826324
0.837593
0.849054
0.860445
0.871826
0.883062
0.894229
0.905125
0.915939
0.92643
0.936829
0.946893
0.956841
0.966439
0.975897
0.985046
0.994021
1.00277
1.01135
1.01979
1.02806
1.03621
1.04421
1.05206
1.0598
1.06735
1.07482
1.08208
1.08927
1.09627
1.10317
1.10988
1.11648
1.12286
1.1291
1.13508
1.14086
1.14633
1.15149
1.15628
1.16064
1.16447
1.16769
1.17014
1.17159
1.17269
1.17375
1.17423
1.17389
1.17214
1.16968
1.16605
1.16242
1.15777
1.15378
1.14922
1.14623
1.14281
1.14648
1.00923
1.02721
1.01059
0.982053
0.956171
0.934393
0.914965
0.896238
0.87832
0.862573
0.849585
0.839107
0.833834
0.831614
0.830397
0.829938
0.830132
0.831018
0.832531
0.834693
0.837579
0.841198
0.845537
0.850456
0.855896
0.861829
0.868217
0.875026
0.88216
0.889469
0.896901
0.904418
0.911693
0.917949
0.923585
0.92933
0.93593
0.943331
0.950733
0.958041
0.965371
0.97264
0.980193
0.988357
0.997202
1.00607
1.01543
1.02487
1.03461
1.04431
1.05404
1.06367
1.07318
1.08255
1.09176
1.10083
1.10977
1.11859
1.12733
1.13592
1.1444
1.1527
1.16087
1.16881
1.1766
1.18416
1.19154
1.1987
1.20566
1.21242
1.21899
1.22532
1.2315
1.23742
1.24316
1.24865
1.25389
1.25891
1.26358
1.26799
1.27202
1.27564
1.27886
1.2814
1.28332
1.2843
1.28496
1.28551
1.28557
1.28499
1.28299
1.28071
1.27707
1.2737
1.26906
1.26521
1.26038
1.25718
1.25288
1.25543
0.985889
1.02507
1.03865
1.04195
1.03952
1.03704
1.03339
1.02803
1.02083
1.01259
1.00569
1.00111
0.998243
0.995626
0.993181
0.99112
0.98919
0.987305
0.985625
0.984435
0.983734
0.983551
0.984305
0.985553
0.987404
0.990049
0.993349
0.997359
1.00201
1.00703
1.01238
1.01811
1.02408
1.0299
1.03552
1.04126
1.04751
1.05442
1.06132
1.06805
1.07476
1.08153
1.08847
1.0954
1.10248
1.10946
1.11651
1.1235
1.13058
1.13778
1.14511
1.15263
1.16026
1.16807
1.17596
1.18395
1.19197
1.20003
1.20806
1.2161
1.22407
1.23201
1.23987
1.24764
1.25532
1.26287
1.2703
1.27756