/*--------------------------------*- C++ -*----------------------------------*\
| =========                 |                                                 |
| \\      /  F ield         | OpenFOAM: The Open Source CFD Toolbox           |
|  \\    /   O peration     | Version:  2412                                  |
|   \\  /    A nd           | Website:  www.openfoam.com                      |
|    \\/     M anipulation  |                                                 |
\*---------------------------------------------------------------------------*/
FoamFile
{
    version     2.0;
    format      ascii;
    arch        "LSB;label=32;scalar=64";
    class       volScalarField;
    location    "6.5";
    object      p;
}
// * * * * * * * * * * * * * * * * * * * * * * * * * * * * * * * * * * * * * //

dimensions      [1 -1 -2 0 0 0 0];

internalField   nonuniform List<scalar> 
7000
(
1
1
0.999999
0.999996
0.999942
1.00002
0.999705
0.998813
1.01149
1.02928
1.01875
1.06821
1.15337
1.07366
2.90547
4.91255
10.6353
10.4169
9.9595
9.64936
9.62221
9.67065
9.78416
9.90539
9.9974
10.0677
10.1406
10.2072
10.2722
10.3322
10.3881
10.4398
10.4881
10.5321
10.5739
10.6154
10.6575
10.6991
10.7358
10.7718
10.8035
10.8342
10.8622
10.8877
10.9111
10.9337
10.9561
10.9759
10.9912
11.0026
1
1.00001
1.00001
1.00002
0.999994
1.0001
0.999833
0.999075
1.01103
1.02811
1.01798
1.06823
1.15315
1.07333
2.90381
4.90623
10.6328
10.4145
9.95884
9.6491
9.62214
9.67049
9.78425
9.90514
9.99703
10.0673
10.1401
10.2066
10.2715
10.3314
10.3872
10.4385
10.487
10.5309
10.5727
10.6143
10.6566
10.6981
10.7344
10.7716
10.8031
10.834
10.8622
10.8878
10.9114
10.934
10.9565
10.9763
10.9915
11.0028
1
1.00001
1.00002
1.00007
1.00005
1.00035
1.00021
0.999639
1.01094
1.02804
1.01754
1.0667
1.15109
1.07015
2.90208
4.89277
10.6271
10.4096
9.95762
9.64828
9.62141
9.66967
9.78342
9.90376
9.99536
10.0651
10.138
10.2041
10.2687
10.3285
10.3839
10.4354
10.4836
10.5275
10.5694
10.6111
10.6534
10.6948
10.7309
10.7689
10.8004
10.8315
10.8599
10.8858
10.9095
10.9321
10.9544
10.9741
10.9892
11.0005
1
1.00002
1.00002
1.0001
1.0001
1.00062
1.00074
1.00396
1.00597
1.028
1.01607
1.06493
1.14847
1.06574
2.89939
4.87117
10.6172
10.4018
9.95617
9.64701
9.6199
9.66812
9.78173
9.90144
9.99263
10.0618
10.1348
10.2002
10.2645
10.3241
10.3789
10.4303
10.4784
10.5222
10.5642
10.6062
10.6486
10.6899
10.7258
10.7643
10.7961
10.8274
10.8559
10.8819
10.9058
10.9284
10.9507
10.9702
10.9854
10.9968
0.999999
1.00002
1.00002
1.00011
1.00013
1.00066
1.00076
1.00392
1.00575
1.02557
1.01421
1.06371
1.14575
1.0607
2.89497
4.83923
10.6019
10.3902
9.95485
9.64551
9.61753
9.66541
9.77905
9.89779
9.98831
10.0572
10.1298
10.1946
10.2583
10.3176
10.3719
10.423
10.4707
10.5145
10.5567
10.599
10.6415
10.6827
10.7185
10.7577
10.7897
10.8211
10.8498
10.8759
10.9
10.9226
10.9449
10.9645
10.9797
10.9913
0.999999
1.00002
1.00002
1.00011
1.00012
1.00068
1.00078
1.00386
1.00576
1.02365
1.01372
1.06212
1.14177
1.05349
2.88884
4.79551
10.58
10.3744
9.95415
9.644
9.61424
9.66171
9.7747
9.89254
9.98222
10.0511
10.1228
10.187
10.2501
10.3092
10.3626
10.4133
10.4607
10.5043
10.5468
10.5893
10.6321
10.6731
10.7089
10.7488
10.7811
10.8127
10.8409
10.8674
10.8915
10.9141
10.9365
10.9563
10.9718
10.9837
0.999999
1.00002
1.00002
1.00011
1.00011
1.00065
1.00076
1.00363
1.00546
1.02242
1.01211
1.05936
1.13696
1.04389
2.88466
4.73997
10.5493
10.3535
9.9537
9.64241
9.60994
9.65681
9.76865
9.88554
9.97417
10.0429
10.1137
10.1772
10.2396
10.2985
10.3508
10.4011
10.448
10.4914
10.5342
10.5771
10.62
10.6608
10.6967
10.7372
10.7698
10.8018
10.8291
10.8558
10.88
10.9027
10.9251
10.9452
10.961
10.9734
0.999999
1.00002
1.00002
1.0001
1.0001
1.00061
1.00071
1.00344
1.00514
1.02153
1.01067
1.05634
1.13163
1.03332
2.88075
4.67048
10.5138
10.3289
9.95286
9.64036
9.60409
9.65006
9.76043
9.8763
9.96372
10.0323
10.1023
10.165
10.2267
10.2854
10.3365
10.3863
10.4328
10.4759
10.519
10.562
10.6051
10.6456
10.6818
10.7226
10.7557
10.7877
10.814
10.8407
10.865
10.8876
10.9101
10.9306
10.9467
10.9596
1
1.00002
1.00002
1.00009
1.0001
1.00055
1.00066
1.00307
1.00466
1.02077
1.00864
1.0532
1.12626
1.02416
2.87089
4.60873
10.4685
10.2905
9.94228
9.63464
9.59563
9.64083
9.74987
9.86461
9.95066
10.019
10.0879
10.1501
10.2109
10.2693
10.3194
10.3688
10.4147
10.4575
10.5011
10.5438
10.587
10.6273
10.6637
10.7048
10.7381
10.77
10.7953
10.8216
10.8456
10.8682
10.8906
10.9115
10.928
10.9415
1
1.00001
1.00002
1.00008
1.00009
1.00049
1.00063
1.00272
1.00457
1.01766
1.00858
1.05073
1.12068
1.0176
2.84768
4.52161
10.4288
10.263
9.9292
9.62479
9.58398
9.62887
9.73703
9.85075
9.9347
10.0034
10.0704
10.1322
10.1922
10.2502
10.2995
10.3484
10.3937
10.4362
10.4803
10.5224
10.5656
10.6055
10.6422
10.6833
10.7166
10.748
10.7722
10.7977
10.8212
10.8436
10.8658
10.887
10.904
10.9181
1
1.00001
1.00001
1.00006
1.00006
1.00041
1.00042
1.00015
1.00672
1.01655
1.00736
1.04756
1.11428
1.01038
2.81974
4.43631
10.3376
10.2515
9.92552
9.61452
9.57023
9.61467
9.7219
9.83459
9.91602
9.98548
10.0492
10.1111
10.1703
10.2279
10.2765
10.325
10.3697
10.412
10.4564
10.4974
10.5403
10.58
10.6168
10.6575
10.6905
10.721
10.7438
10.7681
10.7907
10.8126
10.8343
10.8558
10.8731
10.8879
1
1.00001
1.00001
1.00006
1.00007
1.0004
1.00051
1.00223
1.00379
1.01505
1.00529
1.04389
1.10704
1.00214
2.78893
4.33395
10.2318
10.2365
9.92116
9.60292
9.55498
9.59855
9.70438
9.81605
9.89441
9.96382
10.0255
10.0868
10.1451
10.2023
10.2503
10.2984
10.3425
10.3846
10.4292
10.4687
10.5111
10.5505
10.5872
10.6268
10.6587
10.6878
10.7091
10.7317
10.7529
10.7736
10.7944
10.8161
10.8335
10.849
1
1.00001
1.00001
1.00005
1.00006
1.00032
1.00041
1.00177
1.00305
1.01252
1.00298
1.04016
1.09934
0.993559
2.75299
4.22084
10.0931
10.2276
9.91673
9.59049
9.53788
9.58044
9.68456
9.79449
9.87044
9.93817
9.99828
10.0589
10.1165
10.1728
10.2207
10.2684
10.3121
10.3541
10.3985
10.4362
10.4777
10.5167
10.5526
10.5904
10.6202
10.6471
10.6667
10.6871
10.7061
10.7249
10.7442
10.7652
10.7825
10.7989
1
1.00001
1.00001
1.00004
1.00004
1.00026
1.00036
1.00147
1.0025
1.0108
1.00092
1.03592
1.09094
0.984566
2.7115
4.09762
9.92582
10.2163
9.91065
9.57649
9.51834
9.56012
9.66255
9.76917
9.84395
9.90848
9.96719
10.0268
10.0839
10.1391
10.1874
10.235
10.2785
10.3204
10.364
10.4
10.4401
10.4781
10.5128
10.547
10.5741
10.5971
10.6152
10.6324
10.648
10.6637
10.6803
10.6999
10.7163
10.7334
1
1
1
1.00003
1.00002
1.00019
1.00026
1.00104
1.00194
1.00794
0.998946
1.03156
1.0821
0.975394
2.66593
3.96571
9.73491
10.1967
9.90437
9.56112
9.49657
9.53756
9.63794
9.74022
9.81428
9.87406
9.93193
9.99041
10.0471
10.1011
10.1505
10.1979
10.2414
10.2832
10.3257
10.3599
10.3981
10.4339
10.4667
10.4952
10.5189
10.5373
10.5523
10.565
10.5757
10.5866
10.5986
10.6148
10.6294
10.6471
1
1
1
1.00002
1.00002
1.00012
1.00025
1.0007
1.0013
1.00463
0.996637
1.02737
1.07335
0.966657
2.61675
3.82433
9.52115
10.1684
9.89225
9.5421
9.47246
9.51228
9.60969
9.70891
9.77916
9.83598
9.89261
9.94994
10.0066
10.0586
10.1097
10.1571
10.2007
10.2423
10.2831
10.3158
10.3511
10.3837
10.4123
10.433
10.4551
10.467
10.4764
10.4814
10.485
10.4884
10.4931
10.5025
10.5127
10.53
1
0.999998
0.999997
0.999993
0.999992
1.00001
1.00007
1.00039
1.00046
1.00262
0.994308
1.02289
1.0644
0.958322
2.56422
3.67449
9.28653
10.1307
9.87311
9.51833
9.44501
9.48414
9.57833
9.67468
9.7395
9.79478
9.84934
9.90629
9.96013
10.0137
10.0648
10.1124
10.1562
10.1973
10.2361
10.2666
10.2982
10.3262
10.3486
10.3627
10.3793
10.3838
10.3843
10.3786
10.3709
10.3625
10.3545
10.3523
10.3529
10.3667
0.999998
0.999998
0.999989
0.999983
0.999959
0.999883
0.999746
0.999699
0.999409
1.00096
0.992353
1.01864
1.05567
0.950932
2.50882
3.51295
9.03393
10.0839
9.84427
9.48732
9.41369
9.45234
9.54615
9.63377
9.69668
9.75032
9.80511
9.85799
9.91259
9.96554
10.0163
10.0639
10.1075
10.1476
10.1838
10.2116
10.2384
10.2603
10.2757
10.2826
10.2898
10.2851
10.2733
10.2519
10.2284
10.2014
10.1717
10.1455
10.1232
10.1257
0.999998
0.999997
0.999984
0.999982
0.999912
0.9999
0.999558
0.999181
0.997989
0.99898
0.990174
1.01407
1.04673
0.944146
2.45357
3.34293
8.7844
10.0232
9.80077
9.45016
9.37931
9.4167
9.50552
9.58918
9.65054
9.70559
9.75661
9.81011
9.86309
9.91488
9.96485
10.0117
10.0544
10.0926
10.1253
10.1498
10.1706
10.1854
10.1928
10.1914
10.1858
10.1678
10.1373
10.0991
10.0523
9.99556
9.92852
9.856
9.78039
9.73816
0.999999
0.999998
0.999991
0.999985
0.999946
0.99992
0.999533
0.998948
0.996672
0.996834
0.978885
0.997457
1.02133
0.916773
2.40492
3.04893
8.5188
9.94336
9.74127
9.40596
9.34072
9.3772
9.46095
9.54059
9.60453
9.65689
9.70985
9.76201
9.81312
9.86313
9.91116
9.95592
9.99616
10.031
10.0591
10.08
10.0915
10.0992
10.0978
10.0876
10.0633
10.0286
9.97846
9.917
9.83654
9.73533
9.60678
9.44346
9.24112
9.02112
1
1
1.00001
1.00001
1.00002
1.00002
0.999983
0.999794
0.998964
0.999375
0.99029
0.995032
1.01025
0.914486
2.36608
2.59069
8.19322
9.86424
9.6861
9.37131
9.3012
9.33063
9.4017
9.47681
9.54314
9.59877
9.65113
9.70173
9.75087
9.79843
9.84327
9.8844
9.92028
9.94991
9.97171
9.98515
9.98793
9.98591
9.97376
9.94514
9.89758
9.84762
9.76918
9.66959
9.53984
9.36637
9.12474
8.76163
8.13654
6.78102
1
1
1.00001
1.00001
1.00005
1.00005
1.00028
1.0003
1.00115
1.00349
1.00194
1.03538
1.06396
1.02156
2.07222
2.3516
7.3317
9.89668
9.75311
9.4309
9.30626
9.31247
9.34504
9.40883
9.47677
9.53533
9.58622
9.63333
9.67927
9.72223
9.76148
9.7958
9.82383
9.84478
9.85783
9.86082
9.85586
9.84152
9.80966
9.76048
9.69531
9.62111
9.51185
9.36993
9.18381
8.93281
8.58088
8.0693
7.32674
6.11582
1
1
1.00001
1.00001
1.00007
1.00007
1.00037
1.00047
1.00202
1.00279
1.01059
1.01488
1.06697
0.989307
1.86814
1.9479
6.10866
9.90292
9.85222
9.59938
9.35425
9.29541
9.31231
9.35981
9.42625
9.48256
9.52801
9.56873
9.60733
9.64312
9.67449
9.70004
9.71871
9.72961
9.73168
9.72717
9.71125
9.678
9.62922
9.56472
9.48364
9.3823
9.24985
9.07522
8.85127
8.55964
8.17602
7.66791
7.02798
6.18779
1
1
1.00001
1.00001
1.00004
1.00006
1.00026
1.00026
1.00185
1.00171
1.01146
1.01471
1.06775
1.05413
1.60062
1.60658
4.9277
9.48086
10.0736
9.84442
9.46782
9.30759
9.30763
9.33351
9.3908
9.44347
9.48136
9.51204
9.54057
9.56668
9.58862
9.60437
9.61295
9.61343
9.60878
9.59335
9.56131
9.51458
9.45505
9.37884
9.2846
9.1638
9.01865
8.82736
8.59135
8.29908
7.93923
7.50017
6.9985
6.3764
1
1
1
1.00002
1.00003
1.00001
1.00026
1.00021
1.00139
1.00144
1.00775
1.0075
1.05188
1.048
1.43944
1.4886
4.09524
8.16683
10.3514
10.1582
9.66452
9.35957
9.30749
9.32944
9.37808
9.41883
9.44326
9.46204
9.47944
9.49496
9.50652
9.51229
9.51149
9.50581
9.49061
9.45966
9.41786
9.36387
9.29571
9.21101
9.10686
8.97644
8.82567
8.63424
8.40541
8.13287
7.81234
7.43945
7.01988
6.54843
1
1
1
1.00003
1.00003
1.00015
1.00018
1.00083
1.00102
1.00429
1.005
1.01733
1.01422
1.01796
1.31701
1.35681
3.38694
6.61981
10.5414
10.3559
9.79531
9.43205
9.34106
9.35163
9.37997
9.40359
9.41537
9.4225
9.42852
9.43241
9.43286
9.42997
9.42138
9.40317
9.37583
9.33827
9.29004
9.22958
9.15486
9.06474
8.95465
8.82513
8.67081
8.48748
8.2735
8.02693
7.7445
7.42672
7.07224
6.68494
1
1
1
1.00001
1.00001
1.00006
1.00007
1.0001
1.00079
1.00214
1.00247
1.01511
1.02461
1.08678
1.06668
1.87746
1.93231
6.42908
10.2911
10.1393
9.69821
9.42336
9.35172
9.35803
9.37606
9.38697
9.38891
9.38778
9.38422
9.37708
9.3684
9.35463
9.33579
9.30972
9.27539
9.23192
9.17797
9.11197
9.03283
8.93865
8.83041
8.70165
8.55202
8.38027
8.18385
7.96036
7.71054
7.43436
7.13605
6.809
1
1
1
1.00001
1.00001
1.00005
1.00006
1.0003
1.00041
1.00175
1.00205
1.01247
1.01346
1.08068
1.06153
1.64427
1.68864
5.1213
9.7634
10.0463
9.79168
9.49924
9.38839
9.37218
9.37515
9.37589
9.37255
9.36275
9.34566
9.32818
9.31058
9.28914
9.26355
9.23165
9.19252
9.14491
9.08737
9.01832
8.93714
8.84211
8.73174
8.606
8.46335
8.30233
8.12184
7.921
7.70077
7.45684
7.20069
6.92193
1
1
1
1.00001
1.00001
1.00004
1.00006
1.00025
1.00033
1.00161
1.00122
1.01041
1.00963
1.06293
1.0538
1.46709
1.59184
4.21359
8.42148
10.1771
10.0461
9.70297
9.47203
9.38665
9.37255
9.36942
9.35975
9.33856
9.31118
9.28463
9.25888
9.23113
9.20003
9.16332
9.11988
9.06751
9.00766
8.93639
8.85423
8.7603
8.65367
8.53366
8.39925
8.2498
8.08494
7.90477
7.70732
7.49439
7.27031
7.02994
1
1
1
1
1.00001
1.00003
1.00005
1.00024
1.00023
1.00138
1.0013
1.00706
1.00856
1.04395
1.05185
1.32037
1.36585
3.35702
6.67893
10.4933
10.4015
9.98414
9.5621
9.38816
9.36013
9.35544
9.34244
9.31374
9.27622
9.24106
9.20868
9.17605
9.141
9.10099
9.05508
9.00189
8.9404
8.87061
8.78998
8.69891
8.59707
8.48383
8.35888
8.22178
8.07247
7.90872
7.72819
7.5414
7.34634
7.1381
1
1
1
1
1.00002
1.00003
1.00014
1.00017
1.00085
1.00098
1.00496
1.00729
1.03013
1.02043
1.07843
1.17898
1.11695
2.96668
5.21381
10.5462
10.4221
9.9891
9.52746
9.33945
9.30838
9.30627
9.29497
9.26521
9.22353
9.18589
9.15227
9.11876
9.0844
9.04275
8.99671
8.94356
8.88365
8.81425
8.7395
8.65357
8.55939
8.45495
8.3401
8.21507
8.07657
7.92557
7.7692
7.60464
7.43284
7.25027
1
1
1
1
1.00002
1.00002
1.00009
1.00009
1.00051
1.00061
1.0027
1.0042
1.01752
1.00682
1.04849
1.1137
1.0128
2.8141
4.38407
10.271
10.2758
9.93065
9.49104
9.30834
9.27407
9.26733
9.25056
9.21646
9.17775
9.14143
9.10802
9.07505
9.04125
9.00002
8.95607
8.90588
8.84825
8.78416
8.71395
8.6343
8.54553
8.4497
8.34325
8.22457
8.09675
7.96401
7.82579
7.68004
7.52792
7.36666
1
1
1
1
1.00001
1.00001
1.00006
1.00006
1.00033
1.00038
1.00189
1.00252
1.01112
1.01738
1.07135
1.0671
1.58138
1.55956
4.84062
9.23885
9.98484
9.7863
9.43731
9.26534
9.21917
9.20955
9.19475
9.16895
9.13813
9.10702
9.07692
9.04654
9.01355
8.97543
8.93316
8.88549
8.83154
8.77124
8.70381
8.63247
8.54896
8.45683
8.35738
8.25113
8.14026
8.02352
7.89959
7.76836
7.63122
7.48614
1
1
1
1
1.00001
1.00001
1.00005
1.00006
1.00027
1.00028
1.00154
1.00138
1.00951
1.01085
1.05688
1.06561
1.43922
1.52878
4.0938
8.10076
9.99375
9.86614
9.52207
9.28056
9.18845
9.17085
9.16425
9.14974
9.12572
9.09873
9.07045
9.04198
9.0111
8.97625
8.93586
8.88938
8.83755
8.7793
8.71416
8.64471
8.56625
8.48203
8.3933
8.30008
8.20051
8.09405
7.98077
7.86099
7.73598
7.60386
1
1
1
1
1.00001
1.00001
1.00004
1.00005
1.00021
1.00021
1.00122
1.00125
1.00717
1.00687
1.04624
1.04869
1.34019
1.35647
3.497
6.77471
10.072
10.0253
9.6945
9.33297
9.18878
9.1657
9.16447
9.15684
9.13705
9.10772
9.0791
9.0494
9.01918
8.98546
8.94656
8.90435
8.85496
8.79978
8.73956
8.67408
8.60364
8.52878
8.44825
8.36106
8.26774
8.16825
8.06301
7.95233
7.83678
7.71465
1
1
1
1
1
1
1
1.00001
1.00001
0.999996
1.00002
1.00009
1.00052
1.00056
1.00306
0.982553
0.920057
2.17239
2.27173
7.32087
10.0489
9.90461
9.52293
9.24576
9.14756
9.14582
9.15309
9.15332
9.14623
9.12718
9.0956
9.06638
9.03705
9.00507
8.96828
8.9294
8.8855
8.83484
8.77859
8.71678
8.64918
8.57622
8.49731
8.41313
8.32336
8.22829
8.12844
8.02362
7.91507
7.80076
1
1
1
1
1
1.00002
1.00003
1.00014
1.00016
1.00085
1.00086
1.00513
1.00626
1.02742
1.02366
1.11248
1.19794
1.16748
2.87575
5.26376
9.92479
9.98928
9.69828
9.3352
9.198
9.18985
9.19586
9.19594
9.1908
9.17489
9.14234
9.10912
9.07859
9.04574
9.00813
8.96416
8.92055
8.86726
8.80943
8.74761
8.68073
8.60836
8.53088
8.4485
8.36153
8.2703
8.17508
8.07597
7.97354
7.86585
1
1
1
1
1
1.00001
1.00001
1.00007
1.00007
1.00038
1.00048
1.00207
1.00325
1.01463
1.00344
1.04082
1.09911
0.996982
2.71823
4.13412
9.80333
10.1641
9.86475
9.44247
9.27045
9.25139
9.25632
9.25563
9.24835
9.22877
9.19265
9.14977
9.11299
9.07435
9.03217
8.98482
8.93366
8.88178
8.82084
8.75701
8.68952
8.61799
8.54236
8.46283
8.37939
8.29209
8.20127
8.10712
8.00988
7.90776
1
1
1
1
1
1.00001
1.00001
1.00003
1.00004
1.00019
1.00031
1.00093
1.0017
1.0079
0.99778
1.02901
1.07379
0.967836
2.59332
3.72756
9.38393
10.2165
9.95031
9.51545
9.32808
9.29723
9.29782
9.29474
9.28234
9.25557
9.21244
9.16774
9.12315
9.08049
9.03457
8.98485
8.9314
8.87649
8.81571
8.75173
8.68463
8.61397
8.53981
8.46232
8.38206
8.29854
8.21201
8.12273
8.03098
7.93508
1
1
1
1
1
1
0.999998
0.999998
0.999991
0.999999
1
1.00013
0.999976
1.00149
0.992927
1.01765
1.05012
0.947946
2.47254
3.43051
8.94865
10.3016
10.0659
9.61055
9.38491
9.32513
9.31855
9.30929
9.28875
9.25228
9.2067
9.16219
9.1163
9.07332
9.02409
8.9751
8.92141
8.86511
8.80554
8.74157
8.67476
8.60526
8.53316
8.45874
8.38159
8.30187
8.21991
8.13569
8.04928
7.95974
1
1
1
1
1
1.00001
1.00001
1.00004
1.00004
1.00021
1.00024
1.00123
1.00146
1.00765
1.01033
1.053
1.03572
1.43905
1.42171
4.27148
8.35337
10.3486
10.1807
9.74232
9.44805
9.34847
9.32979
9.31633
9.28784
9.25002
9.20253
9.15494
9.10779
9.06157
9.01189
8.96031
8.90746
8.85144
8.79217
8.73032
8.6658
8.59905
8.52934
8.45712
8.38254
8.30566
8.22692
8.14699
8.06588
7.98255
1
1
1
1
1
1
1.00001
1.00001
1.00003
1.00004
1.00001
0.999935
0.998485
0.998586
0.983181
0.984587
0.997248
0.894781
2.42904
2.7802
8.83702
10.3224
10.0622
9.59616
9.37593
9.3143
9.30455
9.29524
9.2725
9.23041
9.18801
9.13984
9.09368
9.04703
9.00042
8.94926
8.89821
8.84433
8.78741
8.72804
8.66552
8.60056
8.53292
8.46275
8.39074
8.3176
8.24302
8.16999
8.09401
8.0161
1
1
1
1
1
1
1.00001
1.00001
1.00007
1.00007
1.00028
1.00056
1.00098
1.00093
0.995384
0.990732
0.990805
0.865002
2.40874
2.71267
8.79191
10.4128
10.0877
9.57092
9.3462
9.29651
9.29313
9.2865
9.26771
9.22897
9.18403
9.13935
9.09251
9.04615
8.99999
8.95198
8.90198
8.84938
8.79407
8.73602
8.67509
8.612
8.5469
8.47982
8.41126
8.34184
8.27171
8.20145
8.12986
8.05634
1
1
1
1
1
1
1.00002
1.00003
1.00012
1.00015
1.00074
1.00086
1.00367
1.00463
1.0164
1.01736
1.03673
1.32736
1.34779
3.65883
7.36636
10.7309
10.4566
9.78467
9.41119
9.31061
9.30431
9.29844
9.28104
9.24309
9.19699
9.15121
9.10598
9.06092
9.01498
8.96786
8.91954
8.86805
8.81462
8.75878
8.70091
8.64082
8.57889
8.51558
8.45069
8.38419
8.3161
8.24673
8.17712
8.10543
1
1
1
1
1
1
1.00001
1.00002
1.00008
1.00012
1.00066
1.00073
1.00452
1.00686
1.02959
1.02034
1.08706
1.21205
1.1833
3.17029
6.05249
11.0696
10.6988
9.85451
9.41385
9.29297
9.29118
9.29299
9.28479
9.25989
9.2196
9.17568
9.13488
9.09257
9.04777
9.00112
8.95297
8.90362
8.85149
8.79774
8.74198
8.68404
8.62402
8.56203
8.49822
8.43281
8.36602
8.29823
8.22896
8.15797
1
1
1
1
1
1
1.00001
1.00001
1.00006
1.00009
1.0005
1.00057
1.00336
1.00527
1.02319
1.0126
1.06863
1.16819
1.11024
3.06094
5.55777
11.0515
10.6641
9.86018
9.44042
9.32175
9.32245
9.32784
9.32297
9.30448
9.26714
9.22336
9.18238
9.1389
9.09349
9.04463
8.99648
8.94598
8.89398
8.84003
8.78553
8.72877
8.67003
8.60954
8.54725
8.48392
8.41814
8.35069
8.28185
8.21102
1
1
1
1
1
1
1.00001
1.00001
1.00007
1.00006
1.00035
1.00036
1.00171
1.00214
1.00168
1.02793
1.07341
0.991866
1.95182
2.04038
7.00569
10.6943
10.3493
9.73418
9.45013
9.36753
9.36823
9.37763
9.37365
9.35598
9.31521
9.27194
9.22944
9.18446
9.13649
9.08638
9.0355
8.9831
8.93224
8.8767
8.8212
8.76612
8.70862
8.6495
8.58716
8.52604
8.46164
8.39457
8.32653
8.25658
1
1
1
1
1
1
1
1.00001
1.00003
1.00003
1.00027
1.00033
1.00195
1.00336
1.01601
1.00566
1.05284
1.13321
1.04735
2.96884
5.09013
10.86
10.583
10.0133
9.61406
9.47466
9.45348
9.45019
9.43815
9.40764
9.36268
9.31713
9.27076
9.22266
9.1722
9.11967
9.06602
9.01132
8.95781
8.9042
8.84536
8.7906
8.73385
8.67594
8.6167
8.55373
8.49172
8.42898
8.36037
8.29074
1
1
1
1
1
1
1
1
1
1.00001
1.00007
1.00015
1.00087
1.0017
1.01094
0.999318
1.03942
1.10731
1.01103
2.88278
4.65649
10.9984
10.7312
10.2026
9.73461
9.54392
9.50675
9.49718
9.47552
9.4332
9.38486
9.33689
9.2884
9.23844
9.18654
9.13313
9.07892
9.02472
8.97029
8.91473
8.85971
8.80358
8.74564
8.68866
8.63068
8.56872
8.50713
8.44573
8.37886
8.31076
1
1
1
1
1
1
1.00001
1.00003
1.00003
1.00014
1.00017
1.00076
1.00076
1.00376
1.00469
1.01828
1.07407
1.03625
1.68061
1.85757
5.73554
10.9729
10.8083
10.2826
9.82781
9.60868
9.55004
9.53303
9.50261
9.45612
9.40417
9.35148
9.29912
9.2459
9.19202
9.13728
9.08221
9.0271
8.97124
8.91543
8.85945
8.80233
8.74553
8.68821
8.63048
8.57147
8.51142
8.44988
8.38583
8.3192
1
1
1
1
1
1
1
1
1
0.999982
0.999969
0.999739
0.999356
0.998059
0.999555
0.98983
1.02542
1.08667
0.995007
2.82695
4.50072
11.131
11.0309
10.5286
9.94595
9.66833
9.58539
9.55225
9.51004
9.4554
9.39812
9.34135
9.28675
9.23277
9.18025
9.12707
9.07338
9.01861
8.96327
8.90761
8.85164
8.79539
8.73867
8.68171
8.62445
8.56627
8.50714
8.44669
8.38453
8.31991
1
1
1
1
1
1
1
1.00001
1.00001
1.00002
1.00001
0.999969
0.999484
0.99783
0.998471
0.979087
1.00554
1.05171
0.950605
2.76962
4.21565
11.2604
11.1752
10.6178
10.0087
9.72417
9.62936
9.58205
9.52507
9.46089
9.39057
9.32734
9.26888
9.21439
9.16059
9.10731
9.0608
9.00532
8.95094
8.8967
8.84169
8.78606
8.72996
8.67357
8.61679
8.55963
8.50174
8.44273
8.38217
8.31932
1
1
1
1
1
1
1
1.00001
1.00001
1.00003
1.00008
1.0001
1.0001
0.999504
0.999948
0.983832
1.00287
1.03682
0.934957
2.73133
3.9875
11.1246
11.2722
10.7101
10.099
9.79228
9.66664
9.59339
9.52024
9.44643
9.36962
9.30299
9.24339
9.19041
9.13906
9.08761
9.04789
8.99406
8.94234
8.89003
8.8364
8.7818
8.72648
8.67061
8.61437
8.55763
8.50044
8.44236
8.38315
8.32232
1
1
1
1
1
1
1
1.00001
1.00002
1.00003
1.00013
1.00011
1.00024
0.999923
1.00014
0.988672
1.00016
1.03342
0.935212
2.66269
3.75349
10.7668
11.3962
10.7918
10.1048
9.75021
9.6107
9.53856
9.47085
9.40215
9.32961
9.26788
9.21341
9.16763
9.1193
9.07816
9.04044
8.9915
8.94294
8.89269
8.84033
8.78627
8.73084
8.67457
8.61781
8.56095
8.50371
8.44581
8.38746
8.32892
1
1
1
1
1
1
1
1.00002
1.00003
1.00014
1.00016
1.00075
1.00087
1.00389
1.0035
1.02119
1.03354
1.06579
1.44521
1.3575
4.69049
9.36074
11.6512
11.1108
10.2382
9.77228
9.60584
9.53635
9.46842
9.39492
9.32077
9.26193
9.20292
9.16046
9.12135
9.08162
9.04642
9.00322
8.95706
8.90839
8.85719
8.80327
8.74703
8.68983
8.63206
8.57379
8.51573
8.45725
8.39977
8.34077
1
1
1
1
1
1
1
1.00002
1.00003
1.00014
1.00018
1.00082
1.00089
1.00408
1.00453
1.01683
1.03374
1.07062
1.37813
1.32524
4.21098
8.43321
11.5341
11.0164
10.0909
9.61633
9.47816
9.44733
9.40672
9.34914
9.28898
9.23579
9.19501
9.15315
9.12225
9.09022
9.05603
9.01796
8.97653
8.92891
8.87722
8.82885
8.76965
8.71023
8.6507
8.59068
8.53071
8.47062
8.41155
8.35317
1
1
1
1
1
1
1
1.00002
1.00003
1.00011
1.00014
1.00061
1.00068
1.00339
1.00354
1.01548
1.03339
1.06858
1.42603
1.42366
4.38863
8.72723
10.885
10.577
9.92835
9.55685
9.43815
9.42633
9.40459
9.35332
9.30129
9.2518
9.21189
9.1793
9.14215
9.1119
9.07878
9.04183
9.00079
8.95523
8.90319
8.85243
8.79788
8.73632
8.67544
8.61407
8.55232
8.49079
8.43024
8.36916
1
1
1
1
1
1
1
1
1.00001
1.00001
1.00004
1.00009
0.999744
0.998644
0.999583
0.97938
0.994275
1.01321
0.904732
2.53456
3.39545
9.54694
10.4977
10.1036
9.60186
9.3885
9.34439
9.34617
9.34026
9.31904
9.28036
9.24108
9.20368
9.17139
9.14587
9.1155
9.08539
9.05233
9.01418
8.97239
8.9227
8.87099
8.81428
8.75572
8.69377
8.6309
8.56752
8.50548
8.44326
8.38159
1
1
1
1
1
1
1
1
1.00001
1.00001
1.00003
1.0001
0.999151
0.997814
0.997935
0.978528
0.997811
1.02349
0.917819
2.51833
3.39192
9.46042
10.316
9.96488
9.52275
9.34442
9.32403
9.33375
9.33276
9.32521
9.30235
9.26541
9.22168
9.1966
9.16153
9.13009
9.10056
9.06861
9.03223
8.99067
8.94548
8.89193
8.83373
8.77538
8.7131
8.64914
8.58538
8.52001
8.45647
8.39831
1
1
1
1
1
1
1
0.999999
0.999999
0.999974
0.99996
1.00007
0.99862
0.996737
0.996792
0.976753
0.99707
1.02763
0.92474
2.53311
3.4823
9.57545
10.3062
9.92008
9.42485
9.25261
9.25694
9.28531
9.31135
9.31029
9.29789
9.26794
9.22391
9.19746
9.16195
9.1313
9.1035
9.07328
9.03847
8.99758
8.95249
8.90299
8.84031
8.78277
8.72082
8.65618
8.59209
8.52512
8.46263
8.40386
3.05059
2.73691
3.65151
4.11434
3.96867
3.90686
3.85871
3.84609
3.85354
3.88502
3.91781
3.93917
3.95505
3.97592
4.00919
4.05444
4.10757
4.16506
4.22473
4.28476
4.34357
4.40012
4.4539
4.50361
4.55366
4.59855
4.63801
4.67179
4.69989
4.72298
4.74014
4.75192
4.75805
4.7587
4.7567
4.75073
4.73883
4.72385
4.7053
4.68398
4.65968
4.63293
4.6039
4.57287
4.53986
4.50529
4.46924
4.43213
4.39403
4.35525
4.31587
4.27607
4.23586
4.19542
4.15466
4.11378
4.07264
4.03135
3.98993
3.94844
3.90691
3.86541
3.82399
3.78275
3.74177
3.70115
3.66101
3.62145
3.5826
3.54456
3.50747
3.47143
3.43656
3.40296
3.37076
3.34007
3.311
3.28368
3.25827
3.23492
3.21386
3.19532
3.17966
3.16734
3.15886
3.15537
3.15563
3.15686
3.16023
3.16777
3.18307
3.20529
3.23177
3.26163
3.29378
3.3273
3.3605
3.39144
3.41768
3.44047
4.06853
3.76973
4.03352
4.08856
3.98316
3.87821
3.83476
3.83551
3.85744
3.9065
3.93979
3.95402
3.96
3.97489
4.00626
4.05002
4.10193
4.15948
4.21949
4.28016
4.33957
4.39656
4.45068
4.50159
4.55033
4.59487
4.63439
4.66815
4.69618
4.71913
4.73648
4.74829
4.7546
4.75514
4.7537
4.74861
4.73723
4.72076
4.70219
4.68106
4.657
4.63028
4.60134
4.57036
4.53745
4.50292
4.46701
4.42991
4.39191
4.35318
4.31378
4.27401
4.23372
4.19334
4.15244
4.11167
4.07048
4.02921
3.98782
3.94639
3.90493
3.86352
3.8222
3.78108
3.74021
3.69974
3.65972
3.62031
3.58157
3.54368
3.50669
3.47076
3.43597
3.40246
3.37032
3.33968
3.31066
3.28338
3.25801
3.23469
3.21364
3.19511
3.17942
3.16702
3.15844
3.15504
3.15535
3.15669
3.16012
3.16754
3.18241
3.204
3.2302
3.26011
3.29234
3.32619
3.35982
3.39155
3.41859
3.44381
5.07577
4.47403
4.33373
4.21785
4.09346
3.98103
3.91867
3.89661
3.89819
3.90777
3.92892
3.94927
3.96526
3.98744
4.02084
4.06573
4.11767
4.17411
4.23278
4.29222
4.35052
4.40654
4.45957
4.50922
4.55598
4.5986
4.63619
4.66871
4.69542
4.71748
4.73428
4.74532
4.75106
4.75106
4.74988
4.74564
4.73569
4.71759
4.69783
4.67645
4.65258
4.62592
4.59741
4.56658
4.53379
4.49941
4.46366
4.42669
4.38872
4.34996
4.31058
4.27069
4.2304
4.18984
4.14899
4.10803
4.06687
4.02558
3.98424
3.94288
3.90154
3.86027
3.81914
3.77823
3.73761
3.69739
3.65765
3.61851
3.58007
3.54245
3.50575
3.47009
3.43557
3.40231
3.37042
3.34002
3.31123
3.28418
3.25903
3.23593
3.21508
3.19674
3.18118
3.16888
3.16029
3.15712
3.1575
3.15896
3.16256
3.17014
3.18451
3.20486
3.2299
3.259
3.29074
3.32429
3.35812
3.3906
3.41829
3.44807
5.58507
4.97674
4.64428
4.44426
4.28819
4.15383
4.055
3.99606
3.97326
3.97489
3.98344
4.00257
4.02495
4.04087
4.06616
4.10274
4.14757
4.19844
4.25263
4.30883
4.36415
4.41791
4.46878
4.51651
4.56101
4.60161
4.63773
4.66898
4.69463
4.71557
4.73067
4.74128
4.74572
4.74529
4.74402
4.74014
4.73111
4.71266
4.69135
4.66912
4.64499
4.61821
4.58999
4.55952
4.52676
4.49261
4.4571
4.42039
4.38257
4.34389
4.30455
4.26469
4.22441
4.18384
4.14303
4.10204
4.06097
4.01981
3.97863
3.93746
3.89637
3.85539
3.81459
3.77404
3.73382
3.69401
3.65471
3.61602
3.57804
3.54086
3.50461
3.46939
3.43529
3.40243
3.37095
3.34095
3.31256
3.28593
3.26119
3.23852
3.21811
3.20018
3.18501
3.17302
3.16463
3.1617
3.16211
3.16365
3.16734
3.17504
3.18866
3.20748
3.23055
3.25778
3.28784
3.32004
3.35305
3.38568
3.41383
3.44685
5.9177
5.3792
4.9927
4.72397
4.52449
4.36077
4.23226
4.14286
4.09148
4.06922
4.06697
4.06953
4.07682
4.09299
4.11911
4.15198
4.19151
4.23664
4.28576
4.33738
4.3883
4.43856
4.48606
4.53031
4.57171
4.60928
4.64277
4.67174
4.69543
4.71425
4.72821
4.73709
4.74027
4.74
4.73852
4.73456
4.72539
4.70709
4.68512
4.66174
4.63709
4.61023
4.58185
4.5513
4.51888
4.48492
4.44951
4.41283
4.37517
4.33663
4.29739
4.2576
4.2174
4.17689
4.13615
4.09526
4.05428
4.01327
3.97228
3.93135
3.89054
3.8499
3.80949
3.76938
3.72965
3.69037
3.65163
3.61351
3.57612
3.53954
3.5039
3.46929
3.43581
3.40358
3.37273
3.34337
3.31564
3.28967
3.26562
3.24368
3.22402
3.20686
3.19245
3.18115
3.17329
3.1708
3.17125
3.17285
3.17659
3.18431
3.19708
3.21422
3.23486
3.25926
3.28646
3.31595
3.34665
3.37802
3.40545
3.4406
6.17565
5.71815
5.33137
5.02666
4.78714
4.59374
4.4395
4.32306
4.24334
4.19652
4.17332
4.16827
4.17045
4.17749
4.19301
4.21892
4.25069
4.28778
4.32904
4.37322
4.41792
4.46245
4.50578
4.54597
4.58387
4.618
4.64859
4.67469
4.69622
4.71317
4.72536
4.73244
4.73426
4.73384
4.73178
4.72679
4.71617
4.69814
4.67612
4.65197
4.62637
4.59922
4.57033
4.53984
4.50771
4.47403
4.43892
4.40254
4.36509
4.32676
4.2877
4.24807
4.208
4.16763
4.12704
4.08633
4.04557
4.00483
3.96415
3.9236
3.88322
3.84306
3.80319
3.76368
3.72459
3.68601
3.64799
3.61063
3.57401
3.53823
3.50339
3.46958
3.43694
3.40556
3.37557
3.3471
3.32028
3.29526
3.27223
3.25133
3.23276
3.21671
3.20339
3.19314
3.18613
3.18422
3.18467
3.18624
3.18987
3.19729
3.20892
3.22407
3.2419
3.26276
3.28609
3.31157
3.33848
3.36706
3.39192
3.42788
6.38733
5.9958
5.63622
5.31842
5.05492
4.83872
4.66265
4.52344
4.41971
4.34849
4.30413
4.2807
4.27334
4.27436
4.27879
4.28977
4.31188
4.3405
4.37436
4.41105
4.44903
4.48762
4.52559
4.56162
4.59566
4.62665
4.65354
4.67658
4.69612
4.71109
4.72155
4.72681
4.72717
4.72657
4.72391
4.71798
4.70568
4.6879
4.66604
4.64141
4.61517
4.58754
4.55819
4.52756
4.49553
4.46204
4.42718
4.39107
4.35389
4.31581
4.27699
4.2376
4.19777
4.15763
4.11729
4.07685
4.03639
3.99597
3.95568
3.91555
3.87566
3.83605
3.7968
3.75799
3.71967
3.68187
3.64466
3.60816
3.57245
3.5376
3.5037
3.47087
3.43922
3.40887
3.37995
3.35263
3.32702
3.30328
3.28157
3.26204
3.24488
3.23026
3.21832
3.20938
3.20342
3.20219
3.20264
3.20411
3.20746
3.21429
3.22448
3.23726
3.25207
3.26904
3.28795
3.3087
3.33074
3.35537
3.3761
3.41096
6.5658
6.22958
5.89997
5.59056
5.31805
5.08647
4.89402
4.73756
4.61399
4.52133
4.45616
4.41397
4.39028
4.37925
4.37852
4.38043
4.38678
4.40112
4.42523
4.45254
4.48299
4.51412
4.54557
4.57647
4.60582
4.63255
4.65594
4.67679
4.69343
4.70644
4.71529
4.71898
4.71876
4.71709
4.71344
4.7057
4.69233
4.67451
4.65267
4.62805
4.60148
4.57337
4.54365
4.51284
4.48083
4.44753
4.41296
4.3772
4.34038
4.30267
4.26421
4.22516
4.18567
4.14587
4.10587
4.06579
4.02572
3.98574
3.94592
3.90633
3.86703
3.82805
3.78956
3.75159
3.71415
3.67732
3.64115
3.60568
3.57102
3.53727
3.50452
3.47287
3.44246
3.41339
3.38584
3.35985
3.33575
3.31354
3.29342
3.27555
3.26007
3.24712
3.23678
3.2293
3.22444
3.22389
3.2243
3.22562
3.22853
3.23446
3.24286
3.25293
3.26445
3.27735
3.29156
3.30733
3.32385
3.34354
3.35963
3.3912
6.7237
6.43255
6.1353
5.84056
5.57026
5.33303
5.12996
4.95954
4.81999
4.70912
4.62478
4.56347
4.52168
4.49562
4.48059
4.47225
4.47197
4.47376
4.48005
4.49425
4.51541
4.53828
4.56235
4.58816
4.61257
4.63416
4.65432
4.6723
4.68623
4.69744
4.70543
4.706
4.70508
4.70327
4.69914
4.69067
4.67587