/*--------------------------------*- C++ -*----------------------------------*\
| =========                 |                                                 |
| \\      /  F ield         | OpenFOAM: The Open Source CFD Toolbox           |
|  \\    /   O peration     | Version:  2412                                  |
|   \\  /    A nd           | Website:  www.openfoam.com                      |
|    \\/     M anipulation  |                                                 |
\*---------------------------------------------------------------------------*/
FoamFile
{
    version     2.0;
    format      ascii;
    arch        "LSB;label=32;scalar=64";
    class       surfaceScalarField;
    location    "6.5";
    object      phi;
}
// * * * * * * * * * * * * * * * * * * * * * * * * * * * * * * * * * * * * * //

dimensions      [1 0 -1 0 0 0 0];

oriented        oriented;

internalField   nonuniform List<scalar> 
13790
(
0.00290515
1.16832e-10
0.00290516
-2.34215e-09
0.00290517
-6.78527e-09
0.00290519
-2.30706e-08
0.00290523
-5.43142e-08
0.00290538
-9.21691e-08
0.00290578
-1.71696e-07
0.00290628
-3.24827e-07
0.00290579
-6.61948e-08
0.0029039
6.04668e-07
0.00290074
7.14954e-07
0.00289566
5.38087e-07
0.00288982
6.59949e-07
0.00288013
9.92222e-07
0.00287126
3.81394e-06
0.00281483
1.30219e-05
0.00276677
3.46108e-05
0.00271965
4.39146e-05
0.00268276
4.59353e-05
0.0026357
4.70088e-05
0.00258183
4.88492e-05
0.00251769
5.18164e-05
0.00244549
5.55312e-05
0.00237477
6.11196e-05
0.00230429
6.76876e-05
0.00223415
7.36394e-05
0.00217027
7.94212e-05
0.00209781
8.28513e-05
0.0020187
8.34037e-05
0.00193915
8.14756e-05
0.00185729
7.75681e-05
0.00178159
7.36584e-05
0.00171034
7.05261e-05
0.00163703
6.92389e-05
0.00154754
6.94591e-05
0.00145795
7.15981e-05
0.00137492
7.59578e-05
0.00129382
8.18847e-05
0.00121723
8.95619e-05
0.00113064
9.46829e-05
0.00103432
9.85592e-05
0.000929897
9.93772e-05
0.000828749
0.000100076
0.000727583
0.00010132
0.000623401
0.000103775
0.00051347
0.000108604
0.000397416
0.00011511
0.000271343
0.000120784
0.000138367
0.000124016
0.000127426
0.00301309
6.08826e-11
0.0030131
-3.17682e-09
0.0030131
-7.06449e-09
0.00301311
-3.00435e-08
0.00301324
-5.44069e-08
0.00301327
-2.04924e-07
0.0030136
-3.94221e-07
0.00301444
-9.34862e-07
0.00301379
-3.69576e-07
0.00301083
-2.35252e-07
0.00300896
4.71449e-07
0.00300538
1.83218e-06
0.00299876
2.32441e-06
0.00298643
3.92724e-06
0.00297746
7.3169e-06
0.00291882
2.69744e-05
0.00286732
7.18767e-05
0.00281827
8.96514e-05
0.00278091
9.2798e-05
0.0027325
9.54009e-05
0.00267601
0.000100152
0.00260819
0.000106301
0.00253356
0.000114358
0.00246111
0.000124821
0.00238963
0.000136604
0.0023201
0.0001469
0.00225803
0.00015623
0.00218888
0.00016206
0.00211354
0.000163305
0.0020367
0.000160539
0.0019553
0.000155673
0.0018773
0.00014942
0.00180235
0.000144851
0.00172494
0.000142733
0.00163095
0.00014316
0.0015367
0.000146301
0.00145032
0.000153742
0.00136758
0.000164802
0.00129046
0.000178545
0.00120413
0.000191492
0.00110428
0.000201475
0.000992102
0.000207324
0.000879036
0.000211602
0.000764265
0.000215756
0.000646931
0.000220533
0.000526417
0.00022776
0.000403612
0.000236991
0.000273743
0.00024513
0.000138379
0.000250071
0.000254463
0.00312505
4.4934e-11
0.00312504
-2.71136e-09
0.00312505
-3.28969e-09
0.00312503
-2.3325e-08
0.0031251
-4.30114e-08
0.00312499
-1.94322e-07
0.00312516
-4.45161e-07
0.00312708
-2.58733e-06
0.00312495
8.27163e-07
0.00312177
-3.07221e-07
0.00311769
8.22574e-07
0.0031141
2.32841e-06
0.00310881
3.2507e-06
0.00309814
5.83442e-06
0.0030885
1.11422e-05
0.00302695
4.12326e-05
0.00297287
0.000111173
0.00292263
0.000137178
0.00288488
0.000140563
0.00283558
0.000144646
0.00277768
0.000152588
0.0027075
0.000162473
0.00263007
0.000175193
0.00255457
0.000191282
0.00247937
0.00020914
0.0024064
0.00022492
0.00233946
0.000238811
0.00226421
0.000247429
0.00218273
0.000248995
0.00210078
0.000244458
0.00201542
0.000236451
0.0019357
0.000226833
0.00186029
0.000219548
0.00178283
0.000216052
0.00168868
0.000216573
0.00159409
0.000221115
0.00150718
0.000231973
0.00142405
0.00024841
0.00134621
0.00026864
0.00125967
0.000289618
0.00115773
0.000306857
0.00104167
0.000319239
0.000922621
0.000328693
0.000800685
0.000337094
0.000675495
0.00034513
0.000547267
0.000354734
0.000417554
0.000365772
0.000282023
0.000374817
0.00014201
0.000380393
0.00038472
0.00324116
4.14193e-11
0.00324115
-1.25368e-09
0.00324116
-1.95789e-09
0.00324113
-8.98104e-09
0.00324113
-2.31251e-08
0.00324092
-5.85145e-08
0.00324068
-1.11512e-07
0.00323824
-5.24805e-07
0.00323933
-7.86332e-08
0.00323679
1.09016e-06
0.00323352
1.43571e-06
0.0032292
2.126e-06
0.00322382
3.37477e-06
0.00321344
6.60901e-06
0.00320451
1.39064e-05
0.00314036
5.52687e-05
0.00308538
0.000151144
0.00303402
0.000186799
0.0029945
0.000190322
0.00294364
0.000195071
0.00288433
0.000205922
0.00281225
0.000219513
0.00273276
0.000236926
0.00265595
0.000258827
0.00257964
0.000282832
0.0025073
0.000304489
0.00244059
0.000323492
0.00236403
0.000334839
0.00228025
0.00033687
0.00219566
0.000330914
0.00210677
0.000319932
0.00202348
0.00030751
0.00194398
0.000298268
0.00186162
0.000293965
0.00176189
0.000294685
0.00166215
0.000300525
0.00157094
0.000314403
0.00148454
0.000335632
0.00140405
0.000362049
0.00131592
0.000390539
0.00121139
0.000415136
0.00109176
0.000434341
0.000968173
0.000449747
0.00084095
0.000463497
0.000709536
0.000475915
0.000574401
0.000488572
0.000437617
0.000501518
0.000295066
0.000511224
0.000148363
0.000517029
0.00052092
0.00336158
1.00903e-10
0.00336158
-3.86846e-10
0.00336158
-7.99833e-10
0.00336156
-2.67606e-09
0.00336155
-8.55856e-10
0.00336144
-1.0617e-08
0.00336143
-1.58804e-08
0.00336051
2.48086e-08
0.00336084
4.24064e-08
0.00335522
9.83064e-07
0.00335522
1.16965e-06
0.00335292
2.92487e-06
0.00334683
4.20768e-06
0.00333386
8.19326e-06
0.00332415
1.68442e-05
0.0032582
6.88544e-05
0.0032018
0.000193209
0.0031491
0.000238715
0.00310719
0.000242204
0.00305362
0.000247571
0.00299129
0.000261636
0.00291575
0.000279371
0.00283268
0.00030233
0.00275229
0.000330101
0.00267245
0.000360071
0.00259788
0.000386928
0.00252894
0.000410184
0.00245068
0.000423547
0.00236566
0.000425573
0.00228008
0.000417927
0.00218992
0.000404516
0.00210525
0.000389535
0.0020241
0.00037875
0.00193963
0.000374135
0.00183666
0.000375473
0.00173327
0.000382879
0.00163872
0.000399911
0.00154952
0.000425933
0.00146625
0.000458513
0.0013763
0.000494324
0.00126903
0.000526446
0.00114583
0.00055272
0.0010179
0.000574768
0.00088577
0.000594697
0.000748476
0.000612546
0.000606518
0.000629091
0.000462121
0.000644715
0.000311556
0.000655359
0.000156596
0.000661552
0.00066493
0.00348648
-3.02628e-11
0.00348648
-3.90402e-11
0.00348649
3.9977e-10
0.00348646
1.83418e-09
0.0034865
5.93212e-09
0.0034864
1.83068e-08
0.00348636
2.48968e-08
0.00348597
1.43554e-07
0.003486
2.53707e-07
0.00348517
1.00026e-06
0.00348671
1.58139e-06
0.00347916
3.30166e-06
0.00347191
4.84371e-06
0.00345786
9.93042e-06
0.00345081
1.76263e-05
0.00338388
8.14724e-05
0.00332532
0.000237244
0.00327053
0.000294106
0.00322525
0.00029722
0.00316825
0.00030264
0.00310225
0.000320052
0.00302327
0.000342515
0.00293727
0.000371751
0.00285326
0.000406092
0.00276861
0.000442319
0.00268976
0.000473953
0.00261597
0.000500995
0.00253371
0.000515608
0.00244539
0.000516727
0.00235748
0.000506754
0.00226558
0.000490166
0.00218029
0.000472182
0.00209912
0.000459498
0.00201504
0.000454476
0.00191152
0.000456723
0.00180653
0.000466009
0.00171032
0.000486646
0.00161959
0.00051799
0.0015341
0.000557255
0.00144286
0.000600915
0.00133275
0.000641162
0.00120562
0.000674986
0.00107275
0.000704338
0.00093536
0.000731089
0.000791943
0.000755209
0.00064272
0.000776622
0.000490379
0.000795642
0.000330773
0.000808294
0.000166372
0.000815198
0.00081831
0.00361603
-1.37297e-10
0.00361602
6.24582e-10
0.00361602
8.14092e-10
0.003616
4.73704e-09
0.00361603
8.58139e-09
0.00361596
2.9503e-08
0.00361595
4.81268e-08
0.00361567
1.62326e-07
0.00361599
3.28029e-07
0.00361344
9.27054e-07
0.00361605
1.69311e-06
0.00360957
3.65937e-06
0.00360262
5.19416e-06
0.00358955
1.01661e-05
0.0035837
2.11165e-05
0.00351469
9.32975e-05
0.00345696
0.00028337
0.00340074
0.00035109
0.00334959
0.000356141
0.00328876
0.000360183
0.00321931
0.000380654
0.00313707
0.000408284
0.00304825
0.000444177
0.0029611
0.000485783
0.00287206
0.000528755
0.00278999
0.000565893
0.00271106
0.000596493
0.0026239
0.000611941
0.00253164
0.000611346
0.00244083
0.000598063
0.00234664
0.000577368
0.00226042
0.000555596
0.00217917
0.000540512
0.00209542
0.000534799
0.00199158
0.000538035
0.00188528
0.000549529
0.00178774
0.000574213
0.00169581
0.000611455
0.00160812
0.000657817
0.00151605
0.000710274
0.0014031
0.000759569
0.00127191
0.000801893
0.00113311
0.00083899
0.000989824
0.000873249
0.000839772
0.000904413
0.000682865
0.000931559
0.000521792
0.000955118
0.000352471
0.000970754
0.000177282
0.000979211
0.000982144
0.00375038
-1.25633e-10
0.00375037
7.67347e-10
0.00375038
1.59507e-09
0.00375036
6.26135e-09
0.00375038
1.00381e-08
0.0037503
3.92619e-08
0.00375032
5.80138e-08
0.00374995
2.47075e-07
0.00375041
3.97947e-07
0.00374687
1.21996e-06
0.00374981
1.91877e-06
0.00374316
3.51189e-06
0.00373708
5.20061e-06
0.00372959
8.98237e-06
0.00372467
2.83958e-05
0.00365332
0.000102257
0.00360083
0.000326664
0.00353788
0.000413304
0.00347953
0.000418142
0.00341497
0.000418682
0.00334222
0.000442274
0.00325724
0.000475729
0.00316595
0.000518848
0.00307613
0.000568442
0.0029836
0.000618749
0.0028999
0.000662286
0.00281769
0.000696406
0.00272639
0.000712467
0.00262987
0.000709663
0.00253514
0.000692457
0.00243743
0.000666662
0.00234941
0.000640492
0.00226725
0.000622517
0.00218293
0.000615786
0.00207826
0.000619843
0.00197048
0.000633718
0.00187162
0.00066277
0.00177847
0.000706413
0.00168844
0.000760504
0.00159561
0.000822603
0.00147983
0.000881748
0.00134471
0.000933538
0.00119952
0.000979058
0.00104974
0.00102177
0.000892421
0.00106077
0.000727018
0.00109464
0.000556707
0.00112359
0.000376449
0.00114387
0.000189772
0.00115431
0.00115803
0.00388972
8.41408e-11
0.00388972
1.37464e-09
0.00388972
2.60354e-09
0.00388971
8.4479e-09
0.00388971
1.36307e-08
0.00388965
4.77268e-08
0.00388973
7.06603e-08
0.00388913
3.78782e-07
0.00389011
4.14553e-07
0.00387889
1.38802e-06
0.00388281
1.45328e-06
0.0038816
3.61889e-06
0.00387838
5.56748e-06
0.00387741
8.23488e-06
0.00386406
3.57649e-05
0.00380492
0.000117409
0.00371027
0.000399986
0.00366406
0.000458522
0.00360808
0.00046838
0.00354174
0.000475651
0.00346626
0.000505438
0.00337916
0.000545999
0.0032843
0.000596685
0.00319099
0.00065421
0.00309569
0.000711645
0.00301091
0.000760106
0.00292787
0.00079814
0.00283614
0.000814099
0.00273898
0.000808593
0.00264314
0.000787403
0.0025437
0.00075668
0.00245424
0.000726414
0.00237066
0.000705961
0.00228471
0.000698533
0.00217794
0.000703751
0.00206695
0.000720222
0.00196536
0.000753725
0.00186999
0.00080394
0.00177684
0.000866162
0.00168255
0.000938338
0.00156361
0.00100808
0.00142449
0.0010701
0.00127264
0.00112504
0.00111588
0.00117697
0.000950696
0.00122474
0.000776086
0.00126645
0.000595314
0.00130222
0.000403657
0.00132804
0.00020342
0.00134266
0.00134709
0.00403424
4.93374e-12
0.00403424
1.62588e-09
0.00403425
2.53113e-09
0.00403423
1.14028e-08
0.00403424
1.82471e-08
0.00403418
5.98389e-08
0.00403415
1.26788e-07
0.0040334
9.52618e-07
0.00403309
-1.85567e-08
0.00403843
1.02984e-06
0.00403213
1.5426e-06
0.0040273
3.94272e-06
0.00402293
6.13171e-06
0.00402069
8.90724e-06
0.00400891
3.96028e-05
0.00396772
0.000122596
0.00385662
0.00047599
0.00380478
0.000519499
0.00374453
0.000521211
0.00367553
0.000533228
0.00359682
0.00057035
0.0035062
0.000618834
0.00340863
0.000677871
0.00331289
0.000743744
0.00321526
0.000807461
0.00313106
0.00086099
0.00304713
0.000901119
0.00295553
0.000915548
0.00285916
0.000906469
0.0027634
0.000881233
0.00266353
0.000845825
0.00257363
0.000812381
0.00248913
0.000790476
0.00240157
0.000783243
0.00229262
0.000790319
0.00217761
0.000809982
0.00207206
0.000848187
0.00197329
0.000905168
0.00187608
0.000975804
0.00177965
0.00105817
0.00165721
0.00113932
0.00151365
0.0012123
0.00135442
0.00127739
0.00118996
0.00133948
0.0010161
0.00139711
0.000831451
0.00144798
0.000639252
0.00149195
0.000434049
0.00152563
0.000219469
0.00154493
0.00155173
0.00418414
-1.07588e-11
0.00418413
3.61698e-10
0.00418415
1.07998e-09
0.00418412
3.46966e-09
0.00418426
5.05299e-09
0.00418403
2.04386e-08
0.00418444
2.32298e-08
0.00418596
-3.84647e-07
0.00418359
9.56378e-07
0.00418884
1.13687e-06
0.0041826
2.12757e-06
0.00417594
4.47113e-06
0.00417105
6.71766e-06
0.00416891
9.65019e-06
0.00415802
4.28808e-05
0.00410646
0.000134515
0.00401548
0.000538475
0.00395426
0.00057978
0.00388711
0.000579358
0.0038148
0.000595028
0.00373282
0.000639513
0.00363655
0.000696127
0.00353398
0.000763782
0.0034339
0.00083798
0.0033346
0.000906666
0.00325201
0.000965143
0.00316783
0.00100432
0.00307739
0.0010153
0.00298343
0.00100139
0.0028891
0.000971778
0.00279093
0.000931883
0.00270258
0.000896311
0.00261889
0.00087407
0.0025312
0.000868163
0.00242136
0.000878188
0.00230273
0.000902018
0.0021935
0.000945629
0.00209103
0.00100992
0.00198902
0.00108954
0.00188975
0.00118259
0.00176337
0.00127586
0.001615
0.00136047
0.00144796
0.0014366
0.0012749
0.00151006
0.00109131
0.00157885
0.000895256
0.00164069
0.000689695
0.00169474
0.000469891
0.00173762
0.000237474
0.00176462
0.00177382
0.0043396
-2.35208e-11
0.0043396
6.96965e-10
0.0043396
1.48748e-09
0.00433958
6.14854e-09
0.00433959
9.48185e-09
0.00433951
3.81755e-08
0.00433953
6.15382e-08
0.00433891
5.24598e-08
0.00433861
4.31705e-07
0.00434399
1.71974e-06
0.00433797
2.35787e-06
0.00433155
4.69589e-06
0.00432688
7.06785e-06
0.00432536
9.94316e-06
0.00431395
4.61567e-05
0.00426723
0.000140363
0.0041806
0.000599042
0.00410386
0.000636413
0.0040391
0.000641649
0.00396334
0.00066182
0.00387537
0.000714331
0.00377213
0.000779409
0.00366602
0.000856229
0.00356167
0.00093897
0.0034624
0.00101205
0.00337806
0.00107314
0.00328997
0.00110809
0.00319833
0.00111286
0.00310657
0.00109244
0.00301377
0.00105707
0.00291929
0.00101299
0.00283502
0.000975738
0.00275479
0.000953914
0.00266966
0.000950456
0.00256195
0.000964813
0.00244144
0.000994395
0.00232957
0.00104444
0.00222405
0.00111682
0.00211762
0.00120633
0.00201579
0.00131104
0.00188552
0.00141793
0.00173198
0.00151521
0.00155638
0.00160336
0.00137399
0.00168916
0.00117944
0.00177082
0.000970668
0.00184557
0.000749586
0.00191228
0.0005118
0.00196774
0.000259842
0.00200339
0.00201778
0.00450084
-1.12164e-10
0.00450084
9.72421e-10
0.00450084
1.82972e-09
0.00450082
7.38913e-09
0.00450083
1.25755e-08
0.00450076
4.17146e-08
0.0045009
6.55014e-08
0.00450031
2.19403e-07
0.00450012
4.70639e-07
0.00450225
1.37269e-06
0.00449839
2.36451e-06
0.00449321
4.99976e-06
0.00448903
7.37621e-06
0.00448807
1.01311e-05
0.00447644
4.88194e-05
0.00443242
0.000144184
0.00434189
0.000647942
0.00426784
0.000697821
0.00420099
0.000708262
0.00411765
0.000734873
0.00402048
0.000796457
0.00390908
0.000870673
0.00379786
0.000956914
0.00368778
0.0010466
0.00358781
0.00112308
0.00349979
0.00118198
0.00340952
0.00120982
0.00331917
0.00120615
0.003232
0.00117788
0.00314345
0.00113594
0.00305488
0.00108773
0.00297629
0.00104927
0.00290125
0.00102861
0.00282056
0.00102869
0.00271762
0.00104911
0.00259616
0.00108582
0.00248207
0.00114339
0.00237419
0.00122478
0.00226399
0.00132525
0.00216035
0.00144255
0.00202695
0.00156478
0.00186871
0.00167668
0.00168392
0.0017782
0.00149103
0.00187756
0.00128442
0.00197413
0.00106097
0.00206457
0.000822074
0.00214671
0.000563872
0.00221846
0.0002862
0.00226783
0.00228759
0.00466806
4.03145e-11
0.00466806
1.12385e-09
0.00466805
2.1966e-09
0.00466805
8.69457e-09
0.00466806
1.52482e-08
0.004668
4.3922e-08
0.00466807
7.55928e-08
0.00466762
2.53197e-07
0.00466756
4.59112e-07
0.00466877
1.71533e-06
0.00466484
2.43162e-06
0.00465921
5.00157e-06
0.00465527
7.46225e-06
0.00465512
1.00979e-05
0.00464454
5.0229e-05
0.00460352
0.000145675
0.00451339
0.000683914
0.00444566
0.00075995
0.00436821
0.000778432
0.00427528
0.000814411
0.00416788
0.000887491
0.00404996
0.000972823
0.00393285
0.00106871
0.00381599
0.00116261
0.0037128
0.00123857
0.00362187
0.00129063
0.00353331
0.00130732
0.00344836
0.00129261
0.00336907
0.0012553
0.00328797
0.00120658
0.00320789
0.00115484
0.00313641
0.00111639
0.00306729
0.00109812
0.00299162
0.00110291
0.00289439
0.0011307
0.00277221
0.00117566
0.00265517
0.00124196
0.0025447
0.00133348
0.00243103
0.00144562
0.00232587
0.00157651
0.00219072
0.00171582
0.00202803
0.00184429
0.00183511
0.00196125
0.00163142
0.00207591
0.00141159
0.00219003
0.00117182
0.00229926
0.000911784
0.00240129
0.000628439
0.00249445
0.000321185
0.00256087
0.00259194
0.00484151
1.19875e-11
0.00484151
9.86091e-10
0.00484152
2.24841e-09
0.00484149
6.77743e-09
0.00484158
1.10395e-08
0.00484146
4.46628e-08
0.00484161
6.79464e-08
0.00484116
2.1882e-07
0.00484117
4.8107e-07
0.0048437
1.86782e-06
0.00483797
2.40153e-06
0.00483154
4.86923e-06
0.00482863
7.35431e-06
0.00482987
9.78008e-06
0.00482023
5.08908e-05
0.00478057
0.000146109
0.00469158
0.000712065
0.00462189
0.000820357
0.00453397
0.000855368
0.00442771
0.000904324
0.00430778
0.000990294
0.00418393
0.00108712
0.00406177
0.00119074
0.00394262
0.0012841
0.00384054
0.00135696
0.00375031
0.00139516
0.00366823
0.00139659
0.00359327
0.00136846
0.00352499
0.00132212
0.00345367
0.00126646
0.00338431
0.00121333
0.0033211
0.00117663
0.00325803
0.00116231
0.00318691
0.00117322
0.00309435
0.00120926
0.00297196
0.00126392
0.00285232
0.00133993
0.00273897
0.00144229
0.00262261
0.00156722
0.00251567
0.00171224
0.00238138
0.00186916
0.00221482
0.00201663
0.00201493
0.00215215
0.00180025
0.00228391
0.00156705
0.00241847
0.00130949
0.00255114
0.00102602
0.00267809
0.000712241
0.00280053
0.000365611
0.00289422
0.00294026
0.00502139
1.94584e-10
0.00502139
1.2858e-09
0.00502139
2.74282e-09
0.00502138
1.11805e-08
0.00502137
2.00656e-08
0.00502137
6.54337e-08
0.00502125
1.39595e-07
0.00502129
3.10011e-07
0.00502104
6.98095e-07
0.00501987
1.51373e-06
0.00501924
2.39768e-06
0.00501323
4.81012e-06
0.00500952
7.27148e-06
0.00501042
9.38755e-06
0.0050004
5.11607e-05
0.00496087
0.000145428
0.00487249
0.000734499
0.00479814
0.000882977
0.00469887
0.000942511
0.00457721
0.00100844
0.00444237
0.00110692
0.00431122
0.00121165
0.00418699
0.00131713
0.00407971
0.00140817
0.00398565
0.00146913
0.00390223
0.00148935
0.00383017
0.00147349
0.00376826
0.00143226
0.00370978
0.00137597
0.00364822
0.0013145
0.00358993
0.00126282
0.00353506
0.0012299
0.00347817
0.00122148
0.00341177
0.00124006
0.00332437
0.00128562
0.00320154
0.00135122
0.00307765
0.00143779
0.0029604
0.00155152
0.00284243
0.00168982
0.00273143
0.00184836
0.00260158
0.00202312
0.00243343
0.00219168
0.00222898
0.00234839
0.00200516
0.00250028
0.00175934
0.00265924
0.00148341
0.00282105
0.00117312
0.00298124
0.000825756
0.00313982
0.000428882
0.00327706
0.00335137
0.00520796
5.60679e-10
0.00520796
4.39193e-10
0.00520796
3.42148e-09
0.00520797
5.32801e-09
0.00520794
1.92983e-08
0.00520787
5.75298e-08
0.00520776
1.47367e-07
0.00520723
3.94993e-07
0.00520653
7.85826e-07
0.00520528
1.50329e-06
0.00520525
2.26728e-06
0.00519932
4.72545e-06
0.00519592
7.25206e-06
0.0051976
9.02249e-06
0.00518787
5.12385e-05
0.00514562
0.000146107
0.00505706
0.000754233
0.00496902
0.000951402
0.00484924
0.00104488
0.0047075
0.00112961
0.0045596
0.00123664
0.00442634
0.00134471
0.00431098
0.00144447
0.00422148
0.0015255
0.00414412
0.00156469
0.00407881
0.00156264
0.00402505
0.00152925
0.00397718
0.0014747
0.00392874
0.00141036
0.00388083
0.00134982
0.00383365
0.0013024
0.003787
0.00127613
0.0037359
0.00127603
0.00367344
0.00130416
0.00358976
0.00136054
0.00346662
0.0014383
0.00333854
0.0015365
0.00321646
0.00166203
0.00309604
0.0018131
0.00297852
0.00198397
0.00285501
0.00217629
0.00269046
0.00236605
0.002489
0.00254663
0.00225312
0.00272544
0.00199677
0.00290918
0.00170599
0.00310485
0.00137147
0.00330689
0.000981751
0.00352168
0.000520293
0.00372393
0.00385338
0.00540147
1.58191e-11
0.00540147
2.88744e-11
0.00540146
9.17168e-10
0.00540149
2.11848e-10
0.00540145
1.23713e-08
0.00540151
4.31474e-09
0.00540194
8.3031e-08
0.00540153
2.12907e-07
0.00540103
6.72544e-07
0.00539976
1.2441e-06
0.00540029
1.99012e-06
0.00539315
4.76362e-06
0.00538951
8.03111e-06
0.0053904
1.02845e-05
0.00538332
5.13517e-05
0.0053382
0.000145394
0.00523769
0.000782738
0.00511783
0.00104656
0.00496577
0.00117571
0.00480748
0.00127176
0.00466422
0.00138122
0.00454402
0.00148045
0.00445547
0.00156547
0.0043849
0.00161903
0.00432877
0.00163016
0.00428686
0.00160518
0.00425183
0.0015547
0.00421868
0.00148961
0.00418816
0.00142528
0.00415593
0.00136995
0.00412104
0.00133111
0.00408313
0.00131522
0.00403764
0.00132646
0.00397863
0.00136656
0.00389784
0.00143556
0.00377338
0.00152683
0.00363939
0.00163722
0.00351119
0.0017742
0.00338669
0.00193711
0.00326415
0.00211823
0.0031503
0.00232439
0.00298982
0.00254046
0.00279069
0.00274713
0.00255436
0.00294844
0.00229466
0.00316129
0.0019954
0.00339701
0.00164083
0.00365205
0.00121605
0.00393848
0.000673712
0.00425165
0.00450805
0.00560216
-3.31137e-10
0.00560216
-7.58837e-10
0.00560217
-3.10264e-09
0.00560216
-4.91551e-09
0.00560215
-1.76647e-08
0.00560228
-2.79223e-08
0.00560205
-5.63557e-08
0.00560241
-6.55744e-08
0.00560136
2.89535e-08
0.00560031
1.11128e-07
0.00559984
1.88888e-06
0.00559322
5.18189e-06
0.00559062
1.04353e-05
0.00558983
1.41812e-05
0.0055961
3.93584e-05
0.00549582
0.000186068
0.00539385
0.000822063
0.00523277
0.00119002
0.0050501
0.00134339
0.00489196
0.00142952
0.00476559
0.00151989
0.004674
0.00159254
0.00461219
0.00164811
0.00457161
0.00167038
0.00454879
0.00165407
0.00453524
0.00160906
0.00452176
0.00154496
0.00451217
0.00147886
0.004502
0.00141991
0.00448629
0.00137471
0.00446354
0.00134883
0.00443343
0.00134734
0.00439205
0.00137353
0.00433445
0.00142867
0.00425404
0.00151254
0.00412672
0.00161879
0.00398438
0.00174255
0.00384709
0.0018899
0.00371888
0.00206061
0.00359161
0.0022513
0.00348175
0.0024688
0.00333394
0.00270764
0.00314799
0.00293498
0.00292225
0.00316134
0.00267053
0.00340314
0.00237804
0.0036799
0.00202383
0.00399574
0.00157576
0.00437946
0.00095362
0.00485937
0.0054426
0.00581031
-5.34976e-10
0.00581031
-9.56854e-10
0.00581031
-4.70037e-09
0.00581034
-9.57034e-09
0.00581029
-2.80387e-08
0.00581052
-4.82706e-08
0.00581074
-1.69815e-07
0.00581102
-3.65604e-07
0.00581436
-9.08108e-07
0.00581346
-1.41763e-06
0.00582741
-3.88364e-06
0.00581427
-3.89057e-06
0.00577341
-6.31856e-07
0.00580835
-7.28184e-06
0.00584807
3.00721e-05
0.00571512
0.0001831
0.0055455
0.00100602
0.00532647
0.00142458
0.00512563
0.00154046
0.00498294
0.00157622
0.0048916
0.00162749
0.00484832
0.00165825
0.00482716
0.00168176
0.00482705
0.00167353
0.0048398
0.00163359
0.00485049
0.00157295
0.00486354
0.00150663
0.00487544
0.00144541
0.0048816
0.00139687
0.00487774
0.00136624
0.00486289
0.0013576
0.00483708
0.00137466
0.00479688
0.00141971
0.00473811
0.00149301
0.00465584
0.00159362
0.00452634
0.00171594
0.00437351
0.00185196
0.00422846
0.0020062
0.00409521
0.00218451
0.00395882
0.00238748
0.00385067
0.00260941
0.00372573
0.00285763
0.00355985
0.00310469
0.00336008
0.00334999
0.00313664
0.0036152
0.00288121
0.00392342
0.00257148
0.00429345
0.00216827
0.00477245
0.00155572
0.00546281
0.00697833
0.00840003
-3.06313e-10
0.00840003
-4.93538e-10
0.00840003
-1.7727e-09
0.00840003
-2.4647e-09
0.0084
-1.25096e-08
0.00840004
-2.1547e-08
0.0084002
-8.70655e-08
0.00840051
-1.8422e-07
0.0084028
-6.41565e-07
0.00840041
-1.36094e-06
0.0084169
-3.80394e-06
0.00836851
-1.01085e-05
0.0084214
-1.65857e-05
0.00900802
-3.33327e-05
0.00846228
5.52915e-05
0.00836607
0.000120995
0.00782542
0.0013966
0.00748749
0.0017909
0.00728992
0.0017904
0.00723965
0.0016991
0.00722694
0.00167749
0.00724799
0.00165303
0.00728534
0.00162985
0.00732459
0.00159679
0.00737679
0.00154307
0.00742919
0.00148134
0.00747667
0.00142418
0.00751208
0.00138001
0.00753135
0.00135439
0.00753026
0.00135113
0.00750813
0.00137232
0.0074659
0.00141979
0.00739994
0.0014936
0.00730627
0.00159281
0.00718083
0.0017149
0.00699612
0.00185359
0.00678345
0.00199992
0.0065818
0.00216325
0.00639525
0.00235129
0.00621922
0.0025544
0.00609022
0.00277021
0.00598554
0.00301797
0.00582712
0.00327744
0.00563854
0.00352966
0.00544094
0.00379222
0.00525647
0.00408516
0.00511465
0.00441562
0.00509744
0.00477912
0.00544469
0.00510174
0.0049752
0.00742865
0.00840003
4.26734e-11
0.00840003
-3.10657e-11
0.00840003
-1.64386e-10
0.00840003
-1.44126e-10
0.00840004
-2.19286e-09
0.00839998
-4.04345e-09
0.0083999
-1.90287e-08
0.00840059
-3.60562e-08
0.00839832
-2.09911e-07
0.00839657
-1.44993e-07
0.00839431
-2.12894e-06
0.0083824
3.11888e-07
0.00830927
-4.2237e-06
0.00806018
-9.00742e-06
0.0083465
7.24063e-05
0.00797676
0.000141907
0.00791563
0.00149218
0.00768698
0.00211905
0.00754267
0.00203683
0.00754976
0.00175545
0.00760742
0.00162559
0.00764999
0.00158043
0.00769959
0.00152188
0.00775209
0.00148089
0.00781287
0.00143589
0.00787095
0.00139123
0.00791405
0.00135576
0.00793501
0.00133706
0.00793315
0.00133966
0.00790636
0.00136476
0.007858
0.0014132
0.00778973
0.00148506
0.00770314
0.00157973
0.00759713
0.00169584
0.00746844
0.00183085
0.00730595
0.00197635
0.00711967
0.00213094
0.00693994
0.0023018
0.00678354
0.00248616
0.00664542
0.00267967
0.00654503
0.00288112
0.0065206
0.00310839
0.00647519
0.00335899
0.0064064
0.00359828
0.00635307
0.00382893
0.00635625
0.0040587
0.0064646
0.00428065
0.00676128
0.00446026
0.00727784
0.00457833
0.00425518
0.00799015
0.00840003
1.92437e-10
0.00840003
2.44782e-10
0.00840003
8.05494e-10
0.00840004
7.13411e-10
0.0084
4.95105e-09
0.00840009
4.90326e-09
0.00839992
2.55776e-08
0.00840029
5.13731e-08
0.00840008
7.75673e-08
0.00839835
2.30538e-07
0.00840119
5.46538e-08
0.00839928
9.70077e-07
0.00852717
2.35288e-06
0.00869235
-5.70786e-06
0.00836687
6.67268e-05
0.00872156
0.000128102
0.00832624
0.00100458
0.00796667
0.00245617
0.0079594
0.00209159
0.00799797
0.00180443
0.0080377
0.00159229
0.00809491
0.00148333
0.00814237
0.00143422
0.00818141
0.00139205
0.00820831
0.00136414
0.0082199
0.00134323
0.00821189
0.00133483
0.00818526
0.00134314
0.00814172
0.00137016
0.00808178
0.00141626
0.00800815
0.00148162
0.0079256
0.00156673
0.00783557
0.00167141
0.00773693
0.0017941
0.00763037
0.0019294
0.00749455
0.00207791
0.00734437
0.00223738
0.00720955
0.00240433
0.00710026
0.00258016
0.00700838
0.00276085
0.00694725
0.00294353
0.00697707
0.00313876
0.00703673
0.00335879
0.00708682
0.00357175
0.00715004
0.00376114
0.00726556
0.00392353
0.00746034
0.00405933
0.0077649
0.00412995
0.00817402
0.00415682
0.00390261
0.00852449
0.00840003
2.62761e-10
0.00840003
-3.56199e-10
0.00840003
6.68098e-10
0.00840004
-1.22534e-09
0.00840002
2.59448e-09
0.00840005
1.90249e-09
0.00839978
6.11919e-09
0.00840087
-4.95686e-09
0.00839922
9.03282e-08
0.0084023
-1.18999e-08
0.0083944
6.79126e-07
0.00842394
8.40601e-07
0.00836124
4.07443e-06
0.00867776
4.88625e-06
0.00840084
5.14591e-05
0.00859671
7.24038e-05
0.00864126
0.000693801
0.00831862
0.00237462
0.00830421
0.00214184
0.00837
0.0018276
0.00843466
0.00157887
0.00844203
0.00146055
0.00841507
0.00141338
0.00839478
0.0013726
0.00836915
0.00136106
0.00833596
0.00136239
0.00829224
0.00137444
0.008238
0.00139882
0.00817331
0.00143746
0.00809898
0.00149153
0.00802039
0.00156152
0.00794243
0.0016487
0.00786511
0.00175296
0.00778992
0.00187112
0.00770611
0.00200676
0.00760426
0.00215569
0.00750591
0.00230854
0.00742498
0.00246783
0.00736394
0.00263357
0.00732064
0.00279885
0.00730619
0.0029619
0.00736865
0.00312609
0.00749833
0.00330635
0.00763704
0.0034799
0.00777739
0.00363415
0.00794763
0.00374518
0.00815648
0.00382824
0.00841654
0.00384589
0.00875242
0.00380005
0.00365654
0.00898793
0.00840003
3.83465e-11
0.00840003
-7.30298e-13
0.00840003
2.6354e-10
0.00840005
-6.97696e-10
0.00840003
1.31591e-09
0.00840027
-1.3694e-08
0.00839979
1.19073e-08
0.00840108
-6.3606e-08
0.00839986
6.72097e-08
0.00840361
-3.76966e-07
0.0083993
4.37715e-07
0.00841287
-1.34755e-06
0.008404
6.30005e-06
0.00842953
6.96331e-06
0.00832406
3.77283e-05
0.00865586
5.11742e-05
0.00829059
0.000501221
0.00854005
0.00172372
0.00873269
0.00201566
0.00873678
0.00186195
0.00863671
0.00167866
0.00854013
0.00155002
0.00847683
0.00148825
0.00842782
0.00145283
0.0083736
0.00144206
0.00831149
0.00144428
0.00824284
0.0014563
0.00817332
0.0014796
0.00810583
0.001516
0.00803871
0.00156692
0.00797338
0.00163351
0.00791339
0.00171459
0.00786057
0.00181192
0.0078059
0.0019286
0.00774813
0.00205927
0.00768707
0.00219697
0.00763524
0.00234173
0.0076005
0.00249285
0.00758169
0.00264554
0.0075816
0.00279435
0.0076087
0.0029369
0.0076946
0.00307529
0.00785025
0.003221
0.00803814
0.00335407
0.00823263
0.00347292
0.00843254
0.00355264
0.00864996
0.00359832
0.00888213
0.00359243
0.00912992
0.00352753
0.00340599
0.00936186
0.00840003
-5.66468e-12
0.00840003
4.63031e-10
0.00840003
7.94328e-10
0.00840002
3.38326e-09
0.00840001
5.28151e-09
0.0084
1.88584e-08
0.00839993
3.26461e-08
0.00839999
1.40357e-07
0.00839936
1.2103e-07
0.0084003
5.02025e-07
0.00840228
1.00812e-06
0.00842991
1.71589e-06
0.00839043
1.79118e-06
0.00866865
-6.08094e-06
0.00854799
5.62262e-05
0.00831321
-6.39932e-05
0.00846516
0.000408559
0.00877967
0.000882944
0.00880875
0.00195196
0.00862777
0.0020266
0.0084855
0.0018368
0.00842579
0.00166465
0.00838073
0.00159578
0.0083348
0.0015582
0.00828157
0.00154263
0.00822819
0.00153475
0.00817438
0.00154009
0.00812117
0.001556
0.00806822
0.00158528
0.00801696
0.00162954
0.00796834
0.0016888
0.00791539
0.0017646
0.00786446
0.00185617
0.00782193
0.00196232
0.0077853
0.00208213
0.00775316
0.00221143
0.00773447
0.0023471
0.00773319
0.00248713
0.00774738
0.00262547
0.00778128
0.00275839
0.00784633
0.0028844
0.00796445
0.00300654
0.00813006
0.00312094
0.00832863
0.00322182
0.00854639
0.00330479
0.00876701
0.00336133
0.00898882
0.00338349
0.00921904
0.00335794
0.0094267
0.00330243
0.0031862
0.00962507