/*--------------------------------*- C++ -*----------------------------------*\
| =========                 |                                                 |
| \\      /  F ield         | OpenFOAM: The Open Source CFD Toolbox           |
|  \\    /   O peration     | Version:  2412                                  |
|   \\  /    A nd           | Website:  www.openfoam.com                      |
|    \\/     M anipulation  |                                                 |
\*---------------------------------------------------------------------------*/
FoamFile
{
    version     2.0;
    format      ascii;
    arch        "LSB;label=32;scalar=64";
    class       volScalarField;
    location    "6.5";
    object      T;
}
// * * * * * * * * * * * * * * * * * * * * * * * * * * * * * * * * * * * * * //

dimensions      [0 0 0 1 0 0 0];

internalField   nonuniform List<scalar> 
7000
(
1
1
1
0.999985
1.00003
0.999739
1.00072
1.00002
1.00733
1.0018
1.04639
0.909425
1.12357
1.29543
1.92357
2.57614
2.71553
2.68961
2.65343
2.63439
2.63572
2.64476
2.6654
2.68286
2.68774
2.68508
2.67045
2.65132
2.64113
2.63896
2.64325
2.6515
2.65606
2.66417
2.69074
2.73655
2.76468
2.77014
2.75654
2.7305
2.72722
2.74193
2.75683
2.76137
2.76626
2.76609
2.75309
2.73503
2.7228
2.71897
1
1
1.00001
1
1.00005
0.999759
1.00082
1.00008
1.00704
1.00181
1.04669
0.909177
1.12298
1.29467
1.92306
2.57696
2.7155
2.68955
2.65314
2.63431
2.63575
2.64524
2.66559
2.68135
2.68537
2.68267
2.66902
2.65131
2.64139
2.63876
2.64197
2.64978
2.65445
2.66227
2.68716
2.7329
2.76332
2.77097
2.76045
2.73291
2.72642
2.73796
2.75359
2.76053
2.76626
2.76599
2.75242
2.73455
2.7224
2.71856
1
1
1.00002
1.00002
1.00011
0.999864
1.0011
1.00026
1.007
1.00143
1.04646
0.909017
1.12242
1.29354
1.92277
2.57927
2.71532
2.68863
2.65187
2.63378
2.63536
2.64519
2.66605
2.68188
2.68566
2.68233
2.66744
2.64995
2.64055
2.63846
2.64253
2.65076
2.65537
2.66328
2.6883
2.73303
2.76287
2.77058
2.76064
2.73282
2.72527
2.73588
2.7521
2.76043
2.76615
2.76543
2.75081
2.73368
2.7221
2.71841
1
1
1.00003
1.00002
1.00018
1.00018
1.00113
1.00149
1.00759
1.00117
1.04552
0.908119
1.12144
1.29244
1.92264
2.58267
2.71474
2.68684
2.65008
2.63314
2.63494
2.6453
2.66718
2.68337
2.68693
2.68267
2.66529
2.64669
2.63728
2.63549
2.64013
2.6489
2.65372
2.66191
2.68749
2.73221
2.76182
2.76952
2.75975
2.73136
2.72296
2.73335
2.75099
2.76042
2.76593
2.76498
2.75001
2.73306
2.72164
2.71796
1.00001
1
1.00003
1.00003
1.00019
1.00018
1.00116
1.00137
1.007
1.00102
1.0456
0.907251
1.11972
1.29017
1.92211
2.58855
2.71365
2.68413
2.64809
2.63239
2.6345
2.64531
2.66706
2.68284
2.68628
2.68194
2.66482
2.64691
2.63774
2.63589
2.64022
2.64864
2.65322
2.66109
2.68609
2.73084
2.76073
2.76872
2.75942
2.7308
2.72171
2.73165
2.75017
2.76026
2.76547
2.76451
2.74946
2.73277
2.72131
2.71765
1.00001
1.00001
1.00003
1.00003
1.00019
1.00019
1.00116
1.00135
1.00677
1.00066
1.04481
0.90663
1.11806
1.28787
1.92125
2.59426
2.71249
2.68083
2.6457
2.63179
2.63427
2.64602
2.66643
2.68055
2.68336
2.67911
2.66298
2.64628
2.63802
2.63668
2.64132
2.64938
2.65362
2.66086
2.68433
2.72901
2.75957
2.76815
2.75954
2.73077
2.7205
2.72958
2.74903
2.75974
2.76479
2.76393
2.74937
2.73228
2.72076
2.7168
1.00001
1.00001
1.00003
1.00003
1.00019
1.00019
1.0011
1.00127
1.00639
1.00027
1.04429
0.905305
1.11626
1.28583
1.92107
2.60467
2.70858
2.67452
2.6428
2.6313
2.63419
2.64683
2.66669
2.67959
2.68166
2.67665
2.66001
2.64459
2.63711
2.63614
2.64119
2.64937
2.65354
2.66044
2.68278
2.72737
2.75873
2.76807
2.76046
2.73145
2.71933
2.72702
2.74706
2.75872
2.76397
2.76336
2.74925
2.73184
2.71979
2.71619
1
1
1.00003
1.00003
1.00017
1.00018
1.00103
1.00119
1.00609
0.999814
1.04344
0.904389
1.11465
1.28297
1.91882
2.61776
2.70311
2.66791
2.64027
2.63125
2.63458
2.64809
2.66759
2.67981
2.6814
2.67535
2.65697
2.64141
2.63448
2.63414
2.6403
2.6489
2.65305
2.65976
2.68148
2.72583
2.75776
2.76786
2.76133
2.73247
2.71842
2.72466
2.74459
2.75674
2.76238
2.76217
2.74916
2.73078
2.71914
2.71475
1
1
1.00003
1.00002
1.00016
1.00016
1.00093
1.00109
1.00555
0.999589
1.04264
0.904068
1.11242
1.27691
1.9137
2.63598
2.69582
2.6611
2.63886
2.63122
2.63445
2.6467
2.66514
2.67768
2.67947
2.67354
2.65519
2.63953
2.63254
2.63231
2.63876
2.64768
2.6519
2.65842
2.67921
2.72323
2.75614
2.76715
2.7616
2.73335
2.71789
2.72293
2.74219
2.75446
2.76048
2.76069
2.7488
2.73034
2.71743
2.71369
1
1
1.00002
1.00002
1.00014
1.00015
1.00084
1.00101
1.00521
0.999127
1.04139
0.904333
1.10973
1.27013
1.90523
2.6359
2.69745
2.65304
2.63817
2.63235
2.6356
2.64795
2.66521
2.67525
2.67575
2.66861
2.64981
2.63529
2.62919
2.62949
2.63687
2.64611
2.65029
2.65646
2.67602
2.71899
2.75281
2.76521
2.76079
2.73361
2.71661
2.72047
2.73925
2.75199
2.75839
2.7591
2.74833
2.72901
2.71621
2.71124
1
1
1.00002
1.00002
1.00011
1.00005
1.00077
1.00023
1.00453
0.998359
1.03991
0.904908
1.10705
1.26278
1.89557
2.63578
2.69705
2.64423
2.64051
2.6328
2.63543
2.64744
2.66455
2.67336
2.67293
2.66344
2.64348
2.63026
2.62517
2.62609
2.63443
2.64366
2.64769
2.65344
2.67163
2.71356
2.74819
2.76162
2.7585
2.73305
2.71489
2.71776
2.73593
2.74857
2.75551
2.75664
2.7473
2.72792
2.71341
2.70947
1
1
1.00002
1.00002
1.00011
1.00012
1.00069
1.00077
1.00446
0.997988
1.03829
0.905223
1.10346
1.25379
1.88387
2.63471
2.68433
2.64821
2.64191
2.6327
2.63506
2.64825
2.66334
2.66873
2.6661
2.65235
2.63483
2.62494
2.62189
2.62403
2.63386
2.64277
2.64652
2.65173
2.66827
2.7086
2.74383
2.75845
2.75653
2.73275
2.71276
2.71452
2.7324
2.74507
2.75199
2.75367
2.74537
2.72557
2.71148
2.70554
1
1
1.00001
1.00001
1.00009
1.0001
1.00055
1.00059
1.00368
0.997549
1.0366
0.906006
1.09967
1.24372
1.86991
2.63077
2.67198
2.65656
2.63884
2.63025
2.63294
2.64754
2.66068
2.66401
2.65974
2.64459
2.62992
2.62236
2.62039
2.62306
2.63335
2.64212
2.64575
2.65043
2.66496
2.70317
2.73961
2.756
2.7553
2.73344
2.71088
2.71093
2.72741
2.74116
2.74849
2.75036
2.74343
2.72286
2.707
2.70257
1
1
1.00001
1.00001
1.00007
1.00008
1.00046
1.00044
1.00319
0.99692
1.03473
0.90696
1.09574
1.23312
1.8538
2.6235
2.66358
2.65855
2.63806
2.63066
2.63327
2.64663
2.65553
2.65716
2.65287
2.63925
2.62719
2.62129
2.62001
2.6229
2.63275
2.64079
2.64405
2.64809
2.66044
2.69575
2.73384
2.75292
2.75402
2.73522
2.70972
2.7075
2.72195
2.73625
2.74343
2.74574
2.73983
2.71954
2.7029
2.6959
1
1
1.00001
1.00001
1.00004
1.00007
1.00031
1.00029
1.00248
0.996554
1.03284
0.908211
1.09136
1.22136
1.83521
2.61328
2.65683
2.656
2.63788
2.63139
2.63373
2.64474
2.6487
2.64842
2.64306
2.63171
2.62326
2.61939
2.61897
2.62249
2.63211
2.63891
2.64164
2.64525
2.65622
2.68897
2.72739
2.74861
2.75189
2.7373
2.70827
2.70268
2.71427
2.72996
2.73759
2.73997
2.73578
2.71428
2.69724
2.69052
1
1
1
1
1.00003
1.00004
1.00023
1.00012
1.00172
0.99632
1.03051
0.909497
1.08676
1.20923
1.8149
2.60083
2.64931
2.65123
2.63438
2.62775
2.63036
2.64116
2.64192
2.63741
2.62604
2.61723
2.61318
2.61233
2.61408
2.62121
2.63097
2.63712
2.6396
2.64271
2.65187
2.68081
2.71998
2.74401
2.74938
2.73877
2.70808
2.69753
2.70506
2.7222
2.72994
2.73214
2.72854
2.70972
2.68643
2.67839
1
0.999999
0.999999
0.999994
0.999998
0.999987
1.00012
0.999841
1.00129
0.995868
1.02825
0.91116
1.08201
1.19663
1.79225
2.58551
2.64219
2.64861
2.63366
2.62668
2.62907
2.63709
2.63518
2.62515
2.61157
2.60402
2.60176
2.60318
2.60928
2.61893
2.62819
2.63416
2.63661
2.6394
2.64729
2.67286
2.71087
2.73662
2.74464
2.73796
2.70842
2.69173
2.69461
2.7099
2.71957
2.72191
2.71934
2.6994
2.67692
2.6667
0.999999
0.999996
0.999996
0.999982
0.999977
0.999902
0.999924
0.999587
1.00074
0.995435
1.02571
0.91338
1.07697
1.18386
1.76714
2.56892
2.63558
2.64747
2.63345
2.62407
2.62018
2.62058
2.61407
2.60218
2.59418
2.59165
2.59333
2.60033
2.60926
2.6183
2.62657
2.63181
2.63389
2.63614
2.64244
2.66405
2.70076
2.72779
2.73786
2.73473
2.70818
2.68456
2.68332
2.6954
2.70621
2.70825
2.70589
2.68915
2.65684
2.64174
0.999999
0.999996
0.999995
0.999973
0.999972
0.999861
0.999784
0.9992
0.999963
0.995028
1.02314
0.916229
1.07098
1.17073
1.7395
2.55183
2.62545
2.64123
2.62837
2.6141
2.60157
2.59825
2.59075
2.58471
2.58226
2.58372
2.59087
2.60098
2.60959
2.61746
2.62455
2.62906
2.63083
2.6326
2.63752
2.65509
2.68973
2.71792
2.73037
2.72958
2.70864
2.67796
2.67042
2.67689
2.68737
2.68849
2.68565
2.66763
2.63329
2.60692
0.999999
0.999997
0.999997
0.999983
0.999977
0.999907
0.999802
0.999102
0.999394
0.993061
1.01781
0.908716
1.06637
1.14115
1.70892
2.56025
2.60209
2.61887
2.60689
2.59645
2.58627
2.5805
2.57408
2.57115
2.572
2.57865
2.58998
2.60057
2.60946
2.61743
2.6244
2.62871
2.63013
2.63112
2.63417
2.64675
2.67722
2.70571
2.71989
2.72107
2.70645
2.67196
2.65807
2.66027
2.66706
2.66595
2.65901
2.63895
2.58246
2.4949
1
1
1
1
1.00002
1
1.00002
0.999762
1.00019
0.997281
1.00638
0.952901
1.05594
1.04913
1.6791
2.51239
2.57308
2.60156
2.59045
2.56496
2.5538
2.55217
2.55366
2.56082
2.57183
2.58284
2.59386
2.60385
2.61236
2.61942
2.62522
2.62858
2.62957
2.63044
2.63316
2.64377
2.66892
2.69452
2.70726
2.70873
2.69874
2.66216
2.63529
2.63046
2.63163
2.62854
2.61569
2.58104
2.51333
2.3641
1
1
1
1.00002
1.00002
1.00007
1.00011
1.00039
1.00044
1.00255
1.00581
1.00982
1.05111
1.16274
1.53204
2.37858
2.52098
2.57115
2.55279
2.53449
2.5355
2.54209
2.55577
2.56974
2.58246
2.59241
2.60104
2.60913
2.61631
2.6225
2.62751
2.63078
2.63307
2.6346
2.6379
2.64621
2.66571
2.68556
2.69581
2.69718
2.6911
2.66072
2.6187
2.5996
2.59274
2.58442
2.5677
2.5325
2.45159
2.36254
1
1
1
1.00002
1.00002
1.00011
1.00013
1.0006
1.00077
1.00327
1.00471
1.01514
1.04169
1.05406
1.41091
2.08437
2.45958
2.57335
2.5511
2.54804
2.54963
2.55828
2.57063
2.58076
2.59242
2.60238
2.61165
2.62008
2.62637
2.63104
2.63462
2.63689
2.6376
2.63812
2.63976
2.64635
2.66075
2.67503
2.68175
2.68212
2.67827
2.65724
2.61035
2.57573
2.55643
2.5423
2.52241
2.49487
2.43138
2.37371
1
1
1
1.00001
1.00002
1.00007
1.00011
1.00043
1.00061
1.00278
1.0043
1.01776
1.0262
1.11128
1.27318
1.80124
2.27551
2.58659
2.59926
2.59219
2.57488
2.57833
2.59034
2.60709
2.61804
2.62408
2.62659
2.62783
2.62871
2.63044
2.63291
2.63429
2.63458
2.6352
2.63683
2.64208
2.65204
2.66045
2.66333
2.66274
2.65867
2.64357
2.6035
2.55874
2.52759
2.50759
2.48354
2.46375
2.41482
2.38463
1
1
1.00001
1.00001
1.00003
1.00001
1.00013
1.00029
1.0006
1.00172
1.00355
1.00901
1.0283
1.06668
1.22595
1.62179
2.11612
2.57292
2.64305
2.62549
2.61877
2.62378
2.62705
2.63072
2.62998
2.62714
2.62465
2.62391
2.62385
2.62435
2.62557
2.6272
2.62768
2.62766
2.6286
2.63254
2.63958
2.64385
2.64423
2.64298
2.63869
2.62639
2.59389
2.55415
2.51106
2.48656
2.4576
2.43803
2.40748
2.37739
1
1
1.00001
1.00001
1.00004
1.00004
1.00026
1.00024
1.00142
1.00161
1.00629
1.00233
1.02743
0.995062
1.16216
1.44055
1.97805
2.51558
2.71521
2.69925
2.67286
2.65678
2.63861
2.63591
2.62978
2.62381
2.61773
2.61311
2.61062
2.60977
2.60993
2.61225
2.61535
2.61833
2.62163
2.62662
2.63182
2.63355
2.63312
2.63119
2.62538
2.61118
2.58216
2.54727
2.50857
2.4746
2.44681
2.42028
2.39531
2.37116
1
1
1
1
1.00002
1.00001
1.00009
1.00007
1.00046
1.0009
1.00284
1.00672
1.02215
1.03358
1.12923
1.42391
2.22754
2.4756
2.62178
2.63715
2.64051
2.6384
2.63103
2.62653
2.621
2.61563
2.611
2.60776
2.606
2.60531
2.60534
2.60666
2.60922
2.61125
2.61353
2.6168
2.61937
2.61964
2.61858
2.61486
2.60467
2.58484
2.56075
2.53123
2.4995
2.46699
2.4365
2.40915
2.38605
2.36072
1
1
1
1
1.00001
1.00002
1.00008
1.00011
1.0005
1.00077
1.00246
1.00561
1.01698
1.03092
1.1386
1.29923
1.88112
2.3276
2.60186
2.61061
2.60614
2.59381
2.59439
2.59733
2.6
2.60006
2.59901
2.5958
2.59236
2.59059
2.59035
2.59071
2.59125
2.59119
2.5908
2.58925
2.58607
2.58329
2.58044
2.57505
2.56499
2.54879
2.53057
2.50833
2.48295
2.45668
2.43204
2.40591
2.38678
2.36335
1
1
1
1
1.00001
1.00002
1.00005
1.00013
1.00036
1.00068
1.00222
1.00376
1.0155
1.02395
1.08372
1.23305
1.67119
2.17465
2.56169
2.62479
2.61073
2.59397
2.57952
2.57421
2.57379
2.57403
2.57528
2.57676
2.57715
2.57731
2.57754
2.57896
2.5805
2.58039
2.57954
2.5769
2.57013
2.56
2.55086
2.54157
2.53245
2.52005
2.50702
2.4923
2.47525
2.45483
2.4348
2.40943
2.39198
2.372
1
1
1
1.00001
1.00001
1.00002
1.00004
1.00012
1.00034
1.00047
1.00206
1.00287
1.00945
1.02182
1.06151
1.16676
1.47605
1.974
2.50911
2.64913
2.62295
2.61297
2.59791
2.58388
2.58165
2.57977
2.57955
2.57975
2.57942
2.57852
2.57777
2.57748
2.57823
2.57948
2.57924
2.5776
2.57233
2.56086
2.54847
2.53717
2.52487
2.51442
2.50201
2.49055
2.47751
2.45806
2.4447
2.42275
2.40564
2.39095
1
1
1
1.00001
1.00001
1.00004
1.00004
1.00025
1.00024
1.00148
1.00176
1.00854
1.00281
1.04887
0.910749
1.13315
1.32414
1.9311
2.54191
2.69891
2.65206
2.63127
2.60501
2.59489
2.59295
2.59254
2.59185
2.58988
2.58728
2.58409
2.58195
2.58121
2.58176
2.5848
2.58781
2.5879
2.58644
2.58027
2.56488
2.54896
2.53236
2.51989
2.50733
2.49435
2.48645
2.47023
2.46144
2.44774
2.43289
2.42226
1
1
1
1
1
1.00003
1.00002
1.00015
1.00015
1.00084
1.00095
1.00492
0.999063
1.0394
0.90623
1.1074
1.25154
1.88956
2.6309
2.6928
2.6493
2.63977
2.61023
2.59697
2.59283
2.59212
2.59027
2.58858
2.58675
2.58507
2.58431
2.58414
2.58528
2.59026
2.59699
2.60012
2.60024
2.59852
2.59084
2.57437
2.55305
2.53474
2.51877
2.50191
2.49102
2.47836
2.46902
2.45982
2.44858
2.43989
1
1
1
1
1
1.00002
1.00002
1.00009
1.00012
1.00049
1.00076
1.00298
1.00466
1.01832
1.03171
1.11189
1.28603
1.78069
2.31974
2.61751
2.63713
2.62546
2.60428
2.59213
2.58808
2.58751
2.58679
2.58601
2.58528
2.58483
2.58424
2.58418
2.5847
2.58717
2.59249
2.59641
2.59749
2.59674
2.59182
2.57812
2.55712
2.53651
2.51815
2.5
2.48624
2.47263
2.46148
2.45305
2.44387
2.43637
1
1
1
1
1
1.00002
1.00001
1.00008
1.00008
1.00044
1.00051
1.00223
1.00397
1.01227
1.02765
1.0768
1.23484
1.62994
2.19475
2.53726
2.61323
2.59609
2.58339
2.57226
2.56827
2.56749
2.56719
2.56699
2.56697
2.56765
2.56971
2.57194
2.5733
2.57385
2.57416
2.57387
2.57261
2.57095
2.56699
2.55741
2.54236
2.52586
2.51051
2.49544
2.48268
2.46961
2.45878
2.4478
2.43971
2.43136
1
1
1
1
1
1.00001
1.00001
1.00007
1.00007
1.0003
1.0005
1.00154
1.00328
1.00905
1.02182
1.05306
1.18899
1.46698
2.03025
2.50675
2.65143
2.62069
2.59742
2.57359
2.57012
2.57164
2.57417
2.57407
2.57348
2.57218
2.57258
2.57462
2.57626
2.5765
2.5758
2.57297
2.5671
2.55998
2.55221
2.54283
2.53286
2.52187
2.51072
2.49874
2.4883
2.47625
2.46629
2.45427
2.44581
2.43679
1
1
1
1
1
1
1
1
0.999998
1.00001
0.999938
1.00022
0.999576
1.00165
0.98878
1.02755
1.03133
1.59006
2.38487
2.51011
2.58476
2.567
2.5544
2.54914
2.55208
2.55989
2.56748
2.57152
2.57304
2.57568
2.58305
2.59238
2.59767
2.59868
2.59765
2.59127
2.57779
2.56543
2.55406
2.54343
2.53382
2.52474
2.51745
2.50942
2.50441
2.49563
2.49033
2.48002
2.47166
2.46337
1
1
1
1
1.00001
1.00001
1.00004
1.00004
1.00024
1.00029
1.00134
1.00194
1.00798
1.00602
1.04549
0.965032
1.138
1.30211
1.90368
2.43143
2.65346
2.64083
2.61908
2.59528
2.57858
2.57208
2.57092
2.57042
2.57067
2.57254
2.58018
2.59656
2.61138
2.61953
2.62106
2.61877
2.60698
2.58368
2.56279
2.54735
2.535
2.52459
2.51673
2.50908
2.50449
2.49793
2.49384
2.48823
2.48241
2.4778
1
1
1
1
1
1
1.00002
1.00002
1.00011
1.00012
1.00065
1.0007
1.00401
0.998018
1.03644
0.908167
1.09919
1.24126
1.85234
2.59262
2.64055
2.64009
2.62322
2.60412
2.59634
2.5935
2.58866
2.58515
2.58212
2.58192
2.58523
2.59789
2.61391
2.62344
2.62618
2.62538
2.61911
2.6016
2.57849
2.55674
2.53857
2.52445
2.51356
2.50388
2.49708
2.49022
2.48554
2.48037
2.47694
2.47354
1
1
1
1
1
1
1.00001
1.00001
1.00005
1.00008
1.00031
1.00031
1.00207
0.997093
1.03044
0.91239
1.0856
1.20387
1.79831
2.58834
2.64073
2.64517
2.62736
2.60653
2.60561
2.60795
2.61453
2.61614
2.61448
2.60675
2.59845
2.59783
2.60128
2.60622
2.60715
2.60641
2.60316
2.59329
2.57563
2.55755
2.54077
2.52596
2.51374
2.50282
2.49362
2.48507
2.47813
2.47146
2.46748
2.46341
1
1
1
1
1
1
1
0.999995
1
0.999979
1.00007
0.999755
1.00096
0.99585
1.02488
0.915605
1.07513
1.16578
1.7543
2.56141
2.64078
2.65223
2.63097
2.60246
2.59069
2.58798
2.58845
2.58812
2.58556
2.57939
2.57253
2.56727
2.56511
2.56632
2.57162
2.57568
2.57584
2.57446
2.56973
2.56018
2.54943
2.53875
2.52834
2.51771
2.50744
2.49711
2.48796
2.47901
2.47322
2.4677
1
1
1
1
1
1
1.00001
1.00001
1.00006
1.00007
1.00035
1.00043
1.00202
1.0031
1.01302
1.02121
1.07069
1.23111
1.61396
2.2224
2.61089
2.68007
2.65301
2.62148
2.60118
2.59768
2.59951
2.598
2.59183
2.57491
2.55925
2.54952
2.54572
2.54565
2.54852
2.55574
2.56288
2.56702
2.56747
2.56689
2.56517
2.56117
2.55689
2.55197
2.54623
2.53694
2.52732
2.51474
2.50572
2.49624
1
1
1
1
1
1
1
1.00001
1.00002
1.00002
1.00001
0.999814
0.999768
0.996483
1.00181
0.947577
1.05734
1.04104
1.72808
2.60123
2.6155
2.62926
2.60541
2.57784
2.57698
2.5822
2.59605
2.60481
2.60494
2.59828
2.5781
2.5589
2.54865
2.54541
2.54566
2.54866
2.55418
2.55838
2.56222
2.56471
2.56501
2.56465
2.56354
2.56126
2.55937
2.55585
2.5518
2.54215
2.53232
2.5199
1
1
1
1
1
1
1
1.00002
1.00002
1.0001
1.00014
1.00034
1.00075
0.999803
1.00188
0.9713
1.05326
1.04608
1.68033
2.55573
2.6202
2.63055
2.59452
2.54974
2.54443
2.54885
2.5641
2.57995
2.59365
2.59936
2.59921
2.5961
2.5896
2.58332
2.57775
2.57301
2.56955
2.56725
2.56457
2.56129
2.55962
2.55935
2.55913
2.55851
2.55761
2.556
2.55381
2.54825
2.53872
2.527
1
1
1
1
1
1.00001
1.00001
1.00004
1.00003
1.00023
1.0002
1.00124
1.00138
1.00558
1.0038
1.03051
0.970552
1.19715
1.51661
2.07188
2.58979
2.74696
2.72614
2.67926
2.6328
2.60192
2.59051
2.58893
2.59027
2.59437
2.60056
2.60672
2.61005
2.6105
2.60985
2.60737
2.60158
2.59268
2.5822
2.5719
2.56203
2.55312
2.54663
2.54262
2.54046
2.53954
2.53863
2.53676
2.53208
2.52394
1
1
1
1
1
1
1
1.00002
1.00003
1.00017
1.00016
1.00123
1.00144
1.00804
1.00144
1.05052
0.908169
1.14582
1.38249
1.99488
2.59994
2.80268
2.77797
2.72611
2.68239
2.64901
2.62302
2.60347
2.5896
2.5863
2.58681
2.5907
2.59667
2.59967
2.60008
2.59943
2.59672
2.59017
2.58142
2.57179
2.56229
2.55275
2.54445
2.53771
2.53288
2.52964
2.52755
2.52633
2.52411
2.52047
1
1
1
1
1
1
1
1.00002
1.00002
1.00013
1.00013
1.00093
1.00103
1.00616
0.999533
1.04606
0.902897
1.13271
1.32607
1.98067
2.63487
2.80384
2.77745
2.72818
2.68301
2.64373
2.61038
2.58601
2.56974
2.56567
2.56608
2.57059
2.57877
2.58463
2.58699
2.58681
2.58474
2.58025
2.57641
2.57296
2.56849
2.56451
2.56038
2.55494
2.5481
2.54096
2.53604
2.53114
2.52748
2.52409
1
1
1
1
1
1
1.00001
1.00001
1.00003
1.00009
1.00012
1.00056
1.00025
1.00296
1.00338
1.01545
1.02783
1.05739
1.49413
2.32411
2.53551
2.61512
2.64944
2.66255
2.67433
2.68049
2.67755
2.66183
2.63564
2.61491
2.59958
2.58974
2.58201
2.57338
2.56526
2.55923
2.55555
2.55418
2.55501
2.56014
2.57128
2.58182
2.58771
2.58907
2.58796
2.5815
2.5678
2.55162
2.53926
2.52739
1
1
1
1
1
1
1
1
1.00001
1.00005
1.00008
1.0005
1.00044
1.00409
0.997513
1.04121
0.901292
1.12038
1.28627
1.95753
2.65588
2.78081
2.7495
2.69902
2.66365
2.66047
2.66151
2.65914
2.65261
2.64201
2.62743
2.61201
2.59729
2.58366
2.57109
2.56101
2.55465
2.55178
2.55163
2.55487
2.56635
2.58218
2.59405
2.60025
2.60172
2.60001
2.59232
2.57321
2.55242
2.53453
1
1
1
1
1
1
1
1
1
1.00001
1.00001
1.00018
1.00008
1.00262
0.996265
1.03662
0.90189
1.10836
1.25724
1.92607
2.69765
2.82676
2.77101
2.69542
2.63493
2.617
2.61692
2.61921
2.62092
2.62465
2.63207
2.63718
2.63796
2.63703
2.63403
2.62757
2.61581
2.59974
2.5859
2.57919
2.57842
2.58037
2.58591
2.59108
2.59295
2.59217
2.58754
2.57469
2.55704
2.5427
1
1
1
1
1
1
1.00001
1.00001
1.00005
1.00004
1.00024
1.00024
1.00117
1.00176
1.00445
1.01105
1.03104
1.10073
1.33136
2.00959
2.43179
2.73855
2.7444
2.7331
2.71219
2.70158
2.69048
2.67745
2.65626
2.63515
2.62017
2.61126
2.60728
2.60639
2.60719
2.60835
2.6081
2.60696
2.60464
2.59968
2.5937
2.58791
2.58247
2.57524
2.56998
2.56488
2.55976
2.55207
2.54245
2.53235
1
1
1
1
1
1
1
1
1
0.999993
0.999958
0.999936
0.999371
1.00047
0.994399
1.0306
0.898276
1.10033
1.23789
1.90737
2.76819
2.8463
2.76207
2.70707
2.67015
2.65396
2.64862
2.64613
2.64203
2.6387
2.63814
2.63844
2.63835
2.63737
2.63234
2.62247
2.61506
2.61079
2.6087
2.60645
2.60289
2.59629
2.58738
2.57697
2.5675
2.55737
2.54902
2.53891
2.53113
2.52293
1
1
1
1
1
1
1
1
1.00001
1.00001
0.999991
1.00001
0.999545
1.00006
0.993475
1.02189
0.895076
1.09759
1.20947
1.87799
2.81889
2.86227
2.73823
2.67588
2.63075
2.608
2.6037
2.60425
2.60623
2.61152
2.62631
2.65006
2.66966
2.67944
2.68039
2.67343
2.6518
2.6274
2.61044
2.6004
2.59388
2.58756
2.58064
2.57236
2.5641
2.55462
2.54646
2.53626
2.52899
2.52059
1
1
1
1
1
1
1
1
1.00001
1.00002
1.00004
1.00009
0.999966
1.00023
0.996943
1.01184
0.918073
1.10149
1.15103
1.84206
2.82302
2.85466
2.73069
2.66936
2.6266
2.60324
2.59855
2.59941
2.60163
2.60675
2.62235
2.65143
2.6767
2.69058
2.69298
2.68584
2.65994
2.6263
2.59969
2.5805
2.56819
2.5607
2.55593
2.55181
2.5477
2.54258
2.53764
2.53153
2.52718
2.52155
1
1
1
1
1
1
1
1
1.00001
1.00002
1.00005
1.00013
1.00005
1.00034
0.997682
1.00768
0.938006
1.08637
1.10551
1.82087
2.79765
2.8263
2.72244
2.67246
2.62931
2.60926
2.60662
2.60807
2.61061
2.61613
2.63345
2.6641
2.68829
2.69928
2.69878
2.68421
2.64612
2.60789
2.58019
2.56265
2.55268
2.5476
2.54526
2.54421
2.54342
2.54215
2.54052
2.539
2.53851
2.53853
1
1
1
1
1
1
1.00001
1.00001
1.00004
1.00004
1.00024
1.0002
1.00124
1.0012
1.006
1.00744
1.03987
1.00907
1.24293
1.66916
2.26412
2.74323
2.82072
2.8066
2.76392
2.74331
2.71674
2.68299
2.63983
2.61178
2.60329
2.60799
2.62718
2.64368
2.64842
2.64654
2.63759
2.62577
2.61693
2.6087
2.60003
2.59115
2.58228
2.57383
2.56638
2.56086
2.55777
2.55663
2.55678
2.55772
1
1
1
1
1
1
1.00001
1.00001
1.00004
1.00004
1.00026
1.00021
1.00135
1.00136
1.00618
1.00715
1.02653
1.05216
1.18447
1.56
2.15288
2.68243
2.81611
2.80246
2.75549
2.72952
2.71731
2.68932
2.64751
2.61349
2.59585
2.59113
2.59411
2.61067
2.63605
2.65677
2.6719
2.68124
2.68458
2.68355
2.67341
2.64514
2.61054
2.58029
2.55674
2.54031
2.53042
2.52562
2.52469
2.52556
1
1
1
1
1
1
1.00001
1.00001
1.00004
1.00003
1.00019
1.00018
1.00102
1.00114
1.00538
1.00428
1.03121
1.05177
1.20519
1.64052
2.23461
2.65194
2.72533
2.71148
2.71158
2.71841
2.72016
2.70151
2.65562
2.6168
2.59104
2.5792
2.57807
2.58283
2.601
2.62956
2.65487
2.67271
2.68202
2.6843
2.68173
2.66661
2.63089
2.59202
2.5591
2.5336
2.51621
2.50557
2.50118
2.49934
1
1
1
1
1
1
1
1
1.00001
1.00001
1.00003
0.999933
1.00029
0.999399
0.995325
1.00883
0.920529
1.08421
1.10285
1.76934
2.70229
2.694
2.6614
2.59752
2.57213
2.57767
2.59617
2.61602
2.63928
2.66544
2.684
2.69163
2.69141
2.68163
2.65394
2.6272
2.61029
2.60219
2.59985
2.60014
2.60314
2.60543
2.60509
2.6028
2.59865
2.59418
2.5894
2.57873
2.56939
2.55758
1
1
1
1
1
1
1
1
1
1.00001
0.999992
1.00004
0.999498
0.999746
0.994128
1.01614
0.905946
1.08294
1.15325
1.76823
2.66644
2.68661
2.66892
2.61826
2.57985
2.58024
2.58792
2.60794
2.65339
2.70216
2.72978
2.73468
2.72741
2.69534
2.64514
2.60446
2.57641
2.55946
2.55152
2.54979
2.55149
2.56128
2.58409
2.60821
2.62669
2.63694
2.64005
2.63918
2.63288
2.61472
1
1
1
1
1
1
1
1
0.999997
0.999996
0.999927
1.00001
0.99915
0.999613
0.992773
1.01752
0.90316
1.07771
1.16546
1.77084
2.66216
2.70027
2.66836
2.59606
2.56361
2.56698
2.57967
2.60458
2.65085
2.69707
2.72435
2.72953
2.72257
2.69346
2.64754
2.60838
2.57918
2.55918
2.54757
2.5433
2.54362
2.55021
2.57174
2.60122
2.62393
2.63631
2.64
2.63867
2.62972
2.60651
2.1796
2.61657
2.62166
3.11029
3.31519
3.25323
3.24325
3.23005
3.23019
3.23434
3.23888
3.24008
3.24029
3.23933
3.2358
3.23067
3.22604
3.21995
3.21724
3.214
3.21021
3.20686
3.20297
3.19763
3.19325
3.18759
3.18217
3.17614
3.1684
3.164
3.15433
3.14768
3.1409
3.13291
3.12388
3.117
3.10509
3.09854
3.08575
3.07741
3.06625
3.0564
3.04463
3.03484
3.02316
3.01357
3.00068
2.99012
2.97694
2.96573
2.95205
2.94059
2.92698
2.91504
2.90161
2.88941
2.87592
2.86386
2.85025
2.83823
2.825
2.81277
2.80014
2.78783
2.77565
2.7636
2.75176
2.7401
2.72861
2.71736
2.70639
2.69557
2.68521
2.67496
2.66521
2.6557
2.64662
2.63794
2.62967
2.62193
2.61465
2.60794
2.60212
2.59664
2.59268
2.5894
2.58693
2.58427
2.58322
2.58206
2.58397
2.58593
2.59021
2.59289
2.59859
2.60134
2.60689
2.60853
2.61204
2.60684
2.20167
2.41316
2.47858
2.65768
2.76306
2.892
3.02358
3.11616
3.14417
3.18245
3.21769
3.22575
3.23946
3.29555
3.32581
3.32162
3.29537
3.23342
3.17919
3.1364
3.10416
3.076
3.05281
3.02978
3.00974
2.98774
2.96695
2.94441
2.92265
2.90025
2.87947
2.85865
2.84123
2.82469
2.81059
2.79807
2.78757
2.77862
2.77032
2.76383
2.75747
2.75265
2.74836
2.74523
2.74298
2.74047
2.73937
2.73723
2.7362
2.73372
2.7322
2.72861
2.72638
2.72125
2.71808
2.71113
2.70673
2.69784
2.69179
2.68164
2.67417
2.66297
2.65456
2.64273
2.63391
2.62192
2.61301
2.60133
2.59246
2.58141
2.57265
2.5625
2.55395
2.54485
2.53667
2.52867
2.52109
2.51408
2.50741
2.50127
2.49583
2.4906
2.48654
2.48291
2.48018
2.47898
2.47798
2.47725
2.47752
2.47821
2.48185
2.48476
2.49094
2.49468
2.50273
2.50693
2.51552
2.51884
2.52609
2.52352
2.26171
2.29009
2.35025
2.39901
2.44398
2.48578
2.51327
2.5541
2.58439
2.6136
2.63406
2.65339
2.65918
2.65657
2.64982
2.63663
2.62358
2.61139
2.59956
2.58857
2.57929
2.57233
2.56682
2.56208
2.55871
2.55705
2.5565
2.55631
2.55541
2.55126
2.54116
2.52826
2.51725
2.50773
2.50222
2.49625
2.49158
2.48506
2.47927
2.47169
2.46422
2.45476
2.44497
2.43387
2.42274
2.41129
2.40038
2.3896
2.38002
2.37063
2.36268
2.35493
2.34857
2.34242
2.33758
2.33292
2.32915
2.32551
2.32215
2.31876
2.31518
2.31146
2.30739
2.30309
2.29857
2.29368
2.28877
2.28344
2.27819
2.27256
2.26703
2.26119
2.25549
2.24957
2.24386
2.23803
2.23248
2.22696
2.22174
2.2168
2.21221
2.20803
2.20444
2.20144
2.19903
2.19788
2.197
2.19591
2.19582
2.19616
2.1983
2.20024
2.20441
2.20703
2.21263
2.21554
2.22136
2.22362
2.22875
2.22622
2.30733
2.27853
2.28865
2.30484
2.31848
2.33269
2.3449
2.35663
2.36728
2.37811
2.38381
2.38862
2.38969
2.38896
2.38727
2.38416
2.38054
2.37641
2.37222
2.36847
2.36512
2.36217
2.35936
2.35689
2.35463
2.35248
2.35045
2.34852
2.34667
2.34541
2.34472
2.34477
2.34636
2.35132
2.35775
2.36433
2.37013
2.3738
2.37585
2.37691
2.3771
2.37674
2.37466
2.36967
2.36095
2.35175
2.3402
2.32829
2.31517
2.30237
2.28964
2.2776
2.26626
2.25567
2.2459
2.23672
2.22808
2.21984
2.21179
2.20414
2.19662
2.18951
2.18257
2.17607
2.16976
2.16387
2.15819
2.15282
2.14773
2.14285
2.13814
2.13376
2.12937
2.12537
2.12138
2.11763
2.11412
2.11065
2.10758
2.10456
2.10187
2.09956
2.09737
2.0961
2.09497
2.09506
2.09536
2.09577
2.09686
2.09809
2.10164
2.10421
2.10964
2.11289
2.11955
2.12321
2.13028
2.1334
2.14018
2.13928
2.33663
2.28716
2.275
2.26381
2.2631
2.26106
2.26127
2.26243
2.26497
2.26903
2.27125
2.27083
2.26965
2.26779
2.26577
2.26361
2.26202
2.26129
2.26101
2.26088
2.26131
2.26239
2.26249
2.26326
2.26417
2.26421
2.26388
2.26292
2.26135
2.26017
2.25953
2.25905
2.25834
2.25772
2.25745
2.25763
2.25858
2.25891
2.25882
2.25853
2.25773
2.25625
2.25372
2.25104
2.24742
2.24395
2.23997
2.23609
2.23177
2.22698
2.22172
2.21579
2.20958
2.2028
2.19587
2.18867
2.18149
2.17423
2.1671
2.15996
2.15299
2.14604
2.13923
2.13255
2.12594
2.11953
2.11323
2.10714
2.10122
2.09549
2.08998
2.08467
2.07964
2.07479
2.07024
2.06596
2.06201
2.05827
2.05508
2.05193
2.04938
2.04721
2.04519
2.04409
2.04325
2.04337
2.04371
2.04412
2.04519
2.0463
2.0494
2.05161
2.05633
2.05924
2.06533
2.06875
2.07567
2.07916
2.08634
2.08738
2.3387
2.31568
2.28259
2.26237
2.24613
2.23602
2.22529
2.22177
2.2168
2.21664
2.21614
2.21594
2.21506
2.21278
2.21052
2.20898
2.20743
2.20634
2.20599
2.20594
2.20605
2.20643
2.20662
2.20745
2.2081
2.20882
2.20924
2.20915
2.20878
2.20794
2.20695
2.20627
2.20617
2.2067
2.20822
2.20966
2.21156
2.2129
2.21322
2.21313
2.21271
2.21171
2.2098
2.20719
2.20382
2.19954
2.19475
2.18932
2.18375
2.17783
2.17168
2.16525
2.15855
2.15158
2.14446
2.13707
2.12965
2.12211
2.11459
2.10714
2.09983
2.09263
2.0857
2.079
2.07248
2.0663
2.06034
2.05462
2.04917
2.04397
2.03905
2.03439
2.02991
2.02571
2.02174
2.01802
2.01445
2.01132
2.00816
2.00564
2.00318
2.00125
1.99972
1.9986
1.99826
1.99848
1.99904
1.99959
2.00098
2.00222
2.00538
2.00749
2.01196
2.01465
2.02014
2.02323
2.02943
2.03277
2.0395
2.04061
2.33657
2.32133
2.30158
2.27328
2.24889
2.23125
2.21651
2.20591
2.19885
2.19482
2.19357
2.19095
2.19061
2.18934
2.18714
2.18454
2.1835
2.18236
2.18171
2.18163
2.18177
2.1821
2.18261
2.18281
2.18255
2.18186
2.18009
2.17826
2.17678
2.17497
2.17307
2.17178
2.17157
2.17286
2.17645
2.18032
2.18421
2.18706
2.18799
2.18795
2.18754
2.18637
2.18407
2.18108
2.17745
2.1735
2.16916
2.16469
2.15989
2.1548
2.14926
2.14333
2.1369
2.1301
2.12296
2.11544
2.10782
2.09989
2.09199
2.08403
2.07608
2.0683
2.06056
2.05304
2.04567
2.03851
2.0316
2.02495
2.01858
2.01246
2.00676
2.00125
1.99625
1.99154
1.98713
1.98328
1.97946
1.97635
1.9733
1.97085
1.96865
1.96692
1.96567
1.96474
1.96463
1.96484
1.96533
1.96579
1.96694
1.9679
1.97035
1.97188
1.97505
1.97698
1.9809
1.98321
1.98776
1.99035
1.99597
1.99624
2.33773
2.32892
2.31664
2.29496
2.26708
2.24195
2.22087
2.20569
2.19433
2.18712
2.18264
2.18075
2.17945
2.17864
2.17833
2.17679
2.17512
2.17418
2.17371
2.17382
2.17424
2.17533
2.17587
2.17553
2.17372
2.16867
2.16415
2.15983
2.15555
2.15251
2.15102
2.15116
2.15312
2.15857
2.16437
2.16976
2.17468
2.17765
2.17833
2.17816
2.17746
2.17574
2.17301
2.16952
2.16564
2.16113
2.15631
2.15098
2.14517
2.13892
2.13198
2.12451
2.11645
2.10785
2.09892
2.08962
2.08016
2.07069
2.06126
2.05206
2.04316
2.0345
2.02631
2.01832
2.01091
2.00366
1.99699
1.99052
1.98459
1.97894
1.97364
1.96882
1.96416
1.96006
1.95609
1.9526
1.94935
1.94645
1.94397
1.94166
1.93999
1.93841
1.93754
1.9368
1.93685
1.93708
1.93756
1.93798
1.93901
1.93982
1.94168
1.94289
1.94511
1.94661
1.94915
1.95092
1.95395
1.95584
1.96019
1.95971
2.34545
2.33641
2.32905
2.31666
2.29553
2.26938
2.24391
2.22193
2.20456
2.19196
2.18309
2.1769
2.17384
2.17338
2.17382
2.17417
2.17475
2.17599
2.17706
2.17958
2.18195
2.18318
2.18268
2.17935
2.17092
2.1607
2.15194
2.14694
2.14311
2.14154
2.14179
2.14372
2.1491
2.156
2.16219
2.16789
2.17216
2.17397
2.174
2.17348
2.17193
2.16905
2.16537
2.16096
2.15581
2.14997
2.1435
2.1363
2.12849
2.11992
2.1109
2.10139
2.09146
2.08121
2.07061
2.05995
2.04935
2.03894
2.02889
2.01924
2.01007
2.00143
1.99335
1.98578
1.97874