/*--------------------------------*- C++ -*----------------------------------*\
| =========                 |                                                 |
| \\      /  F ield         | OpenFOAM: The Open Source CFD Toolbox           |
|  \\    /   O peration     | Version:  2412                                  |
|   \\  /    A nd           | Website:  www.openfoam.com                      |
|    \\/     M anipulation  |                                                 |
\*---------------------------------------------------------------------------*/
FoamFile
{
    version     2.0;
    format      ascii;
    arch        "LSB;label=32;scalar=64";
    class       volVectorField;
    location    "6.5";
    object      U;
}
// * * * * * * * * * * * * * * * * * * * * * * * * * * * * * * * * * * * * * //

dimensions      [0 1 -1 0 0 0 0];

internalField   nonuniform List<vector> 
7000
(
(3 4.43916e-08 0)
(3 -7.1615e-07 0)
(3 -2.20469e-06 0)
(3 -7.65926e-06 0)
(3 -1.89444e-05 0)
(3.00002 -3.10505e-05 0)
(3.00016 -5.02791e-05 0)
(2.99868 -8.90189e-05 0)
(2.99541 5.62582e-06 0)
(2.99507 0.000248193 0)
(2.9903 0.000299678 0)
(2.97413 0.000109002 0)
(2.97922 9.99542e-05 0)
(2.73492 0.000210611 0)
(2.14012 0.000729484 0)
(1.28952 0.00196554 0)
(0.532065 0.00265865 0)
(0.620341 0.00338251 0)
(0.713878 0.00367391 0)
(0.756677 0.00389132 0)
(0.754599 0.00409641 0)
(0.733977 0.00439153 0)
(0.702687 0.00479562 0)
(0.672889 0.00540457 0)
(0.64777 0.00614056 0)
(0.62332 0.00683592 0)
(0.5982 0.00743088 0)
(0.572539 0.0077081 0)
(0.546472 0.00762329 0)
(0.521689 0.00723033 0)
(0.498428 0.00662738 0)
(0.47651 0.0060443 0)
(0.456443 0.00560682 0)
(0.438128 0.00544635 0)
(0.419775 0.00555907 0)
(0.399814 0.00593754 0)
(0.378615 0.00649123 0)
(0.355776 0.0071109 0)
(0.331874 0.00777193 0)
(0.307876 0.0081373 0)
(0.283212 0.00836972 0)
(0.257075 0.00837314 0)
(0.230086 0.00836852 0)
(0.203656 0.00846569 0)
(0.176626 0.00882224 0)
(0.147585 0.00951622 0)
(0.116984 0.0103929 0)
(0.0854382 0.0111112 0)
(0.0507722 0.0115383 0)
(0.0217514 0.0121549 0)
(3 4.92707e-08 0)
(3 -1.68555e-06 0)
(3 -4.42769e-06 0)
(2.99999 -1.68969e-05 0)
(2.99998 -3.5655e-05 0)
(3 -9.37976e-05 0)
(3.00013 -0.000176251 0)
(2.99871 -0.000320474 0)
(2.99561 -0.00014251 0)
(2.99524 0.000167731 0)
(2.99022 0.000435811 0)
(2.97403 0.000604743 0)
(2.97928 0.000878195 0)
(2.73532 0.00151035 0)
(2.1413 0.00223503 0)
(1.29061 0.00597976 0)
(0.532081 0.00806549 0)
(0.620263 0.0101911 0)
(0.713608 0.0109556 0)
(0.756311 0.0115496 0)
(0.754087 0.0121012 0)
(0.733247 0.0127531 0)
(0.701737 0.0135671 0)
(0.671871 0.0146713 0)
(0.646936 0.0159212 0)
(0.623153 0.016991 0)
(0.599227 0.0178944 0)
(0.575138 0.018356 0)
(0.550816 0.0183487 0)
(0.527561 0.0179616 0)
(0.505331 0.0173431 0)
(0.48381 0.0166524 0)
(0.46357 0.0161007 0)
(0.444786 0.0158579 0)
(0.425988 0.0159869 0)
(0.405837 0.0165529 0)
(0.384774 0.0175113 0)
(0.362447 0.0187282 0)
(0.339137 0.0201689 0)
(0.315645 0.0212432 0)
(0.291178 0.022144 0)
(0.264529 0.0226269 0)
(0.236106 0.0229786 0)
(0.207393 0.0232809 0)
(0.177825 0.0237503 0)
(0.146676 0.0245555 0)
(0.114976 0.025525 0)
(0.0834267 0.0262847 0)
(0.0492118 0.0266779 0)
(0.0206326 0.0270973 0)
(3 2.2041e-08 0)
(3 -1.78398e-06 0)
(2.99999 -3.14396e-06 0)
(2.99999 -1.61767e-05 0)
(2.99995 -2.98251e-05 0)
(2.99994 -0.000123896 0)
(3.00002 -0.0002745 0)
(2.9987 -0.00117731 0)
(2.99571 6.50296e-05 0)
(2.99541 -0.000337051 0)
(2.99058 0.000229388 0)
(2.97441 0.00101776 0)
(2.9797 0.00180549 0)
(2.73557 0.00327484 0)
(2.14335 0.00395742 0)
(1.2932 0.0104022 0)
(0.532445 0.0140061 0)
(0.62043 0.0174498 0)
(0.713491 0.0185436 0)
(0.756381 0.0195778 0)
(0.754368 0.0207096 0)
(0.733748 0.0220087 0)
(0.702451 0.0236272 0)
(0.672682 0.0256347 0)
(0.647561 0.0278174 0)
(0.623354 0.0296666 0)
(0.598822 0.0310934 0)
(0.573949 0.0317865 0)
(0.548854 0.0316667 0)
(0.525037 0.0308824 0)
(0.502543 0.0297729 0)
(0.481127 0.0285129 0)
(0.461352 0.0275287 0)
(0.443212 0.027066 0)
(0.425114 0.0272857 0)
(0.405672 0.0282337 0)
(0.385293 0.0298609 0)
(0.363657 0.0319693 0)
(0.340949 0.0343656 0)
(0.317986 0.036478 0)
(0.293979 0.0383139 0)
(0.267589 0.0396842 0)
(0.239083 0.040782 0)
(0.209822 0.0416878 0)
(0.179419 0.0426178 0)
(0.147379 0.0437664 0)
(0.114991 0.0449467 0)
(0.0831326 0.0458105 0)
(0.048844 0.0462772 0)
(0.020174 0.0467536 0)
(3 2.62297e-08 0)
(3 -1.18669e-06 0)
(2.99999 -1.474e-06 0)
(2.99998 -9.41527e-06 0)
(2.99992 -1.96226e-05 0)
(2.99985 -7.49912e-05 0)
(2.99946 -0.000165026 0)
(2.99893 -0.000967291 0)
(2.99614 0.000196245 0)
(2.99534 0.000208034 0)
(2.99105 0.000710634 0)
(2.97498 0.00113841 0)
(2.98053 0.00201159 0)
(2.73611 0.00398996 0)
(2.14641 0.00525148 0)
(1.29738 0.0147124 0)
(0.533697 0.0200666 0)
(0.621151 0.0248814 0)
(0.713558 0.026206 0)
(0.756705 0.0275872 0)
(0.75498 0.0292194 0)
(0.734709 0.0310893 0)
(0.703882 0.0334121 0)
(0.674617 0.0362666 0)
(0.649876 0.0393473 0)
(0.625981 0.0420191 0)
(0.601761 0.0440617 0)
(0.577129 0.0450462 0)
(0.552251 0.0448916 0)
(0.528654 0.0437932 0)
(0.50629 0.0421666 0)
(0.484857 0.0403884 0)
(0.464911 0.0389866 0)
(0.44643 0.0383212 0)
(0.42789 0.0386099 0)
(0.408011 0.039897 0)
(0.3873 0.0420969 0)
(0.365511 0.0449818 0)
(0.34278 0.0482766 0)
(0.319939 0.051386 0)
(0.296202 0.0542466 0)
(0.270126 0.0566635 0)
(0.241827 0.0587199 0)
(0.212516 0.0604274 0)
(0.181838 0.0619537 0)
(0.14934 0.0634702 0)
(0.11639 0.0647929 0)
(0.0840268 0.0656584 0)
(0.0492969 0.0661335 0)
(0.0201394 0.0665883 0)
(3 4.71361e-08 0)
(3 -4.2489e-07 0)
(2.99998 -8.05204e-07 0)
(2.99997 -3.20654e-06 0)
(2.99991 -5.85593e-06 0)
(2.99984 -1.58097e-05 0)
(2.99946 -1.94576e-05 0)
(2.99893 -1.21574e-05 0)
(2.99647 -2.37814e-06 0)
(2.99575 0.000679207 0)
(2.99116 0.000880123 0)
(2.97526 0.00128393 0)
(2.98137 0.00227217 0)
(2.73714 0.00461874 0)
(2.15156 0.00634378 0)
(1.30382 0.0189895 0)
(0.535157 0.0263577 0)
(0.621674 0.0326844 0)
(0.713159 0.0342066 0)
(0.756608 0.035912 0)
(0.754959 0.0380823 0)
(0.734577 0.040598 0)
(0.703633 0.0437201 0)
(0.674252 0.0474464 0)
(0.649362 0.0513947 0)
(0.62545 0.0548171 0)
(0.601403 0.0574038 0)
(0.577055 0.0585777 0)
(0.552595 0.0583419 0)
(0.52947 0.0569511 0)
(0.507542 0.0549183 0)
(0.486477 0.0527665 0)
(0.46681 0.051121 0)
(0.448502 0.0503979 0)
(0.430064 0.0508208 0)
(0.410253 0.0524628 0)
(0.389601 0.0551913 0)
(0.367905 0.0587625 0)
(0.345228 0.0628754 0)
(0.322471 0.0668643 0)
(0.298934 0.0707089 0)
(0.273117 0.0741672 0)
(0.245032 0.0772657 0)
(0.215758 0.0798836 0)
(0.184966 0.0821275 0)
(0.152153 0.0840967 0)
(0.118662 0.0855872 0)
(0.0856655 0.0864173 0)
(0.0502585 0.086824 0)
(0.0203592 0.0871702 0)
(3 2.05085e-08 0)
(3 -1.26913e-07 0)
(2.99998 -5.81304e-08 0)
(2.99997 -1.29148e-07 0)
(2.99991 2.25876e-06 0)
(2.99984 3.57608e-06 0)
(2.99947 4.9682e-06 0)
(2.99894 5.39388e-05 0)
(2.9966 9.50901e-05 0)
(2.99592 0.000526627 0)
(2.99146 0.000792696 0)
(2.97598 0.0015473 0)
(2.98258 0.00280026 0)
(2.73826 0.00582504 0)
(2.15828 0.00712658 0)
(1.31294 0.0231402 0)
(0.537871 0.0329508 0)
(0.622659 0.0408914 0)
(0.71273 0.0426631 0)
(0.756628 0.0446787 0)
(0.755145 0.0474041 0)
(0.734659 0.0506307 0)
(0.703526 0.054656 0)
(0.673868 0.059296 0)
(0.64859 0.0641241 0)
(0.624352 0.0682347 0)
(0.600098 0.0712899 0)
(0.575639 0.0725803 0)
(0.551251 0.0721701 0)
(0.528342 0.0703991 0)
(0.506723 0.0679037 0)
(0.486068 0.0653015 0)
(0.466919 0.0633514 0)
(0.449168 0.0625465 0)
(0.431323 0.0631222 0)
(0.412115 0.0651817 0)
(0.392018 0.0685342 0)
(0.370816 0.0728861 0)
(0.348431 0.0779032 0)
(0.32585 0.0828216 0)
(0.302505 0.0877026 0)
(0.276871 0.0922445 0)
(0.248908 0.096495 0)
(0.219602 0.100138 0)
(0.188687 0.103245 0)
(0.155574 0.105816 0)
(0.121513 0.107596 0)
(0.0877959 0.108459 0)
(0.0515504 0.108803 0)
(0.0207444 0.109009 0)
(3 -5.01008e-08 0)
(3 1.45938e-07 0)
(2.99998 4.29321e-07 0)
(2.99998 2.077e-06 0)
(2.99991 4.44442e-06 0)
(2.99985 1.48112e-05 0)
(2.99949 2.29046e-05 0)
(2.99899 9.33607e-05 0)
(2.99679 0.000178533 0)
(2.99624 0.000567785 0)
(2.99187 0.00100971 0)
(2.9767 0.00178821 0)
(2.98407 0.00312746 0)
(2.73916 0.00651819 0)
(2.16679 0.00796577 0)
(1.325 0.0271175 0)
(0.541412 0.0398254 0)
(0.624107 0.0494838 0)
(0.712439 0.0517161 0)
(0.756932 0.0539803 0)
(0.75579 0.0572954 0)
(0.73541 0.0613518 0)
(0.704317 0.06637 0)
(0.674566 0.071998 0)
(0.648994 0.0777129 0)
(0.624425 0.0824633 0)
(0.59987 0.0858547 0)
(0.575119 0.0871379 0)
(0.550639 0.0864113 0)
(0.527827 0.0841348 0)
(0.506447 0.081068 0)
(0.48618 0.0779384 0)
(0.467558 0.0756319 0)
(0.450375 0.0747214 0)
(0.433148 0.0754709 0)
(0.4146 0.0779997 0)
(0.395139 0.0820599 0)
(0.374529 0.0872956 0)
(0.352492 0.0933071 0)
(0.330096 0.0992611 0)
(0.306914 0.105256 0)
(0.281409 0.110966 0)
(0.253475 0.116471 0)
(0.224023 0.121263 0)
(0.192929 0.12537 0)
(0.159482 0.128694 0)
(0.1248 0.130917 0)
(0.0902824 0.131932 0)
(0.0530811 0.132281 0)
(0.0212384 0.132382 0)
(3 -9.65997e-08 0)
(3 4.05138e-07 0)
(2.99999 6.32599e-07 0)
(2.99998 3.22626e-06 0)
(2.99992 5.625e-06 0)
(2.99985 2.06023e-05 0)
(2.99952 3.19846e-05 0)
(2.99905 0.000122741 0)
(2.99694 0.000218277 0)
(2.99652 0.000634421 0)
(2.99235 0.00112629 0)
(2.97756 0.00183043 0)
(2.98566 0.00319512 0)
(2.74024 0.00614186 0)
(2.17782 0.0104448 0)
(1.33993 0.0312636 0)
(0.547217 0.0468451 0)
(0.626757 0.0584743 0)
(0.712533 0.0611047 0)
(0.757527 0.0633 0)
(0.756938 0.0671279 0)
(0.736846 0.0720872 0)
(0.705968 0.0782119 0)
(0.676317 0.0850332 0)
(0.650659 0.091835 0)
(0.625947 0.0974444 0)
(0.60124 0.101209 0)
(0.576282 0.102443 0)
(0.551708 0.101301 0)
(0.528928 0.098382 0)
(0.50766 0.0945798 0)
(0.48762 0.0907942 0)
(0.469358 0.0880335 0)
(0.452578 0.0869603 0)
(0.435836 0.087872 0)
(0.417859 0.0909083 0)
(0.398991 0.0957491 0)
(0.378965 0.101974 0)
(0.357281 0.109085 0)
(0.335079 0.116219 0)
(0.31205 0.12343 0)
(0.286654 0.130426 0)
(0.258705 0.137266 0)
(0.229034 0.143336 0)
(0.197699 0.148579 0)
(0.163864 0.152809 0)
(0.128497 0.155643 0)
(0.0930988 0.156972 0)
(0.0548359 0.157432 0)
(0.0218491 0.157482 0)
(3 -4.62998e-09 0)
(3 6.40651e-07 0)
(2.99999 1.23051e-06 0)
(2.99998 4.31173e-06 0)
(2.99992 6.65952e-06 0)
(2.99987 2.46414e-05 0)
(2.99957 3.46481e-05 0)
(2.99913 0.000143577 0)
(2.99718 0.000220394 0)
(2.99691 0.000762565 0)
(2.99277 0.00105932 0)
(2.97831 0.0018244 0)
(2.98701 0.00330077 0)
(2.7427 0.00556403 0)
(2.19185 0.0138973 0)
(1.35714 0.0359355 0)
(0.554927 0.0559979 0)
(0.630509 0.0670065 0)
(0.712411 0.0699725 0)
(0.75744 0.0727304 0)
(0.757269 0.0774654 0)
(0.737164 0.0835163 0)
(0.706259 0.0907968 0)
(0.676681 0.0988073 0)
(0.651211 0.106665 0)
(0.626836 0.113026 0)
(0.602579 0.117153 0)
(0.578125 0.118251 0)
(0.554138 0.11661 0)
(0.531931 0.112997 0)
(0.511142 0.108399 0)
(0.49151 0.103928 0)
(0.473579 0.100691 0)
(0.457013 0.0994346 0)
(0.440481 0.100495 0)
(0.422775 0.104054 0)
(0.404214 0.109717 0)
(0.384544 0.117 0)
(0.36306 0.125307 0)
(0.340944 0.133752 0)
(0.318005 0.142294 0)
(0.292686 0.1507 0)
(0.264691 0.158979 0)
(0.234756 0.166452 0)
(0.203119 0.172974 0)
(0.168832 0.178279 0)
(0.132695 0.181929 0)
(0.0963047 0.183752 0)
(0.0568433 0.184459 0)
(0.0225585 0.184528 0)
(3 4.11032e-08 0)
(3 9.90066e-07 0)
(2.99999 1.75143e-06 0)
(2.99998 6.64818e-06 0)
(2.99993 1.10793e-05 0)
(2.99988 3.65451e-05 0)
(2.99962 6.90112e-05 0)
(2.99919 0.000490087 0)
(2.99742 0.000105846 0)
(2.99716 0.000723133 0)
(2.99316 0.000880994 0)
(2.97937 0.00188176 0)
(2.98838 0.00360818 0)
(2.74666 0.00568022 0)
(2.20889 0.0164749 0)
(1.37751 0.0397409 0)
(0.564367 0.0678387 0)
(0.633785 0.0753918 0)
(0.713179 0.0781995 0)
(0.758654 0.0819874 0)
(0.758899 0.0878957 0)
(0.738616 0.0951673 0)
(0.707406 0.103688 0)
(0.677605 0.112908 0)
(0.652046 0.121762 0)
(0.627964 0.128769 0)
(0.604299 0.133181 0)
(0.580574 0.134046 0)
(0.557551 0.131848 0)
(0.536293 0.12756 0)
(0.516298 0.122236 0)
(0.497311 0.117191 0)
(0.47983 0.113609 0)
(0.463485 0.112269 0)
(0.447103 0.113542 0)
(0.429549 0.11767 0)
(0.411122 0.124188 0)
(0.391627 0.13257 0)
(0.370193 0.14213 0)
(0.348037 0.151955 0)
(0.325096 0.161931 0)
(0.299808 0.17186 0)
(0.27172 0.181707 0)
(0.241458 0.190734 0)
(0.209441 0.198706 0)
(0.174619 0.205283 0)
(0.137591 0.209975 0)
(0.100038 0.212507 0)
(0.0591833 0.213623 0)
(0.0234249 0.2138 0)
(3 -1.66424e-08 0)
(3 4.86317e-07 0)
(2.99999 1.01225e-06 0)
(2.99999 3.9041e-06 0)
(2.99995 6.48925e-06 0)
(2.99991 2.13166e-05 0)
(2.99994 3.92089e-05 0)
(2.99916 0.000125362 0)
(2.99735 0.000222403 0)
(2.99753 0.000612976 0)
(2.99368 0.00107866 0)
(2.98057 0.0021214 0)
(2.98995 0.00398853 0)
(2.75118 0.00621421 0)
(2.22756 0.0181431 0)
(1.40344 0.0433804 0)
(0.576791 0.0793211 0)
(0.635691 0.0846927 0)
(0.713677 0.0871303 0)
(0.759973 0.0918805 0)
(0.760459 0.0990615 0)
(0.739769 0.107656 0)
(0.70806 0.117476 0)
(0.677865 0.127852 0)
(0.652137 0.137455 0)
(0.62837 0.144949 0)
(0.605334 0.149273 0)
(0.582465 0.149671 0)
(0.560659 0.146789 0)
(0.540619 0.141831 0)
(0.521705 0.135856 0)
(0.503696 0.130393 0)
(0.486973 0.126634 0)
(0.47112 0.125363 0)
(0.45514 0.126961 0)
(0.437931 0.13176 0)
(0.419733 0.139206 0)
(0.40043 0.148748 0)
(0.379006 0.15964 0)
(0.356747 0.170932 0)
(0.333748 0.182444 0)
(0.308446 0.193998 0)
(0.280218 0.205548 0)
(0.249553 0.216301 0)
(0.217044 0.22593 0)
(0.18156 0.234036 0)
(0.143464 0.240051 0)
(0.104517 0.243538 0)
(0.0619957 0.245289 0)
(0.0244608 0.245687 0)
(3 -4.44216e-09 0)
(3 1.71954e-07 0)
(2.99999 5.92377e-07 0)
(2.99999 1.85883e-06 0)
(2.99995 2.70305e-06 0)
(2.9999 1.15591e-05 0)
(2.99969 1.12872e-05 0)
(2.99935 -0.000208819 0)
(2.99784 0.000382593 0)
(2.99787 0.000828469 0)
(2.99441 0.00142008 0)
(2.98187 0.00240331 0)
(2.99166 0.00431421 0)
(2.75638 0.00657708 0)
(2.24964 0.0197485 0)
(1.43455 0.0473546 0)
(0.592312 0.0896399 0)
(0.637462 0.0938413 0)
(0.71465 0.0965545 0)
(0.762105 0.102381 0)
(0.762709 0.110912 0)
(0.741362 0.120942 0)
(0.708922 0.132136 0)
(0.678059 0.143664 0)
(0.651987 0.153838 0)
(0.62834 0.161559 0)
(0.605672 0.165389 0)
(0.583554 0.165035 0)
(0.562965 0.161287 0)
(0.544224 0.155554 0)
(0.526584 0.148973 0)
(0.509894 0.143203 0)
(0.494315 0.139413 0)
(0.47936 0.13838 0)
(0.464212 0.140475 0)
(0.447724 0.14612 0)
(0.430017 0.15465 0)
(0.411087 0.165476 0)
(0.389786 0.177836 0)
(0.367459 0.190753 0)
(0.344391 0.203943 0)
(0.319063 0.217252 0)
(0.29067 0.230644 0)
(0.259523 0.243316 0)
(0.226401 0.25485 0)
(0.190106 0.264796 0)
(0.150709 0.272493 0)
(0.110046 0.27729 0)
(0.0654916 0.279943 0)
(0.0257948 0.280714 0)
(3 -4.26524e-08 0)
(3 5.1292e-07 0)
(2.99999 1.0518e-06 0)
(2.99999 4.26494e-06 0)
(2.99996 7.16644e-06 0)
(2.99992 2.58352e-05 0)
(2.99976 4.27982e-05 0)
(2.99948 0.000150331 0)
(2.99825 0.000302056 0)
(2.99843 0.000930931 0)
(2.99502 0.00146719 0)
(2.98315 0.00251047 0)
(2.9934 0.00450827 0)
(2.76231 0.00674551 0)
(2.27419 0.0212479 0)
(1.4708 0.0500862 0)
(0.610361 0.0991774 0)
(0.638724 0.103288 0)
(0.715678 0.106868 0)
(0.763897 0.113888 0)
(0.764278 0.123909 0)
(0.742038 0.135455 0)
(0.708805 0.148002 0)
(0.677307 0.160559 0)
(0.651076 0.171174 0)
(0.627716 0.17869 0)
(0.605534 0.181633 0)
(0.5844 0.18017 0)
(0.565225 0.175298 0)
(0.547983 0.168588 0)
(0.531848 0.161358 0)
(0.516704 0.155316 0)
(0.502497 0.151593 0)
(0.488674 0.150958 0)
(0.474633 0.15377 0)
(0.459136 0.160465 0)
(0.442119 0.170301 0)
(0.423756 0.182619 0)
(0.402771 0.196647 0)
(0.380497 0.21142 0)
(0.357412 0.226481 0)
(0.332089 0.241751 0)
(0.303556 0.257132 0)
(0.271894 0.271979 0)
(0.238053 0.28574 0)
(0.200799 0.297922 0)
(0.159842 0.307754 0)
(0.117071 0.314333 0)
(0.0699582 0.318288 0)
(0.0274965 0.319639 0)
(3 -2.06097e-08 0)
(3 6.26167e-07 0)
(2.99999 1.20194e-06 0)
(2.99999 4.8139e-06 0)
(2.99997 8.53594e-06 0)
(2.99993 2.57297e-05 0)
(2.9998 4.21183e-05 0)
(2.99958 0.000141166 0)
(2.99853 0.000278408 0)
(2.99891 0.000897182 0)
(2.99581 0.00144926 0)
(2.98468 0.00259448 0)
(2.99532 0.00465458 0)
(2.769 0.00682602 0)
(2.301 0.0223661 0)
(1.51172 0.0522337 0)
(0.631924 0.107362 0)
(0.640761 0.113157 0)
(0.717266 0.117863 0)
(0.766274 0.126458 0)
(0.766124 0.138308 0)
(0.742442 0.15154 0)
(0.708059 0.165411 0)
(0.675902 0.178708 0)
(0.64969 0.189424 0)
(0.626913 0.196187 0)
(0.605739 0.197761 0)
(0.586173 0.194789 0)
(0.568871 0.188538 0)
(0.553466 0.18072 0)
(0.539083 0.172812 0)
(0.525597 0.166567 0)
(0.512775 0.163033 0)
(0.500075 0.162955 0)
(0.487132 0.166701 0)
(0.472641 0.174606 0)
(0.45636 0.185974 0)
(0.438657 0.200039 0)
(0.418183 0.215959 0)
(0.396129 0.232905 0)
(0.373141 0.250069 0)
(0.347887 0.267562 0)
(0.319305 0.285131 0)
(0.287236 0.302471 0)
(0.252636 0.318878 0)
(0.214308 0.333809 0)
(0.171549 0.346409 0)
(0.126195 0.355459 0)
(0.0758491 0.361264 0)
(0.0298297 0.363546 0)
(3 1.15099e-08 0)
(3 6.21067e-07 0)
(3 1.32737e-06 0)
(3 4.45292e-06 0)
(2.99998 7.40274e-06 0)
(2.99995 2.5115e-05 0)
(2.99986 3.86098e-05 0)
(2.99969 0.000129418 0)
(2.99895 0.000262971 0)
(2.99952 0.00104455 0)
(2.99658 0.0015196 0)
(2.9862 0.00259933 0)
(2.99719 0.00466556 0)
(2.77625 0.00673952 0)
(2.33006 0.0230632 0)
(1.55706 0.0539364 0)
(0.656152 0.114295 0)
(0.642472 0.122584 0)
(0.717647 0.129392 0)
(0.767192 0.140396 0)
(0.765997 0.154513 0)
(0.740492 0.169649 0)
(0.704975 0.184679 0)
(0.672674 0.19806 0)
(0.647301 0.208212 0)
(0.625936 0.213384 0)
(0.606645 0.212988 0)
(0.589478 0.208117 0)
(0.574645 0.200395 0)
(0.561449 0.191521 0)
(0.549054 0.183115 0)
(0.537312 0.176877 0)
(0.525832 0.173745 0)
(0.514181 0.174428 0)
(0.502218 0.179288 0)
(0.48864 0.188551 0)
(0.473087 0.201618 0)
(0.456053 0.217645 0)
(0.436284 0.235705 0)
(0.414635 0.255147 0)
(0.391859 0.2746 0)
(0.366796 0.294583 0)
(0.338338 0.314684 0)
(0.306117 0.334939 0)
(0.270861 0.354539 0)
(0.231479 0.372902 0)
(0.186784 0.389133 0)
(0.138341 0.401697 0)
(0.0838273 0.410318 0)
(0.0330441 0.414116 0)
(3 4.87578e-08 0)
(3 6.74307e-07 0)
(3 1.47627e-06 0)
(3 5.39728e-06 0)
(2.99999 9.19118e-06 0)
(2.99996 3.3175e-05 0)
(2.9999 6.31066e-05 0)
(2.99979 0.000155249 0)
(2.99941 0.000344893 0)
(3.00011 0.00098517 0)
(2.99728 0.00145185 0)
(2.9878 0.00249946 0)
(2.99919 0.00454653 0)
(2.78418 0.00645006 0)
(2.36124 0.0233794 0)
(1.60626 0.0551636 0)
(0.682058 0.120312 0)
(0.643576 0.131712 0)
(0.716547 0.141959 0)
(0.765979 0.156187 0)
(0.763435 0.17286 0)
(0.736283 0.189742 0)
(0.700095 0.205323 0)
(0.668752 0.218041 0)
(0.645331 0.22653 0)
(0.626183 0.229186 0)
(0.609648 0.226358 0)
(0.59556 0.219481 0)
(0.583583 0.210382 0)
(0.572766 0.200634 0)
(0.56247 0.192125 0)
(0.552458 0.186212 0)
(0.542261 0.183766 0)
(0.531584 0.185447 0)
(0.520473 0.191593 0)
(0.50768 0.202364 0)
(0.49277 0.217267 0)
(0.476359 0.235424 0)
(0.457445 0.255874 0)
(0.436258 0.277977 0)
(0.41378 0.299946 0)
(0.389201 0.322649 0)
(0.361181 0.345714 0)
(0.329228 0.369392 0)
(0.293626 0.392908 0)
(0.253412 0.415678 0)
(0.20689 0.436785 0)
(0.154958 0.454311 0)
(0.095154 0.467344 0)
(0.0378313 0.473883 0)
(3 2.57679e-07 0)
(3 5.67999e-07 0)
(3 2.00803e-06 0)
(3 5.33846e-06 0)
(3 1.26632e-05 0)
(3.00001 3.92913e-05 0)
(2.99998 9.189e-05 0)
(2.99998 0.00022486 0)
(2.99978 0.000473409 0)
(3.00062 0.000927781 0)
(2.99807 0.00145205 0)
(2.98938 0.00254535 0)
(3.00105 0.00458116 0)
(2.79248 0.00627588 0)
(2.3946 0.0237829 0)
(1.65976 0.0570287 0)
(0.710463 0.127356 0)
(0.6449 0.142786 0)
(0.714287 0.157378 0)
(0.762329 0.175033 0)
(0.757686 0.19372 0)
(0.729126 0.211414 0)
(0.693571 0.226335 0)
(0.664781 0.237506 0)
(0.644614 0.243034 0)
(0.628949 0.242513 0)
(0.616139 0.237049 0)
(0.605596 0.228309 0)
(0.596538 0.218004 0)
(0.588232 0.207927 0)
(0.580127 0.199767 0)
(0.571735 0.194574 0)
(0.562734 0.193162 0)
(0.552931 0.196116 0)
(0.542519 0.203757 0)
(0.530351 0.216192 0)
(0.515968 0.233044 0)
(0.500107 0.253446 0)
(0.482037 0.276411 0)
(0.461334 0.301163 0)
(0.43927 0.326035 0)
(0.415515 0.351543 0)
(0.388425 0.377945 0)
(0.357392 0.405789 0)
(0.322108 0.43404 0)
(0.281663 0.46239 0)
(0.233731 0.49007 0)
(0.178277 0.51503 0)
(0.111962 0.535517 0)
(0.0453607 0.547385 0)
(3 1.77539e-07 0)
(3 1.49077e-07 0)
(3 1.40079e-06 0)
(3.00001 1.80613e-06 0)
(3.00002 1.04156e-05 0)
(3.00005 1.85825e-05 0)
(3.00009 7.4567e-05 0)
(3.00019 0.000193476 0)
(3.00014 0.000479215 0)
(3.00113 0.000903828 0)
(2.99893 0.00140391 0)
(2.99113 0.00252548 0)
(3.00304 0.00459494 0)
(2.80148 0.00616427 0)
(2.43168 0.0237965 0)
(1.72005 0.0586863 0)
(0.740672 0.132357 0)
(0.644005 0.153959 0)
(0.707706 0.175003 0)
(0.752826 0.196685 0)
(0.745984 0.21678 0)
(0.717631 0.233806 0)
(0.685378 0.246559 0)
(0.661441 0.254371 0)
(0.646057 0.255976 0)
(0.635303 0.252027 0)
(0.627097 0.244078 0)
(0.620377 0.233742 0)
(0.614518 0.222884 0)
(0.608898 0.213204 0)
(0.602823 0.205901 0)
(0.595935 0.201914 0)
(0.588005 0.201947 0)
(0.578919 0.206505 0)
(0.568989 0.215891 0)
(0.557212 0.230159 0)
(0.543163 0.249061 0)
(0.52768 0.271761 0)
(0.510295 0.297241 0)
(0.490236 0.324521 0)
(0.468704 0.35247 0)
(0.446075 0.38112 0)
(0.420887 0.411401 0)
(0.391648 0.443666 0)
(0.357584 0.477488 0)
(0.318207 0.512852 0)
(0.270403 0.549461 0)
(0.212527 0.585676 0)
(0.138863 0.619199 0)
(0.0585887 0.643341 0)
(3 -1.21933e-07 0)
(3 -2.4484e-07 0)
(3 -7.29613e-07 0)
(3.00001 -1.46645e-06 0)
(3.00002 -1.30549e-06 0)
(3.00007 -8.44446e-06 0)
(3.00017 1.01783e-05 0)
(3.00041 4.74415e-05 0)
(3.00054 0.000234599 0)
(3.00161 0.000485467 0)
(2.99978 0.00163311 0)
(2.9929 0.00346552 0)
(3.00502 0.00682883 0)
(2.81069 0.0106112 0)
(2.47113 0.0221215 0)
(1.78336 0.0708441 0)
(0.76399 0.143435 0)
(0.637634 0.172454 0)
(0.695615 0.198923 0)
(0.737879 0.221859 0)
(0.730431 0.240433 0)
(0.705098 0.254029 0)
(0.678625 0.262708 0)
(0.661285 0.265815 0)
(0.652239 0.263197 0)
(0.647279 0.256154 0)
(0.643919 0.246163 0)
(0.641232 0.235115 0)
(0.63872 0.224726 0)
(0.635612 0.216191 0)
(0.631408 0.210494 0)
(0.625851 0.208392 0)
(0.61878 0.210448 0)
(0.610157 0.217087 0)
(0.600381 0.228572 0)
(0.58866 0.244874 0)
(0.574661 0.265951 0)
(0.559296 0.290897 0)
(0.542292 0.318647 0)
(0.522993 0.348233 0)
(0.502581 0.379259 0)
(0.481788 0.411442 0)
(0.458967 0.445626 0)
(0.432537 0.482266 0)
(0.401763 0.522329 0)
(0.36587 0.566208 0)
(0.321364 0.614641 0)
(0.264709 0.667775 0)
(0.185765 0.724269 0)
(0.0855212 0.779794 0)
(3 -2.67293e-07 0)
(3 -5.4691e-07 0)
(3 -2.50447e-06 0)
(3.00001 -4.88658e-06 0)
(3.00001 -1.54206e-05 0)
(3.00006 -2.6516e-05 0)
(3.00015 -7.92576e-05 0)
(3.00044 -0.000161523 0)
(3.00062 -0.00033768 0)
(3.00267 -0.000518666 0)
(3.0023 -0.000681642 0)
(2.9972 0.000306471 0)
(3.0108 0.00390824 0)
(2.81716 0.00365791 0)
(2.53537 0.0164731 0)
(1.88685 0.0817349 0)
(0.77794 0.163849 0)
(0.624668 0.199924 0)
(0.678386 0.227676 0)
(0.721174 0.246815 0)
(0.717568 0.260386 0)
(0.699049 0.268136 0)
(0.680688 0.271785 0)
(0.67058 0.270434 0)
(0.667705 0.264112 0)
(0.667873 0.254563 0)
(0.668849 0.243514 0)
(0.669879 0.232819 0)
(0.670131 0.223645 0)
(0.669037 0.216948 0)
(0.666254 0.213491 0)
(0.661596 0.21384 0)
(0.654963 0.218426 0)
(0.64639 0.22757 0)
(0.636305 0.241447 0)
(0.624278 0.259981 0)
(0.610029 0.283175 0)
(0.594368 0.310051 0)
(0.577529 0.339687 0)
(0.55949 0.371717 0)
(0.541078 0.405679 0)
(0.522572 0.440733 0)
(0.502812 0.478264 0)
(0.480911 0.51932 0)
(0.456204 0.565696 0)
(0.427813 0.618863 0)
(0.392998 0.68162 0)
(0.346922 0.758779 0)
(0.276205 0.859799 0)
(0.149108 1.01801 0)
(3 -2.62364e-07 0)
(3 -4.77449e-07 0)
(3 -2.04919e-06 0)
(3 -3.80656e-06 0)
(2.99999 -1.28189e-05 0)
(2.99999 -2.25376e-05 0)
(2.99999 -8.16464e-05 0)
(3.00004 -0.000179337 0)
(3.00001 -0.000507884 0)
(3.00084 -0.000945393 0)
(3.0004 -0.00276866 0)
(2.99855 -0.00511932 0)
(3.00827 -0.00726723 0)
(2.83648 -0.016621 0)
(2.63834 0.0187056 0)
(2.01595 0.0681308 0)
(0.781487 0.226922 0)
(0.60011 0.257805 0)
(0.657395 0.273202 0)
(0.709808 0.276105 0)
(0.719319 0.276528 0)
(0.714351 0.274061 0)
(0.707918 0.271149 0)
(0.705144 0.265604 0)
(0.707022 0.256471 0)
(0.711197 0.24546 0)
(0.715466 0.234726 0)
(0.71869 0.22559 0)
(0.720171 0.218967 0)
(0.71957 0.215603 0)
(0.716717 0.216001 0)
(0.711597 0.220502 0)
(0.704295 0.22929 0)
(0.695 0.242449 0)
(0.684258 0.259935 0)
(0.671926 0.28152 0)
(0.657634 0.30695 0)
(0.642327 0.335728 0)
(0.627406 0.367541 0)
(0.612714 0.401972 0)
(0.597675 0.438214 0)
(0.583748 0.475407 0)
(0.570831 0.515621 0)
(0.558314 0.560575 0)
(0.546896 0.612474 0)
(0.53754 0.674096 0)
(0.532872 0.749742 0)
(0.540755 0.846402 0)
(0.58997 0.974141 0)
(0.65078 1.15901 0)
(3 -7.05887e-08 0)
(3 -1.38529e-07 0)
(3 -4.93658e-07 0)
(2.99999 -4.55636e-07 0)
(2.99999 -3.66688e-06 0)
(2.99996 -6.27956e-06 0)
(2.99992 -2.79979e-05 0)
(2.9998 -5.46843e-05 0)
(2.99945 -0.000231174 0)
(2.99924 -0.000383095 0)
(2.99567 -0.00173693 0)
(2.98928 -0.00255836 0)
(2.99277 -0.00707387 0)
(2.85987 -0.015046 0)
(2.7141 0.0345331 0)
(2.15731 0.0690159 0)
(0.886807 0.31406 0)
(0.595017 0.321475 0)
(0.650828 0.309367 0)
(0.714312 0.28588 0)
(0.741619 0.27289 0)
(0.751484 0.26466 0)
(0.755438 0.257459 0)
(0.755812 0.250273 0)
(0.757444 0.241284 0)
(0.76126 0.231689 0)
(0.765048 0.223366 0)
(0.767028 0.217574 0)
(0.766554 0.21508 0)
(0.763572 0.216328 0)
(0.758248 0.221534 0)
(0.750926 0.230757 0)
(0.741966 0.243935 0)
(0.731731 0.260945 0)
(0.720699 0.281619 0)
(0.708641 0.305425 0)
(0.695696 0.332321 0)
(0.683466 0.362526 0)
(0.672635 0.395572 0)
(0.662371 0.430538 0)
(0.652176 0.467033 0)
(0.644509 0.504873 0)
(0.64031 0.54521 0)
(0.639181 0.59033 0)
(0.643307 0.642325 0)
(0.655917 0.70368 0)
(0.682588 0.777236 0)
(0.731475 0.86609 0)
(0.833424 0.969044 0)
(0.968129 1.07519 0)
(3 7.97907e-08 0)
(3 1.36795e-07 0)
(3 3.16421e-07 0)
(2.99999 4.82857e-07 0)
(2.99998 1.49373e-06 0)
(2.99995 1.95322e-06 0)
(2.9999 5.90026e-06 0)
(2.9997 1.28794e-05 0)
(2.99947 -1.77747e-05 0)
(2.99834 0.00010477 0)
(2.99677 -0.000458488 0)
(2.9896 0.00100064 0)
(2.98806 0.00035688 0)
(2.89523 -0.00298341 0)
(2.8045 0.0373048 0)
(2.34835 0.0759394 0)
(1.06182 0.311636 0)
(0.616206 0.346256 0)
(0.655599 0.319887 0)
(0.727467 0.283258 0)
(0.780081 0.261882 0)
(0.800367 0.250869 0)
(0.807292 0.241345 0)
(0.807828 0.233634 0)
(0.805879 0.226656 0)
(0.805152 0.220571 0)
(0.804425 0.216586 0)
(0.802056 0.215563 0)
(0.797468 0.217904 0)
(0.790868 0.223714 0)
(0.782758 0.233029 0)
(0.773675 0.245808 0)
(0.764071 0.261964 0)
(0.754294 0.28139 0)
(0.744287 0.303703 0)
(0.73415 0.328672 0)
(0.725002 0.356736 0)
(0.717481 0.387722 0)
(0.711292 0.42067 0)
(0.706285 0.454923 0)
(0.702533 0.490415 0)
(0.702139 0.527339 0)
(0.706602 0.565744 0)
(0.716262 0.607654 0)
(0.733503 0.65464 0)
(0.761964 0.707993 0)
(0.806809 0.768155 0)
(0.872566 0.834066 0)
(0.976046 0.90018 0)
(1.09896 0.947177 0)
(3 1.45572e-07 0)
(3 -3.12143e-08 0)
(3 4.56223e-07 0)
(2.99999 -8.66305e-08 0)
(2.99999 2.4867e-06 0)
(2.99996 3.56314e-06 0)
(2.99994 1.25154e-05 0)
(2.99976 2.64346e-05 0)
(2.9996 7.36338e-05 0)
(2.9985 0.000137803 0)
(2.99716 0.000405774 0)
(2.99065 0.000910883 0)
(2.98614 0.00233014 0)
(2.92282 0.00104424 0)
(2.86455 0.0316791 0)
(2.49387 0.0556182 0)
(1.29119 0.23596 0)
(0.728326 0.363543 0)
(0.670995 0.329665 0)
(0.741897 0.285982 0)
(0.811642 0.255961 0)
(0.840816 0.241881 0)
(0.84713 0.23353 0)
(0.844206 0.227211 0)
(0.836242 0.223084 0)
(0.828777 0.221042 0)
(0.822388 0.221307 0)
(0.815588 0.224076 0)
(0.807783 0.229493 0)
(0.79924 0.237691 0)
(0.790455 0.248776 0)
(0.781843 0.262845 0)
(0.773702 0.279902 0)
(0.76582 0.299729 0)
(0.75833 0.322263 0)
(0.752241 0.347812 0)
(0.747941 0.376168 0)
(0.745068 0.406578 0)
(0.743645 0.438395 0)
(0.744118 0.471163 0)
(0.746944 0.504765 0)
(0.75352 0.539281 0)
(0.765421 0.574258 0)
(0.783303 0.610824 0)
(0.808889 0.649905 0)
(0.84525 0.69192 0)
(0.895829 0.736129 0)
(0.962119 0.780095 0)
(1.05404 0.819757 0)
(1.15701 0.841192 0)
(3 7.96007e-08 0)
(3 -1.62684e-07 0)
(3 1.42639e-07 0)
(2.99999 -1.04189e-06 0)
(2.99999 3.04954e-07 0)
(2.99996 -6.63231e-06 0)
(2.99994 5.11462e-08 0)
(2.9998 -4.49334e-05 0)
(2.99965 1.64281e-05 0)
(2.99889 -0.000209754 0)
(2.99806 0.000166385 0)
(2.99279 -0.000556834 0)
(2.98838 0.00274035 0)
(2.9427 0.00434875 0)
(2.89961 0.0234202 0)
(2.5915 0.0415502 0)
(1.61451 0.18832 0)
(0.937479 0.375713 0)
(0.676459 0.334826 0)
(0.73965 0.291914 0)
(0.823856 0.262809 0)
(0.864223 0.247888 0)
(0.867224 0.240007 0)
(0.856468 0.234067 0)
(0.842698 0.230998 0)
(0.830883 0.23063 0)
(0.821332 0.232518 0)
(0.812792 0.23649 0)
(0.804661 0.242685 0)
(0.796913 0.251339 0)
(0.789742 0.262659 0)
(0.783314 0.276707 0)
(0.777438 0.293556 0)
(0.772315 0.31329 0)
(0.76884 0.336009 0)
(0.767029 0.361508 0)
(0.766583 0.389146 0)
(0.767778 0.418298 0)
(0.770898 0.448503 0)
(0.77645 0.479285 0)
(0.784993 0.510335 0)
(0.797233 0.541441 0)
(0.814545 0.572313 0)
(0.837711 0.602954 0)
(0.86771 0.633918 0)
(0.906777 0.665221 0)
(0.957055 0.696121 0)
(1.01971 0.724486 0)
(1.09834 0.748392 0)
(1.18322 0.75917 0)
(3 -4.24257e-09 0)
(3 1.64621e-07 0)
(3 3.44061e-07 0)
(2.99999 9.34623e-07 0)
(2.99998 2.19925e-06 0)
(2.99996 1.65006e-06 0)
(2.99988 1.4444e-05 0)
(2.99978 2.59908e-05 0)
(2.99933 6.39368e-05 0)
(2.99875 2.59403e-05 0)
(2.99658 0.000422611 0)
(2.99492 -4.88953e-05 0)
(2.99429 0.00207149 0)
(2.95634 -0.000661551 0)
(2.93162 0.0258313 0)
(2.67299 -0.00934293 0)
(1.9129 0.19769 0)
(1.14391 0.287802 0)
(0.665514 0.292845 0)
(0.722657 0.290069 0)
(0.812306 0.282447 0)
(0.855081 0.272419 0)
(0.857019 0.263879 0)
(0.845424 0.256701 0)
(0.832843 0.252068 0)
(0.822293 0.249964 0)
(0.813997 0.250108 0)
(0.806901 0.252404 0)
(0.800513 0.257136 0)
(0.794747 0.264563 0)
(0.78954 0.27477 0)
(0.785049 0.287904 0)
(0.781768 0.304 0)
(0.779837 0.32324 0)
(0.779294 0.345407 0)
(0.780329 0.369876 0)
(0.783064 0.396213 0)
(0.787746 0.42386 0)
(0.794663 0.452182 0)
(0.804251 0.480639 0)
(0.816957 0.508659 0)
(0.833498 0.536059 0)
(0.854537 0.562531 0)
(0.880537 0.587672 0)
(0.912406 0.611744 0)
(0.951504 0.634629 0)
(0.99907 0.655776 0)
(1.05622 0.673799 0)
(1.12432 0.687033 0)
(1.19515 0.692023 0)
(3 3.24428e-10 0)
(3 1.99117e-07 0)
(3 3.90026e-07 0)
(3 1.54816e-06 0)
(2.99999 2.58401e-06 0)
(2.99998 9.69374e-06 0)
(2.99998 1.70889e-05 0)