/*--------------------------------*- C++ -*----------------------------------*\
| =========                 |                                                 |
| \\      /  F ield         | OpenFOAM: The Open Source CFD Toolbox           |
|  \\    /   O peration     | Version:  2412                                  |
|   \\  /    A nd           | Website:  www.openfoam.com                      |
|    \\/     M anipulation  |                                                 |
\*---------------------------------------------------------------------------*/
FoamFile
{
    version     2.0;
    format      ascii;
    arch        "LSB;label=32;scalar=64";
    class       volScalarField;
    location    "8";
    object      Ma;
}
// * * * * * * * * * * * * * * * * * * * * * * * * * * * * * * * * * * * * * //

dimensions      [0 0 0 0 0 0 0];

internalField   nonuniform List<scalar> 
7000
(
2.99841
2.99469
2.98105
2.98836
2.89871
2.66695
2.15747
1.37073
0.518969
0.326314
0.383937
0.44075
0.452517
0.446345
0.435774
0.424111
0.415947
0.410615
0.406596
0.402792
0.398796
0.394536
0.389914
0.384873
0.37939
0.373464
0.367127
0.360183
0.352328
0.342208
0.330138
0.317693
0.304758
0.29103
0.276712
0.261215
0.244498
0.226387
0.20918
0.193006
0.178125
0.163057
0.146274
0.127147
0.106776
0.0867305
0.0674767
0.04862
0.0290613
0.0129895
2.99888
2.99382
2.986
2.97558
2.93204
2.79874
2.151
1.37315
0.51814
0.33642
0.389038
0.444397
0.456576
0.451822
0.442808
0.432571
0.425052
0.419532
0.414724
0.409789
0.404531
0.399007
0.393192
0.387069
0.380619
0.373837
0.36674
0.359114
0.350625
0.340024
0.327968
0.315849
0.303526
0.290735
0.27774
0.263658
0.248409
0.231325
0.21441
0.198128
0.182726
0.167192
0.15004
0.130786
0.110563
0.0908803
0.0719275
0.0530385
0.033712
0.0197267
2.999
2.99353
2.98909
2.97466
2.91825
2.85183
2.13703
1.34318
0.509948
0.336702
0.391641
0.446847
0.458356
0.452234
0.441407
0.429455
0.420929
0.415174
0.41076
0.406663
0.402495
0.398138
0.393431
0.388262
0.382568
0.376334
0.369602
0.362207
0.353883
0.343409
0.331318
0.319177
0.306987
0.294412
0.281851
0.2683
0.25355
0.236676
0.219205
0.202287
0.186089
0.17004
0.152666
0.133592
0.113945
0.0951285
0.0771632
0.0593655
0.0419589
0.030916
2.99975
2.99424
2.98633
2.9902
2.91989
2.83975
2.15134
1.36931
0.522537
0.335419
0.388019
0.443037
0.454806
0.449254
0.439168
0.428047
0.420459
0.41557
0.411823
0.408157
0.40422
0.399952
0.39525
0.390049
0.38432
0.378064
0.371337
0.363981
0.355732
0.345393
0.333453
0.321461
0.309479
0.297097
0.284749
0.271431
0.25687
0.24009
0.222358
0.205148
0.188647
0.172436
0.155182
0.136586
0.117805
0.100128
0.083498
0.0673042
0.0521738
0.0432686
2.99885
2.9934
2.98458
2.98243
2.91579
2.76619
2.16625
1.38555
0.538121
0.339691
0.394696
0.45122
0.464453
0.46021
0.450558
0.439138
0.430526
0.424221
0.418991
0.413976
0.408918
0.403766
0.398383
0.392663
0.386538
0.379986
0.373044
0.365552
0.357227
0.346908
0.335132
0.323342
0.311589
0.299405
0.287221
0.274048
0.259632
0.24298
0.225322
0.208179
0.191758
0.175701
0.158796
0.140807
0.122955
0.106466
0.0912695
0.0767994
0.0638018
0.0564384
2.99962
2.99364
2.98547
2.98144
2.92246
2.78881
2.16693
1.39104
0.538559
0.332719
0.386616
0.443718
0.458262
0.455635
0.447606
0.437402
0.42985
0.424436
0.419882
0.415329
0.410549
0.405531
0.400183
0.394444
0.388283
0.381703
0.374761
0.367308
0.359069
0.348886
0.337289
0.325717
0.314213
0.302253
0.290256
0.277268
0.263069
0.246661
0.229238
0.212348
0.196235
0.180533
0.16409
0.146759
0.129824
0.114486
0.100668
0.0878376
0.0766704
0.0704692
2.99844
2.9938
2.9888
2.97405
2.9086
2.80409
2.18599
1.4223
0.549761
0.333233
0.387424
0.443067
0.456498
0.453439
0.445312
0.435291
0.428253
0.423657
0.419989
0.416232
0.412106
0.407586
0.402598
0.397105
0.391098
0.384607
0.377712
0.370295
0.362127
0.352045
0.340547
0.329116
0.317813
0.306055
0.294274
0.281572
0.267692
0.251644
0.234532
0.217995
0.202289
0.187072
0.171197
0.154583
0.138533
0.124258
0.111713
0.100334
0.0907012
0.0853854
2.99739
2.9968
2.98396
2.99257
2.91255
2.62595
2.21411
1.4599
0.570838
0.329574
0.384254
0.441991
0.457714
0.456194
0.449
0.43911
0.431746
0.426917
0.423114
0.419327
0.415288
0.410942
0.406177
0.400912
0.395099
0.38875
0.38194
0.374572
0.366481
0.356488
0.344991
0.333606
0.322451
0.310876
0.299343
0.287052
0.273595
0.258038
0.241251
0.225123
0.209881
0.195234
0.180034
0.164225
0.149046
0.135776
0.124385
0.114286
0.10588
0.101271
2.99813
2.99194
2.98657
2.95413
2.93335
2.73884
2.27571
1.47069
0.573711
0.340257
0.392865
0.447298
0.462224
0.460674
0.453638
0.44379
0.436234
0.431388
0.42763
0.423933
0.420042
0.415878
0.41129
0.406173
0.400466
0.394166
0.38735
0.379942
0.371837
0.361857
0.350316
0.338943
0.327918
0.316521
0.305261
0.293463
0.280513
0.265598
0.249206
0.233568
0.218859
0.204876
0.190459
0.175551
0.161293
0.149011
0.138695
0.129691
0.122329
0.118246
2.99848
2.99419
2.988
2.95967
2.93629
2.69015
2.27971
1.5
0.59829
0.340987
0.390649
0.44462
0.461339
0.460885
0.45455
0.445289
0.438139
0.433774
0.430548
0.427436
0.42414
0.420522
0.4164
0.411654
0.406212
0.400077
0.393333
0.385934
0.377823
0.367862
0.356313
0.344951
0.334038
0.322843
0.3119
0.300676
0.28829
0.274077
0.258201
0.243175
0.229119
0.215916
0.202418
0.188513
0.175248
0.163969
0.154695
0.146711
0.14017
0.136555
2.99819
2.99268
2.98904
2.96503
2.92097
2.6771
2.36383
1.57483
0.617965
0.34511
0.394278
0.445587
0.463267
0.46354
0.457501
0.448751
0.442011
0.438082
0.435353
0.432763
0.429958
0.426762
0.422972
0.418461
0.413152
0.407049
0.400252
0.392751
0.384526
0.374491
0.362919
0.351583
0.340791
0.329811
0.319193
0.308541
0.296758
0.283307
0.268107
0.253841
0.240581
0.228304
0.215884
0.203103
0.190941
0.18072
0.172466
0.165419
0.159683
0.156397
2.99795
2.99273
2.98713
2.9552
2.94184
2.76874
2.37938
1.59078
0.646175
0.355339
0.39827
0.445062
0.465675
0.467579
0.462192
0.454137
0.447753
0.444048
0.441548
0.439222
0.436692
0.433755
0.430209
0.425907
0.420738
0.414691
0.407866
0.400287
0.391952
0.381794
0.370194
0.35894
0.348324
0.337599
0.327327
0.317216
0.306043
0.293371
0.278994
0.265625
0.253301
0.242099
0.230906
0.219378
0.208425
0.199342
0.192203
0.186184
0.181128
0.178226
2.99835
2.99301
2.98872
2.96009
2.93571
2.73849
2.42309
1.67354
0.684956
0.365656
0.400396
0.443046
0.468012
0.471842
0.467241
0.460043
0.454048
0.450613
0.448454
0.446558
0.444471
0.441927
0.438706
0.434644
0.42961
0.423583
0.416672
0.408945
0.400426
0.390058
0.378358
0.367174
0.356765
0.346347
0.336564
0.327058
0.316533
0.304664
0.291127
0.278689
0.267382
0.25736
0.247539
0.237435
0.227856
0.220074
0.214181
0.209215
0.205021
0.202399
2.99838
2.9938
2.99087
2.966
2.93547
2.72628
2.44882
1.67375
0.718736
0.390212
0.404476
0.443288
0.472092
0.477239
0.473373
0.467105
0.461492
0.458332
0.456514
0.454991
0.453226
0.450938
0.447916
0.443981
0.439
0.432963
0.425982
0.418175
0.409563
0.399073
0.387294
0.376174
0.365977
0.355905
0.346631
0.337836
0.328039
0.317101
0.304611
0.293193
0.282975
0.274238
0.265977
0.25748
0.249446
0.243142
0.238738
0.235174
0.231855
0.229778
2.99843
2.99345
2.99025
2.95807
2.94209
2.76179
2.49685
1.79609
0.791609
0.424804
0.409225
0.445635
0.476195
0.482786
0.479899
0.474654
0.469165
0.46577
0.463721
0.461988
0.460035
0.457658
0.454661
0.450875
0.44618
0.440461
0.433793
0.426343
0.418012
0.407721
0.39627
0.385576
0.375866
0.366349
0.357764
0.349835
0.340877
0.331001
0.319629
0.30922
0.300189
0.292842
0.286317
0.279658
0.273532
0.269055
0.266381
0.264591
0.26274
0.261254
2.99865
2.99463
2.98955
2.96964
2.93216
2.78006
2.50601
1.82384
0.852605
0.45446
0.407752
0.443337
0.47668
0.485926
0.485149
0.48162
0.476742
0.473124
0.470778
0.468665
0.466283
0.463537
0.460265
0.456369
0.451936
0.446547
0.440238
0.433301
0.425449
0.415632
0.404886
0.394941
0.385997
0.377286
0.369581
0.362762
0.354846
0.346268
0.336253
0.326938
0.319218
0.313375
0.308841
0.304344
0.30042
0.298122
0.297926
0.298664
0.298683
0.298668
2.99854
2.99408
2.99078
2.9613
2.94745
2.82293
2.53254
1.90901
0.926734
0.495158
0.40932
0.44252
0.478052
0.491221
0.492727
0.490251
0.485807
0.481892
0.479131
0.47653
0.473619
0.470358
0.466574
0.462335
0.457871
0.452509
0.446351
0.439786
0.432309
0.422979
0.41319
0.404288
0.396391
0.388738
0.382136
0.37659
0.369923
0.362851
0.354432
0.346306
0.34009
0.335935
0.333684
0.331764
0.330567
0.331206
0.334244
0.338557
0.342461
0.344784
2.99882
2.995
2.99215
2.96919
2.94661
2.7906
2.58762
1.92427
1.0008
0.541631
0.411641
0.440773
0.478803
0.498286
0.502353
0.50054
0.496225
0.491816
0.488372
0.485121
0.481625
0.477771
0.47339
0.468807
0.464121
0.458565
0.452437
0.446123
0.438888
0.430069
0.421325
0.413557
0.406854
0.400437
0.395167
0.391115
0.385947
0.380549
0.373972
0.367257
0.362811
0.360583
0.360907
0.362022
0.364341
0.368855
0.3764
0.38708
0.39685
0.40585
2.99875
2.99568
2.99287
2.97401
2.94639
2.8119
2.62491
2.01138
1.09396
0.590144
0.408579
0.436939
0.480094
0.506734
0.513517
0.512238
0.507899
0.502816
0.498485
0.494422
0.490192
0.485531
0.480485
0.475582
0.470416
0.464586
0.45848
0.452338
0.445247
0.437063
0.42951
0.422991
0.417579
0.412505
0.408655
0.406235
0.402799
0.399205
0.394814
0.389841
0.387332
0.387135
0.390271
0.395436
0.402256
0.41201
0.426249
0.445737
0.468792
0.494149
2.99888
2.99585
2.99297
2.9777
2.95048
2.82823
2.66177
2.08848
1.19801
0.643573
0.405878
0.436494
0.486914
0.520196
0.528741
0.52695
0.521497
0.514694
0.508915
0.503778
0.498544
0.492978
0.487596
0.4823
0.476493
0.470424
0.464388
0.458096
0.450943
0.443816
0.437541
0.432364
0.428332
0.424681
0.422385
0.421666
0.420083
0.418357
0.416175
0.413237
0.4128
0.415289
0.421753
0.431477
0.44361
0.460338
0.483835
0.519326
0.569312
0.659255
2.99901
2.99588
2.99381
2.97749
2.95725
2.86943
2.69619
2.20703
1.34601
0.715747
0.403753
0.440381
0.499376
0.538297
0.546878
0.542519
0.53436
0.525271
0.518081
0.511828
0.505843
0.500361
0.494738
0.488726
0.482611
0.476553
0.47031
0.463907
0.457817
0.452396
0.44786
0.444553
0.442439
0.440798
0.440776
0.442454
0.443498
0.444207
0.445028
0.445632
0.448415
0.454691
0.464962
0.481266
0.501605
0.528915
0.567929
0.627424
0.72684
0.87499
2.99889
2.99609
2.99514
2.98
2.96738
2.88292
2.72873
2.33448
1.47651
0.777869
0.384725
0.430229
0.497149
0.539461
0.547934
0.542452
0.534291
0.525898
0.519128
0.513921
0.509416
0.504259
0.498596
0.492811
0.486731
0.48057
0.474826
0.469606
0.465002
0.461191
0.45853
0.457215
0.456914
0.457178
0.459207
0.462722
0.466042
0.469351
0.473447
0.477796
0.483256
0.492938
0.506823
0.527597
0.556599
0.593041
0.642389
0.712088
0.820963
0.954128
2.99885
2.99596
2.99475
2.97768
2.96504
2.87259
2.73033
2.33367
1.54195
0.801937
0.356522
0.413009
0.483806
0.530293
0.540687
0.535754
0.52841
0.521078
0.515815
0.512056
0.508079
0.503537
0.498749
0.4934
0.487768
0.482875
0.478736
0.475145
0.472151
0.470062
0.469212
0.469672
0.470963
0.473015
0.477046
0.482564
0.488308
0.494088
0.500752
0.508296
0.516615
0.529012
0.546144
0.569092
0.601335
0.643975
0.696893
0.762827
0.853942
0.950157
2.99668
2.99487
2.98004
2.98443
2.90919
3.09978
2.78563
2.38385
1.53961
0.809904
0.353295
0.406931
0.475212
0.521809
0.533221
0.52986
0.52371
0.517345
0.513053
0.509697
0.506184
0.50214
0.497398
0.492628
0.488564
0.485277
0.482592
0.480464
0.479166
0.478954
0.479847
0.481719
0.484348
0.488216
0.494222
0.501341
0.508706
0.516538
0.525234
0.535376
0.546624
0.560596
0.579623
0.603438
0.634886
0.675862
0.727552
0.785693
0.861009
0.933964
2.99677
2.99515
2.98055
2.98587
2.91415
3.10668
2.79798
2.39963
1.55659
0.825843
0.364156
0.413928
0.479428
0.526238
0.537655
0.533617
0.526443
0.51913
0.514087
0.50996
0.50562
0.501034
0.496637
0.492767
0.489677
0.487428
0.485874
0.485151
0.485417
0.486655
0.488931
0.492175
0.496396
0.502307
0.509945
0.518096
0.526766
0.536174
0.546525
0.558436
0.571821
0.586907
0.606427
0.630273
0.65944
0.695745
0.742388
0.794147
0.855442
0.916154
2.99698
2.99563
2.98172
2.98854
2.92033
3.11784
2.80982
2.42081
1.58288
0.859246
0.405769
0.443178
0.499055
0.540923
0.549126
0.543226
0.534478
0.525977
0.519872
0.514736
0.509675
0.504746
0.500269
0.496545
0.493687
0.491556
0.490233
0.490163
0.491322
0.493677
0.49718
0.501696
0.507659
0.515378
0.524004
0.533206
0.54303
0.553644
0.565248
0.57823
0.592744
0.60868
0.627712
0.650754
0.677813
0.709647
0.748224
0.794836
0.845811
0.89794
2.99876
2.99345
2.99338
2.96565
3.0236
2.92515
2.6869
2.29322
1.58478
0.666147
0.345446
0.385443
0.440412
0.470849
0.47873
0.478856
0.476557
0.47584
0.477482
0.479618
0.48134
0.482536
0.483494
0.484448
0.485452
0.486603
0.488334
0.491021
0.494613
0.499031
0.504497
0.51127
0.519163
0.527823
0.537157
0.547121
0.557755
0.569191
0.581614
0.595208
0.610222
0.626555
0.644889
0.666629
0.691505
0.719976
0.752351
0.790897
0.833761
0.877869
2.99869
2.99814
2.99186
2.98887
2.95445
2.93916
2.77517
2.40246
1.69007
0.722773
0.386644
0.407817
0.444564
0.467325
0.470029
0.465715
0.461244
0.459161
0.459467
0.461373
0.464161
0.467208
0.47009
0.473082
0.476331
0.480139
0.484777
0.490242
0.496369
0.503559
0.511693
0.52025
0.529251
0.538724
0.548711
0.55924
0.570382
0.582288
0.595135
0.608988
0.624045
0.640223
0.657962
0.67832
0.701158
0.726808
0.755026
0.786772
0.822953
0.858688
2.99875
2.99833
2.99369
2.98838
2.95929
2.93163
2.71997
2.48411
1.79075
0.778596
0.421353
0.422777
0.459585
0.486162
0.490741
0.486452
0.481253
0.477031
0.474648
0.473614
0.473718
0.474852
0.476796
0.4792
0.481602
0.484919
0.489642
0.495674
0.502571
0.510083
0.518713
0.528298
0.538121
0.548223
0.558677
0.56956
0.581001
0.593135
0.60605
0.619781
0.634492
0.650074
0.666935
0.685852
0.706708
0.729798
0.755041
0.781966
0.812313
0.841882
2.9987
2.99849
2.99251
2.98991
2.96369
2.93988
2.79828
2.53173
1.87292
0.875195
0.480269
0.440923
0.475789
0.508002
0.517011
0.514933
0.510674
0.505887
0.502306
0.500061
0.49878
0.498295
0.498637
0.499823
0.501825
0.504
0.506212
0.509729
0.514871
0.52152
0.529022
0.537513
0.54715
0.557226
0.567622
0.578342
0.589495
0.601225
0.613653
0.626863
0.6409
0.655742
0.671858
0.689384
0.708549
0.729605
0.752057
0.775538
0.801607
0.826824
2.99925
2.99854
2.99504
2.99049
2.96627
2.94358
2.77654
2.59544
1.93981
0.995867
0.550772
0.450764
0.485673
0.527201
0.547619
0.551394
0.549024
0.544632
0.540668
0.538019
0.53598
0.534233
0.532782
0.531692
0.531219
0.531331
0.531183
0.531329
0.5331
0.536503
0.541478
0.547641
0.555096
0.564463
0.574664
0.585107
0.59589
0.607093
0.618771
0.631104
0.644124
0.657878
0.672894
0.689159
0.706968
0.725965
0.746169
0.767514
0.790695
0.813253
2.99935
2.99895
2.99613
2.99372
2.97535
2.95395
2.83162
2.63719
2.03022
1.10676
0.617881
0.469926
0.505334
0.55282
0.58261
0.590221
0.588995
0.584623
0.579929
0.576385
0.573129
0.569764
0.566452
0.563288
0.56037
0.557999
0.555354
0.552456
0.551234
0.551878
0.554467
0.558508
0.563741
0.571247
0.580717
0.590559
0.600658
0.611045
0.621856
0.633241
0.645271
0.657908
0.671793
0.687017
0.703331
0.720426
0.738759
0.758616
0.780104
0.80064
3.00003
3.00068
2.99993
3.0072
2.97945
3.11737
2.90664
2.69027
1.99493
1.2489
0.536255
0.419524
0.460818
0.512356
0.537693
0.545823
0.548167
0.548582
0.549793
0.552323
0.554951
0.556913
0.558119
0.558561
0.55827
0.557615
0.556723
0.556102
0.556432
0.55795
0.560655
0.564242
0.569079
0.57619
0.584926
0.594299
0.604351
0.614834
0.625493
0.636437
0.647932
0.660115
0.672759
0.686275
0.70085
0.716293
0.732811
0.75049
0.76961
0.788128
3.00002
3.00023
3.00012
3.00389
2.99405
3.04339
2.9556
2.78431
2.10217
1.33804
0.571498
0.425296
0.449646
0.482934
0.498499
0.501722
0.502457
0.503082
0.506646
0.512488
0.519153
0.525626
0.531336
0.536078
0.539903
0.543114
0.546137
0.549214
0.552612
0.556584
0.561048
0.566572
0.573566
0.581452
0.59001
0.599054
0.608429
0.618088
0.628158
0.638684
0.649644
0.66113
0.672997
0.684883
0.697694
0.711812
0.726779
0.742464
0.759328
0.776276
2.99984
2.99947
2.99812
2.99783
2.991
3.00719
2.9403
2.84139
2.17075
1.42799
0.622344
0.42402
0.442127
0.473999
0.490857
0.492566
0.489729
0.487553
0.489474
0.494003
0.500054
0.506934
0.513977
0.520427
0.526262
0.531879
0.537472
0.543337
0.549539
0.555667
0.561729
0.568515
0.576533
0.584908
0.593457
0.6022
0.611171
0.620449
0.630047
0.639936
0.650078
0.660688
0.671767
0.682838
0.694528
0.7074
0.721146
0.735445
0.75041
0.764811
3.00022
2.99892
2.99874
2.98773
2.99598
2.92787
3.12641
2.8149
2.43346
1.57604
0.882453
0.488177
0.480841
0.513163
0.538492
0.540508
0.53195
0.524134
0.518606
0.515872
0.515397
0.516885
0.519676
0.523828
0.528825
0.533861
0.539113
0.544627
0.550452
0.556879
0.563627
0.570537
0.578054
0.586622
0.595442
0.604267
0.613028
0.621796
0.630749
0.640016
0.649601
0.6596
0.670025
0.680478
0.691148
0.702829
0.715371
0.728438
0.742075
0.755254
2.99969
2.99877
2.99837
2.9928
2.99024
2.95927
2.94418
2.78444
2.52226
1.84611
0.858439
0.485451
0.454498
0.492609
0.526532
0.537904
0.537611
0.534289
0.53106
0.528769
0.527653
0.5282
0.529903
0.532372
0.535947
0.540514
0.545565
0.550405
0.555246
0.560602
0.566524
0.572977
0.579797
0.586771
0.594563
0.603684
0.612969
0.622217
0.6314
0.640579
0.649843
0.659329
0.669187
0.679152
0.689068
0.69984
0.711429
0.723523
0.736151
0.748376
2.99976
2.99911
2.99877
2.99527
2.99153
2.97277
2.9443
2.81631
2.59515
1.99817
1.01316
0.572922
0.453094
0.48065
0.517331
0.541813
0.549983
0.550645
0.549407
0.547882
0.547102
0.546781
0.546894
0.547853
0.549617
0.552185
0.555506
0.559335
0.563367
0.567686
0.572336
0.577628
0.583546
0.589772
0.596233
0.603516
0.612284
0.62164
0.630991
0.640361
0.649741
0.659074
0.668479
0.678145
0.687916
0.698003
0.708863
0.720248
0.732126
0.743515
2.99981
2.99919
2.99885
2.99552
2.99345
2.97523
2.95757
2.85612
2.67135
2.1532
1.23678
0.683203
0.451394
0.482309
0.534888
0.576546
0.589802
0.588743
0.583717
0.57883
0.575025
0.572005
0.569502
0.56714
0.565327
0.564624
0.565342
0.567198
0.570101
0.573532
0.577527
0.581802
0.586636
0.591975
0.597671
0.604009
0.611523
0.620089
0.629181
0.638612
0.648162
0.657775
0.667527
0.67742
0.687392
0.697585
0.708169
0.71913
0.730471
0.741317
2.99977
2.99953
2.99855
2.99745
2.99386
2.97991
2.97134
2.88536
2.72922
2.29517
1.45096
0.783379
0.437731
0.473033
0.531202
0.573369
0.584903
0.582392
0.57769
0.573774
0.571141
0.569924
0.56915
0.568089
0.567268
0.567012
0.567385
0.568612
0.571148
0.574633
0.578508
0.582762
0.587472
0.592597
0.598107
0.604168
0.611061
0.619076
0.627828
0.637056
0.646569
0.65628
0.666135
0.676151
0.686254
0.696538
0.706957
0.717685
0.728621
0.739059
2.99998
2.99989
2.9999
2.9997
3.00164
3.00046
3.04363
2.95519
2.82507
2.11006
1.34747
0.492428
0.309574
0.378409
0.448222
0.485499
0.502587
0.510993
0.517723
0.524314
0.531254
0.538246
0.544428
0.549565
0.553855
0.557481
0.560692
0.563902
0.567819
0.572639
0.577906
0.583415
0.588983
0.594652
0.600587
0.606826
0.613418
0.62057
0.628329
0.63668
0.645599
0.655012
0.664708
0.674548
0.684546
0.694734
0.705062
0.715601
0.726223
0.736389
2.99954
2.99946
2.99709
2.99597
2.98273
2.98727
2.91741
3.06346
2.7717
2.35643
1.46596
0.761894
0.383046
0.415604
0.466029
0.501629
0.512208
0.51293
0.513958
0.517417
0.522444
0.527994
0.533609
0.539166
0.544506
0.549542
0.55428
0.558898
0.563933
0.570034
0.576648
0.583273
0.589809
0.596293
0.602828
0.609524
0.616435
0.623706
0.631215
0.638612
0.646258
0.654284
0.662837
0.671853
0.681103
0.690598
0.700316
0.710591
0.721165
0.731478
2.99975
2.99969
2.99835
2.99777
2.9895
2.99872
2.93005
3.13791
2.81794
2.39666
1.52898
0.787927
0.333296
0.398393
0.463843
0.507937
0.52137
0.520913
0.518963
0.518831
0.521125
0.524782
0.529093
0.533769
0.538885
0.544296
0.549597
0.555226
0.561245
0.567646
0.574691
0.582168
0.589862
0.597437
0.604892
0.612239
0.619513
0.626806
0.634291
0.641654
0.648597
0.655755
0.663311
0.671294
0.679673
0.68831
0.697042
0.70606
0.715936
0.726027
2.99979
2.99971
2.99865
2.99805
2.99294
2.98763
2.96033
2.93934
2.72234
2.40331
1.59995
0.577452
0.284443
0.359511
0.432048
0.479628
0.502097
0.509654
0.512868
0.51625
0.520481
0.525149
0.530235
0.53575
0.541548
0.547422
0.553454
0.559772
0.565945
0.572213
0.578949
0.585763
0.592691
0.599907
0.607159
0.614319
0.621488
0.628627
0.635638
0.642606
0.649571
0.656385
0.663388
0.670729
0.678378
0.686259
0.694283
0.702592
0.711778
0.721193
2.99984
2.99977
2.99893
2.99854
2.99419
2.98978
2.9595
2.94393
2.74519
2.43378
1.68438
0.636063
0.310461
0.363555
0.43182
0.488878
0.519069
0.530914
0.536272
0.540002
0.543013
0.545838
0.548346
0.550955
0.554274
0.558187
0.56258
0.567371
0.572485
0.578023
0.583938
0.590032
0.596196
0.60238
0.608543
0.614723
0.620948
0.627248
0.633627
0.640139
0.646896
0.654081
0.661522
0.669198
0.67701
0.684861
0.692874
0.701077
0.709947
0.718631
2.99986
2.99978
2.99892
2.99863
2.99297
2.98984
2.96093
2.94307
2.74774
2.45454
1.70214
0.655801
0.327087
0.37509
0.443334
0.501731
0.52994
0.539742
0.54304
0.545906
0.549137
0.552097
0.554493
0.556664
0.559131
0.562188
0.565776
0.569843
0.574299
0.579075
0.584119
0.589383
0.594809
0.600451
0.606312
0.61216
0.618013
0.62416
0.630544
0.637072
0.643774
0.651003
0.658808
0.666902
0.67509
0.683349
0.691728
0.70017
0.708915
0.717254
2.99989
2.99987
2.99897
2.99881
2.99179
3.00225
2.93397
3.14275
2.82482
2.42645
1.55255
0.807209
0.311788
0.36395
0.422825
0.467302
0.48402
0.489253
0.495011
0.50329
0.513343
0.523645
0.532639
0.540305
0.546694
0.552251
0.557746
0.563613
0.569427
0.575178
0.581019
0.586905
0.592839
0.598765
0.60472
0.610858
0.617075
0.623232
0.629373
0.635841
0.64271
0.64982
0.657314
0.665133
0.672994
0.681127
0.689544
0.698072
0.706883
0.715238
2.99987
2.99977
2.99895
2.99863
2.99491
2.99012
2.96808
2.93128
2.73197
2.44943
1.70974
0.691156
0.334171
0.36404
0.417483
0.461965
0.480656
0.486637
0.491111
0.498448
0.507696
0.517316
0.525622
0.532502
0.538591
0.544282
0.549981
0.556019
0.562232
0.568894
0.576017
0.583206
0.590215
0.597137
0.604162
0.611251
0.618291
0.625238
0.632135
0.639101
0.64597
0.652463
0.658926
0.665709
0.672796
0.680089
0.687499
0.695055
0.703115
0.711265
2.99993
2.99993
2.99922
2.99897
2.99427
2.99194
2.96192
2.94429
2.78193
2.466
1.71222
0.698986
0.339798
0.360552
0.41519
0.461909
0.480243
0.484653
0.487231
0.490973
0.499327
0.509877
0.519203
0.526317
0.532323
0.538158
0.544202
0.550371
0.557148
0.564395
0.571938
0.579773
0.587889
0.596047
0.604101
0.612029
0.61986
0.627542
0.63492
0.641946
0.648722
0.655363
0.661703
0.667953
0.674418
0.681107
0.687956
0.69484
0.701911
0.709025
2.99992
2.99989
2.9992
2.99914
2.9932
3.0034
2.94023
3.1391
2.8414
2.47075
1.62778
0.872528
0.343027
0.358196
0.403987
0.443194
0.453245
0.453807
0.455842
0.462391
0.473586
0.48671
0.499371
0.511254
0.522185
0.531993
0.540984
0.549641
0.558075
0.566307
0.574463
0.582641
0.59084
0.598987
0.606895
0.614484
0.621725
0.628681
0.635434
0.642032
0.648496
0.65489
0.661282
0.667826
0.674478
0.681255
0.688057
0.694898
0.702133
0.70906
2.99985
2.99978
2.99899
2.99875
2.9937
2.99154
2.96282
2.95109
2.76213
2.55153
1.82872
0.797782
0.404205
0.373551
0.422882
0.467566
0.480989
0.477736
0.473956
0.474654
0.481215
0.490233
0.499796
0.509182
0.518689
0.528539
0.538582
0.548619
0.558465
0.567851
0.576775
0.585365
0.593634
0.601548
0.609075
0.616207
0.623028
0.629522
0.635641
0.641662
0.64766
0.653623
0.659621
0.665868
0.672635
0.679748
0.687028
0.694483
0.702128
0.709405
2.99987
2.9998
2.99894
2.99869
2.99374
2.99202
2.9648
2.95113
2.80358
2.56152
1.87321
0.87123
0.43723
0.360847
0.417086
0.47373
0.491319
0.486826
0.479732
0.477669
0.482963
0.49097
0.499141
0.507794
0.517505
0.527989
0.538963
0.550035
0.560828
0.571156
0.580818
0.58963
0.597639
0.605065
0.61212
0.618842
0.625189
0.631171
0.636886
0.642464
0.647935
0.653365
0.658886
0.664721
0.671112
0.677969
0.685191
0.692772
0.700637
0.708229
2.99989
2.9998
2.999
2.99865
2.99405
2.99226
2.96658
2.95529
2.79594
2.57902
1.88885
0.875139
0.433784
0.34954
0.414779
0.478226
0.497257
0.49075
0.480954
0.476867
0.479676
0.486172
0.493566
0.502227
0.512766
0.524709
0.5372
0.549432
0.561251
0.572317
0.582345
0.59126
0.599164
0.60623
0.612609
0.618406
0.623906
0.629275
0.634514
0.639779
0.644977
0.650238
0.655668
0.661453
0.667788
0.674685
0.682115
0.690071
0.698486
0.706679
2.99992
2.99984
2.99938
2.99908
2.99672
2.99169
2.97934
2.94193
2.80566
2.52605
1.80889
0.831775
0.41952
0.358681
0.421081
0.480856
0.497975
0.491051
0.481198
0.477404
0.477287
0.479725
0.483987
0.490446
0.499618
0.509779
0.520474
0.532057
0.54388
0.555459
0.56618
0.57621
0.585965
0.594682
0.602269
0.608897
0.61504
0.620808
0.626448
0.632176
0.63794
0.644118
0.650561
0.657297
0.66448
0.672058
0.680175
0.688803
0.69794
0.706889
2.99994
3.00006
3.00013
3.00189
3.0004
3.01121
2.9563
3.15153
2.8712
2.5033
1.68561
0.897648
0.315563
0.327036
0.384035
0.433301
0.450031
0.45206
0.454861
0.460163
0.466775
0.472597
0.478563
0.485079
0.492851
0.50314
0.513539
0.523288
0.532845
0.542395
0.551861
0.561128
0.570078
0.578791
0.587076
0.594802
0.60226
0.609478
0.616713
0.623985
0.63137
0.638903
0.646589
0.654539
0.662795
0.67137
0.680343
0.689634
0.699331
0.708622
2.99999
3
2.99998
3.00082
2.99971
3.01075
2.96314
3.15817
2.87072
2.51087
1.7387
0.94552
0.328334
0.329847
0.381402
0.427024
0.444377
0.451826
0.459732
0.468143
0.475994
0.483193
0.489776
0.494716
0.499242
0.505992
0.512735
0.518984
0.525583
0.532894
0.541037
0.549976
0.559178
0.568358
0.577515
0.586305
0.594706
0.60294
0.611438
0.620018
0.628623
0.637385
0.64609
0.654989
0.663934
0.672965
0.682246
0.691501
0.70111
0.710145
3
3.00002
3.00002
3.00105
2.99978
3.01073
2.96224
3.15646
2.86427
2.50338
1.6995
0.898054
0.300812
0.321743
0.379648
0.433072
0.455711
0.465617
0.474756
0.483414
0.490347
0.49594
0.500587
0.50367
0.506222
0.51102
0.516422
0.521556
0.527173
0.533572
0.540899
0.5493
0.55816
0.566814
0.575472
0.584036
0.592628
0.601105
0.60943
0.617731
0.626264
0.635235
0.644405
0.653944
0.66354
0.673443
0.683354
0.693231
0.703125
0.71214
2.99981
2.99929
2.99915
2.99532
2.99344
2.97371
2.97861
2.88118
3.03277
2.54176
1.81847
0.705914
0.345277
0.321909
0.388437
0.44992
0.47072
0.471854
0.473467
0.473929
0.474304
0.476549
0.48042
0.485385
0.491361
0.497329
0.502971
0.508884
0.515475
0.522455
0.52986
0.539062
0.548958
0.558153
0.566953
0.575529
0.584061
0.592712
0.601577
0.610703
0.62028
0.630603
0.641473
0.652833
0.664304
0.675974
0.687627
0.699176
0.710679
0.721354
2.99989
2.9995
2.99939
2.99736
2.9964
2.98666
2.98225
2.93343
2.80924
2.61194
1.86835
0.856285
0.421235
0.3118
0.38126
0.450207
0.471341
0.469756
0.468343
0.468832
0.471881
0.477306
0.483955
0.491142
0.498463
0.503908
0.507519
0.511588
0.516277
0.521317
0.5263
0.533369
0.542816
0.551659
0.560088
0.56848
0.577139
0.586267
0.596052
0.606583
0.617839
0.629686
0.64204
0.654953
0.668048
0.681303
0.694751
0.707987
0.721372
0.73388
2.99989
2.99949
2.99939
2.99722
2.99633
2.98626
2.97791
2.94385
2.83755
2.62225
1.90965
0.877668
0.43217
0.302502
0.376734
0.447852
0.469085
0.468433
0.468435
0.472037
0.478524
0.486438
0.494467
0.501949
0.50915
0.514236
0.515939
0.517381
0.519646
0.522582
0.525724
0.531046
0.539346
0.547569
0.555785
0.564311
0.573409
0.583262
0.593949
0.605513
0.617783
0.630459
0.643729
0.657462
0.671418
0.685459
0.699356
0.712967
0.726507
0.739548
1.16872
0.964315
0.451098
0.178017
0.0284915
0.124392
0.153013
0.195874
0.213301
0.215875
0.203038
0.192717
0.182019
0.171177
0.158034
0.142962
0.12542
0.105658
0.0841756
0.0616089
0.0385758
0.0191559
0.0195015
0.0429122
0.0669041
0.0908691
0.114666
0.138085
0.161186
0.184001
0.206524
0.228772
0.250712
0.271955
0.292224
0.312336
0.33345
0.354838
0.375482
0.395448
0.414933
0.433869
0.452318
0.470274
0.487707
0.504638
0.521063
0.536965
0.55238
0.56733
0.581807
0.595832
0.609457
0.622652
0.635491
0.647944
0.660073
0.671856
0.683276
0.69438
0.705069
0.715398
0.725299
0.734715
0.743708
0.752132
0.759997
0.767337
0.773937
0.779967
0.785226
0.789789
0.79356
0.796568
0.79877
0.800496
0.801663
0.802507
0.802503
0.802052
0.800649
0.799153
0.797143
0.795285
0.793126
0.791324
0.789369
0.787903
0.786413
0.785578
0.78463
0.784189
0.783843
0.783836
0.784191
0.784447
0.785202
0.785614
0.7863
0.788607
1.09626
0.982663
0.756488
0.516649
0.486569
0.411365
0.365712
0.326263
0.300024
0.284509
0.258703
0.234349
0.224444
0.225365
0.232455
0.243464
0.256233
0.270334
0.285472
0.301707
0.318312
0.334636
0.350513
0.366649
0.3828
0.398951
0.415093
0.431293
0.447518
0.463841
0.480184
0.496557
0.51308
0.529462
0.545247
0.560876
0.577304
0.594478
0.611285
0.627409
0.643044
0.658345
0.673301
0.687924
0.702231
0.716201
0.729833
0.74313
0.756083
0.768709
0.781025
0.793016
0.804716
0.816101
0.827204
0.838
0.848547
0.858785
0.868743
0.878438
0.887764
0.896798
0.905471
0.913715
0.921565
0.928948
0.93583
0.942207
0.948027
0.953235
0.957891
0.961828
0.965103
0.967695
0.969577
0.971018
0.972138
0.972877
0.973151
0.972884
0.972137
0.971128
0.970005
0.968835
0.967745
0.966767
0.965976
0.965423
0.965155
0.965205
0.965471
0.965953
0.966675
0.96762
0.968804
0.970081
0.971474
0.972742
0.973838
0.97651
1.05028
1.03691
0.964248
0.859375
0.797395
0.75271
0.718498
0.690595
0.668679
0.654477
0.642632
0.632125
0.626259
0.625092
0.627442
0.63178
0.637356
0.643806
0.650876
0.658353
0.666044
0.67377
0.681484
0.689298
0.697242
0.705325
0.713227
0.720888
0.728637
0.736522
0.74457
0.752887
0.761513
0.770161
0.778578
0.787101
0.796255
0.806374
0.816906
0.827286
0.837554
0.847811
0.858096
0.868374
0.878582
0.888682
0.898607
0.908389
0.918069
0.927622
0.937122
0.946477
0.95576
0.964886
0.973942
0.982846
0.991687
1.0004
1.00904
1.01753
1.0259
1.0341
1.04203
1.04976
1.05715
1.06413
1.07076
1.07689
1.08236
1.08737
1.09175
1.09529
1.09823
1.10051
1.10198
1.10302
1.10334
1.10347
1.10275
1.10187
1.10022
1.09836
1.09631
1.09428
1.09238
1.09063
1.08917
1.08817
1.08744
1.0871
1.08699
1.08742
1.08782
1.08894
1.08988
1.09147
1.09268
1.09446
1.09526
1.09855
1.02164
1.05094
1.0417
1.00731
0.968977
0.94293
0.925659
0.911876
0.900194
0.890966
0.88473
0.878969
0.873431
0.870241
0.869536
0.870339
0.87179
0.873436
0.875329
0.877594
0.880225
0.883126
0.88637
0.89004
0.894239
0.898981
0.904085
0.909524
0.915201
0.921053
0.927077
0.93326
0.939731
0.946094
0.95207
0.957792
0.963753
0.970351
0.977267
0.983966
0.990432
0.996805