/*--------------------------------*- C++ -*----------------------------------*\
| =========                 |                                                 |
| \\      /  F ield         | OpenFOAM: The Open Source CFD Toolbox           |
|  \\    /   O peration     | Version:  2412                                  |
|   \\  /    A nd           | Website:  www.openfoam.com                      |
|    \\/     M anipulation  |                                                 |
\*---------------------------------------------------------------------------*/
FoamFile
{
    version     2.0;
    format      ascii;
    arch        "LSB;label=32;scalar=64";
    class       volScalarField;
    location    "8";
    object      p;
}
// * * * * * * * * * * * * * * * * * * * * * * * * * * * * * * * * * * * * * //

dimensions      [1 -1 -2 0 0 0 0];

internalField   nonuniform List<scalar> 
7000
(
1.00063
1.00641
1.00069
1.03963
1.07089
0.979842
2.16709
2.49262
7.71501
10.2454
9.95515
9.40884
9.21926
9.23527
9.29795
9.39749
9.47614
9.53441
9.58371
9.6324
9.68392
9.73904
9.79787
9.86047
9.92713
9.99741
10.0692
10.142
10.2175
10.2862
10.3579
10.4304
10.5048
10.5756
10.6518
10.7255
10.8018
10.8654
10.9303
10.9911
11.0539
11.1115
11.1665
11.2138
11.2589
11.2975
11.3284
11.3512
11.3663
11.3769
1.00084
1.00412
1.00634
1.03128
1.01386
0.957955
2.18998
2.28704
7.89082
10.2469
9.94803
9.40381
9.21753
9.23359
9.29672
9.39673
9.47579
9.53434
9.58379
9.63251
9.68399
9.73902
9.79772
9.8602
9.92676
9.99696
10.0687
10.1414
10.2171
10.2854
10.3571
10.4296
10.5038
10.5743
10.651
10.7248
10.8007
10.8643
10.9293
10.9903
11.053
11.1107
11.1656
11.213
11.2581
11.2967
11.3278
11.3507
11.366
11.3768
1.0008
1.00453
1.00273
1.03473
1.01988
0.951961
2.20726
2.34418
7.8549
10.2097
9.91973
9.39502
9.21396
9.23146
9.29584
9.39607
9.47564
9.53443
9.58391
9.63252
9.68382
9.73861
9.79707
9.85932
9.92568
9.99574
10.0674
10.1399
10.2154
10.2837
10.3553
10.4275
10.5011
10.5711
10.6482
10.722
10.7971
10.8608
10.9259
10.9873
11.0493
11.107
11.1618
11.209
11.2538
11.2922
11.3234
11.3466
11.3622
11.3732
1.00036
1.00527
1.0017
1.02804
1.00413
0.928695
2.22811
2.30507
7.82935
10.238
9.92817
9.3922
9.21222
9.22959
9.29368
9.39436
9.47477
9.53413
9.58388
9.6325
9.68362
9.73811
9.79619
9.85806
9.92406
9.99384
10.0653
10.1375
10.2127
10.2808
10.3521
10.424
10.4968
10.5663
10.6437
10.7174
10.7918
10.8554
10.9202
10.982
11.0434
11.1008
11.1553
11.202
11.2464
11.2846
11.3159
11.3395
11.3553
11.3666
1.00096
1.0049
1.00531
1.02911
1.02544
0.983111
2.18006
2.32681
7.72271
10.258
9.94484
9.3967
9.21585
9.23201
9.29371
9.39443
9.47536
9.53498
9.58463
9.63289
9.68352
9.73744
9.79492
9.85622
9.92173
9.99109
10.0622
10.134
10.2089
10.2765
10.3474
10.4189
10.491
10.5598
10.6371
10.7106
10.7844
10.8473
10.9119
10.9736
11.0346
11.0916
11.1456
11.1918
11.2358
11.2738
11.305
11.3289
11.3451
11.3568
1.00046
1.00479
1.00324
1.03567
1.02044
0.972084
2.1612
2.26431
7.6339
10.2472
9.94092
9.40321
9.2227
9.23743
9.29542
9.39475
9.47577
9.5356
9.58516
9.63308
9.68318
9.73643
9.79318
9.85377
9.91863
9.98742
10.058
10.1294
10.2039
10.2708
10.3412
10.4121
10.4833
10.5512
10.6283
10.7014
10.7742
10.8365
10.9007
10.9619
11.0224
11.0787
11.1322
11.1779
11.2213
11.259
11.2903
11.3144
11.3309
11.3429
1.00142
1.00334
1.0047
1.02861
1.03925
0.954502
2.19263
2.22005
7.49665
10.2485
9.95126
9.4145
9.23312
9.24623
9.30011
9.39679
9.4775
9.53727
9.58639
9.63364
9.6829
9.73519
9.79096
9.85062
9.91465
9.9827
10.0527
10.1236
10.1974
10.2636
10.3333
10.4034
10.4735
10.5406
10.617
10.6893
10.7609
10.8227
10.8861
10.9469
11.0062
11.0616
11.1144
11.1596
11.2026
11.24
11.2711
11.2955
11.3122
11.3246
0.999915
1.00624
1.00489
1.01415
1.0898
1.02122
2.05046
2.30398
7.2203
10.2227
9.9534
9.43055
9.24605
9.25674
9.30517
9.39871
9.4796
9.53939
9.58787
9.63426
9.68246
9.73356
9.78812
9.84666
9.90966
9.97679
10.046
10.1163
10.1892
10.2546
10.3234
10.3926
10.4613
10.5274
10.6029
10.6739
10.7439
10.8052
10.8678
10.9281
10.9854
11.0397
11.0916
11.1364
11.1789
11.2159
11.2469
11.2714
11.2883
11.3011
1.00194
1.00262
1.01411
1.02259
1.08639
1.03625
1.99408
2.06546
7.07307
10.219
9.96679
9.45236
9.26055
9.26852
9.31193
9.40067
9.48218
9.54197
9.58972
9.63504
9.68195
9.7316
9.78471
9.84187
9.90363
9.96963
10.0379
10.1073
10.1791
10.2435
10.3112
10.3791
10.4463
10.5114
10.5856
10.6548
10.7229
10.7837
10.8452
10.9044
10.9595
11.0123
11.063
11.1073
11.1493
11.1859
11.2169
11.2414
11.2584
11.2716
1.00171
1.00143
1.01341
1.01995
1.08568
1.05308
1.96058
2.01035
6.85495
10.2175
9.98257
9.47737
9.27652
9.28039
9.31906
9.40289
9.48491
9.54462
9.59162
9.63572
9.68109
9.72905
9.78046
9.83603
9.8963
9.96097
10.0281
10.0964
10.167
10.2302
10.2965
10.3629
10.4282
10.492
10.5643
10.6315
10.6973
10.7576
10.8176
10.875
10.9277
10.9787
11.0277
11.0715
11.1128
11.1487
11.1799
11.2043
11.2214
11.2349
1.00209
1.00262
1.01069
1.01954
1.07376
1.05204
1.8709
1.98093
6.58718
10.2535
10.0212
9.5145
9.29941
9.29398
9.32857
9.40836
9.48885
9.54764
9.59356
9.63619
9.67979
9.72584
9.77533
9.82907
9.88763
9.95072
10.0164
10.0833
10.1525
10.2141
10.2789
10.3434
10.4067
10.4686
10.5388
10.6037
10.6666
10.7262
10.7839
10.839
10.8886
10.9385
10.9847
11.0279
11.0681
11.1031
11.1344
11.1587
11.1758
11.1897
1.00238
1.00232
1.01316
1.02392
1.07808
1.0536
1.80357
1.87887
6.2042
10.2009
10.0277
9.56938
9.33574
9.3114
9.34263
9.41668
9.49408
9.55114
9.59551
9.63632
9.67786
9.72175
9.76909
9.82075
9.87731
9.93854
10.0024
10.0676
10.1353
10.195
10.2578
10.3202
10.3812
10.4407
10.5085
10.5706
10.6304
10.6889
10.7432
10.7955
10.8415
10.8899
10.9333
10.9749
11.0137
11.0476
11.0785
11.1025
11.1195
11.1338
1.00204
1.0021
1.01277
1.01727
1.08201
1.04309
1.75039
1.88245
5.71294
10.155
10.0407
9.65296
9.38497
9.33609
9.36261
9.4283
9.50073
9.55506
9.59729
9.63586
9.675
9.71646
9.76144
9.81076
9.86504
9.9241
9.98598
10.0491
10.115
10.1723
10.233
10.293
10.3512
10.4078
10.4727
10.5316
10.588
10.6448
10.6946
10.7434
10.7858
10.8319
10.8723
10.9114
10.9478
10.9799
11.0097
11.033
11.0497
11.0647
1.00189
1.00217
1.01011
1.01486
1.07132
1.0955
1.66384
1.86047
5.34662
10.0138
10.0278
9.74813
9.4485
9.37077
9.38986
9.44227
9.50798
9.55895
9.59875
9.63472
9.67114
9.70989
9.75224
9.79883
9.85051
9.90698
9.96646
10.0273
10.0909
10.1455
10.2038
10.2609
10.3161
10.3693
10.4307
10.4858
10.5384
10.593
10.6372
10.682
10.7205
10.7631
10.7997
10.8354
10.8682
10.8973
10.9249
10.9466
10.9626
10.9779
1.00195
1.00166
1.01225
1.01842
1.0741
1.07456
1.61711
1.69639
5.05083
9.73545
10.0693
9.82671
9.51176
9.40841
9.41929
9.45655
9.5145
9.56251
9.59988
9.63285
9.66613
9.70178
9.74111
9.78451
9.83327
9.88655
9.9434
10.0015
10.0623
10.1139
10.1694
10.2232
10.275
10.3245
10.3818
10.4326
10.481
10.5325
10.57
10.6105
10.6446
10.6822
10.7138
10.7449
10.7715
10.7961
10.8197
10.8383
10.8523
10.8678
1.00182
1.00093
1.01138
1.01317
1.07129
1.08142
1.57664
1.74163
4.76282
9.3491
10.1063
9.8991
9.569
9.4426
9.44487
9.4679
9.51715
9.56439
9.60003
9.62993
9.65989
9.69212
9.72825
9.76763
9.81369
9.86314
9.91688
9.97152
10.029
10.0773
10.1297
10.1796
10.2275
10.2729
10.3252
10.3712
10.4151
10.4619
10.4929
10.5279
10.5566
10.5874
10.6121
10.6363
10.6546
10.672
10.6882
10.7007
10.7103
10.7249
1.00159
1.00206
1.01101
1.01723
1.0653
1.04821
1.54861
1.63143
4.57162
8.92765
10.1403
9.97532
9.63172
9.4757
9.45952
9.47612
9.51732
9.56413
9.59851
9.62558
9.65215
9.68092
9.71282
9.74924
9.79119
9.83655
9.88666
9.93763
9.9906
10.0358
10.0843
10.1298
10.1732
10.2139
10.2607
10.3012
10.3401
10.3802
10.4051
10.4332
10.4561
10.4764
10.4922
10.5058
10.5137
10.5192
10.5222
10.5225
10.5222
10.5329
1.00137
1.00174
1.00906
1.01376
1.05408
1.08908
1.46711
1.59267
4.23737
8.50059
10.1909
10.054
9.7151
9.51074
9.46681
9.4797
9.51562
9.56135
9.59442
9.61905
9.64217
9.6676
9.69473
9.72863
9.76532
9.80648
9.85259
9.89946
9.94673
9.98931
10.0332
10.0737
10.1121
10.1475
10.1881
10.2225
10.2551
10.2871
10.3058
10.3258
10.3401
10.3478
10.3529
10.351
10.344
10.33
10.3099
10.2882
10.2637
10.2612
1.00139
1.00147
1.00787
1.01076
1.05235
1.0772
1.42283
1.54654
3.96143
7.97633
10.2713
10.1548
9.80426
9.54393
9.46995
9.47973
9.51154
9.55607
9.58773
9.60986
9.62966
9.65123
9.67443
9.70459
9.73645
9.77299
9.81437
9.85712
9.89722
9.93804
9.97608
10.0113
10.0442
10.0738
10.1075
10.1351
10.1601
10.1827
10.1947
10.2048
10.2074
10.2027
10.1929
10.1706
10.139
10.0952
10.0374
9.96972
9.89025
9.8404
1.00138
1.00126
1.00762
1.00668
1.05481
1.06609
1.3747
1.49137
3.65736
7.36014
10.4065
10.2965
9.90127
9.57587
9.46993
9.47651
9.50371
9.54679
9.57696
9.5961
9.61342
9.6297
9.65221
9.67546
9.70324
9.73553
9.77065
9.80935
9.84341
9.87976
9.9123
9.94209
9.96927
9.99235
10.0189
10.0388
10.0553
10.0671
10.0733
10.0694
10.0609
10.0394
10.0084
9.95992
9.89523
9.80716
9.6859
9.52903
9.31841
9.08825
1.00122
1.00128
1.00742
1.0073
1.04591
1.04959
1.33189
1.38174
3.33053
6.51015
10.6264
10.5077
10.0353
9.62119
9.47353
9.4751
9.49473
9.53472
9.56184
9.57702
9.58926
9.60407
9.61904
9.63742
9.66021
9.68666
9.71461
9.74557
9.7763
9.80532
9.8312
9.85433
9.87424
9.88907
9.90706
9.91708
9.92237
9.92159
9.91751
9.90006
9.87107
9.8269
9.76458
9.68493
9.56843
9.40817
9.17301
8.80841
8.17203
6.77979
1.00126
1.00124
1.00662
1.00675
1.03743
1.04602
1.27607
1.20476
3.11509
5.60737
10.8245
10.6739
10.1182
9.64207
9.46595
9.45821
9.473
9.50515
9.52737
9.54355
9.55236
9.56186
9.57303
9.58813
9.60329
9.62301
9.64513
9.66873
9.69216
9.71352
9.73292
9.74857
9.76013
9.76598
9.77399
9.77281
9.76736
9.75385
9.73243
9.69279
9.64359
9.57549
9.48159
9.35955
9.18644
8.94645
8.60153
8.08601
7.32789
6.07984
1.00128
1.00126
1.00701
1.00813
1.0387
1.05893
1.27414
1.25792
2.98766
5.11299
10.7863
10.598
10.092
9.61
9.42784
9.4191
9.43395
9.46512
9.48738
9.49837
9.50464
9.51077
9.5204
9.52746
9.53868
9.55275
9.56818
9.58472
9.60098
9.61617
9.62827
9.63667
9.64021
9.63915
9.63647
9.62609
9.60561
9.57753
9.53849
9.48816
9.41471
9.32482
9.20287
9.04501
8.84061
8.55991
8.18223
7.6731
7.01624
6.14906
0.999839
1.00557
1.00854
1.03423
1.02601
1.08705
1.18178
1.11011
2.92882
4.97005
10.6296
10.4522
9.99025
9.52986
9.35789
9.3583
9.37706
9.4154
9.43885
9.4484
9.45431
9.45888
9.4622
9.46772
9.47411
9.48179
9.49095
9.50113
9.51126
9.51997
9.52518
9.52706
9.52509
9.51776
9.50504
9.48069
9.44974
9.40997
9.3581
9.29591
9.20601
9.09963
8.96251
8.78795
8.57009
8.28838
7.93797
7.50148
6.98798
6.34406
0.999817
1.00546
1.00807
1.03359
1.02376
1.0791
1.1664
1.08764
2.89488
4.84966
10.5061
10.3452
9.9111
9.44271
9.27257
9.27685
9.30344
9.34831
9.37425
9.3856
9.39114
9.39526
9.39899
9.40155
9.40469
9.40847
9.41308
9.41853
9.42285
9.42605
9.42599
9.42359
9.41604
9.40245
9.37865
9.34735
9.30827
9.25891
9.19786
9.12266
9.02776
8.91005
8.76758
8.59128
8.37841
8.11626
7.8069
7.43766
7.01211
6.52936
0.999833
1.00507
1.00734
1.0319
1.02004
1.06919
1.14901
1.06485
2.86229
4.7033
10.255
10.1726
9.80912
9.36784
9.21285
9.21798
9.24512
9.28823
9.31243
9.32313
9.32965
9.33417
9.33665
9.33779
9.33817
9.33831
9.33876
9.33957
9.33951
9.3385
9.3351
9.32636
9.31362
9.29379
9.26471
9.22805
9.18244
9.12622
9.05869
8.97528
8.87969
8.75624
8.61558
8.44613
8.24436
8.00695
7.73514
7.42289
7.06949
6.67728
0.999699
1.00489
1.01168
1.01072
1.0413
1.0723
1.00635
1.85358
2.08913
5.84683
9.81189
9.7066
9.38146
9.1498
9.0992
9.11648
9.15856
9.19858
9.22232
9.2378
9.24955
9.25825
9.2638
9.2662
9.26668
9.26648
9.26558
9.2635
9.2606
9.25546
9.24939
9.23912
9.2213
9.19655
9.16418
9.12324
9.07298
9.01229
8.94059
8.85406
8.75742
8.63586
8.49954
8.33974
8.15569
7.94278
7.69906
7.43307
7.13909
6.81288
0.999932
1.0025
1.0029
1.01377
1.01976
1.07886
1.05879
1.72551
1.84928
5.38652
9.56945
9.54461
9.33319
9.12434
9.07692
9.09146
9.12472
9.15372
9.17285
9.18643
9.19761
9.20541
9.20915
9.20926
9.20827
9.20592
9.20247
9.19739
9.18999
9.18427
9.17374
9.15899
9.13864
9.11145
9.07637
9.03267
8.97968
8.91666
8.84324
8.75636
8.66011
8.54351
8.41359
8.26491
8.09621
7.90608
7.6948
7.45994
7.21056
6.93854
1.00001
1.0022
1.00196
1.01336
1.0159
1.08548
1.07172
1.65986
1.69626
5.06887
9.54424
9.65561
9.41204
9.13643
9.05694
9.0661
9.09213
9.11968
9.138
9.1505
9.15941
9.16472
9.16643
9.16674
9.16471
9.16053
9.153
9.14408
9.13374
9.12181
9.10978
9.09198
9.0689
9.03953
9.00269
8.95765
8.90395
8.84048
8.76692
8.6814
8.5874
8.47627
8.3539
8.21618
8.0624
7.89216
7.70324
7.50026
7.28608
7.05546
0.999947
1.00231
1.0024
1.01272
1.01316
1.07361
1.06337
1.55591
1.70014
4.62835
9.00635
9.67867
9.48022
9.15323
9.02247
9.02434
9.04237
9.07736
9.1033
9.11847
9.12656
9.13046
9.13046
9.12951
9.1265
9.12002
9.11154
9.10078
9.08886
9.0743
9.05717
9.03669
9.01211
8.98149
8.94344
8.8974
8.84292
8.77999
8.70771
8.62516
8.53427
8.42952
8.31494
8.18834
8.04946
7.89571
7.72683
7.55067
7.36546
7.1675
0.999944
1.00172
1.0017
1.01045
1.0165
1.05924
1.10394
1.44972
1.64914
4.18265
8.40042
9.77513
9.6127
9.23416
9.01683
8.97697
8.99194
9.02987
9.06654
9.08663
9.09525
9.09894
9.09908
9.09822
9.09579
9.09089
9.07873
9.06763
9.0521
9.03447
9.01541
8.99216
8.96451
8.93459
8.89565
8.85111
8.79904
8.73806
8.66786
8.58942
8.50184
8.40414
8.29738
8.18079
8.05276
7.91152
7.76475
7.60932
7.44666
7.27443
1.00006
1.00109
1.00173
1.00665
1.01186
1.04309
1.07454
1.39822
1.47829
3.89993
7.80812
9.82411
9.702
9.3313
9.0391
8.96554
8.97808
9.01377
9.05287
9.07256
9.079
9.0798
9.07951
9.07797
9.0747
9.06997
9.05838
9.04505
9.02873
9.01007
8.98889
8.96376
8.93345
8.90492
8.86509
8.82007
8.76771
8.70819
8.64105
8.56527
8.48403
8.39156
8.2926
8.18396
8.06556
7.94065
7.81078
7.67495
7.53181
7.37967
0.999836
0.999667
0.998955
0.999429
0.987042
1.00318
1.01682
0.91217
2.38441
2.83495
8.07453
9.77015
9.57933
9.18397
8.96591
8.92907
8.94611
8.98752
9.02527
9.044
9.05099
9.05361
9.05553
9.05537
9.05387
9.05039
9.04252
9.03052
9.01546
8.99628
8.97394
8.94709
8.91559
8.88543
8.84534
8.8018
8.75385
8.69802
8.63482
8.56442
8.48524
8.39878
8.30235
8.20188
8.09681
7.98662
7.86914
7.74397
7.61403
7.47778
0.999977
0.999889
0.999337
0.999254
0.993027
1.0055
0.986518
0.947348
2.17499
2.39567
7.49968
9.47187
9.34792
9.07906
8.93945
8.93566
8.95596
8.99991
9.03369
9.05005
9.05644
9.05904
9.06033
9.06006
9.05862
9.05506
9.0475
9.03477
9.01873
8.99981
8.97542
8.95122
8.92049
8.88653
8.84707
8.8025
8.75199
8.69648
8.63504
8.56697
8.49177
8.41224
8.32507
8.23246
8.13618
8.03351
7.92464
7.81093
7.69379
7.56948
1.00015
1.00019
1.00142
1.00346
1.00144
1.00828
0.995525
0.93613
2.09315
2.22023
6.91796
9.5769
9.48335
9.2115
9.01752
8.98504
9.00014
9.03547
9.06104
9.07239
9.07716
9.07929
9.07996
9.07962
9.07813
9.07384
9.06515
9.05266
9.0361
9.0149
8.98948
8.96282
8.93132
8.89454
8.85396
8.80831
8.75801
8.70319
8.643
8.57856
8.50896
8.43664
8.35709
8.26937
8.17888
8.08235
7.98047
7.87478
7.76469
7.64794
1.00015
0.99994
0.999346
1.00861
1.02265
1.01198
1.05866
1.13623
1.0636
2.8322
4.8653
9.6649
9.85779
9.57459
9.21
9.08379
9.08565
9.09826
9.11435
9.12121
9.12335
9.12391
9.12348
9.1224
9.11964
9.11373
9.10359
9.08862
9.06997
9.04712
9.0193
8.98951
8.95401
8.9153
8.8724
8.82523
8.77337
8.71782
8.65848
8.59523
8.52716
8.45545
8.38003
8.29585
8.21031
8.11988
8.025
7.92643
7.82457
7.71641
1.00037
1.00044
1.00201
1.00278
1.01269
1.01374
1.07791
1.03922
1.59616
1.63195
4.77304
9.18651
9.8415
9.64437
9.30992
9.16252
9.14174
9.14782
9.16014
9.16715
9.16889
9.17053
9.16969
9.16759
9.16339
9.15534
9.14345
9.12642
9.106
9.08177
9.05222
9.01961
8.9814
8.93967
8.89409
8.84399
8.79091
8.73427
8.67414
8.61048
8.54336
8.47196
8.39936
8.3188
8.23654
8.15098
8.06151
7.9686
7.87253
7.7703
1.00029
1.00028
1.00155
1.0016
1.00934
1.01103
1.06084
1.05636
1.4721
1.50405
4.24453
8.23723
9.91534
9.8153
9.52127
9.2917
9.2119
9.21206
9.2204
9.23318
9.236
9.23471
9.22944
9.22011
9.20971
9.19662
9.18137
9.16147
9.13802
9.11029
9.07823
9.04218
9.00189
8.95662
8.9086
8.85645
8.8024
8.74314
8.68191
8.61813
8.55137
8.48184
8.40926
8.33476
8.25455
8.17304
8.08824
8.00003
7.90899
7.8129
1.00021
1.00033
1.00135
1.002
1.00762
1.009
1.05295
1.03732
1.38323
1.34414
3.73852
7.17297
10.3682
10.2887
9.90663
9.49576
9.32685
9.30735
9.31682
9.32762
9.32543
9.31682
9.29744
9.27589
9.25552
9.23456
9.21113
9.18637
9.15816
9.1268
9.09197
9.0527
9.0103
8.96308
8.91307
8.85877
8.80411
8.74494
8.684
8.62101
8.55548
8.48758
8.41725
8.34448
8.26878
8.19106
8.11044
8.02688
7.94065
7.85074
1.00001
1.00042
1.00072
1.00164
1.00644
1.00629
1.03315
1.05485
1.26124
1.27375
3.08729
5.85828
10.6103
10.5389
10.0905
9.62634
9.44588
9.42212
9.42638
9.42489
9.41523
9.39122
9.35501
9.32081
9.29043
9.26129
9.23189
9.20068
9.16916
9.13276
9.0937
9.05215
9.00791
8.96013
8.90928
8.85572
8.80017
8.74199
8.68198
8.62023
8.55666
8.49098
8.42308
8.35287
8.28034
8.2055
8.12818
8.04835
7.96621
7.88079
1.00001
1.00009
1.00014
1.00005
0.999243
0.994012
0.989334
0.984451
0.859879
2.26477
2.38989
7.78798
10.4345
10.2195
9.7759
9.5507
9.48356
9.4842
9.48728
9.48205
9.46395
9.42624
9.3838
9.34377
9.30699
9.27166
9.23716
9.20073
9.16592
9.12755
9.08782
9.04551
9.00014
8.95212
8.90155
8.84876
8.79426
8.73776
8.67879
8.61811
8.55631
8.49275
8.42726
8.35999
8.29073
8.21931
8.14552
8.06946
7.99115
7.90972
0.999977
1.00084
1.00094
1.00495
1.00777
1.02863
1.02611
1.07368
1.22934
1.19382
3.02557
5.64903
10.5876
10.5226
10.1217
9.75717
9.61556
9.5843
9.56666
9.53294
9.48826
9.43803
9.39085
9.34664
9.30581
9.26738
9.22999
9.19333
9.15536
9.11729
9.07534
9.0318
8.98624
8.93861
8.88895
8.83742
8.78391
8.72989
8.6735
8.61449
8.55527
8.49435
8.43152
8.36657
8.29968
8.23086
8.15901
8.08713
8.01262
7.93526
0.999985
1.00047
1.00058
1.00283
1.0044
1.02024
1.00775
1.05533
1.13838
1.04816
3.00558
5.11747
11.0582
10.8352
10.3225
9.85923
9.66193
9.60363
9.57289
9.5293
9.47774
9.42407
9.3746
9.33031
9.28975
9.25239
9.21385
9.17682
9.1377
9.09841
9.05773
9.01516
8.97099
8.92521
8.87752
8.8278
8.77603
8.72289
8.6693
8.61254
8.55471
8.4963
8.43578
8.37362
8.30969
8.24363
8.17597
8.1058
8.03644
7.96219
0.999992
1.0004
1.00055
1.00233
1.00286
1.01396
1.01606
1.07863
1.08087
1.77522
1.89107
6.50119
10.8445
10.6244
10.1109
9.76654
9.60891
9.56015
9.53896
9.50384
9.45388
9.40033
9.35047
9.30609
9.26621
9.22947
9.19401
9.15892
9.12103
9.0841
9.04426
9.0031
8.95982
8.91494
8.86786
8.81942
8.76957
8.71835
8.6657
8.61202
8.55634
8.49886
8.44081
8.38055
8.31878
8.25487
8.1897
8.12198
8.05538
7.98426
1.00001
1.00029
1.00048
1.00172
1.00237
1.01182
1.02118
1.07595
1.05754
1.72818
1.74966
5.87867
10.7732
10.6405
10.1861
9.78227
9.58359
9.52403
9.50519
9.477
9.4319
9.37917
9.32841
9.28193
9.24252
9.20725
9.17415
9.14146
9.10758
9.0726
9.0356
8.9966
8.95575
8.91275
8.86796
8.82077
8.77181
8.72126
8.66908
8.61534
8.56012
8.50444
8.44745
8.38912
8.3293
8.26777
8.2047
8.13994
8.07399
8.00541
0.999995
1.0003
1.00043
1.00189
1.00285
1.01139
1.02005
1.06974
1.07511
1.69818
1.75057
5.82014
10.8045
10.6688
10.1938
9.75308
9.53612
9.47975
9.47305
9.45744
9.42247
9.37451
9.32653
9.28178
9.24183
9.20533
9.17187
9.13931
9.10629
9.07235
9.03664
8.99903
8.95935
8.9171
8.87342
8.82617
8.77762
8.72722
8.67507
8.62155
8.56626
8.51157
8.45457
8.39652
8.33746
8.27709
8.21533
8.15221
8.08781
8.02136
0.999986
1.00029
1.00039
1.00204
1.00347
1.0154
1.00614
1.05089
1.1276
1.03759
2.93238
4.96346
10.9615
10.6731
10.1233
9.67628
9.4889
9.4525
9.4524
9.4457
9.42505
9.38204
9.33497
9.29053
9.25003
9.21284
9.17902
9.14582
9.11292
9.07973
9.04537
9.00891
8.9704
8.92956
8.88626
8.8399
8.79103
8.73986
8.68662
8.6319
8.57572
8.51876
8.46197
8.40344
8.34461
8.28505
8.22465
8.16325
8.10089
8.03636
1.00003
1.00032
1.00042
1.00168
1.00219
1.00908
1.0173
1.07345
1.0672
1.69555
1.79214
5.54669
10.5115
10.4132
10.0368
9.67394
9.51337
9.48804
9.48758
9.48553
9.46656
9.4247
9.37159
9.32247
9.27848
9.23831
9.20133
9.16658
9.13291
9.0991
9.06445
9.02799
8.98962
8.94856
8.90463
8.85746
8.80739
8.75479
8.70004
8.64396
8.58686
8.52762
8.4695
8.41061
8.35141
8.29188
8.23224
8.17119
8.11046
8.04751
1.00006
1.00003
1.00052
1.00029
1.00435
1.01111
1.0149
1.0715
1.05849
1.64715
1.86715
5.36379
10.3186
10.3551
10.0553
9.69821
9.53904
9.5226
9.52641
9.52272
9.51121
9.47391
9.41889
9.36753
9.32116
9.27725
9.23756
9.19731
9.15979
9.12243
9.08437
9.0454
9.00495
8.96241
8.91748
8.86992
8.81964
8.76677
8.71163
8.65453
8.59639
8.53757
8.47715
8.41795
8.35867
8.29934
8.2399
8.18036
8.11974
8.05833
0.999992
1.00022
1.00031
1.00162
1.00265
1.01386
1.00264
1.04326
1.10789
1.01274
2.8157
4.52482
10.592
10.5393
10.171
9.76054
9.59465
9.5778
9.57826
9.57434
9.55592
9.51521
9.46148
9.40912
9.361
9.31567
9.27228
9.22966
9.18811
9.14666
9.10566
9.06384
9.02099
8.97683
8.93073
8.88249
8.83172
8.77831
8.72259
8.66491
8.60617
8.54659
8.48688
8.42754
8.36826
8.30919
8.25012
8.19106
8.13163
8.07127
1.00001
1.00028
1.00038
1.00185
1.00216
1.01085
1.01553
1.06441
1.08475
1.56005
1.61514
5.11594
10.0133
10.591
10.2925
9.86825
9.66633
9.64091
9.64119
9.63961
9.61737
9.56814
9.50539
9.44818
9.39588
9.34714
9.3009
9.2565
9.21292
9.16945
9.1261
9.08213
9.03749
8.99179
8.94477
8.89558
8.84461
8.79088
8.73513
8.67794
8.61924
8.55989
8.5003
8.44073
8.38184
8.32253
8.26367
8.20478
8.1457
8.08575
1.00001
1.0003
1.00042
1.0018
1.00238
1.01071
1.01119
1.06851
1.03082
1.56707
1.63886
4.8456
9.77107
10.877
10.5506
10.0004
9.72207
9.67682
9.67276
9.67212
9.64906
9.59712
9.5314
9.47353
9.42095
9.37227
9.32581
9.28099
9.23653
9.19205
9.14713
9.10196
9.05636
9.00984
8.96205
8.91256
8.86125
8.80762
8.7522
8.69489
8.63631
8.57699
8.51751
8.45819
8.39925
8.3404
8.28176
8.22305
8.16404
8.10399
1.00002
1.00028
1.00042
1.00169
1.00239
1.00971
1.01339
1.05648
1.06624
1.52935
1.565
4.90781
9.78004
10.9853
10.6188
10.013
9.71645
9.67697
9.67886
9.68599
9.66691
9.61941
9.55149
9.49354
9.44217
9.39688
9.35227
9.30895
9.26504
9.22035
9.175
9.12946
9.08257
9.03503
8.98614
8.93556
8.88304
8.82864
8.77251
8.71507
8.65658
8.5976
8.53843
8.47955
8.42092
8.36245
8.30397
8.24521
8.18593
8.12526
1.00001
1.00021
1.00028
1.00098
1.00125
1.00817
1.00776
1.06002
1.06273
1.54817
1.71567
4.97403
9.96812
10.9346
10.5777
9.99898
9.72964
9.69507
9.69708
9.70249
9.68161
9.62943
9.56289
9.50574
9.46141
9.41378
9.37396
9.33317
9.29044
9.24747
9.20202
9.15767
9.11232
9.06368
9.01386
8.96222
8.90856
8.85303
8.79597
8.73775
8.67929
8.6207
8.56211
8.50371
8.44564
8.38765
8.32945
8.27066
8.21094
8.14924
0.999998
1.00011
1.00023
0.998587
0.997028
0.998499
0.989286
1.02332
1.07872
0.97896
2.77361
4.30675
10.7196
10.8327
10.3883
9.9153
9.71786
9.69325
9.69666
9.69067
9.66855
9.6151
9.56007
9.51064
9.47046
9.43896
9.40223
9.36577
9.32616
9.28474
9.24058
9.19542
9.14815
9.10002
9.04812
8.99437
8.93857
8.881
8.8222
8.76298
8.7035
8.64445
8.58613
8.5284
8.47105
8.41373
8.356
8.29744
8.23759
8.17522
1.00001
1.00003
1.00007
0.99937
0.997923
0.998924
0.984725
1.01404
1.0636
0.96141
2.70548
4.03655
10.5693
10.7312
10.3089
9.8783
9.71948
9.70015
9.70182
9.69331
9.66615
9.61726
9.56657
9.51866
9.48039
9.45409
9.41988
9.38698
9.35168
9.3135
9.27246
9.23045
9.18307
9.13413
9.08138
9.02505
8.96656
8.90641
8.84622
8.78519
8.7251
8.66615
8.60815
8.5509
8.4941
8.43712
8.37963
8.32122
8.26142
8.19925
1
1.00003
1.00011
0.999133
0.997797
0.998623
0.986576
1.01789
1.07201
0.98074
2.78298
4.30277
10.9659
10.8584
10.3804
9.90365
9.7144
9.68731
9.68917
9.6836
9.66361
9.62279
9.57745
9.53569
9.50193
9.48183
9.4527
9.42472
9.3938
9.35875
9.31955
9.27757
9.22899
9.17654
9.12012
9.05989
8.99731
8.93311
8.86952
8.80656
8.74511
8.68543
8.62742
8.57068
8.51451
8.45834
8.40143
8.34319
8.28335
8.22129
1.00023
1.00019
1.00135
1.00155
1.0082
1.0108
1.04335
1.04609
1.02433
1.66602
1.59317
5.48227
10.3592
10.7881
10.3892
9.8841
9.65071
9.63887
9.64908
9.64359
9.62692
9.59626
9.55975
9.53079
9.50769
9.48681
9.46576
9.44261
9.41416
9.3816
9.33998
9.30346
9.25289
9.19846
9.14023
9.07804
9.01349
8.94818
8.88353
8.82091
8.75909
8.7002
8.64278
8.58662
8.53094
8.47493
8.4178
8.3591
8.29839
8.23471
1.00016
1.00012
1.00086
1.00102
1.00425
1.00532
1.02313
1.05605
1.07219
1.49452
1.65205
4.90218
9.9782
11.1978
10.731
10.0727
9.74386
9.68352
9.66978
9.65304
9.63273
9.60589
9.57623
9.55222
9.53573
9.51167
9.49454
9.47383
9.44599
9.41502
9.36968
9.33473
9.28195
9.22403
9.16289
9.09812
9.03144
8.96435
8.89849
8.83492
8.77335
8.71427
8.65708
8.60108
8.54543
8.48929
8.43191
8.37255
8.31069
8.24478
1.00016
1.00012
1.00089
1.00111
1.00448
1.00598
1.02148
1.03963
1.06885
1.51392
1.50036
4.99388
9.95589
11.3907
10.8714
10.1439
9.78353
9.70187
9.67504
9.65317
9.62352
9.59631
9.57171
9.553
9.53713
9.5197
9.50082
9.48302
9.45603
9.4258
9.3802
9.3445
9.29153
9.23269
9.1707
9.10536
9.03824
8.97125
8.90503
8.8432
8.7814
8.72234
8.66597
8.61018
8.5545
8.49811
8.44029
8.38083
8.31795
8.2514
2.93298
2.49197
3.12361
4.0851
4.00013
4.01559
3.96848
3.94884
3.94371
3.95594
3.99086
4.03732
4.07847
4.11639
4.15695
4.20355
4.25631
4.31393
4.37444
4.43591
4.49728
4.55674
4.61535
4.66777
4.71505
4.75574
4.79035
4.81963
4.84372
4.86303
4.8777
4.8882
4.89436
4.89616
4.89529
4.89187
4.88381
4.86984
4.85298
4.83338
4.81065
4.78503
4.75678
4.72626
4.69375
4.65944
4.62356
4.58638
4.54812
4.50902
4.46933
4.42931
4.38923
4.34934
4.30992
4.27124
4.23354
4.19703
4.16193
4.12841
4.0966
4.06662
4.03855
4.01246
3.9884
3.96641
3.94652
3.92877
3.9132
3.89987
3.8888
3.88008
3.87374
3.86968
3.86838
3.86862
3.86942
3.87129
3.87501
3.88103
3.88906
3.89789
3.90683
3.91538
3.92325
3.93018
3.93595
3.9403
3.94314
3.94356
3.94325
3.9422
3.93976
3.93624
3.93153
3.9262
3.92059
3.91498
3.91
3.90605
3.93616
3.52656
3.72329
4.13309
4.03244
3.99559
3.95414
3.9318
3.93244
3.94941
3.995
4.04527
4.0822
4.11531
4.15386
4.1993
4.25166
4.3089
4.36884
4.42972
4.49067
4.55054
4.60927
4.66192
4.70888
4.74991
4.78472
4.81444
4.83872
4.85816
4.87296
4.88342
4.88961
4.89096
4.89019
4.88726
4.88006
4.86558
4.84761
4.82766
4.8052
4.77987
4.75178
4.7214
4.68906
4.65493
4.61924
4.58226
4.54421
4.50533
4.46587
4.42608
4.38621
4.34655
4.30734
4.26885
4.23132
4.19496
4.15998
4.12654
4.0948
4.06485
4.0368
4.0107
3.98662
3.9646
3.94468
3.9269
3.91129
3.89793
3.88681
3.87808
3.87166
3.86767
3.86653
3.86681
3.86769
3.86965
3.87354
3.87935
3.88721
3.89599
3.90509
3.91391
3.92202
3.92923
3.93521
3.93972
3.9428
3.94349
3.94319
3.94214
3.93974
3.93628
3.93158
3.92624
3.9205
3.91493
3.90985
3.90791
4.97669
4.32514
4.15103
4.17375
4.1496
4.09078
4.0257
3.99185
3.98761
3.99322
4.01184
4.05076
4.0926
4.13163
4.172
4.2173
4.26844
4.32419
4.38262
4.44186
4.50072
4.55817
4.61355
4.66454
4.71022
4.75085
4.78422
4.81281
4.83631
4.85507
4.86921
4.87888
4.88457
4.88461
4.88368
4.88098
4.87429
4.86053
4.84111
4.81995
4.79707
4.77187
4.744
4.71379
4.68174
4.64779
4.61232
4.57561
4.53785
4.49929
4.46016
4.42071
4.3812
4.34188
4.30302
4.26485
4.22762
4.19156
4.15684
4.12363
4.09207
4.06227
4.03434
4.00834
3.98433
3.96236
3.94248
3.92471
3.90911
3.89573
3.88457
3.87587
3.86936
3.86526
3.8642
3.86452
3.86549
3.86759
3.8717
3.87713
3.88463
3.89318
3.90223
3.91117
3.91952
3.92695
3.93317
3.93791
3.94117
3.94248
3.94214
3.94118
3.93892
3.93543
3.9307
3.92541
3.91968
3.91418
3.90845
3.90773
5.52206
4.88585
4.52614
4.3608
4.31607
4.24679
4.16714
4.10613
4.07295
4.06897
4.07465
4.09289
4.13151
4.17507
4.21505
4.25535
4.2991
4.34752
4.39955
4.45358
4.50805
4.56175
4.61371
4.66225
4.70641
4.7448
4.77795
4.80606
4.82863
4.84687
4.86037
4.86952
4.87424
4.87402
4.87304
4.87036
4.86409
4.85106
4.83094
4.80864
4.78502
4.75977
4.73216
4.70217
4.67069
4.63721
4.60208
4.56581
4.52853
4.49045
4.45181
4.41286
4.37384
4.33501
4.29664
4.25894
4.22217
4.18652
4.15217
4.1193
4.08805
4.05852
4.03082
4.00502
3.98118
3.95936
3.9396
3.92195
3.90643
3.89312
3.88199
3.8732
3.86669
3.8624
3.86137
3.86168
3.86265
3.8648
3.86884
3.87373
3.88068
3.88871
3.89744
3.90612
3.91451
3.9221
3.92858
3.93368
3.93735
3.9393
3.93905
3.93823
3.93648
3.93351
3.92904
3.92387
3.91807
3.913
3.90679
3.90675
5.88112
5.3261
4.92407
4.68083
4.54908
4.44401
4.34577
4.26334
4.20728
4.17937
4.17818
4.18296
4.19777
4.2292
4.26727
4.30486
4.34312
4.38431
4.42892
4.47614
4.52457
4.57307
4.6201
4.66449
4.70564
4.74181
4.77307
4.79936
4.82083
4.83773
4.85007
4.85823
4.8615
4.8612
4.86001
4.85703
4.85063
4.83782
4.81828
4.79538
4.77103
4.74537
4.71783
4.68835
4.65711
4.62405
4.58951
4.55377
4.51702
4.4795
4.44143
4.40307
4.36466
4.32645
4.28868
4.25159
4.2154
4.18031
4.14651
4.11414
4.08336
4.05427
4.02696
4.00153
3.97803
3.95651
3.93703
3.91962
3.9043
3.89113
3.88012
3.87131
3.86473
3.86028
3.85885
3.85912
3.85999
3.86191
3.8657
3.87037
3.87651
3.88367
3.89155
3.89943
3.90763
3.91515
3.92166
3.927
3.931
3.93348
3.93347
3.93306
3.93186
3.92931
3.92525
3.92049
3.91507
3.90992
3.90442
3.90415
6.15931
5.69237
5.30013
5.00831
4.81057
4.6654
4.54646
4.44748
4.37188
4.32198
4.29683
4.29365
4.29678
4.30745
4.33081
4.36258
4.39574
4.42975
4.46554
4.50407
4.54444
4.58567
4.62657
4.66609
4.70346
4.73653
4.76553
4.79014
4.81018
4.82571
4.83683
4.84384
4.84587
4.84548
4.84412
4.84087
4.83404
4.82082
4.80194
4.77927
4.75464
4.72861
4.70103
4.67183
4.64096
4.60848
4.57457
4.53946
4.50338
4.46653
4.42917
4.39153
4.35386
4.31639
4.27936
4.24301
4.20755
4.17316
4.14003
4.10831
4.07813
4.04961
4.02284
3.99791
3.97488
3.9538
3.93471
3.91765
3.90265
3.88973
3.87889
3.87015
3.86353
3.85898
3.85686
3.85704
3.85772
3.8593
3.86227
3.86642
3.87163
3.87768
3.88432
3.89121
3.89853
3.90557
3.91181
3.9172
3.92124
3.92417
3.92527
3.925
3.92412
3.92217
3.91907
3.91488
3.91002
3.90529
3.90054
3.90052
6.38919
5.99546
5.63428
5.32653
5.08619
4.90607
4.76469
4.64931
4.55674
4.48736
4.44129
4.41671
4.40886
4.41008
4.41552
4.42872
4.45267
4.47784
4.50591
4.53597
4.568
4.60166
4.6352
4.66917
4.70164
4.73146
4.75759
4.7799
4.79837
4.81245
4.82223
4.82798
4.82875
4.82826
4.82668
4.82297
4.81526
4.80178
4.78344
4.76138
4.73691
4.71076
4.68315
4.65407
4.62354
4.59156
4.55827
4.52382
4.48844
4.45233
4.41573
4.37888
4.34202
4.30537
4.26918
4.23366
4.19902
4.16545
4.13312
4.10216
4.07272
4.04492
4.01883
3.99455
3.97213
3.95163
3.93306
3.91648
3.90189
3.88929
3.87867
3.87005
3.86338
3.8587
3.85582
3.85577
3.85611
3.85711
3.85924
3.8625
3.86663
3.87146
3.87666
3.88216
3.88842