/*--------------------------------*- C++ -*----------------------------------*\
| =========                 |                                                 |
| \\      /  F ield         | OpenFOAM: The Open Source CFD Toolbox           |
|  \\    /   O peration     | Version:  2412                                  |
|   \\  /    A nd           | Website:  www.openfoam.com                      |
|    \\/     M anipulation  |                                                 |
\*---------------------------------------------------------------------------*/
FoamFile
{
    version     2.0;
    format      ascii;
    arch        "LSB;label=32;scalar=64";
    class       surfaceScalarField;
    location    "8";
    object      phi;
}
// * * * * * * * * * * * * * * * * * * * * * * * * * * * * * * * * * * * * * //

dimensions      [1 0 -1 0 0 0 0];

oriented        oriented;

internalField   nonuniform List<scalar> 
13790
(
0.00290753
-2.79666e-07
0.00289967
8.83134e-07
0.00291973
-3.01177e-06
0.00288033
3.83787e-06
0.00290927
1.55889e-05
0.00294984
1.61296e-05
0.00294954
-1.71482e-05
0.00276384
9.46548e-05
0.00262352
-1.43398e-05
0.0025763
6.47854e-05
0.00253952
5.99176e-05
0.0024978
5.01456e-05
0.00246528
4.3837e-05
0.00243782
3.95742e-05
0.00241033
3.55008e-05
0.00238529
3.15402e-05
0.00236527
2.82714e-05
0.00234924
2.60643e-05
0.0023352
2.48246e-05
0.00232184
2.42572e-05
0.00230845
2.40728e-05
0.002294
2.41211e-05
0.00227764
2.43872e-05
0.00225929
2.49853e-05
0.0022389
2.61206e-05
0.00221644
2.80154e-05
0.00219089
3.08781e-05
0.00215838
3.48978e-05
0.00211217
4.0373e-05
0.00204501
4.64318e-05
0.00197426
5.3762e-05
0.00190505
6.21874e-05
0.00183549
7.15183e-05
0.00176395
8.08797e-05
0.00168378
8.854e-05
0.00159185
9.40598e-05
0.00148606
9.46977e-05
0.00137949
9.61115e-05
0.00128336
9.48921e-05
0.00119281
9.53031e-05
0.00110592
9.75526e-05
0.00100513
0.000102297
0.000891196
0.000108759
0.000767099
0.00011681
0.000640663
0.000124758
0.000513554
0.00013067
0.000382581
0.000131689
0.000253026
0.000128369
0.000124664
0.000126364
0.000123595
0.00301461
-2.00976e-08
0.00300931
1.16253e-08
0.00301818
7.65539e-07
0.0029886
-1.15061e-07
0.00312411
3.60238e-06
0.00287931
7.30103e-06
0.00306081
4.88975e-06
0.0032002
-1.20039e-05
0.00280711
0.000144736
0.00271924
0.000177391
0.00266659
0.00013907
0.00262031
0.000100667
0.0025889
8.07162e-05
0.00256684
6.93285e-05
0.0025462
6.20503e-05
0.00252632
5.78377e-05
0.00250701
5.61149e-05
0.00248768
5.58765e-05
0.00246759
5.61682e-05
0.00244671
5.64036e-05
0.00242523
5.6384e-05
0.00240272
5.62332e-05
0.00237873
5.62564e-05
0.00235335
5.68971e-05
0.00232654
5.86598e-05
0.00229821
6.20193e-05
0.00226703
6.73601e-05
0.00222876
7.49674e-05
0.00217648
8.48131e-05
0.00210547
9.63627e-05
0.00203372
0.000109585
0.00196522
0.000124741
0.0018981
0.000141311
0.00183128
0.000158495
0.00175781
0.000172169
0.00167164
0.000183184
0.00157064
0.000187347
0.00146243
0.000190979
0.00136303
0.000191858
0.00126647
0.000194855
0.00117342
0.000201747
0.00106562
0.000212183
0.00094459
0.000225233
0.000813883
0.000239442
0.000682636
0.000253935
0.000551511
0.00026532
0.000414173
0.000269964
0.000274489
0.000266887
0.000135343
0.000263437
0.000257779
0.00312671
1.13115e-07
0.00312123
-1.98302e-07
0.00313975
8.34335e-07
0.00309077
1.51144e-06
0.00319449
7.01265e-06
0.00326187
1.26168e-05
0.00311999
4.46935e-06
0.00319262
7.35799e-06
0.00284664
0.000155216
0.00280451
0.000217209
0.00276674
0.000196382
0.00272344
0.000157735
0.00268782
0.00012858
0.00265792
0.000110936
0.00262601
0.000100491
0.00259724
9.3545e-05
0.0025735
8.91681e-05
0.00255381
8.64772e-05
0.00253654
8.48143e-05
0.00252068
8.36855e-05
0.00250542
8.28987e-05
0.00248933
8.25803e-05
0.00247114
8.30441e-05
0.00245043
8.47796e-05
0.00242695
8.83856e-05
0.00240061
9.44219e-05
0.00237035
0.000103362
0.00233222
0.000115513
0.00227932
0.000130814
0.00220578
0.000148095
0.00213028
0.000167489
0.0020586
0.000189103
0.00198968
0.00021238
0.00192192
0.000236067
0.00185022
0.000256832
0.00176411
0.00027361
0.00166294
0.000283904
0.0015472
0.00029069
0.00143913
0.000295552
0.00133265
0.000302618
0.00123079
0.000314539
0.00111495
0.000330447
0.000986994
0.000348778
0.000850412
0.000367398
0.000715014
0.000386957
0.000580562
0.00040351
0.000438677
0.000413021
0.00029219
0.000412236
0.000144646
0.00040884
0.000401184
0.00324235
-2.33035e-07
0.00323556
1.0232e-07
0.00325152
-1.16934e-06
0.00324963
-1.98187e-07
0.00331394
-9.24977e-06
0.0034101
-1.72421e-05
0.00331917
1.42766e-05
0.00336643
-2.0803e-06
0.00298963
0.000265969
0.00289959
0.000293437
0.00284102
0.000256537
0.00279966
0.000210516
0.00276601
0.000174483
0.00273918
0.000149795
0.00271083
0.000134897
0.00268679
0.000124876
0.00266817
0.000117833
0.00265279
0.000113396
0.00263842
0.000110978
0.00262411
0.000109795
0.00260937
0.000109356
0.00259306
0.000109636
0.00257419
0.000110959
0.00255254
0.000113946
0.00252798
0.000119388
0.00250052
0.000128055
0.00246916
0.000140562
0.00242984
0.000157233
0.00237553
0.00017798
0.00229997
0.000201053
0.00222197
0.000226699
0.0021479
0.000254937
0.00207717
0.000285079
0.00200723
0.000315415
0.0019346
0.000343758
0.00184596
0.000367154
0.0017423
0.000384322
0.00161993
0.000395754
0.0015046
0.000405456
0.00139047
0.000417704
0.00128116
0.000434652
0.00115855
0.000455425
0.00102471
0.000477847
0.000883204
0.00049994
0.000743966
0.000523752
0.000606105
0.000545391
0.000460086
0.000560414
0.000307865
0.000563354
0.000153083
0.000561395
0.000552925
0.00336422
9.50026e-08
0.0033539
1.19958e-07
0.00337693
1.23332e-07
0.00331776
-1.03759e-06
0.00343397
-9.78976e-07
0.00321669
-2.71382e-06
0.00339203
1.08532e-05
0.00341802
3.87164e-05
0.00313618
0.000266864
0.00306515
0.000360165
0.00300869
0.000318112
0.00297046
0.000256169
0.00294144
0.00021141
0.00291618
0.000183471
0.00288651
0.000169171
0.00285748
0.000160846
0.00283017
0.000154971
0.00280456
0.00015047
0.00278017
0.000147197
0.00275697
0.000144796
0.00273478
0.000143172
0.00271236
0.000142603
0.00268847
0.000143628
0.0026627
0.000147035
0.0026347
0.000153742
0.00260431
0.000164626
0.00257033
0.000180364
0.00252846
0.000201225
0.00247133
0.000226963
0.0023933
0.000255817
0.00231315
0.000287603
0.00223703
0.000322567
0.00216433
0.000359916
0.0020918
0.000397507
0.00201674
0.000433672
0.00192449
0.000464388
0.00181708
0.000488664
0.0016893
0.000505602
0.00156847
0.00052072
0.0014485
0.000538584
0.0013333
0.000560869
0.00120481
0.000586353
0.00106517
0.000612432
0.000918306
0.00063755
0.000774247
0.000665323
0.000631941
0.000692032
0.000480946
0.00071295
0.000322924
0.000720294
0.000161063
0.000720936
0.000712564
0.0034889
-2.99683e-08
0.00348132
1.13776e-07
0.00350506
-2.55801e-07
0.00347272
3.38434e-06
0.00354662
-5.8793e-06
0.00338631
-5.84903e-06
0.00349971
1.2355e-05
0.0035965
3.89722e-05
0.0032075
0.00035566
0.00310658
0.000419641
0.00305442
0.000360698
0.00303198
0.00029322
0.00301424
0.000242096
0.00299857
0.000210611
0.00297617
0.000195971
0.0029535
0.000190488
0.00293195
0.000186491
0.00291082
0.000183151
0.00288943
0.000180481
0.00286795
0.000178216
0.00284639
0.000176535
0.00282374
0.000175973
0.00279903
0.000177286
0.00277209
0.000181454
0.00274275
0.000189573
0.00271099
0.000202684
0.00267564
0.0002216
0.00263233
0.000246603
0.0025734
0.000277343
0.00249295
0.000312056
0.00241037
0.000350118
0.00233205
0.000392035
0.0022572
0.000436983
0.00218193
0.000482504
0.00210402
0.000526667
0.00200812
0.000565324
0.00189682
0.000596989
0.0017639
0.000619982
0.00163799
0.000640644
0.00151305
0.000664205
0.00139281
0.00069242
0.00125861
0.000723054
0.00111279
0.000752893
0.000959598
0.000781282
0.000809394
0.000813151
0.000660982
0.000845287
0.00050361
0.000872077
0.000338484
0.000884363
0.000169272
0.000887741
0.000880378
0.00361705
4.90405e-07
0.00361106
-9.06693e-07
0.00363715
-1.59507e-08
0.00356938
3.45206e-06
0.00370697
-1.45738e-05
0.00391497
-2.35095e-05
0.00370266
5.58175e-05
0.00375695
1.9393e-05
0.00333263
0.000489555
0.00323639
0.000505776
0.00317178
0.000422031
0.00314074
0.000335164
0.00311543
0.000278584
0.0030942
0.000242771
0.0030691
0.000225462
0.00304804
0.000219789
0.00303145
0.000214762
0.00301605
0.000211221
0.00299982
0.000208971
0.00298243
0.000207401
0.00296383
0.000206623
0.00294312
0.000207168
0.00291949
0.000209811
0.00289289
0.000215622
0.00286324
0.000225841
0.00283062
0.000241696
0.00279397
0.000264157
0.00274903
0.000293596
0.0026881
0.000329619
0.00260444
0.000370398
0.0025184
0.000414853
0.00243688
0.000463863
0.00235917
0.00051665
0.0022806
0.000570464
0.00220004
0.000622966
0.0021008
0.000670084
0.0019859
0.000709423
0.00184773
0.000738909
0.00171648
0.000765148
0.00158652
0.000794435
0.00146146
0.000829072
0.00132173
0.000865656
0.0011695
0.00090001
0.00100889
0.000932429
0.000850977
0.00096873
0.000694886
0.00100636
0.000529368
0.00103941
0.000356293
0.00105641
0.000178156
0.00106345
0.00105704
0.00375301
-5.66053e-07
0.0037515
1.07602e-06
0.00374193
-2.66804e-06
0.00377954
-2.27442e-06
0.0037511
-8.95145e-07
0.00381132
-1.21882e-05
0.00375567
3.01754e-05
0.0036676
0.000132568
0.00341185
0.000453347
0.00330744
0.000603695
0.00327322
0.000486585
0.00326321
0.000378018
0.00324978
0.000310777
0.00323263
0.000273692
0.00320884
0.000255684
0.00318721
0.000250459
0.00316901
0.000245076
0.00315163
0.000241118
0.00313377
0.000238438
0.00311548
0.000236707
0.00309674
0.000236221
0.00307644
0.000237589
0.00305346
0.000241608
0.00302735
0.000249373
0.00299775
0.000262191
0.0029646
0.000281364
0.00292684
0.000307939
0.00288027
0.00034238
0.00281739
0.000384289
0.00272961
0.00043133
0.00263869
0.000482406
0.00255271
0.000538653
0.00247135
0.000599353
0.00238887
0.000661476
0.00230623
0.00072268
0.00220424
0.000778758
0.00208632
0.000826252
0.00194254
0.00086278
0.00180505
0.000894459
0.00166968
0.000929635
0.00153941
0.000970785
0.00139422
0.00101427
0.00123562
0.00105431
0.00106665
0.00109166
0.000899834
0.00113291
0.000734559
0.00117654
0.000559725
0.00121609
0.000376361
0.00123866
0.000188498
0.00124874
0.00124397
0.0038885
-1.1222e-07
0.0038922
3.89104e-07
0.00388963
-1.63588e-07
0.00387572
9.59347e-07
0.00388619
2.56589e-06
0.00383593
-3.81085e-07
0.00387851
2.77219e-05
0.00388491
5.05734e-05
0.00359464
0.000573547
0.00352813
0.000693693
0.00346564
0.000572269
0.0034353
0.000431801
0.00341113
0.000351209
0.00338636
0.00031154
0.00335991
0.000290467
0.00333844
0.000281936
0.00331992
0.000275983
0.00330183
0.000271394
0.00328351
0.00026789
0.00326528
0.000265706
0.00324704
0.000265413
0.00322735
0.00026767
0.00320476
0.000273287
0.00317858
0.0002834
0.00314831
0.000299332
0.0031138
0.000322393
0.00307399
0.000353664
0.00302482
0.000393655
0.00295901
0.000441959
0.00286628
0.000495551
0.00276965
0.000553483
0.00267846
0.000617066
0.00259279
0.000685622
0.00250575
0.000755969
0.00242107
0.000826048
0.00231661
0.000891302
0.00219642
0.000947292
0.00204733
0.0009915
0.00190304
0.00102868
0.00176197
0.00107012
0.00162606
0.00111783
0.00147535
0.00116908
0.00131045
0.00121593
0.00113277
0.00125932
0.000956271
0.00130636
0.000780725
0.00135676
0.000594868
0.00140379
0.000400575
0.00143186
0.000200353
0.00144642
0.00144274
0.00403322
-1.59653e-07
0.00403784
-3.52753e-07
0.00403427
3.38036e-07
0.00403616
1.48674e-07
0.00400813
3.71738e-06
0.00407992
1.89782e-06
0.00396179
3.94045e-05
0.00410708
5.35252e-05
0.00375724
0.000570595
0.00364138
0.000758341
0.00357945
0.000644233
0.00355915
0.000489151
0.00353981
0.000392929
0.00351448
0.000351391
0.00349166
0.000324879
0.00347473
0.000312075
0.00345977
0.00030445
0.00344477
0.000298305
0.00342981
0.000293526
0.00341528
0.000290809
0.00340066
0.000290948
0.00338405
0.000294628
0.00336371
0.000302621
0.00333881
0.000315989
0.00330875
0.000336031
0.0032734
0.000364016
0.00323178
0.000400957
0.00317993
0.000447334
0.00311079
0.000502731
0.00301309
0.000563458
0.00291044
0.000628593
0.00281333
0.000699647
0.00272273
0.000775998
0.00263084
0.000854421
0.00254419
0.000933317
0.00243746
0.00100779
0.00231481
0.00107233
0.0021607
0.00112444
0.00200963
0.00116749
0.00186291
0.00121559
0.00172141
0.00127031
0.00156541
0.00132993
0.00139421
0.00138515
0.00120761
0.00143566
0.00102093
0.00148962
0.000834338
0.00154787
0.000636686
0.00160364
0.000428366
0.00163908
0.000214811
0.00165726
0.00165602
0.00418396
-6.97469e-08
0.00418309
3.72141e-08
0.00419151
-5.34375e-07
0.00417751
-1.23874e-06
0.00416356
-8.39886e-07
0.00415294
-7.47001e-06
0.00426192
4.493e-05
0.00409385
7.43666e-05
0.00391008
0.000614605
0.00382445
0.000866523
0.00374635
0.00073923
0.00371831
0.000544048
0.00369582
0.000440561
0.00366735
0.000395203
0.00364801
0.000361402
0.00363395
0.000342867
0.00362185
0.000331003
0.00361014
0.000321977
0.00359856
0.000315422
0.00358714
0.000312215
0.0035751
0.000313238
0.00356038
0.000319116
0.0035411
0.000330476
0.00351633
0.000348255
0.00348532
0.000373587
0.00344788
0.00040761
0.00340313
0.000451192
0.0033473
0.000504691
0.00327325
0.00056768
0.00316967
0.000635935
0.00306063
0.000708433
0.00295723
0.000787065
0.00286114
0.000871182
0.00276386
0.000957432
0.00267432
0.00104475
0.00256502
0.00112803
0.00243955
0.00120071
0.00228115
0.00126088
0.00212388
0.00131017
0.00197212
0.00136536
0.00182532
0.00142768
0.00166513
0.00149675
0.00148763
0.00156158
0.0012924
0.00162097
0.00109518
0.0016831
0.000896082
0.00175087
0.00068523
0.00181694
0.000462463
0.00186074
0.000231586
0.00188564
0.00188591
0.00433941
1.22065e-07
0.00433383
1.71148e-07
0.00433864
7.62259e-07
0.00433071
2.49181e-06
0.00434115
1.19701e-06
0.00416595
1.60023e-06
0.004246
3.21613e-05
0.00428344
2.86037e-05
0.00411777
0.000590694
0.00401947
0.000897542
0.00392599
0.000819054
0.00389444
0.000606919
0.00386972
0.000495125
0.00384356
0.000439895
0.00382794
0.000396719
0.00381619
0.000372077
0.00380583
0.000355999
0.00379581
0.000343904
0.00378577
0.000335381
0.00377563
0.000331618
0.00376457
0.000333667
0.00375066
0.000342128
0.00373201
0.000357518
0.00370726
0.000380581
0.00367529
0.000412218
0.00363571
0.000453356
0.00358762
0.000504608
0.00352742
0.000566113
0.00344738
0.000637301
0.0033368
0.000713349
0.00322118
0.000793367
0.00311169
0.000879693
0.00300995
0.000971697
0.00290697
0.00106568
0.00281349
0.00116114
0.00270074
0.00125274
0.00257173
0.00133318
0.00240945
0.001401
0.00224682
0.00145656
0.0020909
0.00151885
0.00193928
0.00158943
0.00177621
0.00166893
0.00159251
0.00174478
0.00138867
0.00181493
0.00118051
0.00188695
0.00096826
0.00196609
0.000743523
0.0020455
0.000502258
0.00210124
0.000252609
0.00213276
0.00213683
0.00450003
9.67318e-08
0.0045019
1.50834e-07
0.00449512
8.59904e-07
0.00451917
1.86915e-06
0.00448401
3.9448e-06
0.00460618
-2.46154e-06
0.00450408
3.18346e-05
0.00426427
4.07544e-05
0.00431798
0.00045269
0.00419426
0.00100425
0.00412178
0.000891157
0.0040828
0.000677478
0.00405681
0.000551547
0.00403474
0.000482178
0.00402263
0.000428601
0.00401219
0.000398012
0.00400318
0.000377738
0.00399541
0.000362382
0.00398832
0.00035167
0.00398117
0.000347415
0.00397262
0.000350926
0.0039606
0.000362762
0.00394301
0.000383303
0.00391823
0.000413009
0.00388482
0.000452366
0.00384222
0.000502054
0.00378963
0.000562254
0.00372373
0.0006328
0.00363608
0.000712944
0.00351681
0.000797057
0.00339356
0.000884394
0.00327765
0.000978016
0.00317032
0.0010774
0.00306267
0.00117873
0.00296617
0.00128206
0.00285013
0.00138172
0.00271716
0.00146961
0.00255051
0.00154455
0.00238163
0.0016063
0.00222159
0.00167559
0.00206515
0.00175464
0.00190026
0.00184543
0.00171128
0.0019341
0.00149934
0.00201734
0.0012802
0.00210134
0.00105365
0.00219485
0.000812726
0.00229095
0.00055216
0.00236129
0.000277742
0.00240486
0.00241258
0.00466793
1.91903e-08
0.00466485
1.31894e-07
0.00466847
-1.65078e-07
0.00466968
-1.91024e-07
0.00468733
8.49499e-07
0.00439382
1.51743e-07
0.00469075
3.38094e-05
0.00410133
6.2794e-05
0.00454478
0.000407388
0.00438357
0.00106042
0.00433912
0.000923732
0.00429994
0.000745238
0.0042717
0.000604687
0.00425119
0.000519729
0.00423962
0.000455916
0.00422918
0.000418887
0.00422128
0.000394689
0.00421602
0.000376184
0.00421153
0.000363643
0.00420606
0.000359697
0.00419846
0.000365701
0.00418696
0.000382121
0.00416924
0.000409157
0.00414324
0.000446823
0.00410749
0.000495121
0.00406125
0.000554654
0.00400396
0.000624797
0.00393257
0.000705392
0.00383747
0.000795184
0.00370897
0.00088725
0.00357683
0.000981785
0.0034532
0.0010823
0.00333956
0.00118844
0.00322669
0.00129631
0.00312758
0.0014066
0.00300924
0.00151376
0.00287324
0.00160864
0.00270482
0.00169059
0.00253075
0.00175875
0.00236719
0.00183454
0.00220627
0.00192213
0.00204093
0.0020249
0.00184803
0.00212862
0.0016284
0.00222735
0.00139778
0.00232658
0.00115644
0.00243734
0.000898534
0.00255435
0.000612916
0.00264701
0.000310709
0.00270511
0.00272204
0.00484006
4.04427e-08
0.00484352
1.39748e-07
0.00483916
2.89932e-07
0.00481923
9.7627e-07
0.0048416
2.38271e-06
0.0046734
-3.07413e-06
0.00479553
2.57081e-05
0.0047316
1.37995e-05
0.00477966
0.000378274
0.00462715
0.00110668
0.0045601
0.00100404
0.00452091
0.000805978
0.00449677
0.000647484
0.00448044
0.000547132
0.00446954
0.000476899
0.00445834
0.00043598
0.00444844
0.000410866
0.00444151
0.000389131
0.0044336
0.000375439
0.0044235
0.000372379
0.00441192
0.000381211
0.00439812
0.000402404
0.0043795
0.00043617
0.0043538
0.000481594
0.00431875
0.000539385
0.00427191
0.000609116
0.00421346
0.000689681
0.0041397
0.000780749
0.00403898
0.000880555
0.0039041
0.00098073
0.00376632
0.00108295
0.00363763
0.0011905
0.00351959
0.00130314
0.00340306
0.00141711
0.00330301
0.00153374
0.00318392
0.00164815
0.00304573
0.00174983
0.00287724
0.0018388
0.00269718
0.00191313
0.00253037
0.0019947
0.00236566
0.00209096
0.00220101
0.00220577
0.00200601
0.00232665
0.00178164
0.00244348
0.00154012
0.00256195
0.00128264
0.00269494
0.00100571
0.00283732
0.000693522
0.00296006
0.000353191
0.0030439
0.00307363
0.00501984
5.92438e-08
0.00502436
-8.35483e-08
0.00502015
2.21544e-07
0.0050341
3.31608e-07
0.00501534
2.45266e-06
0.00502627
1.01469e-05
0.00493572
2.44531e-05
0.00496146
5.17517e-05
0.0048016
0.000330688
0.00477015
0.00111387
0.00473445
0.00105967
0.00471243
0.000849968
0.00470938
0.000666147
0.00470791
0.000555096
0.00469664
0.000491957
0.00468862
0.000445381
0.00468401
0.000418758
0.0046761
0.00039914
0.0046624
0.000387831
0.00464477
0.000387806
0.00462621
0.000400812
0.00460715
0.000427264
0.00458409
0.000467453
0.00455779
0.000520018
0.00452373
0.000586951
0.00447614
0.000665985
0.00441674
0.000756336
0.00434155
0.000857298
0.00423619
0.000966685
0.0040979
0.00107472
0.00395726
0.00118504
0.00382586
0.00129987
0.00370554
0.00141896
0.00358718
0.00153862
0.00348857
0.001661
0.00337186
0.00178235
0.00323416
0.00189064
0.00306986
0.00198717
0.00288522
0.0020682
0.00271607
0.002155
0.0025486
0.00225947
0.00238625
0.00238618
0.0021916
0.00252659
0.0019656
0.00266488
0.00171376
0.00280545
0.00144244
0.00296453
0.00114518
0.00314308
0.000798909
0.00330688
0.000413747
0.00342801
0.00348623
0.0052075
6.84904e-08
0.00520721
1.39847e-07
0.00521032
6.76482e-07
0.00516924
1.15501e-06
0.00521303
4.21587e-06
0.00514441
1.87525e-07
0.00512291
2.78641e-05
0.00532362
5.63821e-05
0.00507897
0.00031868
0.00497254
0.00110742
0.00495041
0.00110323
0.00494304
0.000882555
0.00495608
0.000664866
0.00496137
0.000552034
0.00495702
0.000494878
0.00495045
0.000451788
0.00494576
0.000425452
0.00493473
0.000409443
0.00491411
0.000402901
0.00488797
0.000408184
0.00486102
0.000427004
0.00483437
0.00045979
0.00480368
0.000506053
0.00477391
0.000566058
0.00473635
0.000640911
0.00468477
0.000727757
0.00462156
0.000826534
0.00454276
0.000936086
0.00443054
0.00105336
0.0042904
0.00116837
0.00414992
0.00128637
0.00401926
0.00140819
0.00389954
0.0015335
0.00378202
0.00165849
0.00368695
0.00178612
0.00357501
0.00191402
0.00344085
0.0020289
0.0032843
0.00213305
0.00309772
0.00222147
0.00292703
0.00231275
0.00275959
0.00242534
0.00260113
0.00256295
0.00241165
0.00272402
0.0021886
0.00288695
0.00193188
0.00305368
0.0016486
0.00324569
0.00133172
0.00346586
0.000951145
0.00369187
0.000500747
0.00387884
0.0039868
0.00540123
1.0977e-08
0.00540111
7.59484e-08
0.00539952
4.37906e-07
0.00538676
1.14978e-06
0.00542206
2.19648e-06
0.00518184
4.85046e-06
0.00540529
2.63696e-05
0.00491134
3.729e-05
0.00543788
0.00032182
0.00522066
0.00111386
0.00519957
0.00113076
0.00521776
0.00088499
0.00523712
0.000659622
0.00524561
0.000544797
0.00524617
0.000492192
0.00524085
0.000455724
0.00523198
0.000434391
0.00521282
0.000424081
0.00518263
0.000424272
0.00514756
0.000436662
0.00511228
0.000462517
0.00507653
0.000502186
0.00503808
0.000554238
0.00500271
0.000621906
0.00495768
0.00070293
0.00489925
0.000796024
0.00482986
0.000901619
0.00474511
0.00101806
0.00462458
0.00114051
0.00448354
0.0012615
0.00434407
0.00138617
0.00421574
0.00151401
0.00409874
0.00164461
0.00398502
0.00177399
0.00389692
0.0019062
0.0037933
0.0020401
0.00366646
0.00216153
0.00352072
0.00227286
0.00333685
0.00236996
0.00316663
0.00246539
0.00300354
0.00258578
0.00285133
0.00273234
0.00267683
0.00291014
0.00246396
0.00309984
0.00220773
0.0033019
0.00192006
0.00352978
0.00159294
0.00380085
0.00117484
0.00411462
0.000650508
0.0044033
0.00463741
0.00560218
9.90745e-09
0.00560138
6.02854e-08
0.00560122
1.88998e-07
0.00558994
7.62556e-07
0.00561157
1.61225e-06
0.005464
3.15939e-06
0.00564031
2.46416e-05
0.00510773
4.29031e-05
0.00563732
0.000304809
0.00545096
0.00109012
0.00545971
0.00112446
0.00550889
0.000850449
0.00554471
0.000634648
0.00555949
0.000530015
0.00556368
0.000486272
0.00555834
0.000459847
0.00554336
0.000447644
0.00551269
0.000446471
0.00547038
0.000455881
0.00542476
0.000477416
0.00537923
0.000511312
0.00533151
0.00055707
0.00528603
0.00061565
0.00524111
0.000689234
0.0051852
0.000774408
0.00511798
0.000871729
0.00504082
0.000982184
0.00494716
0.00110364
0.00481868
0.00122687
0.0046789
0.00135347
0.00454293
0.00148347
0.00441917
0.00161614
0.00430671
0.00175085
0.00419865
0.00188338
0.00411945
0.0020189
0.00402757
0.00215769
0.00391215
0.0022848
0.00378123
0.00240242
0.00360708
0.00250833
0.00344091
0.00260874
0.00328875
0.002732
0.00314402
0.00288571
0.00299152
0.00308163
0.00279462
0.00330077
0.00255814
0.00353291
0.00228332
0.00380176
0.00195982
0.00413054
0.00153466
0.00454495
0.000922551
0.00501934
0.00556129
0.00581018
3.24273e-08
0.00580573
2.56985e-08
0.00580737
1.64802e-07
0.0058382
2.58823e-07
0.00578108
2.26966e-06
0.00583025
4.11994e-06
0.00585075
2.12372e-05
0.00529798
4.35913e-05
0.00577913
0.00027768
0.00573295
0.00102145
0.00581158
0.00106853
0.00588591
0.000791918
0.00592871
0.00060169
0.00594064
0.000518506
0.00593676
0.000489301
0.00591826
0.00047545
0.00588123
0.000475907
0.00582846
0.000486326
0.00577038
0.000506526
0.00571212
0.000537277
0.00565336
0.000576948
0.00559664
0.00062854
0.00554545
0.000692807
0.00548645
0.00076792
0.00541719
0.000854825
0.00533986
0.000955059
0.00525215
0.00106741
0.00514151
0.00118787
0.00500904
0.00131303
0.00487389
0.00144353
0.00474471
0.00157699
0.00462839
0.00171287
0.0045229
0.00185012
0.0044236
0.00198432
0.00435601
0.00212232
0.00427846
0.0022645
0.00417807
0.00239596
0.00406236
0.0025186
0.00390878
0.00263003
0.00375324
0.00273353
0.0036132
0.00286292
0.00347858
0.00302384
0.00335902
0.00322548
0.00320078
0.00346698
0.00300427
0.00372792
0.00277081
0.00403084
0.00249659
0.00440727
0.0021252
0.0049274
0.00151842
0.00562673
0.00708212
0.00839938
-2.56278e-09
0.00840026
1.11808e-08
0.00839601
1.54512e-07
0.00841831
3.19902e-07
0.00839898
2.09446e-06
0.00853944
1.52806e-06
0.00841083
1.48473e-05
0.00801133
4.12279e-05
0.00844422
0.000160299
0.00860601
0.000674266
0.00883377
0.000866586
0.00892833
0.000710117
0.00893298
0.000599852
0.00889697
0.000545343
0.00884266
0.000534932
0.00875654
0.000542161
0.00865546
0.000555629
0.00855176
0.000581583
0.00845297
0.000612338
0.00835276
0.000648178
0.00826769
0.000694954
0.00818523
0.000749926
0.00809198
0.0008138
0.00798547
0.000888812
0.00787084
0.000975967
0.00774179
0.00107415
0.00759197
0.00118338
0.00742746
0.00130256
0.00725522
0.00142897
0.00708375
0.00156056
0.00692301
0.00169534
0.00678175
0.00183276
0.00665543
0.00197013
0.00654333
0.00210352
0.00648078
0.00224251
0.0064091
0.00238427
0.00631067
0.00251594
0.00619011
0.00263945
0.0060327
0.00276058
0.00583594
0.00287454
0.00567949
0.00299699
0.00554372
0.0031528
0.00545439
0.00334379
0.0053596
0.00358707
0.00522611
0.00386431
0.00509245
0.00416372
0.00499978
0.00449862
0.00506319
0.00487201
0.00548495
0.00522109
0.00506561
0.00750865
0.00839954
4.50062e-08
0.00839843
-1.05117e-07
0.0084
-2.3487e-07
0.00840036
-1.27472e-06
0.00839017
-1.50036e-06
0.00850053
-3.49568e-06
0.00844072
2.68247e-06
0.00904142
4.5104e-06
0.0084562
7.35727e-05
0.00874275
0.000343149
0.00895262
0.000650652
0.00897232
0.000666389
0.0089599
0.000604984
0.00889014
0.000589291
0.008805
0.000597136
0.00870501
0.000618629
0.00860647
0.000646428
0.00851808
0.000679148
0.00843493
0.00071586
0.00836856
0.00075999
0.00829317
0.000808977
0.00820101
0.0008648
0.00809623
0.000929622
0.00797749
0.00100441
0.00784242
0.00108757
0.00770164
0.00118321
0.00755771
0.00129096
0.00740997
0.00140842
0.00726047
0.00153306
0.00711672
0.00166264
0.00698874
0.00179616
0.00687742
0.00193194
0.00677761
0.00206605
0.00669786
0.00219577
0.00666628
0.00233108
0.00663161
0.00246734
0.00657215
0.00259931
0.00648942
0.00272307
0.00639396
0.00284285
0.00625363
0.00295672
0.00614418
0.00307048
0.0060695
0.00321222
0.006036
0.00338029
0.00608
0.00358694
0.00613143
0.00383342
0.00620403
0.00409127
0.0063722
0.00432985
0.00673169
0.00451453
0.00733383
0.00463508
0.00431127
0.00810499
0.00839932
2.71081e-07
0.00839957
-6.86988e-07
0.00839941
-6.24497e-07
0.00840589
-5.84102e-06
0.00840253
-1.26458e-06
0.00841459
-9.18407e-06
0.00839887
1.0499e-05
0.0083686
3.80093e-05
0.00836622
6.03962e-05
0.00849261
0.000158135
0.00866751
0.000477255
0.0087854
0.000568594
0.00879201
0.000606717
0.0087327
0.00062102
0.00865019
0.0006474
0.00856137
0.000686645
0.00848437
0.000725778
0.00841414
0.00076469
0.00835627
0.000807061
0.00829331
0.000853534
0.0082148
0.000905155
0.00812368
0.000963962
0.00801699
0.00102944
0.00788691
0.00110115
0.0077578
0.00118415
0.00763561
0.00127915
0.00751466
0.00138492
0.00739045
0.00149919
0.00726604
0.00162016
0.00715061
0.00174677
0.00705167
0.0018766
0.00696779
0.00200758
0.00689726
0.00213431
0.00685546
0.00225844
0.00685494
0.0023902
0.00684877
0.00252192
0.00682927
0.00264453
0.00679463
0.00276148
0.00675441
0.0028753
0.00667738
0.00298558
0.00660933
0.00309059
0.00658954
0.00321003
0.00660811
0.00334925
0.0067047
0.00350326
0.0068979
0.00368539
0.00713563
0.0038808
0.00741201
0.00405601
0.00777963
0.00414631
0.0082322
0.00418001
0.00391289
0.00864178
0.00840027
5.32639e-08
0.00839972
-7.82639e-08
0.00839934
-6.44286e-08
0.00839433
-9.92212e-07
0.00839366
-4.58153e-07
0.00838341
2.16393e-08
0.00838794
5.12349e-06
0.00841453
1.48612e-05
0.00842155
4.63482e-05
0.00843636
0.000118172
0.00851638
0.000378401
0.00856776
0.000507719
0.00857919
0.000578023
0.0085361
0.000634853
0.00848372
0.000687502
0.00842751
0.000740344
0.00837653
0.000788976
0.00832356
0.000836445
0.00826533
0.000884899
0.00819605
0.000935944
0.00811524
0.000990896
0.00801294
0.0010498
0.00789647
0.00111445
0.00778272
0.00118718
0.0076778
0.00126941
0.00757832
0.00136203
0.00747819
0.00146366
0.00737832
0.001573
0.00728528
0.00168944
0.0072022
0.00181085
0.00713269
0.00193462
0.00707665
0.00205733
0.00703388
0.00217778
0.00702187
0.0022978
0.00704196
0.00242161
0.00706611
0.00253939
0.00708408
0.0026514
0.00709284
0.00275864
0.00709374
0.00286239
0.00708704
0.00296449
0.00705883
0.00305952
0.00707753
0.00315535
0.0071364
0.00326559
0.0072487
0.00337898
0.00746388
0.0034993
0.00775945
0.00362123
0.00809703
0.00374973
0.00845778
0.0038033
0.00886644
0.00377966
0.00365034
0.0091311
0.00840037
3.38995e-09
0.00839999
9.052e-08
0.00839996
4.48356e-08
0.00839776
1.02876e-06
0.00839604
1.51062e-06
0.00839163
3.83865e-06
0.00838663
1.02053e-05
0.00842045
-1.55232e-05
0.00841151
5.00315e-05
0.00849961
1.94742e-05
0.00859215
0.000264494
0.00862241
0.000460506
0.00858199
0.000593474
0.00851616
0.000681116
0.00845823
0.000745425
0.00840013
0.000806154
0.00834189
0.000864301
0.00827718
0.000920526
0.00820144
0.000975316
0.008112
0.00102886
0.0080108
0.00108266
0.00790548
0.00113967
0.00780171
0.00120197
0.00770326
0.00127115
0.00761323
0.00134881
0.00752793
0.00143478
0.0074459
0.0015281
0.00737056
0.00162952
0.00730243
0.00173773
0.00724606
0.00185076
0.00720414
0.00196628
0.00717303
0.0020817
0.0071606
0.0021947
0.00718913
0.00230947
0.00723338
0.00242128
0.00728118
0.00252691
0.00732792
0.00262647
0.00737137
0.00272143
0.00740848
0.00281317
0.00745031
0.00290241
0.00746775
0.00298621
0.00751049
0.0030631
0.00759484
0.00314626
0.00771707
0.0032289
0.00790056
0.00330535
0.00818319
0.00337412
0.00852461
0.00344471
0.0088787
0.00348236
0.00922411
0.00345195
0.00335996
0.00952603
0.00839996
1.04271e-08
0.0084001
1.31081e-07
0.00840021
-1.09391e-07
0.00839662
4.43275e-06
0.00839775
4.26113e-07
0.00839705
1.55599e-06
0.00837761
2.76322e-05
0.00855378
-0.000195205
0.00845187
0.000144177
0.00879526
-0.000352217
0.00894659
0.000104442
0.00894047
0.000460178
0.00878387
0.000732189
0.00864773
0.00079935
0.00855153
0.000835331
0.00845543
0.000902115
0.00836767
0.000960531
0.00827545
0.00102368
0.00817518
0.00108341
0.00806981
0.00113754
0.00796393
0.00118913
0.00786101
0.00124134
0.00776428
0.001297
0.00767458
0.00135835
0.00758985
0.00142643
0.00750568
0.00150093
0.00743145
0.00158295
0.00737008
0.00167367
0.00732228
0.00177156
0.00729041
0.00187418
0.00727301
0.00197925
0.00727136
0.00208572
0.00730628
0.0021929
0.00736342
0.00229722
0.0074305
0.00239612
0.00750101
0.00248864
0.00757208
0.00257526
0.00764229
0.00265746
0.00770948
0.00273665
0.00777786
0.00281248
0.00783586
0.00288417
0.0078932
0.00294634
0.00798812
0.00300796
0.00811357
0.00306822
0.00827542
0.00311748
0.00848871
0.00315199
0.00879175
0.00317632
0.00913012
0.00318212
0.00945568