/*--------------------------------*- C++ -*----------------------------------*\
| =========                 |                                                 |
| \\      /  F ield         | OpenFOAM: The Open Source CFD Toolbox           |
|  \\    /   O peration     | Version:  2412                                  |
|   \\  /    A nd           | Website:  www.openfoam.com                      |
|    \\/     M anipulation  |                                                 |
\*---------------------------------------------------------------------------*/
FoamFile
{
    version     2.0;
    format      ascii;
    arch        "LSB;label=32;scalar=64";
    class       volScalarField;
    location    "8";
    object      T;
}
// * * * * * * * * * * * * * * * * * * * * * * * * * * * * * * * * * * * * * //

dimensions      [0 0 0 1 0 0 0];

internalField   nonuniform List<scalar> 
7000
(
1.00058
1.00297
1.00929
0.99951
1.0666
1.14253
1.55961
2.409
2.57106
2.607
2.58884
2.56093
2.55675
2.56072
2.56816
2.58054
2.58928
2.5951
2.59997
2.60496
2.60993
2.61456
2.61954
2.62473
2.6295
2.63354
2.63667
2.64072
2.6507
2.67878
2.71719
2.74307
2.75141
2.74787
2.73615
2.73351
2.74466
2.7752
2.7885
2.78438
2.75954
2.74467
2.74936
2.77025
2.7746
2.759
2.73805
2.73602
2.74477
2.76351
1.00038
1.00312
1.00631
1.01033
1.04467
1.03524
1.5933
2.43612
2.57447
2.59345
2.5666
2.54289
2.5453
2.55409
2.5657
2.57878
2.58792
2.59404
2.599
2.60403
2.60912
2.6141
2.61954
2.62512
2.63013
2.63424
2.63737
2.64182
2.65319
2.68306
2.71957
2.74317
2.75018
2.74574
2.73178
2.72764
2.73643
2.76738
2.78492
2.78341
2.76196
2.74512
2.7483
2.76866
2.77458
2.76045
2.73846
2.73569
2.74407
2.76291
1.00027
1.00347
1.00418
1.01132
1.05365
0.997963
1.60954
2.48083
2.59432
2.60853
2.58891
2.55626
2.55296
2.5575
2.567
2.57989
2.58859
2.59452
2.59971
2.60505
2.61019
2.61487
2.61979
2.62485
2.62945
2.63331
2.63631
2.64039
2.65073
2.67908
2.71632
2.74149
2.74981
2.74635
2.73117
2.7239
2.72904
2.75724
2.78
2.78114
2.76384
2.74625
2.74873
2.76857
2.7751
2.76155
2.7387
2.7355
2.74368
2.76257
0.999781
1.00319
1.00625
1.00225
1.05636
1.00587
1.58541
2.43464
2.5866
2.60662
2.58741
2.55689
2.55393
2.55807
2.56708
2.58007
2.5888
2.59479
2.60016
2.60565
2.61079
2.61526
2.61988
2.62464
2.62905
2.63285
2.63586
2.63995
2.65018
2.67799
2.71504
2.74081
2.7498
2.7469
2.73161
2.72295
2.7268
2.7532
2.77736
2.77937
2.76335
2.74675
2.74958
2.76936
2.77551
2.76163
2.73837
2.73483
2.74285
2.76177
1.00034
1.00346
1.00739
1.00528
1.05444
1.06137
1.56409
2.39958
2.5862
2.60172
2.57199
2.54389
2.54504
2.55132
2.56284
2.57643
2.58606
2.59285
2.59867
2.60441
2.60978
2.61457
2.61953
2.62457
2.62913
2.63297
2.636
2.64018
2.65073
2.67869
2.71492
2.74022
2.74917
2.74639
2.73123
2.72239
2.72605
2.75202
2.77548
2.77714
2.76148
2.74602
2.74924
2.7693
2.7753
2.76129
2.73774
2.73417
2.74199
2.76105
0.999897
1.00347
1.00657
1.00678
1.05151
1.04654
1.57446
2.40221
2.57612
2.60978
2.58869
2.55574
2.55241
2.55562
2.56474
2.57792
2.58749
2.59441
2.60038
2.60615
2.61137
2.61593
2.62063
2.62538
2.6297
2.63336
2.63628
2.64039
2.65082
2.67859
2.71458
2.73962
2.7484
2.74562
2.73056
2.72176
2.72527
2.75084
2.77408
2.77568
2.7598
2.74455
2.74819
2.76864
2.77445
2.75998
2.73637
2.73271
2.74096
2.75965
1.00067
1.00313
1.00467
1.01067
1.05876
1.03497
1.55805
2.35451
2.56904
2.59995
2.57832
2.55336
2.55379
2.55822
2.56857
2.58091
2.58897
2.59476
2.60027
2.60612
2.61158
2.61637
2.62109
2.62566
2.62976
2.63326
2.63609
2.64009
2.65028
2.67767
2.71365
2.73893
2.74798
2.74546
2.7305
2.72126
2.7243
2.74915
2.77297
2.77504
2.75952
2.74341
2.7466
2.76673
2.7725
2.75828
2.73462
2.73135
2.73912
2.75825
1.00124
1.00134
1.00897
0.996111
1.05297
1.19237
1.51461
2.2408
2.56568
2.63149
2.59961
2.56141
2.55674
2.55979
2.56928
2.58053
2.5883
2.59414
2.59998
2.60628
2.61209
2.61701
2.62159
2.62585
2.62963
2.63289
2.63553
2.63929
2.64883
2.67535
2.7118
2.73802
2.74784
2.7458
2.73089
2.72017
2.7221
2.7452
2.77088
2.77424
2.75996
2.74261
2.74458
2.76344
2.76991
2.75639
2.73277
2.72892
2.73733
2.75582
1.00089
1.00402
1.0061
1.02229
1.03536
1.10033
1.48396
2.32369
2.52523
2.58743
2.57334
2.55526
2.55586
2.56023
2.57075
2.58109
2.589
2.59531
2.60161
2.60806
2.61359
2.61797
2.62197
2.62573
2.62913
2.63216
2.6347
2.6383
2.64737
2.67303
2.70977
2.73689
2.74751
2.74609
2.73156
2.71916
2.71971
2.73969
2.7675
2.77272
2.76052
2.74203
2.74276
2.76013
2.76729
2.75474
2.73093
2.72724
2.73456
2.75395
1.00074
1.00273
1.00564
1.01932
1.03436
1.14511
1.48016
2.25752
2.50793
2.6029
2.59044
2.56463
2.55947
2.56305
2.57269
2.581
2.58849
2.59535
2.60233
2.60896
2.61427
2.61828
2.62192
2.62538
2.6286
2.63152
2.63399
2.63747
2.64615
2.67081
2.70718
2.73498
2.74657
2.74568
2.73145
2.71692
2.7162
2.73337
2.76293
2.77015
2.76023
2.74083
2.74025
2.7562
2.76458
2.75336
2.72855
2.72351
2.73181
2.74992
1.00083
1.0037
1.00489
1.01601
1.04586
1.16144
1.39179
2.12673
2.51302
2.61546
2.591
2.5702
2.56359
2.56679
2.57424
2.58069
2.58787
2.59494
2.60218
2.60905
2.61455
2.61867
2.62227
2.62553
2.62849
2.63118
2.63349
2.63684
2.6453
2.66923
2.70482
2.73264
2.74478
2.7444
2.73084
2.71501
2.71319
2.72795
2.75844
2.76736
2.75932
2.73913
2.7369
2.75133
2.76096
2.75113
2.72634
2.72109
2.72748
2.74705
1.001
1.00358
1.00582
1.0225
1.02903
1.09407
1.40274
2.17844
2.46006
2.59452
2.58615
2.57647
2.56722
2.56961
2.57563
2.58169
2.5887
2.59555
2.60262
2.60948
2.61511
2.6194
2.62285
2.62568
2.62819
2.63049
2.63252
2.63568
2.64402
2.66784
2.7027
2.72974
2.7416
2.74144
2.72873
2.71267
2.71038
2.72378
2.7543
2.76442
2.75757
2.73637
2.7321
2.74517
2.75675
2.74896
2.72373
2.71594
2.72321
2.74128
1.00078
1.00354
1.00528
1.01932
1.03325
1.12325
1.35449
2.03308
2.41456
2.61531
2.59328
2.58316
2.56971
2.57133
2.57667
2.58274
2.59015
2.59712
2.604
2.61056
2.61599
2.62017
2.62338
2.62583
2.62796
2.62994
2.63175
2.63477
2.64307
2.66697
2.7013
2.7273
2.73822
2.73759
2.72388
2.70715
2.70428
2.71681
2.74854
2.76074
2.75528
2.73352
2.72697
2.73817
2.75129
2.74519
2.72006
2.71191
2.71653
2.73668
1.00079
1.00316
1.00415
1.01591
1.03404
1.13787
1.33575
2.02983
2.39088
2.60477
2.59592
2.58982
2.57293
2.57354
2.57732
2.58334
2.5912
2.59816
2.60494
2.6117
2.61754
2.62182
2.62466
2.62656
2.62823
2.62977
2.63119
2.63379
2.64164
2.66516
2.69947
2.72546
2.73635
2.73574
2.72188
2.70404
2.70033
2.71131
2.74252
2.75638
2.75244
2.73049
2.72064
2.72929
2.74471
2.7412
2.71625
2.70473
2.71059
2.72845
1.00077
1.0033
1.00441
1.02128
1.02801
1.11466
1.3033
1.88035
2.32141
2.60393
2.60439
2.59723
2.58097
2.57979
2.58217
2.58683
2.59367
2.59979
2.60674
2.6147
2.62183
2.62643
2.62869
2.62925
2.62913
2.62934
2.62994
2.63186
2.63959
2.66336
2.69713
2.72241
2.73294
2.73226
2.71812
2.69897
2.69421
2.70358
2.73499
2.7518
2.74962
2.72837
2.71496
2.72068
2.73614
2.73415
2.71217
2.69783
2.69953
2.7195
1.00065
1.0026
1.00507
1.01389
1.0349
1.1044
1.29575
1.84581
2.2892
2.59541
2.61176
2.60322
2.5847
2.58196
2.58394
2.58927
2.59482
2.60105
2.60929
2.61903
2.62736
2.63212
2.63371
2.63303
2.62997
2.62828
2.6283
2.62976
2.63776
2.66198
2.69485
2.71947
2.7299
2.72943
2.71567
2.69461
2.68818
2.69515
2.72498
2.74509
2.74506
2.7262
2.70839
2.71075
2.72626
2.7272
2.70534
2.68723
2.69052
2.70641
1.00071
1.00294
1.00427
1.0198
1.0257
1.07525
1.28064
1.74314
2.26684
2.58199
2.61712
2.60702
2.58894
2.58481
2.58673
2.59182
2.59641
2.60267
2.61184
2.62264
2.63132
2.63567
2.63651
2.63464
2.62934
2.62636
2.62611
2.62769
2.63678
2.66216
2.69328
2.71598
2.72543
2.72489
2.7115
2.68914
2.68097
2.68532
2.71219
2.73641
2.73907
2.72413
2.70164
2.70029
2.71289
2.71539
2.69693
2.67711
2.67191
2.69046
1.00057
1.00249
1.00362
1.01522
1.02656
1.10477
1.24171
1.73793
2.18371
2.56832
2.6276
2.61274
2.5966
2.58798
2.58937
2.59357
2.59872
2.60638
2.61685
2.62766
2.63503
2.63786
2.63761
2.63397
2.6273
2.62427
2.62413
2.62621
2.63697
2.66328
2.69249
2.71336
2.72173
2.72097
2.70732
2.6832
2.67286
2.67478
2.69756
2.72549
2.73145
2.72072
2.69426
2.68819
2.69701
2.7022
2.68777
2.65471
2.65331
2.66238
1.00062
1.00211
1.00335
1.0123
1.02744
1.09331
1.21599
1.64361
2.14021
2.55106
2.63693
2.61637
2.60314
2.59092
2.59197
2.59545
2.60125
2.61069
2.62237
2.63218
2.63717
2.63818
2.63652
2.63038
2.6242
2.62205
2.62228
2.62552
2.63885
2.66554
2.69166
2.70989
2.71694
2.716
2.70262
2.677
2.66405
2.66365
2.67977
2.71063
2.72031
2.71482
2.68911
2.67467
2.67799
2.68295
2.6707
2.63837
2.61732
2.62294
1.00054
1.00204
1.0034
1.01007
1.02501
1.08605
1.19369
1.57241
2.07042
2.52925
2.6494
2.62364
2.609
2.59273
2.59331
2.597
2.60499
2.61785
2.62919
2.63531
2.63698
2.63574
2.63001
2.62255
2.61882
2.61829
2.61973
2.6269
2.64553
2.66959
2.69182
2.70685
2.71214
2.71073
2.69695
2.67032
2.65514
2.65261
2.66394
2.69435
2.70839
2.7062
2.68246
2.65885
2.65619
2.65748
2.64886
2.604
2.56652
2.51411
1.00047
1.00206
1.00293
1.01078
1.02131
1.06017
1.17638
1.46451
1.99034
2.49096
2.66259
2.63223
2.61657
2.59813
2.59844
2.60529
2.61699
2.62856
2.63385
2.63452
2.63173
2.6236
2.61624
2.61291
2.61275
2.61513
2.62238
2.63622
2.65401
2.67312
2.69081
2.70215
2.70538
2.70307
2.68774
2.65968
2.64167
2.63622
2.64146
2.66728
2.68715
2.68878
2.67586
2.63975
2.62411
2.61755
2.60382
2.5635
2.47535
2.35766
1.00055
1.00197
1.00215
1.00986
1.01514
1.05511
1.16437
1.3516
1.93711
2.46588
2.6892
2.65705
2.63317
2.61143
2.6115
2.61978
2.6274
2.63056
2.62978
2.62396
2.61377
2.60728
2.60533
2.60656
2.61228
2.62137
2.63168
2.64377
2.65785
2.67275
2.68485
2.69099
2.69201
2.6889
2.67298
2.6467
2.62792
2.61979
2.62069
2.63697
2.66115
2.66726
2.66239
2.63471
2.59315
2.57174
2.55397
2.51813
2.43039
2.33255
1.00057
1.00203
1.00235
1.01122
1.01585
1.06192
1.15967
1.34636
1.91735
2.55639
2.69566
2.64977
2.61506
2.59768
2.59973
2.61043
2.61604
2.61674
2.61411
2.6076
2.60292
2.60161
2.6032
2.61022
2.62118
2.62987
2.63704
2.64592
2.65728
2.66897
2.67758
2.68085
2.6808
2.67604
2.65744
2.63255
2.61305
2.60234
2.60009
2.60761
2.63022
2.64057
2.63952
2.62669
2.58809
2.53902
2.50226
2.47187
2.40991
2.34885
1.00179
1.00232
1.00997
1.00564
1.05365
0.915989
1.13578
1.30824
1.91833
2.5366
2.67675
2.63515
2.61172
2.59559
2.5936
2.59819
2.59974
2.60016
2.59942
2.59839
2.59881
2.60207
2.61036
2.62041
2.62767
2.63237
2.63749
2.64494
2.65321
2.6599
2.66439
2.66574
2.66489
2.65864
2.64034
2.61819
2.59981
2.58742
2.58218
2.58376
2.59775
2.61218
2.61315
2.60857
2.58642
2.5432
2.48479
2.44744
2.38777
2.34739
1.00174
1.00218
1.00971
1.00491
1.05097
0.913674
1.12921
1.29713
1.91154
2.53819
2.67476
2.63171
2.61466
2.59722
2.59045
2.59358
2.59414
2.59542
2.59629
2.59837
2.60293
2.60883
2.61482
2.62041
2.62486
2.6288
2.63425
2.64066
2.64655
2.65166
2.65443
2.65485
2.65284
2.64303
2.6237
2.60476
2.5886
2.57627
2.56894
2.56727
2.57286
2.58694
2.59035
2.58817
2.57836
2.55237
2.49479
2.4485
2.39535
2.34825
1.00163
1.00195
1.00912
1.00358
1.04775
0.90928
1.12355
1.2809
1.90682
2.53664
2.66215
2.62093
2.60967
2.59194
2.5885
2.59372
2.59607
2.59938
2.60241
2.60588
2.60962
2.61271
2.61487
2.61623
2.61807
2.62268
2.62993
2.63633
2.64181
2.64556
2.64675
2.64553
2.63901
2.62417
2.60655
2.58991
2.57562
2.56407
2.55595
2.55226
2.55405
2.56388
2.56967
2.56872
2.56381
2.55067
2.51877
2.46408
2.41576
2.36168
1.00047
1.00309
1.00272
1.01904
0.975521
1.04551
1.15606
1.45032
2.11758
2.4424
2.59898
2.57368
2.56215
2.55549
2.55792
2.56237
2.57249
2.58547
2.59401
2.6005
2.60585
2.61021
2.61309
2.61521
2.61823
2.62291
2.62732
2.62981
2.63102
2.63074
2.6279
2.62036
2.6092
2.59685
2.58419
2.57216
2.56129
2.55181
2.54427
2.53968
2.53957
2.54492
2.55116
2.55094
2.54799
2.54078
2.5257
2.48861
2.44727
2.39554
1.00069
1.00083
1.0041
1.005
1.02296
1.02995
1.09467
1.37315
2.00788
2.40065
2.57533
2.553
2.55423
2.54989
2.54817
2.5494
2.55038
2.55509
2.56329
2.57051
2.57513
2.58078
2.59124
2.6022
2.61177
2.61809
2.62075
2.62125
2.6196
2.6124
2.60163
2.59172
2.5828
2.57467
2.56692
2.55957
2.55272
2.54623
2.54035
2.53616
2.53545
2.53847
2.54225
2.54181
2.53929
2.53289
2.52396
2.50428
2.47027
2.43297
1.00066
1.00076
1.00299
1.00552
1.01964
1.03476
1.14455
1.30663
1.87212
2.34858
2.57504
2.56563
2.55215
2.54099
2.53606
2.53765
2.5384
2.53988
2.54138
2.54384
2.54602
2.54766
2.55067
2.55829
2.57506
2.59124
2.60128
2.60505
2.6052
2.60351
2.59647
2.58574
2.57674
2.56931
2.56297
2.55742
2.55225
2.54714
2.54241
2.5389
2.53821
2.54045
2.54307
2.54256
2.54028
2.53477
2.52577
2.51382
2.48957
2.46268
1.0007
1.00064
1.00381
1.00455
1.01746
1.02959
1.09247
1.27806
1.78774
2.28331
2.56296
2.57446
2.5634
2.54552
2.53694
2.5372
2.53724
2.53829
2.54036
2.54119
2.54117
2.541
2.54068
2.54112
2.54415
2.55522
2.57619
2.59459
2.60542
2.60772
2.60628
2.60009
2.58844
2.57795
2.56936
2.56257
2.55724
2.55304
2.5497
2.5476
2.54767
2.54909
2.54923
2.54826
2.54537
2.53988
2.53217
2.52274
2.50363
2.4825
1.00037
1.00072
1.00236
1.00452
1.01681
1.02742
1.11628
1.23045
1.71399
2.2074
2.55515
2.58976
2.57078
2.54855
2.53609
2.53648
2.53884
2.54221
2.54551
2.54636
2.54623
2.54549
2.54422
2.54379
2.54469
2.55
2.5678
2.59304
2.6132
2.62538
2.63003
2.62962
2.62347
2.60723
2.58964
2.57554
2.56521
2.55818
2.55387
2.55221
2.55292
2.55484
2.55476
2.55363
2.55071
2.54642
2.53819
2.52686
2.50881
2.48794
1.00035
1.0005
1.00189
1.0029
1.0121
1.02299
1.08114
1.2141
1.62263
2.14489
2.53213
2.61227
2.58757
2.57276
2.5568
2.55489
2.55628
2.56008
2.56404
2.56482
2.56455
2.56334
2.56032
2.55717
2.55627
2.5593
2.57411
2.60091
2.62306
2.6379
2.64435
2.64503
2.64133
2.62674
2.6031
2.58177
2.56531
2.55445
2.54813
2.5456
2.54618
2.5492
2.55023
2.54968
2.5478
2.54398
2.53565
2.52211
2.50316
2.48402
1.00002
0.999649
1.00015
0.99615
1.01424
0.924024
1.07175
1.10153
1.68052
2.50077
2.55127
2.57734
2.55759
2.53882
2.53905
2.54542
2.55456
2.56383
2.57146
2.5747
2.57537
2.57527
2.57551
2.57759
2.58305
2.59225
2.60672
2.6233
2.63622
2.64366
2.64607
2.64546
2.63972
2.62263
2.59795
2.57373
2.55183
2.53421
2.5225
2.51648
2.51472
2.51576
2.51989
2.52277
2.5228
2.52173
2.51839
2.51081
2.49728
2.48188
0.999992
0.999881
0.999957
0.997925
1.00426
0.971861
1.03662
1.04917
1.61737
2.45077
2.5323
2.57298
2.55903
2.5447
2.53358
2.53395
2.53538
2.54005
2.54439
2.54801
2.55102
2.55478
2.56168
2.57192
2.58474
2.59931
2.61347
2.62505
2.63231
2.63438
2.63254
2.62426
2.60798
2.58849
2.56768
2.54762
2.53015
2.5164
2.50625
2.4995
2.4961
2.49571
2.49786
2.504
2.50896
2.51006
2.50949
2.50718
2.50074
2.48824
1.00008
1.00022
1.00085
1.00101
1.00461
0.993289
1.04327
1.01545
1.56936
2.3413
2.50227
2.54729
2.52642
2.51065
2.50182
2.50317
2.50871
2.51911
2.5238
2.52896
2.53343
2.5378
2.54449
2.55739
2.5748
2.59228
2.60701
2.61545
2.61742
2.61708
2.6149
2.60719
2.59104
2.57329
2.55624
2.54072
2.52722
2.51597
2.50705
2.50078
2.49741
2.49684
2.49858
2.50443
2.51073
2.51343
2.51348
2.51262
2.51075
2.50699
0.999843
1.00076
1.00012
1.00582
1.0002
1.04404
0.906479
1.12186
1.27146
1.91279
2.49793
2.64011
2.62086
2.58133
2.55394
2.53185
2.53135
2.53055
2.53101
2.53228
2.53447
2.53701
2.54242
2.54713
2.5537
2.56739
2.58334
2.59787
2.60891
2.61332
2.61328
2.611
2.60336
2.58651
2.56848
2.55265
2.53989
2.53019
2.52286
2.51752
2.51418
2.51304
2.51399
2.51827
2.52479
2.52855
2.52934
2.52902
2.528
2.52501
1.00016
1.00063
1.00074
1.00363
1.00445
1.02026
1.02696
1.1003
1.28766
1.82249
2.29299
2.59055
2.61403
2.60544
2.58841
2.57926
2.57573
2.5747
2.57385
2.57268
2.5697
2.56215
2.55591
2.55475
2.55556
2.55821
2.56447
2.57768
2.59397
2.60752
2.61608
2.61935
2.61897
2.61598
2.60615
2.5865
2.56721
2.55084
2.53828
2.52972
2.5247
2.52251
2.52267
2.52541
2.53132
2.53498
2.53583
2.53547
2.53427
2.53089
1.00012
1.00045
1.00057
1.0023
1.00411
1.01275
1.02877
1.08775
1.23888
1.64843
2.22186
2.52509
2.60372
2.59168
2.58533
2.57785
2.57607
2.57644
2.57728
2.57778
2.5775
2.57767
2.57933
2.57909
2.57758
2.57616
2.5767
2.58045
2.58872
2.59964
2.61067
2.61761
2.61981
2.61956
2.61736
2.60964
2.59188
2.57131
2.55338
2.53912
2.5289
2.52325
2.52146
2.52198
2.52499
2.52864
2.52981
2.5296
2.52872
2.52625
1.00009
1.00041
1.00053
1.00225
1.00312
1.01183
1.02112
1.06603
1.19117
1.50536
2.06685
2.51032
2.64016
2.60882
2.59343
2.57142
2.56999
2.5736
2.5797
2.58258
2.58369
2.58583
2.59141
2.6003
2.60881
2.61445
2.61474
2.6127
2.60998
2.61011
2.61134
2.61454
2.61631
2.61627
2.61506
2.61059
2.5993
2.58241
2.56425
2.54737
2.53376
2.52377
2.51684
2.5126
2.5109
2.5107
2.51054
2.5101
2.5095
2.50828
1.00012
1.00022
1.00077
1.00104
1.00308
1.01007
1.01242
1.05449
1.16412
1.3858
1.94503
2.44335
2.67706
2.64507
2.63726
2.62194
2.61832
2.62131
2.62355
2.62344
2.62273
2.62235
2.6241
2.62868
2.63244
2.63393
2.63363
2.63123
2.62444
2.61564
2.60851
2.60364
2.60026
2.59796
2.59651
2.59406
2.58828
2.57662
2.56223
2.54777
2.53505
2.52466
2.51675
2.51088
2.5072
2.50475
2.5036
2.50217
2.50137
2.50007
1.00001
1.00005
1.00003
1.00017
0.999066
0.999877
0.972779
1.04068
1.02109
1.62097
2.43273
2.55963
2.61963
2.59693
2.58362
2.58467
2.59086
2.60243
2.61008
2.61463
2.61911
2.62443
2.62959
2.63317
2.63452
2.63446
2.63358
2.63045
2.62177
2.60733
2.59142
2.57718
2.56679
2.56012
2.55591
2.55359
2.55283
2.55177
2.54954
2.54569
2.54034
2.53404
2.52797
2.52287
2.5185
2.51462
2.5115
2.50831
2.50614
2.50327
1.00025
1.00023
1.00149
1.00176
1.00876
1.00445
1.04812
0.937179
1.14391
1.3318
1.95196
2.51826
2.73802
2.69962
2.67007
2.63053
2.61298
2.6096
2.60932
2.60873
2.61
2.61476
2.62103
2.62552
2.62768
2.62817
2.62773
2.62561
2.61865
2.60271
2.58345
2.56601
2.55224
2.54238
2.53587
2.53199
2.53024
2.53008
2.53164
2.5364
2.54165
2.54617
2.54854
2.54877
2.54829
2.54701
2.54435
2.53809
2.53098
2.52171
1.00014
1.00014
1.00085
1.00096
1.00526
0.99902
1.04341
0.90055
1.12228
1.29497
1.96482
2.67936
2.77488
2.71991
2.68833
2.65414
2.63703
2.63265
2.62774
2.62301
2.61227
2.60163
2.59481
2.59278
2.59299
2.59475
2.59977
2.60281
2.60243
2.5985
2.58891
2.57525
2.5601
2.54727
2.53762
2.53137
2.52809
2.5271
2.52757
2.53073
2.53831
2.54619
2.55247
2.55642
2.55816
2.55842
2.55797
2.55545
2.54813
2.53609
1.00012
1.00013
1.00068
1.00092
1.00343
1.00578
1.01918
1.03031
1.1355
1.38009
2.11366
2.51921
2.66556
2.655
2.64316
2.63196
2.62908
2.62938
2.62753
2.62256
2.61309
2.60195
2.59002
2.57895
2.57116
2.5681
2.56798
2.56889
2.57239
2.576
2.5762
2.57516
2.5727
2.5674
2.56145
2.55611
2.55104
2.54712
2.5454
2.54541
2.5468
2.55055
2.55436
2.55688
2.558
2.55806
2.55754
2.55517
2.54811
2.53666
1.00009
1.00011
1.00055
1.00069
1.00283
1.00463
1.02042
1.02844
1.12088
1.35619
2.00441
2.45176
2.66881
2.65692
2.64487
2.62491
2.60958
2.60786
2.60828
2.61015
2.6134
2.61305
2.61146
2.60795
2.6007
2.5932
2.58721
2.58338
2.58144
2.57979
2.57775
2.57596
2.57469
2.57388
2.57356
2.57319
2.5726
2.57183
2.57108
2.56997
2.56756
2.5628
2.55742
2.55168
2.54642
2.54233
2.53842
2.53446
2.52752
2.51941
1.00008
1.00011
1.00055
1.00062
1.00363
1.00447
1.0195
1.02844
1.12048
1.33904
1.98373
2.43741
2.67382
2.66574
2.65368
2.63323
2.63377
2.63828
2.64708
2.65277
2.65473
2.65479
2.65363
2.64974
2.64104
2.62795
2.61354
2.59984
2.58796
2.57858
2.57184
2.56767
2.56596
2.56559
2.56604
2.56805
2.57083
2.57214
2.57224
2.57184
2.57026
2.56544
2.55751
2.54822
2.53947
2.53157
2.52412
2.5175
2.51037
2.50363
1.00006
1.00006
1.00055
1.00048
1.00424
0.997377
1.04164
0.899365
1.11898
1.27305
1.94976
2.6285
2.78724
2.76806
2.72039
2.64504
2.61385
2.61025
2.61211
2.61862
2.62881
2.63744
2.6429
2.64367
2.64231
2.63844
2.62903
2.61309
2.59593
2.5802
2.56648
2.55582
2.5484
2.54467
2.54408
2.54463
2.54645
2.55041
2.55577
2.55934
2.55992
2.55895
2.55596
2.55106
2.54616
2.53965
2.53159
2.52351
2.51471
2.50665
1.00007
1.00011
1.00053
1.0006
1.00248
1.00471
1.01475
1.03743
1.13395
1.33561
1.9695
2.40954
2.64271
2.65687
2.66818
2.67342
2.68671
2.69153
2.68441
2.66198
2.64555
2.63714
2.63355
2.63257
2.63224
2.63101
2.62703
2.61863
2.60825
2.59459
2.57847
2.56398
2.55357
2.54648
2.54085
2.53638
2.53348
2.53218
2.53194
2.53218
2.53383
2.53837
2.54375
2.54736
2.54883
2.54881
2.54817
2.54618
2.54083
2.532
1.00004
0.999999
1.00045
1.00034
1.00271
1.0036
1.01906
1.02713
1.09883
1.32794
1.98775
2.39269
2.63825
2.6638
2.67339
2.68529
2.71993
2.74588
2.74744
2.73288
2.69065
2.64654
2.61335
2.59425
2.58576
2.58336
2.58442
2.58815
2.58922
2.58843
2.58641
2.58265
2.57683
2.57038
2.56405
2.55781
2.5513
2.54497
2.54031
2.53793
2.53756
2.53848
2.54147
2.54532
2.54807
2.54941
2.54965
2.54936
2.54777
2.54303
1.00004
1.00005
1.00043
1.00034
1.00351
0.996995
1.03794
0.903088
1.10882
1.24363
1.90473
2.61241
2.75982
2.74312
2.69007
2.63543
2.62851
2.63344
2.6505
2.66229
2.66298
2.65962
2.64923
2.62871
2.60719
2.59264
2.58504
2.58044
2.57769
2.57649
2.57581
2.57454
2.57217
2.56894
2.56614
2.56422
2.5633
2.5629
2.56234
2.5614
2.56037
2.559
2.55715
2.5543
2.5512
2.54775
2.54466
2.54173
2.53662
2.5312
1.00008
1.0001
1.00051
1.00055
1.0032
1.00377
1.0189
1.02311
1.12127
1.26557
1.83536
2.32502
2.65485
2.69152
2.68535
2.68861
2.71165
2.73465
2.73346
2.71402
2.68654
2.67053
2.65568
2.64323
2.63337
2.62313
2.61209
2.60084
2.59034
2.58239
2.57676
2.57205
2.56793
2.56474
2.56284
2.56218
2.56225
2.56299
2.56467
2.56574
2.56593
2.56571
2.56485
2.5623
2.55661
2.54897
2.54081
2.53231
2.52357
2.51519
1.00007
1.00009
1.00054
1.00059
1.00319
1.0036
1.01754
1.0241
1.09085
1.2582
1.79515
2.2572
2.6498
2.69608
2.69224
2.70161
2.73631
2.76507
2.76311
2.73307
2.68572
2.65268
2.63325
2.62251
2.61669
2.61338
2.60954
2.60474
2.59981
2.59452
2.58948
2.58604
2.58416
2.58249
2.57974
2.57623
2.57305
2.57067
2.5689
2.56729
2.56597
2.565
2.56378
2.56115
2.55578
2.54848
2.54021
2.53116
2.52213
2.51328
1.00006
1.0001
1.00051
1.00062
1.00303
1.00345
1.01687
1.02151
1.09861
1.24701
1.76943
2.26795
2.66349
2.71372
2.7082
2.7169
2.74719
2.77166
2.76477
2.72614
2.6796
2.64276
2.6209
2.61026
2.60627
2.60584
2.60748
2.61088
2.61311
2.61366
2.61343
2.61299
2.61222
2.61075
2.60838
2.60545
2.60083
2.59435
2.58726
2.57949
2.57283
2.56712
2.56219
2.55722
2.55112
2.54401
2.53615
2.52757
2.51891
2.51056
1.00004
1.00008
1.00032
1.00044
1.00148
1.00422
1.00854
1.03093
1.09027
1.2885
1.86357
2.32241
2.67627
2.72832
2.7265
2.73717
2.76481
2.77701
2.7574
2.70163
2.65973
2.63278
2.61654
2.61295
2.61641
2.63023
2.64872
2.66273
2.67106
2.67402
2.67372
2.66947
2.65897
2.64747
2.63665
2.62691
2.61579
2.6041
2.59145
2.57777
2.56529
2.55233
2.54093
2.53138
2.52285
2.51591
2.50937
2.50319
2.49741
2.49172
1.00004
0.999943
1.00003
0.999097
1.0001
0.993811
1.02944
0.900107
1.09252
1.22325
1.88488
2.73859
2.81596
2.72143
2.6604
2.6505
2.66075
2.67654
2.67778
2.67647
2.68198
2.69815
2.70665
2.70666
2.69716
2.67145
2.65011
2.63993
2.63706
2.63713
2.63779
2.63778
2.63636
2.63184
2.62478
2.61616
2.60476
2.59174
2.57654
2.5608
2.54538
2.53127
2.51952
2.50988
2.50225
2.4965
2.49174
2.48813
2.48486
2.4823
1.00001
0.999997
1.00004
0.999573
1.00026
0.994017
1.02508
0.897303
1.09482
1.22042
1.85793
2.75401
2.80179
2.72218
2.65245
2.61937
2.62109
2.63056
2.64445
2.67242
2.71003
2.73738
2.74669
2.74538
2.72898
2.68585
2.64266
2.61263
2.59527
2.58742
2.58519
2.58552
2.5879
2.59064
2.59137
2.591
2.58939
2.58527
2.57624
2.56504
2.55342
2.54174
2.53252
2.52418
2.51798
2.51342
2.50889
2.50596
2.50151
2.49757
1
0.999981
1.00004
0.99947
1.00029
0.994064
1.02568
0.898184
1.09873
1.22226
1.88816
2.78309
2.84517
2.71985
2.65386
2.62138
2.62356
2.63424
2.64477
2.665
2.69843
2.72599
2.73698
2.73677
2.72402
2.68721
2.64724
2.61871
2.60149
2.59326
2.59097
2.59137
2.5944
2.60116
2.60787
2.61334
2.61546
2.6154
2.61437
2.612
2.60687
2.59833
2.5888
2.57722
2.56614
2.55344
2.54103
2.52864
2.51553
2.50445
1.0001
1.00036
1.00037
1.00239
1.00294
1.01326
1.00737
1.07248
0.925215
1.29502
1.83853
2.4447
2.73115
2.75365
2.75478
2.77005
2.77518
2.74721
2.68426
2.64482
2.63155
2.62911
2.63344
2.63935
2.64473
2.6566
2.67461
2.69097
2.70029
2.70219
2.69725
2.67958
2.65852
2.64381
2.63477
2.62986
2.62705
2.62497
2.62299
2.62093
2.61697
2.60867
2.5978
2.58435
2.57107
2.55692
2.54303
2.52961
2.51616
2.50402
1.00006
1.00026
1.00026
1.00133
1.00162
1.0068
1.00637
1.03663
1.09072
1.22172
1.79841
2.29449
2.72694
2.79283
2.80131
2.80666
2.79674
2.75419
2.68848
2.64158
2.61235
2.59818
2.5948
2.59569
2.60288
2.6281
2.66722
2.6991
2.71766
2.72334
2.71923
2.69761
2.6596
2.62804
2.60602
2.59226
2.58422
2.58
2.57777
2.5762
2.57439
2.57237
2.56984
2.56525
2.56059
2.55527
2.54833
2.54212
2.53409
2.52662
1.00006
1.00026
1.00026
1.00141
1.00165
1.00692
1.00989
1.02912
1.06636
1.21927
1.74707
2.30118
2.72348
2.78985
2.8014
2.80465
2.79434
2.75262
2.69487
2.64838
2.61632
2.59873
2.5919
2.59158
2.59487
2.61174
2.65057
2.68672
2.70865
2.71622
2.71318
2.69426
2.65675
2.62347
2.59853
2.58165
2.57093
2.56457
2.56142
2.56094
2.56206
2.56508
2.56793
2.56982
2.57094
2.57109
2.57093
2.57034
2.56808
2.56272
2.1684
2.4583
2.67904
2.82731
3.32811
3.1519
3.12474
3.11246
3.09611
3.0906
3.08701
3.08639
3.08487
3.08493
3.08151
3.07804
3.07328
3.06742
3.06068
3.05356
3.04802
3.04003
3.03568
3.02942
3.01896
3.01143
3.00252
2.99263
2.98229
2.97158
2.96099
2.95057
2.9396
2.92823
2.91723
2.90732
2.89792
2.88716
2.87535
2.86338
2.85067
2.83879
2.82729
2.81638
2.80639
2.79696
2.788
2.77966
2.77159
2.76363
2.75595
2.7485
2.74093
2.73365
2.72615
2.71881
2.71125
2.70373
2.69644
2.689
2.68216
2.67539
2.66908
2.66349
2.65796
2.65333
2.64929
2.64536
2.64278
2.64015
2.6386
2.63744
2.63721
2.63752
2.63869
2.63973
2.64208
2.6438
2.6476
2.65018
2.65559
2.65948
2.66551
2.66994
2.67635
2.68077
2.6871
2.69133
2.69751
2.70114
2.707
2.71084
2.71572
2.72001
2.72323
2.72811
2.73029
2.73501
2.73701
2.74175
2.184
2.31564
2.46415
2.62043
2.67654
2.79011
2.85237
2.91882
2.96273
2.98073
2.9965
3.01196
3.02122
3.04771
3.07092
3.07342
3.06968
3.06057
3.04667
3.01984
2.98813
2.95724
2.93192
2.91128
2.89499
2.88045
2.86606
2.85086
2.83484
2.81698
2.79841
2.77947
2.75887
2.73712
2.71655
2.69548
2.67315
2.65022
2.62857
2.60907
2.59133
2.57462
2.55891
2.54406
2.5299
2.51653
2.50385
2.49179
2.4804
2.46949
2.45894
2.44885
2.43901
2.42959
2.42045
2.41175
2.40319
2.39512
2.38735
2.37977
2.37289
2.36622
2.36002
2.35452
2.34937
2.34483
2.34087
2.33735
2.33438
2.33207
2.32994
2.32869
2.32792
2.32752
2.32774
2.32804
2.32832
2.32866
2.32911
2.32971
2.33054
2.33127
2.3317
2.33202
2.332
2.33183
2.33143
2.33073
2.32978
2.32867
2.32762
2.3265
2.32538
2.32442
2.32333
2.32253
2.32172
2.32174
2.32145
2.32161
2.23713
2.24157
2.29326
2.36623
2.41102
2.44692
2.47748
2.49835
2.52183
2.53597
2.54508
2.55381
2.55498
2.55331
2.548
2.54111
2.53293
2.52425
2.51614
2.50913
2.50321
2.49827
2.49454
2.4921
2.49113
2.4916
2.49406
2.49853
2.50324
2.50776
2.51176
2.51449
2.51595
2.51613
2.51536
2.51302
2.50902
2.50309
2.49548
2.48706
2.478
2.46837
2.45811
2.44744
2.43677
2.42618
2.41594
2.40588
2.39577
2.38575
2.37545
2.36533
2.35505
2.34506
2.33495
2.32515
2.31525
2.30557
2.29583
2.2864
2.27708
2.26807
2.25965
2.25149
2.24401
2.23746
2.23135
2.22623
2.22254
2.21936
2.21715
2.21673
2.21702
2.21787
2.21998
2.22243
2.22657
2.2301
2.23553
2.2398
2.2454
2.25069
2.25577
2.26017
2.26373
2.26675
2.26875
2.26925
2.2691
2.26818
2.26705
2.26416
2.26222
2.25813
2.25555
2.25086
2.24818
2.24344
2.24143
2.23513
2.28554
2.24537
2.24803
2.26597
2.2871
2.30142
2.30957
2.31793
2.324
2.33012
2.33355
2.33539
2.33926
2.34057
2.34026
2.33872
2.33677
2.3351
2.33334
2.33112
2.32874
2.32681
2.32512
2.3237
2.32264
2.32179
2.32142
2.32141
2.32191
2.32301
2.32458
2.3264
2.32784
2.32944
2.3314
2.33386
2.3361
2.33783
2.33915
2.34035
2.34133
2.3419
2.34202
2.34179
2.34075
2.33831
2.33514
2.33151
2.32733
2.32239
2.3167
2.31028
2.30333
2.29594
2.28823
2.28023
2.27198
2.26351
2.25487
2.24613
2.2374
2.22878
2.22034
2.21212
2.20407
2.19613
2.18825
2.18035
2.17233
2.1643
2.15659
2.14942
2.14255
2.13591
2.13113
2.12854
2.12771
2.12781
2.12853
2.13076
2.13472
2.14031
2.1472
2.15464
2.16263
2.17088
2.17917
2.18739
2.1952
2.20212
2.20777
2.21302
2.21701
2.21921
2.21973
2.21954
2.21902
2.21722
2.21619
2.21121
2.29788
2.26785
2.25018
2.24331
2.24474
2.24341
2.23988
2.23568
2.23295
2.23099
2.23042
2.22902
2.22826
2.2285
2.2292
2.2294
2.22993
2.23076
2.23232
2.23371
2.23494
2.23685
2.23758
2.23873
2.24005
2.24119
2.24299
2.24444
2.24629
2.24769
2.2488
2.25051
2.25209
2.25393
2.25598
2.25848
2.259
2.25859
2.25751
2.25596
2.25456
2.25318
2.25162
2.24996
2.24838
2.2468
2.24495
2.24251
2.23933
2.2355
2.2312
2.22655
2.22159
2.21633
2.21081
2.20502
2.19898
2.19271
2.18624
2.17965
2.17299
2.16629
2.15959
2.15288
2.14619
2.13954
2.13293
2.12636
2.11999
2.11383
2.10798
2.10242
2.09695
2.09241
2.08862
2.08462
2.08033
2.07622
2.07329
2.07199
2.07183
2.07205
2.07285
2.07481
2.07851
2.08341
2.08903
2.09535
2.102
2.10861
2.11472
2.12068
2.12625
2.13098
2.13487
2.13809
2.14095
2.14274
2.14454
2.14389
2.30775
2.2762
2.266
2.2484
2.23931
2.23049
2.2202
2.2106
2.20091
2.19419
2.18744
2.18341
2.1799
2.17698
2.17668
2.17694
2.17758
2.17814
2.17944
2.18052
2.18174
2.18372
2.18517
2.18755
2.19016
2.19117
2.19279
2.1944
2.19674
2.19885
2.20113
2.20305
2.2048
2.20587
2.20716
2.20897
2.2092
2.20879
2.2078
2.20632
2.20457
2.20268
2.20075
2.19892
2.19731
2.19598
2.19484
2.19372
2.19243
2.19084
2.18891
2.18658
2.18384
2.18068
2.1771
2.17312
2.1688
2.16416
2.15927
2.15418
2.14897
2.1437
2.13843
2.13314
2.1278
2.12234
2.1167
2.11069
2.10426
2.0974
2.09016
2.0825
2.07443
2.0667
2.05976
2.05327
2.04697
2.04141
2.03729
2.0352
2.03469
2.0348
2.03537
2.03689
2.04012
2.0447
2.0498
2.05601
2.06253
2.06959
2.07666
2.08361
2.09045
2.09659
2.10196
2.10635
2.10997
2.11259
2.11481
2.11463
2.32889
2.29008
2.26784
2.259
2.24674
2.23587
2.22381
2.21205
2.20012
2.19002
2.18067
2.17354
2.16794
2.16356
2.15925
2.15713
2.15553
2.15388
2.15273
2.1524
2.1525
2.15303
2.15465
2.15628
2.15838
2.16213
2.16435
2.16701
2.17015
2.17316
2.17576
2.17822
2.18003
2.18129
2.18304
2.18398
2.18379
2.18307
2.18153
2.17953
2.17726
2.17484
2.17239
2.17009
2.16806
2.16631
2.16468
2.163
2.1611
2.1589
2.1563
2.15327
2.14982
2.146
2.1419
2.13762
2.13323
2.12879
2.12442
2.12022
2.11633
2.11285
2.1098
2.10707
2.10445
2.10179
2.09886
2.09529
2.09085
2.08561
2.07952
2.07242
2.06441
2.05618
2.04855
2.04159
2.03488
2.0292
2.02518
2.0231
2.02256
2.02267
2.02331
2.02503
2.02805
2.03171
2.03587
2.04072
2.04563