/*--------------------------------*- C++ -*----------------------------------*\
| =========                 |                                                 |
| \\      /  F ield         | OpenFOAM: The Open Source CFD Toolbox           |
|  \\    /   O peration     | Version:  2412                                  |
|   \\  /    A nd           | Website:  www.openfoam.com                      |
|    \\/     M anipulation  |                                                 |
\*---------------------------------------------------------------------------*/
FoamFile
{
    version     2.0;
    format      ascii;
    arch        "LSB;label=32;scalar=64";
    class       volVectorField;
    location    "8";
    object      U;
}
// * * * * * * * * * * * * * * * * * * * * * * * * * * * * * * * * * * * * * //

dimensions      [0 1 -1 0 0 0 0];

internalField   nonuniform List<vector> 
7000
(
(2.99928 -0.00011342 0)
(2.99912 0.000298163 0)
(2.99486 -0.00117037 0)
(2.98762 0.00123998 0)
(2.99367 0.00442745 0)
(2.85066 0.00759058 0)
(2.69432 -0.00617623 0)
(2.12732 0.0277397 0)
(0.832127 -0.0048114 0)
(0.526863 0.00321299 0)
(0.617739 0.00341618 0)
(0.705318 0.00354954 0)
(0.723555 0.00387931 0)
(0.714239 0.00400079 0)
(0.698337 0.00376204 0)
(0.681285 0.0032721 0)
(0.669304 0.00270505 0)
(0.661467 0.00218091 0)
(0.655609 0.00177611 0)
(0.650098 0.00151133 0)
(0.644263 0.00136931 0)
(0.637946 0.00132267 0)
(0.631072 0.0013485 0)
(0.62353 0.00143397 0)
(0.615204 0.00157676 0)
(0.60606 0.00178171 0)
(0.59613 0.00205878 0)
(0.585301 0.00242505 0)
(0.573615 0.00291957 0)
(0.560078 0.00352012 0)
(0.544178 0.00427041 0)
(0.526145 0.00514914 0)
(0.505475 0.00609865 0)
(0.48238 0.00702377 0)
(0.457651 0.00773976 0)
(0.431795 0.00822256 0)
(0.404975 0.00825734 0)
(0.377044 0.00831131 0)
(0.34921 0.0080925 0)
(0.321959 0.007981 0)
(0.295789 0.00804064 0)
(0.270005 0.00841025 0)
(0.242371 0.0090546 0)
(0.21139 0.00992773 0)
(0.177532 0.0107449 0)
(0.143621 0.0112457 0)
(0.111087 0.0112365 0)
(0.0796735 0.0109442 0)
(0.0468684 0.0110212 0)
(0.018523 0.0110986 0)
(2.99943 -0.000108185 0)
(2.99848 0.000241426 0)
(2.9954 -0.000769917 0)
(2.99091 0.00105669 0)
(2.9968 0.00567653 0)
(2.84762 0.00450467 0)
(2.71511 -0.00329807 0)
(2.14313 0.0189391 0)
(0.831297 0.010283 0)
(0.541457 0.0185772 0)
(0.623053 0.0161185 0)
(0.708537 0.0128078 0)
(0.728342 0.0106125 0)
(0.72202 0.0090487 0)
(0.709235 0.00785447 0)
(0.69461 0.00700328 0)
(0.683748 0.00653843 0)
(0.675668 0.00637986 0)
(0.668562 0.00639849 0)
(0.661244 0.00647658 0)
(0.653396 0.00653809 0)
(0.645086 0.00656393 0)
(0.636345 0.00657896 0)
(0.627101 0.00663651 0)
(0.617237 0.00680326 0)
(0.606706 0.00714366 0)
(0.595534 0.00771003 0)
(0.583628 0.00854536 0)
(0.571035 0.00968544 0)
(0.55685 0.0110886 0)
(0.540705 0.0127627 0)
(0.52292 0.0146252 0)
(0.503083 0.0165686 0)
(0.4814 0.0184746 0)
(0.458619 0.0198764 0)
(0.434942 0.0209392 0)
(0.410374 0.0211814 0)
(0.384215 0.0215472 0)
(0.357167 0.0214078 0)
(0.329853 0.0214003 0)
(0.302896 0.0217136 0)
(0.276091 0.0225489 0)
(0.247587 0.0238825 0)
(0.216111 0.0255694 0)
(0.182156 0.0271265 0)
(0.148357 0.0280964 0)
(0.115652 0.0281443 0)
(0.083306 0.027492 0)
(0.0488744 0.0270168 0)
(0.0193757 0.0264527 0)
(2.9994 8.57881e-05 0)
(2.99871 -6.7935e-05 0)
(2.99532 0.00091492 0)
(2.99144 0.000323579 0)
(2.99549 0.00508334 0)
(2.84891 0.00674838 0)
(2.71119 0.0040234 0)
(2.11559 -0.00426561 0)
(0.820868 0.0286152 0)
(0.543024 0.0291155 0)
(0.629669 0.024677 0)
(0.714163 0.0195326 0)
(0.732184 0.0160537 0)
(0.723084 0.0139735 0)
(0.707096 0.0128496 0)
(0.689683 0.0122271 0)
(0.677131 0.0119549 0)
(0.668634 0.011864 0)
(0.662187 0.0118045 0)
(0.656255 0.0117009 0)
(0.65017 0.0115514 0)
(0.643708 0.0114071 0)
(0.636695 0.0113394 0)
(0.628932 0.0114274 0)
(0.620243 0.0117525 0)
(0.610569 0.0123883 0)
(0.599961 0.0133957 0)
(0.588372 0.014826 0)
(0.575916 0.0166974 0)
(0.561766 0.0189813 0)
(0.545623 0.0216499 0)
(0.527904 0.0245678 0)
(0.508313 0.0275799 0)
(0.486945 0.0305396 0)
(0.464634 0.0328254 0)
(0.44145 0.0346422 0)
(0.417345 0.035577 0)
(0.391302 0.0364643 0)
(0.36362 0.0369007 0)
(0.33527 0.0373906 0)
(0.306989 0.0382962 0)
(0.278961 0.0398011 0)
(0.249606 0.0419708 0)
(0.217775 0.0445444 0)
(0.183911 0.0469783 0)
(0.150424 0.0486115 0)
(0.117893 0.0490687 0)
(0.0853317 0.0485704 0)
(0.050187 0.0480794 0)
(0.0200036 0.0473318 0)
(2.99941 -5.25863e-05 0)
(2.999 -6.11945e-05 0)
(2.99565 -0.000266726 0)
(2.99356 0.000356407 0)
(3.00104 -0.00187643 0)
(2.84807 -0.00139682 0)
(2.70881 0.00200508 0)
(2.13658 -0.000528871 0)
(0.839304 0.0426938 0)
(0.539959 0.0412593 0)
(0.623055 0.0368544 0)
(0.707749 0.030976 0)
(0.726367 0.0257841 0)
(0.718194 0.0220782 0)
(0.70336 0.0197219 0)
(0.687316 0.0180202 0)
(0.676296 0.0168203 0)
(0.669222 0.0160329 0)
(0.663881 0.0155609 0)
(0.65867 0.0152881 0)
(0.652958 0.0151367 0)
(0.646615 0.0150956 0)
(0.639571 0.0152065 0)
(0.631716 0.0155478 0)
(0.622937 0.0162184 0)
(0.613204 0.0173148 0)
(0.60258 0.018915 0)
(0.591016 0.0210733 0)
(0.578618 0.0238122 0)
(0.564571 0.027061 0)
(0.548579 0.0307785 0)
(0.531053 0.0347658 0)
(0.511725 0.0388012 0)
(0.490547 0.0426743 0)
(0.468379 0.0458703 0)
(0.44527 0.0484384 0)
(0.421184 0.0502303 0)
(0.394994 0.0517917 0)
(0.366756 0.0530114 0)
(0.337689 0.0541943 0)
(0.308606 0.0557053 0)
(0.27988 0.0577823 0)
(0.250092 0.0605589 0)
(0.218168 0.0637715 0)
(0.184516 0.066874 0)
(0.151362 0.0691124 0)
(0.119067 0.0701049 0)
(0.086532 0.0700037 0)
(0.0510615 0.0697066 0)
(0.0204607 0.0689336 0)
(2.99936 -4.05465e-05 0)
(2.99856 7.39158e-05 0)
(2.99558 -0.000297799 0)
(2.99028 -0.000513916 0)
(2.9941 -0.00346306 0)
(2.84979 -0.00741361 0)
(2.70918 0.00647402 0)
(2.14627 0.00879039 0)
(0.863785 0.0526445 0)
(0.545759 0.0485578 0)
(0.631422 0.0445262 0)
(0.718651 0.0383903 0)
(0.740237 0.0324701 0)
(0.734554 0.0279152 0)
(0.720852 0.02516 0)
(0.704486 0.0232785 0)
(0.69199 0.0219458 0)
(0.682769 0.0210623 0)
(0.675115 0.0205389 0)
(0.667774 0.0202428 0)
(0.660292 0.0200821 0)
(0.652565 0.0200473 0)
(0.644464 0.0202005 0)
(0.635798 0.0206494 0)
(0.626385 0.0215235 0)
(0.616153 0.022948 0)
(0.605147 0.0250201 0)
(0.593321 0.0277962 0)
(0.580759 0.0312979 0)
(0.566664 0.0354546 0)
(0.550733 0.0401765 0)
(0.533332 0.0452207 0)
(0.514176 0.0503138 0)
(0.493102 0.0551793 0)
(0.470943 0.059388 0)
(0.447777 0.0628734 0)
(0.423615 0.0656377 0)
(0.397301 0.0680245 0)
(0.368782 0.0700748 0)
(0.339371 0.0719945 0)
(0.309922 0.0740983 0)
(0.280873 0.0766956 0)
(0.250861 0.0799629 0)
(0.218863 0.0836949 0)
(0.185276 0.0873456 0)
(0.152231 0.090138 0)
(0.119984 0.0917026 0)
(0.0874195 0.0921103 0)
(0.0517102 0.0921289 0)
(0.0207965 0.0914453 0)
(2.99946 5.66909e-06 0)
(2.99883 0.000148215 0)
(2.99525 -9.97488e-05 0)
(2.99152 0.00039656 0)
(2.99676 -0.00064833 0)
(2.85296 -0.00127715 0)
(2.71899 0.00451201 0)
(2.15587 0.0212014 0)
(0.86213 0.0626159 0)
(0.534411 0.0575455 0)
(0.619916 0.0513647 0)
(0.708021 0.0434965 0)
(0.731205 0.0367897 0)
(0.727679 0.0321983 0)
(0.716199 0.0300641 0)
(0.701687 0.02904 0)
(0.690864 0.028243 0)
(0.683089 0.0275544 0)
(0.676551 0.0269485 0)
(0.669968 0.0263935 0)
(0.662928 0.0259225 0)
(0.655397 0.0256257 0)
(0.647322 0.0256264 0)
(0.638586 0.0260627 0)
(0.629068 0.0270772 0)
(0.618743 0.0288017 0)
(0.607676 0.0313358 0)
(0.595835 0.0347275 0)
(0.58331 0.0389842 0)
(0.569296 0.0440749 0)
(0.553477 0.0498234 0)
(0.536206 0.0559617 0)
(0.517186 0.0621785 0)
(0.496171 0.0681441 0)
(0.473978 0.0734114 0)
(0.450744 0.0779191 0)
(0.42653 0.0816997 0)
(0.400175 0.0850009 0)
(0.371548 0.0879138 0)
(0.341986 0.0905865 0)
(0.31235 0.0933385 0)
(0.283095 0.0964748 0)
(0.252883 0.10023 0)
(0.220711 0.10449 0)
(0.186947 0.108682 0)
(0.153692 0.112042 0)
(0.121193 0.114205 0)
(0.0883891 0.115201 0)
(0.0523398 0.115641 0)
(0.0210874 0.11515 0)
(2.99943 0.00018013 0)
(2.99848 -0.000332069 0)
(2.99577 7.81564e-05 0)
(2.98987 0.0024601 0)
(2.99282 -0.00647606 0)
(2.85268 -0.00907632 0)
(2.72853 0.0179487 0)
(2.18241 0.0113549 0)
(0.876898 0.0866172 0)
(0.532698 0.0702932 0)
(0.619105 0.0608822 0)
(0.706127 0.0512587 0)
(0.728222 0.0433097 0)
(0.724274 0.0375898 0)
(0.712845 0.0347066 0)
(0.698499 0.0335122 0)
(0.688298 0.0325863 0)
(0.681689 0.0319213 0)
(0.676514 0.0314712 0)
(0.67122 0.031121 0)
(0.665263 0.0308599 0)
(0.65856 0.0307622 0)
(0.65106 0.0309551 0)
(0.642687 0.031599 0)
(0.633371 0.0328708 0)
(0.623134 0.0349414 0)
(0.612077 0.0379439 0)
(0.600203 0.0419448 0)
(0.587656 0.0469545 0)
(0.573629 0.0529845 0)
(0.557794 0.0597789 0)
(0.540534 0.0670475 0)
(0.521552 0.0744454 0)
(0.500507 0.081598 0)
(0.47824 0.0879717 0)
(0.454962 0.0935779 0)
(0.430737 0.0984116 0)
(0.404406 0.102685 0)
(0.375744 0.106506 0)
(0.346099 0.109957 0)
(0.316312 0.113438 0)
(0.286842 0.117172 0)
(0.256403 0.121471 0)
(0.223956 0.126321 0)
(0.189795 0.131095 0)
(0.156038 0.135056 0)
(0.122994 0.137839 0)
(0.0897047 0.139461 0)
(0.0531388 0.140393 0)
(0.0213986 0.140184 0)
(2.99924 -2.46736e-05 0)
(2.99879 4.12574e-05 0)
(2.99731 -0.000741254 0)
(2.98674 -3.62164e-05 0)
(2.98867 -0.00475555 0)
(2.86739 -0.011807 0)
(2.7248 0.0223223 0)
(2.18494 0.0423934 0)
(0.908594 0.102447 0)
(0.527877 0.0847046 0)
(0.615511 0.0705772 0)
(0.705032 0.0575664 0)
(0.73027 0.0484276 0)
(0.728645 0.0424215 0)
(0.71862 0.0394148 0)
(0.704345 0.0383074 0)
(0.693599 0.0372802 0)
(0.686633 0.0365248 0)
(0.681294 0.036038 0)
(0.676015 0.0357097 0)
(0.670243 0.0355323 0)
(0.663834 0.0355804 0)
(0.656668 0.0359816 0)
(0.648606 0.0369023 0)
(0.639537 0.0385326 0)
(0.629454 0.0410618 0)
(0.618444 0.0446388 0)
(0.60652 0.0493453 0)
(0.593896 0.0551976 0)
(0.579759 0.0622109 0)
(0.563771 0.0701042 0)
(0.546397 0.078558 0)
(0.527354 0.0871897 0)
(0.50619 0.0955761 0)
(0.483809 0.103114 0)
(0.460508 0.109868 0)
(0.436293 0.115795 0)
(0.410029 0.121081 0)
(0.381351 0.125863 0)
(0.351651 0.130153 0)
(0.321712 0.134449 0)
(0.29198 0.138871 0)
(0.261299 0.143806 0)
(0.228537 0.149334 0)
(0.193843 0.154783 0)
(0.159375 0.159418 0)
(0.125541 0.162848 0)
(0.0915332 0.16512 0)
(0.054222 0.166575 0)
(0.0218055 0.166695 0)
(2.99946 -0.000248155 0)
(2.99793 0.000555378 0)
(2.99566 -0.000935282 0)
(2.98686 -0.000631431 0)
(2.98476 0.000824657 0)
(2.87294 -0.00398454 0)
(2.77219 0.0130157 0)
(2.24134 0.0484949 0)
(0.90466 0.112918 0)
(0.538242 0.0992656 0)
(0.624856 0.0820311 0)
(0.712048 0.0650456 0)
(0.73697 0.0541677 0)
(0.735544 0.0480144 0)
(0.725955 0.0448798 0)
(0.711646 0.0436064 0)
(0.700628 0.0424986 0)
(0.693713 0.0416647 0)
(0.688521 0.0410635 0)
(0.683421 0.0406488 0)
(0.677858 0.04046 0)
(0.67167 0.0405917 0)
(0.664705 0.0411788 0)
(0.656799 0.0423919 0)
(0.647816 0.0444255 0)
(0.637727 0.0474715 0)
(0.626607 0.0516845 0)
(0.61448 0.0571587 0)
(0.60162 0.0639182 0)
(0.587224 0.0719362 0)
(0.570955 0.0809604 0)
(0.553357 0.0906311 0)
(0.534168 0.100513 0)
(0.512823 0.110138 0)
(0.490309 0.118886 0)
(0.467005 0.126806 0)
(0.442817 0.133863 0)
(0.416663 0.140195 0)
(0.388016 0.145995 0)
(0.358319 0.151228 0)
(0.328268 0.156417 0)
(0.298269 0.161646 0)
(0.267365 0.167355 0)
(0.234304 0.173676 0)
(0.199039 0.179932 0)
(0.163733 0.185359 0)
(0.128925 0.189502 0)
(0.0939805 0.192454 0)
(0.055692 0.194471 0)
(0.0223347 0.194953 0)
(2.99958 -3.08184e-05 0)
(2.99826 -3.11916e-05 0)
(2.99641 0.000336633 0)
(2.98812 0.000842225 0)
(2.9863 0.00260508 0)
(2.87871 0.00396952 0)
(2.77346 0.0187737 0)
(2.25363 0.0226894 0)
(0.939183 0.125101 0)
(0.539008 0.110066 0)
(0.621779 0.0933109 0)
(0.708203 0.0737441 0)
(0.735549 0.060873 0)
(0.735848 0.0543461 0)
(0.727324 0.0505454 0)
(0.713724 0.0486049 0)
(0.703324 0.0472723 0)
(0.697278 0.04628 0)
(0.693052 0.0455329 0)
(0.688934 0.0450493 0)
(0.684306 0.0449045 0)
(0.678946 0.0452009 0)
(0.672671 0.0460752 0)
(0.665294 0.0476987 0)
(0.656668 0.0502671 0)
(0.646754 0.0539696 0)
(0.635633 0.0589565 0)
(0.623353 0.0653238 0)
(0.61024 0.0731019 0)
(0.595534 0.0822065 0)
(0.578929 0.0924142 0)
(0.561033 0.103334 0)
(0.541627 0.114476 0)
(0.520064 0.125333 0)
(0.497402 0.135314 0)
(0.474103 0.144401 0)
(0.449951 0.152608 0)
(0.423936 0.160012 0)
(0.395403 0.166896 0)
(0.365808 0.173188 0)
(0.335741 0.179378 0)
(0.305546 0.185522 0)
(0.274475 0.192194 0)
(0.241175 0.199454 0)
(0.205373 0.206705 0)
(0.169167 0.213094 0)
(0.13324 0.218043 0)
(0.0971626 0.221766 0)
(0.0576235 0.224395 0)
(0.0230534 0.22527 0)
(2.99942 -8.7104e-05 0)
(2.99821 -0.000143361 0)
(2.99634 -0.000289841 0)
(2.98867 -0.000855351 0)
(2.98719 -0.000130589 0)
(2.88511 -0.00316395 0)
(2.78863 0.0203171 0)
(2.29629 0.0385299 0)
(0.969047 0.143598 0)
(0.543831 0.125495 0)
(0.625501 0.107384 0)
(0.70947 0.0834216 0)
(0.738585 0.0683865 0)
(0.740111 0.0613092 0)
(0.73186 0.0564358 0)
(0.718898 0.0536202 0)
(0.709168 0.0517673 0)
(0.703896 0.0503723 0)
(0.700542 0.049348 0)
(0.697319 0.0487633 0)
(0.693513 0.048713 0)
(0.688836 0.0492912 0)
(0.683062 0.0506157 0)
(0.675989 0.0528373 0)
(0.66747 0.0561339 0)
(0.657475 0.0606785 0)
(0.646104 0.0666035 0)
(0.633454 0.0739952 0)
(0.619889 0.0828924 0)
(0.604697 0.093173 0)
(0.58763 0.104605 0)
(0.569334 0.116791 0)
(0.549621 0.129189 0)
(0.527796 0.141254 0)
(0.504964 0.152446 0)
(0.481658 0.162684 0)
(0.45754 0.172028 0)
(0.431694 0.180533 0)
(0.403389 0.188564 0)
(0.374022 0.196016 0)
(0.344041 0.203328 0)
(0.313782 0.210502 0)
(0.282648 0.218324 0)
(0.24918 0.226724 0)
(0.212927 0.235207 0)
(0.175773 0.242805 0)
(0.138599 0.248764 0)
(0.101201 0.253408 0)
(0.0601256 0.256772 0)
(0.0239793 0.258103 0)
(2.99945 2.47309e-05 0)
(2.99808 0.000108363 0)
(2.9958 0.000119138 0)
(2.98824 0.000372243 0)
(2.98422 -3.99988e-05 0)
(2.89603 -0.00334243 0)
(2.818 0.0193421 0)
(2.3477 0.0316982 0)
(1.00251 0.148822 0)
(0.556683 0.133052 0)
(0.629372 0.118751 0)
(0.708402 0.0922561 0)
(0.742188 0.0765852 0)
(0.746374 0.0686943 0)
(0.739134 0.0623662 0)
(0.727343 0.0584614 0)
(0.718241 0.0558327 0)
(0.713356 0.0539158 0)
(0.710386 0.052601 0)
(0.707606 0.0519675 0)
(0.704261 0.0521137 0)
(0.7 0.0531108 0)
(0.694553 0.055046 0)
(0.687691 0.0580399 0)
(0.679241 0.0622405 0)
(0.669151 0.0677935 0)
(0.657522 0.0748023 0)
(0.64449 0.083334 0)
(0.630445 0.0934314 0)
(0.614708 0.104952 0)
(0.597116 0.117639 0)
(0.578365 0.131095 0)
(0.558288 0.144742 0)
(0.536175 0.158 0)
(0.513165 0.170364 0)
(0.489836 0.18173 0)
(0.465753 0.192181 0)
(0.440118 0.201795 0)
(0.412139 0.211017 0)
(0.38312 0.219695 0)
(0.353325 0.228232 0)
(0.323127 0.236585 0)
(0.292046 0.245718 0)
(0.258493 0.255532 0)
(0.221895 0.265551 0)
(0.183788 0.274694 0)
(0.145247 0.281998 0)
(0.106318 0.287825 0)
(0.0633432 0.292111 0)
(0.0252213 0.294004 0)
(2.99951 6.89635e-05 0)
(2.9983 0.00011286 0)
(2.9966 0.000557008 0)
(2.98853 0.00153918 0)
(2.98411 0.0019535 0)
(2.90234 0.00227959 0)
(2.82 0.0154406 0)
(2.38618 0.0154953 0)
(1.05611 0.132127 0)
(0.5735 0.144136 0)
(0.631133 0.131967 0)
(0.704591 0.102937 0)
(0.745331 0.0856582 0)
(0.752794 0.0759309 0)
(0.746929 0.0679542 0)
(0.73663 0.0631147 0)
(0.728285 0.0598526 0)
(0.723912 0.0574349 0)
(0.721513 0.0557616 0)
(0.719412 0.0549996 0)
(0.716757 0.0552948 0)
(0.713089 0.0567208 0)
(0.70808 0.0593407 0)
(0.701468 0.0632368 0)
(0.693061 0.0685077 0)
(0.682792 0.075259 0)
(0.67077 0.0835381 0)
(0.657197 0.0933755 0)
(0.6425 0.104802 0)
(0.626039 0.117641 0)
(0.607766 0.131615 0)
(0.588449 0.14633 0)
(0.567926 0.161192 0)
(0.545484 0.175604 0)
(0.522299 0.189074 0)
(0.498963 0.201517 0)
(0.474933 0.213045 0)
(0.449572 0.223736 0)
(0.422016 0.234206 0)
(0.39344 0.244182 0)
(0.36392 0.254056 0)
(0.333884 0.263766 0)
(0.302987 0.274399 0)
(0.269467 0.285924 0)
(0.232635 0.297863 0)
(0.193588 0.308997 0)
(0.153543 0.318124 0)
(0.112813 0.325538 0)
(0.0675058 0.331101 0)
(0.026836 0.333749 0)
(2.99956 3.08469e-05 0)
(2.99851 8.10902e-05 0)
(2.99707 0.00012818 0)
(2.9895 0.000350101 0)
(2.98501 0.00104602 0)
(2.90813 -0.000873411 0)
(2.83016 0.015911 0)
(2.38442 0.0315018 0)
(1.10491 0.119419 0)
(0.609207 0.159629 0)
(0.636179 0.141308 0)
(0.704384 0.112921 0)
(0.751383 0.0940885 0)
(0.761164 0.0822671 0)
(0.75648 0.0725607 0)
(0.747795 0.0667059 0)
(0.740212 0.0628119 0)
(0.736344 0.0598772 0)
(0.734526 0.0578946 0)
(0.733074 0.0571431 0)
(0.730983 0.0577878 0)
(0.727699 0.0598858 0)
(0.722876 0.0634678 0)
(0.716269 0.0685552 0)
(0.707716 0.0751689 0)
(0.697147 0.0833815 0)
(0.684675 0.093143 0)
(0.670565 0.104461 0)
(0.655244 0.117337 0)
(0.638084 0.131519 0)
(0.619167 0.14677 0)
(0.59933 0.162703 0)
(0.578416 0.178709 0)
(0.555715 0.194192 0)
(0.532441 0.20868 0)
(0.509199 0.222114 0)
(0.485301 0.234655 0)
(0.460363 0.246363 0)
(0.433414 0.258115 0)
(0.405395 0.269441 0)
(0.376269 0.280752 0)
(0.346511 0.292026 0)
(0.315932 0.30439 0)
(0.282587 0.317938 0)
(0.245676 0.332305 0)
(0.205753 0.346005 0)
(0.164076 0.357621 0)
(0.12123 0.367277 0)
(0.0730084 0.374674 0)
(0.0290566 0.378433 0)
(2.99957 8.58648e-06 0)
(2.99837 6.93977e-05 0)
(2.99683 5.71765e-06 0)
(2.98937 0.000104274 0)
(2.98301 0.000715648 0)
(2.91582 -0.00211916 0)
(2.85041 0.0146835 0)
(2.46282 0.0200907 0)
(1.20093 0.111655 0)
(0.663613 0.171802 0)
(0.643358 0.149107 0)
(0.707692 0.122293 0)
(0.758241 0.101648 0)
(0.770457 0.0877298 0)
(0.767337 0.0766318 0)
(0.760215 0.0698143 0)
(0.752742 0.0654439 0)
(0.748438 0.06196 0)
(0.746312 0.059684 0)
(0.744698 0.0590388 0)
(0.742455 0.0601702 0)
(0.739003 0.0630906 0)
(0.734027 0.0677976 0)
(0.727316 0.0741948 0)
(0.718766 0.0822857 0)
(0.708254 0.0920947 0)
(0.695835 0.103461 0)
(0.681793 0.116374 0)
(0.666419 0.130799 0)
(0.649095 0.146362 0)
(0.630066 0.162925 0)
(0.610172 0.180071 0)
(0.589251 0.197176 0)
(0.566611 0.213662 0)
(0.543525 0.229095 0)
(0.52062 0.243444 0)
(0.497035 0.256934 0)
(0.472763 0.269632 0)
(0.446664 0.282673 0)
(0.419348 0.295408 0)
(0.390823 0.308276 0)
(0.361532 0.321354 0)
(0.331439 0.335726 0)
(0.298532 0.35165 0)
(0.261791 0.369029 0)
(0.221113 0.38605 0)
(0.177734 0.401076 0)
(0.1324 0.413933 0)
(0.0805148 0.424112 0)
(0.0321446 0.42963 0)
(2.99962 2.80431e-05 0)
(2.99851 6.05774e-06 0)
(2.9971 0.000120799 0)
(2.99018 0.00032215 0)
(2.98288 0.00124321 0)
(2.92157 0.00243256 0)
(2.85258 0.013306 0)
(2.47782 0.0157527 0)
(1.28574 0.104725 0)
(0.708974 0.182734 0)
(0.639551 0.158771 0)
(0.703395 0.129961 0)
(0.758965 0.106186 0)
(0.775561 0.0903489 0)
(0.775806 0.0793956 0)
(0.771623 0.0720831 0)
(0.76498 0.0675375 0)
(0.760356 0.0639492 0)
(0.757948 0.0617622 0)
(0.755966 0.0614338 0)
(0.753163 0.0631188 0)
(0.749056 0.0668272 0)
(0.743414 0.0725732 0)
(0.73618 0.0801493 0)
(0.727405 0.0896717 0)
(0.716857 0.101015 0)
(0.704551 0.113992 0)
(0.690808 0.128531 0)
(0.675682 0.144582 0)
(0.658588 0.161605 0)
(0.639939 0.179583 0)
(0.620461 0.198002 0)
(0.599986 0.216223 0)
(0.577845 0.233695 0)
(0.555343 0.25005 0)
(0.533132 0.26527 0)
(0.510169 0.279661 0)
(0.486903 0.293385 0)
(0.461996 0.307671 0)
(0.435642 0.32192 0)
(0.408049 0.336476 0)
(0.379537 0.351673 0)
(0.350187 0.368376 0)
(0.318104 0.387159 0)
(0.281966 0.4081 0)
(0.240837 0.429396 0)
(0.195854 0.449184 0)
(0.147696 0.466782 0)
(0.0911843 0.481363 0)
(0.0367778 0.489964 0)
(2.99959 4.01311e-05 0)
(2.99847 2.35669e-05 0)
(2.99714 0.000220797 0)
(2.99046 0.000440383 0)
(2.98508 0.00164962 0)
(2.9272 0.00298426 0)
(2.86591 0.013838 0)
(2.52024 0.0306223 0)
(1.39168 0.100249 0)
(0.772645 0.189928 0)
(0.640925 0.166414 0)
(0.701539 0.13549 0)
(0.76168 0.107241 0)
(0.784584 0.090201 0)
(0.788379 0.0803914 0)
(0.785867 0.0731029 0)
(0.779797 0.0684861 0)
(0.774675 0.0653286 0)
(0.771695 0.0638301 0)
(0.769034 0.0642966 0)
(0.765356 0.0668701 0)
(0.760253 0.0715545 0)
(0.75353 0.0783277 0)
(0.745375 0.0870471 0)
(0.735968 0.097875 0)
(0.724954 0.110556 0)
(0.712442 0.124989 0)
(0.698809 0.141035 0)
(0.683832 0.158625 0)
(0.667031 0.177084 0)
(0.649003 0.19648 0)
(0.630234 0.216166 0)
(0.610552 0.235498 0)
(0.589312 0.253945 0)
(0.567805 0.271202 0)
(0.546666 0.287278 0)
(0.52472 0.302553 0)
(0.502826 0.317359 0)
(0.47951 0.332836 0)
(0.454505 0.348705 0)
(0.428354 0.365122 0)
(0.401144 0.382762 0)
(0.37298 0.402116 0)
(0.34224 0.424363 0)
(0.30736 0.44942 0)
(0.266638 0.476208 0)
(0.220558 0.502644 0)
(0.16947 0.527381 0)
(0.107276 0.549409 0)
(0.0441516 0.563809 0)
(2.99966 2.35985e-05 0)
(2.99872 6.76371e-05 0)
(2.99755 0.000370221 0)
(2.9917 0.000754119 0)
(2.98548 0.00202942 0)
(2.93314 0.00199995 0)
(2.8834 0.0143557 0)
(2.53662 0.0275383 0)
(1.4753 0.103329 0)
(0.844944 0.198788 0)
(0.644823 0.171593 0)
(0.699071 0.137488 0)
(0.764179 0.106323 0)
(0.796606 0.0893431 0)
(0.804328 0.0806385 0)
(0.802686 0.0740554 0)
(0.796881 0.0698718 0)
(0.791131 0.0674409 0)
(0.787188 0.0668544 0)
(0.783409 0.0683208 0)
(0.778491 0.0719405 0)
(0.772068 0.0777068 0)
(0.764053 0.0854628 0)
(0.75485 0.095347 0)
(0.744599 0.107286 0)
(0.732919 0.121095 0)
(0.720034 0.136766 0)
(0.706349 0.154117 0)
(0.691384 0.172992 0)
(0.674864 0.192758 0)
(0.657567 0.21345 0)
(0.639665 0.234291 0)
(0.62103 0.254652 0)
(0.601016 0.274016 0)
(0.580878 0.292137 0)
(0.561199 0.309041 0)
(0.540714 0.325211 0)
(0.520555 0.341141 0)
(0.499257 0.357783 0)
(0.476147 0.375354 0)
(0.452104 0.393886 0)
(0.426877 0.414153 0)
(0.40066 0.436357 0)
(0.372042 0.462492 0)
(0.339477 0.492714 0)
(0.300821 0.52645 0)
(0.255033 0.561918 0)
(0.201824 0.597513 0)
(0.133205 0.632555 0)
(0.0572157 0.659739 0)
(2.99967 3.09041e-06 0)
(2.99883 2.72561e-05 0)
(2.99788 0.000166456 0)
(2.99223 0.000484903 0)
(2.98653 0.00104226 0)
(2.94016 0.00202391 0)
(2.8945 0.0137164 0)
(2.57855 0.023172 0)
(1.59688 0.106042 0)
(0.918938 0.209775 0)
(0.640561 0.172859 0)
(0.694012 0.133603 0)
(0.767771 0.102587 0)
(0.811005 0.0869553 0)
(0.822888 0.0797128 0)
(0.821863 0.0745105 0)
(0.816019 0.0716247 0)
(0.809363 0.0705099 0)
(0.80408 0.0712567 0)
(0.798723 0.0740447 0)
(0.792122 0.0788796 0)
(0.783948 0.0857176 0)
(0.774443 0.0944356 0)
(0.764083 0.105393 0)
(0.752817 0.118223 0)
(0.740448 0.132954 0)
(0.727197 0.149648 0)
(0.713397 0.16813 0)
(0.698442 0.187916 0)
(0.682329 0.208824 0)
(0.665871 0.230581 0)
(0.648971 0.25237 0)
(0.631589 0.273591 0)
(0.613083 0.293736 0)
(0.594644 0.312619 0)
(0.576788 0.330289 0)
(0.558217 0.347313 0)
(0.540132 0.364346 0)
(0.521287 0.382068 0)
(0.500795 0.401439 0)
(0.479566 0.422057 0)
(0.457024 0.444979 0)
(0.433787 0.47054 0)
(0.408984 0.500967 0)
(0.380495 0.537166 0)
(0.346175 0.579307 0)
(0.303885 0.626806 0)
(0.251916 0.678771 0)
(0.179007 0.736989 0)
(0.0837149 0.795906 0)
(2.99969 1.35022e-05 0)
(2.99889 2.63608e-05 0)
(2.99805 0.000103494 0)
(2.99265 0.00027398 0)
(2.98714 0.00107011 0)
(2.94739 0.0018613 0)
(2.90812 0.0126162 0)
(2.61875 0.0251291 0)
(1.72055 0.105798 0)
(0.999668 0.219633 0)
(0.638002 0.171477 0)
(0.695531 0.12692 0)
(0.780462 0.0971201 0)
(0.833429 0.0836376 0)
(0.847859 0.078311 0)
(0.845874 0.0749626 0)
(0.838436 0.0739785 0)
(0.829397 0.0747638 0)
(0.82156 0.0773365 0)
(0.813712 0.0818035 0)
(0.804785 0.0879143 0)
(0.794596 0.0957645 0)
(0.783685 0.105451 0)
(0.772233 0.117017 0)
(0.759995 0.130369 0)
(0.747114 0.145744 0)
(0.733717 0.163151 0)
(0.719737 0.182306 0)
(0.704876 0.202768 0)
(0.689483 0.224599 0)
(0.673985 0.247125 0)
(0.658275 0.269605 0)
(0.642366 0.291472 0)
(0.625625 0.31222 0)
(0.609196 0.331719 0)
(0.593507 0.350049 0)
(0.577278 0.367833 0)
(0.561555 0.3859 0)
(0.545682 0.404508 0)
(0.528405 0.425306 0)
(0.51064 0.448067 0)
(0.492223 0.47375 0)
(0.473472 0.502956 0)
(0.453989 0.53749 0)
(0.43207 0.579675 0)
(0.406266 0.630947 0)
(0.373725 0.693118 0)
(0.332209 0.76937 0)
(0.268051 0.871777 0)
(0.146213 1.03503 0)
(2.99971 9.5413e-06 0)
(2.99895 1.20739e-05 0)
(2.99819 0.000104138 0)
(2.99349 0.00020476 0)
(2.98858 0.0013934 0)
(2.95449 0.00194352 0)
(2.92429 0.0106952 0)
(2.67075 0.0257914 0)
(1.89697 0.0862975 0)
(1.11167 0.200717 0)
(0.640716 0.153384 0)
(0.704968 0.11619 0)
(0.80222 0.0946114 0)
(0.863403 0.0858674 0)
(0.877601 0.0833054 0)
(0.871762 0.0826617 0)
(0.860342 0.0840487 0)
(0.847142 0.0871301 0)
(0.835807 0.091484 0)
(0.825077 0.0969766 0)
(0.814006 0.103869 0)
(0.802656 0.112193 0)
(0.79085 0.122148 0)
(0.778579 0.133832 0)
(0.766008 0.147557 0)
(0.753135 0.163361 0)
(0.739737 0.1812 0)
(0.725944 0.20086 0)
(0.712009 0.222063 0)
(0.69806 0.244534 0)
(0.684205 0.267545 0)
(0.670546 0.29049 0)
(0.657074 0.312786 0)
(0.643193 0.333939 0)
(0.630006 0.353939 0)
(0.617813 0.372798 0)
(0.605472 0.391142 0)
(0.593395 0.409951 0)
(0.581838 0.429654 0)
(0.570414 0.452011 0)
(0.559182 0.477111 0)
(0.547994 0.505558 0)
(0.537231 0.538399 0)
(0.528023 0.576714 0)
(0.520155 0.624244 0)
(0.514411 0.683842 0)
(0.513307 0.75918 0)
(0.525308 0.85627 0)
(0.580711 0.985131 0)
(0.651287 1.1751 0)
(2.99971 -6.09773e-06 0)
(2.99904 -5.75733e-06 0)
(2.99835 2.44702e-05 0)
(2.99464 4.57205e-05 0)
(2.98975 0.000536725 0)
(2.96128 -2.83491e-05 0)
(2.94445 0.00400273 0)
(2.714 0.00960348 0)
(2.0546 0.04025 0)
(1.21469 0.128719 0)
(0.621485 0.108591 0)
(0.694349 0.098439 0)
(0.801592 0.0908498 0)
(0.867188 0.0891993 0)
(0.880783 0.09095 0)
(0.872936 0.0941347 0)
(0.860442 0.0983482 0)
(0.846656 0.103441 0)
(0.83475 0.109079 0)
(0.824438 0.115437 0)
(0.814365 0.122845 0)
(0.803556 0.131397 0)
(0.792262 0.141414 0)
(0.780723 0.153313 0)
(0.76872 0.167127 0)
(0.756258 0.182945 0)
(0.743657 0.200769 0)
(0.731039 0.220475 0)
(0.718519 0.241715 0)
(0.706241 0.264026 0)
(0.694407 0.286857 0)
(0.683126 0.309636 0)
(0.672256 0.331785 0)
(0.661461 0.352815 0)
(0.651676 0.372789 0)
(0.642915 0.391597 0)
(0.634429 0.410206 0)
(0.626712 0.429353 0)
(0.62052 0.449873 0)
(0.615049 0.472974 0)
(0.610187 0.499142 0)
(0.607122 0.528688 0)
(0.605788 0.562942 0)
(0.608331 0.602764 0)
(0.616713 0.650405 0)
(0.633311 0.709497 0)
(0.664355 0.782662 0)
(0.718283 0.872312 0)
(0.82667 0.977058 0)
(0.971294 1.0863 0)
(2.9997 9.99926e-05 0)
(2.99899 -0.000245741 0)
(2.99826 -0.000324683 0)
(2.99433 -0.00234733 0)
(2.98844 -0.00140498 0)
(2.96019 -0.0044764 0)
(2.94023 0.00216124 0)
(2.70779 0.0112954 0)
(2.13496 0.024533 0)
(1.28043 0.0671963 0)
(0.580296 0.0767778 0)
(0.666383 0.0889926 0)
(0.776696 0.0940429 0)
(0.848925 0.0990876 0)
(0.86551 0.104402 0)
(0.858619 0.109771 0)
(0.846879 0.115051 0)
(0.834294 0.120214 0)
(0.824421 0.125897 0)
(0.816177 0.132543 0)
(0.807643 0.14014 0)
(0.798376 0.149095 0)
(0.788711 0.159622 0)
(0.778407 0.171812 0)
(0.767523 0.185817 0)
(0.756625 0.201785 0)
(0.745748 0.219631 0)
(0.734949 0.239155 0)
(0.724386 0.260077 0)
(0.714284 0.282005 0)
(0.704859 0.30441 0)
(0.696163 0.326693 0)
(0.68801 0.348222 0)
(0.680312 0.368672 0)
(0.67381 0.388248 0)
(0.668899 0.40695 0)
(0.66485 0.425488 0)
(0.661548 0.444569 0)
(0.660073 0.465058 0)
(0.660322 0.48753 0)
(0.662035 0.513505 0)
(0.66667 0.542699 0)
(0.674937 0.575982 0)
(0.688062 0.614216 0)
(0.70936 0.657774 0)
(0.742029 0.708752 0)
(0.791 0.767828 0)
(0.862067 0.833801 0)
(0.972234 0.901166 0)
(1.10371 0.949925 0)
(2.99936 0.000103866 0)
(2.99833 -0.00022925 0)
(2.99485 -0.000253401 0)
(2.99282 -0.00220942 0)
(2.9862 -0.000945571 0)
(2.96671 -0.00285283 0)
(2.96872 0.00441878 0)
(2.72654 0.0181861 0)
(2.13226 0.0248505 0)
(1.28925 0.0411657 0)
(0.574986 0.0591175 0)
(0.656257 0.0754004 0)
(0.763002 0.0873048 0)
(0.834911 0.098278 0)
(0.851915 0.107989 0)
(0.846045 0.11683 0)
(0.835156 0.124692 0)
(0.823737 0.131822 0)
(0.815387 0.139175 0)
(0.808334 0.147071 0)
(0.800997 0.155799 0)
(0.792885 0.165608 0)
(0.783967 0.176662 0)
(0.774715 0.189051 0)
(0.765477 0.203106 0)
(0.756308 0.218861 0)
(0.747284 0.236266 0)
(0.738537 0.255211 0)
(0.730264 0.275482 0)
(0.722609 0.296661 0)
(0.715698 0.318208 0)
(0.709458 0.3395 0)
(0.703919 0.360085 0)
(0.699617 0.379779 0)
(0.697048 0.398797 0)
(0.695808 0.417026 0)
(0.695484 0.434837 0)
(0.696453 0.453104 0)
(0.699239 0.472661 0)
(0.704694 0.493944 0)
(0.712482 0.518237 0)
(0.723369 0.545578 0)
(0.739037 0.575971 0)
(0.760212 0.609877 0)
(0.789749 0.647166 0)
(0.830065 0.687527 0)
(0.884101 0.730505 0)
(0.954978 0.77385 0)
(1.05285 0.813415 0)
(1.16206 0.834996 0)
(2.99937 6.49966e-07 0)
(2.99841 3.7773e-05 0)
(2.99498 0.000123105 0)
(2.99319 0.000294111 0)
(2.98748 0.000754193 0)
(2.96956 0.00214216 0)
(2.97325 0.00438262 0)
(2.73296 0.00801276 0)
(2.15207 0.014711 0)
(1.31528 0.0333366 0)
(0.592234 0.0628909 0)
(0.666322 0.0831906 0)
(0.769215 0.0963744 0)
(0.841218 0.107648 0)
(0.857364 0.117265 0)
(0.850045 0.12623 0)
(0.837183 0.134408 0)
(0.824142 0.142273 0)
(0.814576 0.150415 0)
(0.806484 0.15909 0)
(0.798153 0.168498 0)
(0.789275 0.178745 0)
(0.780265 0.190063 0)
(0.771496 0.202674 0)
(0.763182 0.216674 0)
(0.755424 0.232159 0)
(0.748209 0.249111 0)
(0.741621 0.267451 0)
(0.7357 0.286966 0)
(0.730484 0.30723 0)
(0.726036 0.327745 0)
(0.72251 0.347961 0)
(0.720158 0.367496 0)
(0.71946 0.386318 0)
(0.720321 0.404241 0)
(0.722307 0.421249 0)
(0.725609 0.437924 0)
(0.730506 0.454959 0)
(0.737275 0.473009 0)
(0.746916 0.492665 0)
(0.759437 0.51432 0)
(0.775154 0.538727 0)
(0.79568 0.565241 0)
(0.821877 0.593842 0)
(0.855324 0.624215 0)
(0.897895 0.655196 0)
(0.951222 0.685675 0)
(1.01727 0.713693 0)
(1.09992 0.736916 0)
(1.18878 0.746833 0)
(2.99942 8.91858e-06 0)
(2.99854 4.78839e-05 0)
(2.99528 -0.000196806 0)
(2.99388 0.00153033 0)
(2.98923 0.000140121 0)
(2.97305 0.000915681 0)
(2.97831 0.0122439 0)
(2.73927 -0.0537681 0)
(2.18525 0.0472045 0)
(1.36789 -0.0410858 0)
(0.661644 0.0233315 0)
(0.7143 0.0673842 0)
(0.799491 0.103756 0)
(0.862034 0.123646 0)
(0.873017 0.135536 0)
(0.862534 0.146375 0)
(0.846951 0.155827 0)
(0.831787 0.165082 0)
(0.820388 0.174088 0)
(0.810578 0.182741 0)
(0.80081 0.191303 0)
(0.790916 0.200208 0)
(0.781265 0.209862 0)
(0.772257 0.220602 0)
(0.764155 0.232721 0)
(0.75698 0.246354 0)
(0.750764 0.26153 0)
(0.745668 0.278173 0)
(0.741683 0.296022 0)
(0.738757 0.314648 0)
(0.736896 0.333507 0)
(0.736072 0.352239 0)
(0.7368 0.370458 0)
(0.739298 0.387884 0)
(0.743145 0.404278 0)
(0.748325 0.419928 0)
(0.755003 0.435283 0)
(0.763328 0.450853 0)
(0.773557 0.467168 0)
(0.786344 0.484777 0)
(0.802256 0.503718 0)
(0.821306 0.524735 0)
(0.84444 0.547196 0)
(0.872969 0.570721 0)