/*--------------------------------*- C++ -*----------------------------------*\
| =========                 |                                                 |
| \\      /  F ield         | OpenFOAM: The Open Source CFD Toolbox           |
|  \\    /   O peration     | Version:  2412                                  |
|   \\  /    A nd           | Website:  www.openfoam.com                      |
|    \\/     M anipulation  |                                                 |
\*---------------------------------------------------------------------------*/
FoamFile
{
    version     2.0;
    format      ascii;
    arch        "LSB;label=32;scalar=64";
    class       volScalarField;
    location    "14";
    object      Ma;
}
// * * * * * * * * * * * * * * * * * * * * * * * * * * * * * * * * * * * * * //

dimensions      [0 0 0 0 0 0 0];

internalField   nonuniform List<scalar> 
7000
(
2.25664
0.99531
0.301172
0.338208
0.400821
0.44216
0.450342
0.445842
0.439416
0.434469
0.43158
0.429279
0.426658
0.423534
0.42005
0.416233
0.412167
0.407766
0.403049
0.397968
0.392538
0.386757
0.380583
0.374009
0.366999
0.359563
0.351687
0.343361
0.334564
0.325231
0.315343
0.304862
0.293809
0.282122
0.269849
0.256937
0.243374
0.229155
0.214282
0.198744
0.182492
0.165615
0.148124
0.130014
0.1113
0.0921107
0.0725428
0.0528069
0.0318955
0.0155812
2.2567
0.995371
0.300967
0.33804
0.400664
0.44201
0.450192
0.445695
0.439275
0.434334
0.43145
0.429153
0.426532
0.423412
0.419937
0.416126
0.412058
0.407658
0.402952
0.397887
0.392462
0.38667
0.38049
0.373928
0.366938
0.359509
0.351613
0.343252
0.33443
0.325099
0.315242
0.304805
0.293794
0.282139
0.269891
0.257003
0.243473
0.229299
0.214482
0.199007
0.182824
0.166024
0.148617
0.130607
0.112025
0.0930266
0.0737615
0.0546042
0.0351219
0.0220998
2.25683
0.995566
0.301099
0.338075
0.400694
0.442042
0.450226
0.445735
0.439332
0.434403
0.431532
0.42924
0.426629
0.423516
0.420053
0.416252
0.412197
0.407808
0.40312
0.398071
0.392662
0.386886
0.380726
0.37419
0.36723
0.359829
0.351959
0.343625
0.334839
0.325553
0.315749
0.305365
0.294408
0.282811
0.270629
0.257816
0.24437
0.230292
0.215585
0.20024
0.184209
0.167592
0.150408
0.132683
0.114479
0.09602
0.077569
0.0597836
0.0430082
0.0336086
2.257
0.99587
0.301368
0.338153
0.400775
0.442142
0.450329
0.445854
0.439463
0.434564
0.4317
0.429431
0.426825
0.423735
0.420281
0.416509
0.412471
0.408107
0.40343
0.398412
0.393035
0.387299
0.381162
0.374653
0.36773
0.360387
0.352575
0.344292
0.335547
0.326312
0.316571
0.306286
0.295435
0.283961
0.27189
0.259205
0.245887
0.231967
0.217432
0.202296
0.186508
0.170182
0.153353
0.136072
0.118455
0.100791
0.0834801
0.067399
0.0532758
0.046213
2.25724
0.996298
0.301716
0.338222
0.40086
0.442261
0.45046
0.445996
0.439634
0.434759
0.431924
0.429671
0.427089
0.424021
0.420594
0.416848
0.412839
0.408507
0.403868
0.398888
0.39355
0.387857
0.381771
0.37532
0.368456
0.361179
0.35344
0.345244
0.336585
0.327438
0.317809
0.307635
0.296934
0.285596
0.27371
0.261186
0.248082
0.234365
0.220099
0.205239
0.189801
0.173867
0.157521
0.140832
0.123962
0.107296
0.0912965
0.0769726
0.065084
0.0595236
2.25757
0.996866
0.302156
0.338293
0.400956
0.442408
0.450628
0.446174
0.439857
0.435003
0.432213
0.429973
0.427433
0.42438
0.421003
0.417279
0.413325
0.409018
0.404439
0.399493
0.394228
0.388582
0.382571
0.376174
0.369407
0.362212
0.35458
0.346467
0.337939
0.328922
0.319445
0.309424
0.29889
0.28775
0.276068
0.263796
0.250943
0.237538
0.223586
0.20913
0.19411
0.178714
0.16296
0.147012
0.131046
0.115492
0.100903
0.088239
0.0781654
0.0736442
2.25799
0.997587
0.302696
0.338369
0.401063
0.442585
0.450832
0.446406
0.440119
0.435314
0.432555
0.43036
0.427847
0.424843
0.421494
0.417828
0.413914
0.409675
0.405135
0.400262
0.395054
0.389505
0.383563
0.377263
0.370567
0.363501
0.35599
0.348038
0.339621
0.330768
0.321462
0.311671
0.301348
0.290454
0.279028
0.267065
0.254545
0.24152
0.22799
0.214001
0.199533
0.184741
0.169742
0.154636
0.139695
0.125351
0.112149
0.101019
0.0924215
0.0886448
2.2585
0.998472
0.303343
0.33845
0.401183
0.442796
0.451079
0.446688
0.440437
0.435694
0.432967
0.430827
0.428347
0.425404
0.422095
0.418495
0.414628
0.410469
0.405992
0.4012
0.396058
0.390612
0.384779
0.378596
0.372004
0.365061
0.357708
0.349928
0.341704
0.333023
0.323918
0.314352
0.304346
0.293764
0.282679
0.271054
0.258952
0.246369
0.23337
0.219949
0.20613
0.192065
0.177884
0.163757
0.149908
0.13682
0.124982
0.115201
0.107818
0.104636
2.25911
0.999534
0.304108
0.338538
0.401319
0.443041
0.451376
0.447015
0.440832
0.436132
0.433474
0.43137
0.428962
0.426056
0.42283
0.419277
0.415501
0.411395
0.407026
0.402309
0.397286
0.391921
0.38623
0.380172
0.373748
0.366934
0.359758
0.352172
0.344187
0.335744
0.326874
0.317576
0.30787
0.297693
0.287028
0.275872
0.264213
0.252173
0.239748
0.227025
0.213958
0.200743
0.18749
0.17439
0.161722
0.149879
0.139354
0.130822
0.124464
0.121723
2.25982
1.00078
0.304999
0.338636
0.401474
0.443329
0.451725
0.447414
0.441286
0.436664
0.434056
0.432027
0.429666
0.426845
0.423674
0.420215
0.41651
0.412507
0.408225
0.403629
0.398718
0.393486
0.387923
0.38203
0.375777
0.369159
0.362174
0.354819
0.347084
0.338934
0.330373
0.321391
0.312035
0.302263
0.292101
0.281478
0.27042
0.258964
0.247229
0.235247
0.223061
0.210797
0.198608
0.186638
0.175159
0.164619
0.155329
0.147918
0.142457
0.140146
2.26066
1.00223
0.306025
0.338748
0.401651
0.443663
0.452134
0.447876
0.441831
0.437276
0.434749
0.432776
0.430503
0.427747
0.424675
0.421294
0.417697
0.413795
0.409628
0.405157
0.400383
0.395305
0.389901
0.384188
0.378133
0.371734
0.364993
0.357893
0.350448
0.342616
0.334423
0.325832
0.316893
0.307572
0.297939
0.287934
0.277548
0.26683
0.255862
0.244735
0.233482
0.222292
0.211257
0.200532
0.190326
0.181051
0.173043
0.166729
0.162096
0.160094
2.26161
1.0039
0.307194
0.338875
0.401852
0.444046
0.452606
0.448419
0.442455
0.437996
0.435542
0.433663
0.43146
0.428811
0.425818
0.42256
0.419058
0.41529
0.411246
0.406921
0.4023
0.397396
0.392175
0.386671
0.380833
0.374698
0.368215
0.361431
0.354303
0.346843
0.33905
0.330919
0.322467
0.313676
0.304622
0.29529
0.285659
0.275778
0.265716
0.255569
0.245354
0.235295
0.225534
0.21616
0.207338
0.199419
0.192632
0.187405
0.183588
0.182013
2.26268
1.00577
0.308506
0.339012
0.402077
0.444478
0.453153
0.449046
0.443187
0.438829
0.436468
0.434676
0.432579
0.430022
0.427154
0.423996
0.420634
0.416987
0.413105
0.408928
0.404494
0.399772
0.394776
0.389488
0.383919
0.378051
0.371894
0.365431
0.358693
0.351636
0.344304
0.336671
0.328785
0.320599
0.312207
0.303621
0.294826
0.285863
0.27682
0.267777
0.25877
0.249962
0.241545
0.233631
0.226316
0.219869
0.214498
0.210452
0.20752
0.206249
2.26387
1.00786
0.309975
0.339156
0.402363
0.444968
0.453788
0.449774
0.444049
0.439789
0.437545
0.435838
0.433863
0.43141
0.428669
0.425644
0.422415
0.418932
0.415198
0.41122
0.406966
0.402473
0.397702
0.392682
0.38739
0.381841
0.376028
0.369948
0.363622
0.357032
0.350207
0.343134
0.335872
0.328368
0.320722
0.31295
0.305082
0.297153
0.289227
0.281431
0.273756
0.266384
0.259472
0.25316
0.247525
0.242724
0.238875
0.236188
0.234311
0.233691
2.26519
1.01018
0.311607
0.339329
0.402693
0.445533
0.454524
0.450623
0.445038
0.440909
0.438766
0.437187
0.435318
0.433005
0.430387
0.427513
0.424437
0.421121
0.417573
0.413789
0.409757
0.405499
0.400991
0.396258
0.391279
0.386077
0.380644
0.374983
0.369125
0.363035
0.356787
0.350316
0.343757
0.337003
0.330202
0.323342
0.316485
0.309673
0.30299
0.296563
0.290397
0.284633
0.279426
0.274916
0.271205
0.268417
0.266516
0.265617
0.265124
0.265128
2.26664
1.01274
0.313398
0.339532
0.403059
0.44619
0.455375
0.45161
0.446194
0.442193
0.440183
0.438713
0.43699
0.434804
0.43235
0.429614
0.426725
0.423576
0.420246
0.416665
0.412888
0.408876
0.404669
0.400235
0.395619
0.390779
0.38578
0.380569
0.375218
0.369689
0.364048
0.35827
0.352436
0.346538
0.340618
0.334795
0.329043
0.323481
0.318152
0.313226
0.308734
0.304821
0.301616
0.299211
0.297742
0.297335
0.297879
0.299375
0.301084
0.302641
2.2682
1.0155
0.315342
0.339765
0.403486
0.446953
0.456369
0.452754
0.447546
0.443675
0.441808
0.440468
0.438885
0.436849
0.434555
0.431993
0.429281
0.426339
0.423213
0.419876
0.416348
0.412625
0.408724
0.404635
0.400387
0.395967
0.391413
0.386711
0.381905
0.376988
0.372012
0.366975
0.36195
0.356956
0.352035
0.347281
0.342766
0.338546
0.33473
0.331467
0.328811
0.326955
0.326068
0.326217
0.327579
0.330304
0.334296
0.339501
0.344638
0.348681
2.26987
1.01847
0.317431
0.340046
0.403993
0.447855
0.457538
0.454112
0.449115
0.445407
0.443671
0.442471
0.441026
0.439155
0.437008
0.434647
0.432104
0.429398
0.426479
0.423419
0.420146
0.416752
0.413157
0.409463
0.405591
0.401639
0.397551
0.393403
0.389177
0.384915
0.380662
0.376409
0.372272
0.368229
0.364409
0.360827
0.357624
0.354874
0.35269
0.351282
0.350686
0.351146
0.352874
0.356124
0.36102
0.367766
0.376554
0.387433
0.399286
0.409924
2.27161
1.02157
0.319627
0.340386
0.404588
0.448894
0.458881
0.455667
0.450886
0.447357
0.445741
0.444684
0.443391
0.441688
0.43971
0.437544
0.435208
0.43272
0.430059
0.427259
0.424298
0.421215
0.418003
0.414679
0.411271
0.407764
0.404231
0.400622
0.397058
0.39346
0.389992
0.386572
0.383364
0.380362
0.377666
0.375376
0.373565
0.372406
0.371985
0.372494
0.374175
0.377308
0.382267
0.389192
0.398626
0.410912
0.426657
0.446865
0.470847
0.498536
2.27337
1.0247
0.321744
0.340668
0.405202
0.450049
0.460404
0.457427
0.452928
0.449542
0.448064
0.447139
0.446002
0.444459
0.442682
0.440687
0.438586
0.436319
0.433933
0.431401
0.428773
0.426019
0.423203
0.420284
0.417347
0.414335
0.411358
0.408355
0.40545
0.402596
0.399911
0.397399
0.395139
0.393232
0.391716
0.390763
0.390428
0.390866
0.392261
0.394965
0.399181
0.405286
0.413506
0.424744
0.439352
0.458851
0.484667
0.520279
0.571812
0.664906
2.27541
1.02836
0.324222
0.340952
0.406007
0.451631
0.462533
0.459913
0.455774
0.452595
0.451284
0.450568
0.449647
0.448376
0.44683
0.445154
0.443324
0.441421
0.439375
0.43727
0.435061
0.432812
0.430506
0.428187
0.42587
0.423576
0.42135
0.419205
0.417207
0.415383
0.4138
0.412521
0.411616
0.41119
0.411342
0.412126
0.413712
0.416503
0.420711
0.426409
0.434126
0.444116
0.457409
0.474441
0.497326
0.527434
0.569314
0.630676
0.729465
0.88149
2.2776
1.0323
0.327218
0.341924
0.407757
0.454519
0.466142
0.463906
0.460079
0.456969
0.45569
0.455074
0.454296
0.453213
0.451875
0.450427
0.448873
0.447262
0.445574
0.443837
0.442069
0.440274
0.438504
0.43674
0.435062
0.433442
0.431979
0.430647
0.429561
0.428711
0.428226
0.428118
0.4285
0.429403
0.431072
0.433685
0.437411
0.442346
0.448921
0.457258
0.468069
0.481817
0.499342
0.52219
0.551415
0.591065
0.643776
0.717782
0.828582
0.966797
2.27888
1.03461
0.329091
0.342987
0.409927
0.458273
0.470876
0.469143
0.465642
0.46256
0.461317
0.460823
0.460217
0.459308
0.458167
0.456918
0.455607
0.454255
0.452872
0.451469
0.450075
0.4487
0.447386
0.446143
0.44502
0.444035
0.443247
0.442688
0.442425
0.442523
0.442988
0.443903
0.445513
0.447943
0.451175
0.455488
0.460933
0.467955
0.476585
0.487576
0.500929
0.517954
0.538709
0.565287
0.598627
0.641343
0.697085
0.767658
0.863931
0.967331
2.28002
1.03671
0.332403
0.346693
0.414805
0.464713
0.477921
0.476066
0.472218
0.468791
0.467474
0.467082
0.466643
0.465905
0.464978
0.463959
0.462941
0.461897
0.460878
0.459854
0.458889
0.457958
0.457136
0.456403
0.45584
0.455443
0.455298
0.455401
0.455814
0.456634
0.45801
0.45999
0.462642
0.46614
0.470536
0.476137
0.483003
0.491564
0.50198
0.514723
0.530267
0.54909
0.572246
0.600165
0.634766
0.676688
0.728471
0.790744
0.868675
0.949882
2.27653
1.03044
0.334734
0.356709
0.427342
0.479693
0.493194
0.490381
0.485342
0.481049
0.479356
0.47877
0.478163
0.47726
0.476179
0.475064
0.473975
0.472927
0.471928
0.470999
0.470155
0.46943
0.468836
0.468425
0.468215
0.468241
0.468494
0.46916
0.470231
0.471824
0.473905
0.476683
0.480133
0.484504
0.489855
0.496394
0.504358
0.513888
0.52544
0.539157
0.555684
0.575319
0.598795
0.626809
0.659936
0.699535
0.745789
0.800288
0.863903
0.928588
2.28246
1.02326
0.359286
0.382374
0.448465
0.498353
0.510285
0.50655
0.500797
0.496386
0.494666
0.493965
0.493254
0.492293
0.491215
0.490124
0.489074
0.488058
0.4871
0.486199
0.485402
0.484707
0.484169
0.483759
0.48361
0.483738
0.484257
0.485095
0.486459
0.488274
0.490801
0.493911
0.49798
0.502813
0.508904
0.516028
0.52474
0.534912
0.547049
0.561284
0.577975
0.59763
0.620406
0.647218
0.678034
0.714
0.755016
0.801874
0.855244
0.908785
1.87623
0.772132
0.27359
0.343956
0.417255
0.440746
0.440683
0.436667
0.432957
0.432799
0.434939
0.437798
0.4408
0.443834
0.446989
0.45024
0.453584
0.456934
0.460301
0.463626
0.466931
0.470118
0.473291
0.476441
0.479654
0.482845
0.486147
0.489487
0.493101
0.496933
0.501204
0.505932
0.5113
0.517448
0.52448
0.532681
0.542031
0.553033
0.565491
0.580172
0.59672
0.616107
0.637911
0.663192
0.691554
0.723959
0.760049
0.800473
0.845328
0.890159
1.86879
0.771508
0.282481
0.35524
0.427898
0.447332
0.442874
0.435485
0.429739
0.427743
0.427582
0.427924
0.428478
0.429342
0.430661
0.432421
0.434671
0.437274
0.440349
0.443783
0.447688
0.451784
0.456275
0.46096
0.465992
0.471199
0.47672
0.482508
0.488574
0.494975
0.501671
0.508824
0.516356
0.524559
0.53333
0.54312
0.553705
0.565739
0.578928
0.593985
0.610651
0.629605
0.650674
0.674423
0.700778
0.730116
0.762423
0.797629
0.836041
0.873784
1.86786
0.77023
0.28467
0.365023
0.443269
0.463329
0.457169
0.447786
0.440701
0.437878
0.436906
0.436245
0.435604
0.435148
0.435011
0.435245
0.435826
0.43681
0.43828
0.440289
0.442715
0.44569
0.449129
0.453212
0.457766
0.462997
0.468658
0.475
0.481736
0.489187
0.497019
0.505671
0.514726
0.524736
0.535152
0.546644
0.558722
0.572019
0.586217
0.601909
0.618861
0.637611
0.658035
0.680565
0.705107
0.731967
0.761011
0.792262
0.825919
0.858494
1.86936
0.773536
0.290511
0.367271
0.443366
0.463954
0.458759
0.45024
0.443585
0.441144
0.440595
0.440367
0.440096
0.439943
0.439984
0.440254
0.440793
0.441665
0.442821
0.444292
0.446068
0.448289
0.450908
0.454107
0.457777
0.46215
0.467052
0.472769
0.479037
0.486233
0.493981
0.502741
0.512068
0.52243
0.533466
0.545587
0.558519
0.572623
0.58765
0.603927
0.621318
0.640102
0.660208
0.681905
0.70511
0.730003
0.756498
0.784636
0.814493
0.843194
1.87247
0.780213
0.298214
0.361197
0.428663
0.449871
0.447606
0.441536
0.435839
0.433885
0.433845
0.434321
0.43486
0.435534
0.436395
0.437525
0.43895
0.440615
0.442471
0.444565
0.446899
0.449551
0.452501
0.455866
0.459598
0.463871
0.468582
0.473987
0.479907
0.486677
0.494046
0.502372
0.511399
0.521453
0.53231
0.544241
0.557054
0.570999
0.58592
0.602052
0.619263
0.63777
0.65743
0.678403
0.70056
0.724064
0.748728
0.774497
0.801583
0.827475
1.88106
0.786849
0.300595
0.348961
0.411719
0.440785
0.443781
0.439064
0.433843
0.431463
0.431154
0.431622
0.432271
0.433132
0.434195
0.435497
0.437061
0.438894
0.44099
0.443373
0.446038
0.449038
0.452345
0.456044
0.460082
0.4646
0.469508
0.475012
0.480967
0.487648
0.49488
0.502946
0.511695
0.521361
0.53183
0.543309
0.555674
0.569109
0.5835
0.599008
0.615531
0.633198
0.651915
0.671782
0.692707
0.714716
0.737675
0.76154
0.786404
0.810107
2.26387
1.10745
0.408322
0.399464
0.459495
0.508191
0.519497
0.514597
0.507636
0.501527
0.497966
0.495461
0.493298
0.491237
0.489171
0.487173
0.485412
0.483894
0.482711
0.48184
0.481378
0.481308
0.481728
0.482641
0.48409
0.486129
0.488784
0.492119
0.496123
0.500911
0.50642
0.51282
0.520003
0.528183
0.537222
0.547322
0.558371
0.570512
0.58366
0.597917
0.613204
0.629585
0.646973
0.665386
0.684756
0.705065
0.726214
0.74813
0.770879
0.792531
2.27349
1.12974
0.392943
0.377353
0.450176
0.510998
0.529466
0.528619
0.524393
0.520568
0.519113
0.518731
0.518693
0.518629
0.518195
0.517544
0.516861
0.516208
0.515629
0.515129
0.51475
0.514531
0.514515
0.514763
0.515323
0.516275
0.517644
0.519546
0.521989
0.525092
0.528864
0.533416
0.538758
0.544974
0.552092
0.560159
0.569215
0.579301
0.590451
0.602666
0.615974
0.630358
0.645804
0.662264
0.679665
0.697976
0.717072
0.73688
0.757452
0.777039
2.2983
1.17859
0.435546
0.384186
0.447223
0.503588
0.522119
0.523176
0.521358
0.52016
0.520586
0.521825
0.523616
0.525419
0.526832
0.52804
0.529169
0.530325
0.531477
0.532666
0.533854
0.535108
0.536399
0.537812
0.539322
0.541028
0.542916
0.545094
0.54757
0.550449
0.553755
0.55759
0.561989
0.567056
0.572823
0.579398
0.586797
0.59512
0.604351
0.614582
0.625752
0.637922
0.651025
0.665134
0.680157
0.696105
0.712904
0.73036
0.748569
0.765945
1.90092
0.805264
0.306364
0.316664
0.373714
0.414563
0.428839
0.432674
0.435501
0.439151
0.444082
0.449815
0.456243
0.462744
0.46893
0.474945
0.480924
0.486912
0.492872
0.498789
0.504632
0.510408
0.516106
0.521735
0.527298
0.532807
0.538289
0.543758
0.549261
0.554832
0.560498
0.566345
0.572399
0.578757
0.585447
0.592582
0.600184
0.608366
0.617139
0.6266
0.636756
0.647684
0.659375
0.671856
0.685094
0.699051
0.713647
0.728942
0.74494
0.760236
2.30701
1.19601
0.451212
0.387017
0.44084
0.492412
0.509428
0.509493
0.506324
0.503825
0.50254
0.502324
0.502748
0.503134
0.503437
0.503941
0.504751
0.506029
0.50771
0.509869
0.512431
0.515474
0.518929
0.522859
0.527172
0.531937
0.53703
0.542539
0.548315
0.554459
0.560868
0.56762
0.574631
0.581983
0.589612
0.597606
0.605931
0.614667
0.623803
0.633404
0.643482
0.654083
0.665223
0.676915
0.68917
0.701981
0.715347
0.72919
0.743589
0.75731
2.31242
1.20637
0.43462
0.369974
0.438569
0.500964
0.522515
0.523958
0.521734
0.520252
0.520372
0.521483
0.523198
0.524688
0.525709
0.526542
0.527369
0.528303
0.529376
0.530653
0.532163
0.533966
0.536075
0.538546
0.541395
0.544653
0.548346
0.552482
0.557092
0.562157
0.567713
0.573711
0.580193
0.587102
0.594497
0.602301
0.610578
0.619243
0.62838
0.637894
0.647882
0.658242
0.669087
0.680303
0.692003
0.704062
0.716582
0.729425
0.742719
0.75534
2.31521
1.21233
0.438872
0.372037
0.441749
0.505786
0.528291
0.530015
0.52785
0.526494
0.526962
0.528459
0.530723
0.532904
0.534625
0.536141
0.537667
0.539287
0.541021
0.542874
0.544867
0.547007
0.549334
0.551856
0.554631
0.557656
0.561
0.564653
0.568688
0.573086
0.57792
0.583162
0.588883
0.595041
0.601698
0.608808
0.616424
0.624492
0.633054
0.642062
0.651538
0.66145
0.671794
0.682554
0.693695
0.705225
0.717073
0.729262
0.741779
0.753685
2.31827
1.22026
0.465512
0.388327
0.447471
0.506713
0.529376
0.53265
0.531778
0.531404
0.532294
0.534208
0.536738
0.539028
0.541051
0.542945
0.544898
0.546931
0.549106
0.551382
0.553814
0.556364
0.559092
0.561966
0.565048
0.568313
0.57182
0.575554
0.579571
0.583861
0.588483
0.59343
0.598753
0.604446
0.61055
0.61706
0.624002
0.63138
0.639204
0.647479
0.65619
0.665352
0.674928
0.684936
0.695318
0.706094
0.717192
0.728609
0.740357
0.751542
1.90586
0.814003
0.325674
0.323649
0.376318
0.414235
0.427188
0.430282
0.432598
0.435954
0.440731
0.446633
0.453348
0.46016
0.466861
0.47351
0.480234
0.487017
0.493874
0.500747
0.507642
0.514522
0.521403
0.528261
0.535117
0.541964
0.548822
0.555693
0.562599
0.569548
0.576565
0.583666
0.590878
0.598226
0.605731
0.613427
0.621329
0.629472
0.637864
0.646532
0.655479
0.664721
0.674252
0.684087
0.694212
0.704627
0.715316
0.726261
0.737519
0.748206
2.31345
1.21173
0.467239
0.404219
0.466785
0.528102
0.550153
0.551113
0.546944
0.543082
0.540847
0.539451
0.538835
0.538421
0.537681
0.536945
0.536376
0.536209
0.536395
0.537066
0.538174
0.539761
0.541827
0.544384
0.547422
0.550946
0.554935
0.559395
0.564292
0.569629
0.575367
0.581503
0.587994
0.594843
0.602017
0.609517
0.617319
0.625421
0.633808
0.642476
0.651425
0.660646
0.670139
0.679899
0.689908
0.700161
0.710644
0.721325
0.732267
0.742645
2.29549
1.17255
0.462401
0.423681
0.486649
0.547195
0.567211
0.567288
0.563548
0.560275
0.55949
0.55987
0.560928
0.562174
0.563026
0.563656
0.564235
0.564891
0.565618
0.566443
0.567358
0.568428
0.569677
0.571168
0.57291
0.574966
0.57734
0.580074
0.583174
0.586673
0.590565
0.594878
0.599611
0.60478
0.610376
0.616403
0.622847
0.629707
0.636963
0.644609
0.652619
0.660983
0.669673
0.678674
0.687982
0.697562
0.707407
0.717491
0.727859
0.737715
1.88804
0.805464
0.342084
0.355734
0.406545
0.443356
0.453157
0.453052
0.452154
0.453011
0.456335
0.46096
0.466486
0.472534
0.478599
0.484701
0.490886
0.497185
0.503532
0.509904
0.516247
0.522568
0.528838
0.535074
0.541255
0.547406
0.55352
0.559634
0.565755
0.571921
0.578154
0.584476
0.590916
0.597495
0.604243
0.611171
0.618308
0.625659
0.633247
0.641071
0.649148
0.65748
0.666068
0.674911
0.683991
0.69331
0.702849
0.712592
0.722585
0.732083
1.87397
0.796487
0.340662
0.357
0.398421
0.426994
0.434924
0.434908
0.433923
0.433427
0.434184
0.435839
0.438404
0.441623
0.445115
0.448946
0.453185
0.457884
0.463014
0.468565
0.47449
0.480773
0.48737
0.494259
0.501399
0.508762
0.516315
0.52403
0.531882
0.53985
0.547912
0.556077
0.564317
0.572653
0.581061
0.58957
0.598162
0.606868
0.615678
0.624613
0.633654
0.642821
0.652118
0.661551
0.671124
0.680838
0.690692
0.700688
0.710862
0.720496
1.88897
0.806538
0.34663
0.374266
0.431103
0.467255
0.474129
0.470118
0.465044
0.461899
0.460926
0.460889
0.461476
0.462439
0.463486
0.464663
0.466104
0.467869
0.469999
0.472498
0.475394
0.478687
0.482413
0.486562
0.491155
0.496174
0.501631
0.507493
0.51377
0.52042
0.527455
0.534823
0.542533
0.550529
0.558818
0.567345
0.576118
0.585085
0.594251
0.603582
0.613094
0.622755
0.632563
0.642499
0.652553
0.662721
0.672988
0.683354
0.693862
0.703789
2.34249
1.12744
0.471883
0.449095
0.514475
0.576358
0.597091
0.596483
0.591135
0.585769
0.582689
0.58072
0.579098
0.577685
0.576108
0.574365
0.57259
0.570889
0.569298
0.567849
0.566564
0.565472
0.564605
0.563996
0.563685
0.563708
0.56409
0.564875
0.56606
0.567692
0.569782
0.572363
0.575427
0.579003
0.583061
0.587634
0.592678
0.59822
0.604212
0.61067
0.617535
0.624821
0.632463
0.640479
0.648824
0.657477
0.666402
0.675586
0.685039
0.694058
1.88956
0.807708
0.347687
0.364011
0.416258
0.456658
0.469289
0.470406
0.469924
0.469941
0.472252
0.475781
0.479974
0.484691
0.489495
0.494284
0.499089
0.503983
0.508921
0.513902
0.518865
0.523823
0.528734
0.533632
0.538476
0.543312
0.548105
0.552913
0.557716
0.562562
0.567435
0.572389
0.577405
0.58254
0.587794
0.593209
0.59879
0.604571
0.610557
0.616775
0.623231
0.629938
0.636904
0.644121
0.65158
0.659297
0.667251
0.67544
0.683879
0.691945
1.88929
0.80785
0.349042
0.365133
0.416538
0.455105
0.46564
0.464651
0.461824
0.459286
0.458816
0.45967
0.46126
0.463473
0.465911
0.468516
0.471387
0.474607
0.478182
0.482102
0.486339
0.490878
0.495697
0.500778
0.506103
0.511645
0.517393
0.523317
0.529406
0.53565
0.542034
0.548549
0.555189
0.561944
0.568811
0.575781
0.582859
0.590041
0.597335
0.604736
0.612258
0.619888
0.627648
0.635521
0.643534
0.651665
0.659944
0.668336
0.676909
0.685037
2.34466
1.13144
0.475854
0.451345
0.517916
0.582375
0.604992
0.605117
0.599949
0.594792
0.591899
0.590252
0.589043
0.588124
0.58708
0.585893
0.58466
0.583535
0.582521
0.581682
0.580983
0.580506
0.580216
0.580196
0.580415
0.58094
0.581747
0.582869
0.584317
0.586106
0.588235
0.590716
0.593536
0.596708
0.60022
0.604082
0.608277
0.61281
0.617664
0.622839
0.628319
0.634099
0.640163
0.646501
0.653101
0.659948
0.667028
0.674328
0.681864
0.68907
1.89024
0.809506
0.355434
0.382349
0.440216
0.480497
0.490685
0.489123
0.486141
0.484748
0.486184
0.488868
0.492212
0.496034
0.499917
0.503839
0.507863
0.512047
0.516365
0.520805
0.525323
0.529919
0.534565
0.53927
0.544018
0.548813
0.553648
0.558531
0.563459
0.568445
0.573488
0.57861
0.583808
0.589101
0.59449
0.599992
0.605605
0.611346
0.617214
0.623224
0.629376
0.635685
0.642151
0.648777
0.655563
0.662514
0.669627
0.676891
0.684339
0.691428
1.87578
0.80047
0.353108
0.379038
0.427967
0.460036
0.467782
0.466711
0.465087
0.464393
0.464956
0.466198
0.468144
0.470462
0.472833
0.475327
0.478042
0.481037
0.484315
0.487871
0.491679
0.495741
0.500043
0.504594
0.509377
0.514395
0.519617
0.525047
0.530656
0.536448
0.5424
0.548511
0.55477
0.561174
0.56771
0.574377
0.581168
0.58808
0.595113
0.602259
0.609524
0.616895
0.624379
0.631965
0.639664
0.647458
0.655369
0.663364
0.671516
0.679219
1.87494
0.800194
0.35366
0.376225
0.422764
0.454541
0.462856
0.462483
0.46142
0.460872
0.461208
0.462105
0.463645
0.46551
0.467378
0.469297
0.471384
0.473681
0.476213
0.47895
0.4819
0.485053
0.488438
0.49206
0.495939
0.500059
0.504418
0.509001
0.513811
0.518851
0.524133
0.529653
0.535413
0.541391
0.54758
0.553968
0.560548
0.567318
0.574276
0.581415
0.588735
0.596212
0.603861
0.611641
0.619573
0.627612
0.635806
0.644102
0.652595
0.660626
1.88995
0.810109
0.357053
0.363483
0.413903
0.452715
0.463755
0.463429
0.461695
0.46054
0.460633
0.461482
0.463051
0.464975
0.466818
0.468655
0.470605
0.472736
0.475058
0.477565
0.48026
0.483142
0.486222
0.489499
0.492979
0.496655
0.50053
0.504602
0.508877
0.513364
0.518061
0.522976
0.528103
0.533437
0.538979
0.544722
0.550678
0.556838
0.563217
0.569793
0.576586
0.583548
0.590721
0.598035
0.605563
0.613227
0.621096
0.629087
0.637294
0.645068
2.31431
1.209
0.488863
0.433071
0.493946
0.558449
0.584733
0.588364
0.585697
0.582937
0.581573
0.581181
0.581598
0.582387
0.582872
0.58314
0.583344
0.583624
0.583993
0.584479
0.585057
0.585754
0.586561
0.587502
0.588577
0.5898
0.591174
0.592712
0.594412
0.596293
0.598352
0.600601
0.603049
0.60569
0.608551
0.61161
0.614903
0.618411
0.62216
0.626133
0.630357
0.634799
0.639499
0.644411
0.649579
0.654966
0.660586
0.666422
0.672487
0.678332
2.32498
1.23403
0.469838
0.406639
0.482671
0.559218
0.590831
0.59572
0.593093
0.590196
0.589126
0.589482
0.590684
0.592438
0.59405
0.595398
0.596664
0.598033
0.599531
0.601178
0.602937
0.604824
0.606824
0.608951
0.611201
0.613583
0.61609
0.61873
0.621492
0.624387
0.627408
0.630561
0.633848
0.637271
0.640834
0.644544
0.648394
0.652402
0.65655
0.660865
0.665322
0.669954
0.674732
0.679695
0.684802
0.690104
0.695536
0.701165
0.706927
0.712477
2.31483
1.21082
0.490365
0.434161
0.495767
0.561553
0.588972
0.593303
0.591273
0.589141
0.588507
0.589083
0.590517
0.59245
0.594185
0.595723
0.597231
0.59886
0.60063
0.60256
0.604624
0.606831
0.609173
0.611659
0.614287
0.617064
0.619986
0.62306
0.626279
0.629648
0.633162
0.636825
0.640631
0.64459
0.648691
0.652953
0.657352
0.66192
0.666618
0.671489
0.676484
0.681656
0.686949
0.692423
0.698011
0.703787
0.709669
0.715739
0.721931
0.727895
1.88916
0.809878
0.358425
0.36515
0.417081
0.457827
0.47011
0.470248
0.468742
0.467807
0.468552
0.470256
0.472807
0.475829
0.478794
0.481773
0.484869
0.488187
0.49171
0.495451
0.499369
0.503472
0.507742
0.512193
0.516818
0.521621
0.526593
0.531726
0.537015
0.542455
0.548045
0.553787
0.559674
0.565713
0.571886
0.578205
0.584645
0.591225
0.597915
0.604747
0.611681
0.61876
0.625931
0.633247
0.640643
0.648178
0.655784
0.663533
0.671383
0.678892
1.87407
0.800475
0.357645
0.381563
0.428996
0.460757
0.468465
0.467383
0.465702
0.464834
0.465097
0.465987
0.467589
0.46955
0.471445
0.473342
0.475329
0.477496
0.479844
0.482401
0.485123
0.488027
0.491082
0.494314
0.497724
0.501332
0.505132
0.509126
0.513299
0.517649
0.522178
0.526888
0.531791
0.536892
0.542177
0.547663
0.553314
0.559157
0.565162
0.571357
0.577719
0.584278
0.59099
0.597906
0.604944
0.612184
0.619524
0.627057
0.634708
0.642046
1.87711
0.803838
0.361785
0.396393
0.452208
0.485471
0.491642
0.488202
0.484052
0.482078
0.482045
0.482846
0.484266
0.485965
0.487589
0.489237
0.490989
0.492917
0.494999
0.497269
0.499692
0.502291
0.50504
0.507952
0.51102
0.514256
0.517663
0.521244
0.524997
0.528913
0.532996
0.537241
0.541649
0.546237
0.550986
0.555928
0.561026
0.566311
0.571747
0.577369
0.583135
0.589105
0.595204
0.601525
0.607961
0.614616
0.621374
0.628337
0.635404
0.642201
1.19188
1.05102
0.499028
0.190911
0.00719374
0.10906
0.159137
0.207792
0.229598
0.234096
0.222559
0.211319
0.200993
0.191372
0.179239
0.164708
0.147288
0.127291
0.105377
0.0821761
0.0582483
0.0345537
0.0154845
0.0242141
0.0481769
0.0725448
0.096847
0.120644
0.144095
0.167132
0.189758
0.211964
0.233727
0.254984
0.27508
0.294287
0.314009
0.334555
0.354653
0.373922
0.392557
0.410668
0.428309
0.445491
0.462192
0.478446
0.494193
0.509491
0.52427
0.538601
0.552391
0.565723
0.578489
0.590772
0.60246
0.613628
0.62416
0.634134
0.643411
0.652081
0.659997
0.667228
0.673656
0.679313
0.684125
0.688099
0.691212
0.693456
0.694878
0.695486
0.695628
0.695487
0.694814
0.693108
0.690284
0.686844
0.683279
0.679668
0.676029
0.672477
0.66903
0.665839
0.66295
0.660376
0.65826
0.656466
0.655149
0.654165
0.653592
0.653259
0.653133
0.653121
0.653523
0.654391
0.655576
0.656818
0.658094
0.659434
0.660791
0.665065
1.12217
1.03707
0.808099
0.551264
0.504437
0.43317
0.382786
0.341773
0.311369
0.292927
0.262069
0.232129
0.212775
0.211137
0.218172
0.228735
0.24117
0.255169
0.270358
0.28632
0.302787
0.319372
0.335765
0.352086
0.368882
0.385978
0.403181
0.420403
0.437531
0.454615
0.471517
0.488299
0.504875
0.521292
0.53702
0.552099
0.567268
0.583198
0.599234
0.61463
0.62953
0.644079
0.658346
0.672328
0.686013
0.699362
0.712392
0.725056
0.737379
0.749311
0.760881
0.772025
0.782792
0.793097
0.802984
0.812387
0.821303
0.829712
0.837573
0.844865
0.851574
0.857633
0.863063
0.867781
0.871816
0.875096
0.877659
0.879453
0.880537
0.880921
0.880903
0.880623
0.879873
0.878226
0.875605
0.872362
0.868986
0.865565
0.862154
0.858853
0.855638
0.852741
0.850061
0.847797
0.845858
0.844345
0.843172
0.842397
0.841942
0.841763
0.841703
0.841806
0.842194
0.842995
0.844077
0.845227
0.84638
0.847566
0.848575
0.852052
1.07432
1.0761
1.00892
0.901654
0.832522
0.783271
0.747606
0.717726
0.693126
0.675334
0.66074
0.646773
0.636834
0.631994
0.630609
0.631029
0.632733
0.635331
0.638782
0.643167
0.648236
0.654033
0.660274
0.667083
0.674482
0.682605
0.691212
0.700353
0.709766
0.719577
0.729559
0.739833
0.750229
0.760809
0.771088
0.781093
0.791154
0.802042
0.813434
0.824609
0.835459
0.846172
0.856786
0.867313
0.877699
0.887961
0.898018
0.90793
0.917596
0.927093
0.93631
0.945323
0.954018
0.962473
0.970568
0.978377
0.98578
0.992843
0.999444
1.00565
1.01133
1.01654
1.02118
1.02529
1.02876
1.03164
1.03384
1.03542
1.03633
1.03661
1.03656
1.03623
1.03548
1.03391
1.03151
1.02854
1.02535
1.02212
1.01889
1.01579