/*--------------------------------*- C++ -*----------------------------------*\
| =========                 |                                                 |
| \\      /  F ield         | OpenFOAM: The Open Source CFD Toolbox           |
|  \\    /   O peration     | Version:  2412                                  |
|   \\  /    A nd           | Website:  www.openfoam.com                      |
|    \\/     M anipulation  |                                                 |
\*---------------------------------------------------------------------------*/
FoamFile
{
    version     2.0;
    format      ascii;
    arch        "LSB;label=32;scalar=64";
    class       volScalarField;
    location    "14";
    object      p;
}
// * * * * * * * * * * * * * * * * * * * * * * * * * * * * * * * * * * * * * //

dimensions      [1 -1 -2 0 0 0 0];

internalField   nonuniform List<scalar> 
7000
(
1.63856
3.7517
11.4452
11.5281
11.0982
10.6888
10.5705
10.5853
10.6268
10.667
10.6892
10.7032
10.7179
10.7358
10.7563
10.7786
10.8025
10.828
10.8552
10.8842
10.9149
10.9475
10.9819
11.0181
11.0561
11.0959
11.1375
11.1808
11.2259
11.2726
11.3209
11.3707
11.4218
11.4741
11.5273
11.5812
11.6355
11.6898
11.7438
11.7969
11.8487
11.8986
11.946
11.99
12.0301
12.0657
12.096
12.1205
12.1382
12.1511
1.63886
3.75041
11.4448
11.5275
11.0977
10.6885
10.5702
10.585
10.6265
10.6666
10.6887
10.7027
10.7174
10.7353
10.7558
10.7781
10.8019
10.8274
10.8546
10.8835
10.9142
10.9468
10.9811
11.0173
11.0552
11.095
11.1366
11.1799
11.2249
11.2716
11.3199
11.3696
11.4207
11.4729
11.5261
11.58
11.6343
11.6886
11.7426
11.7958
11.8476
11.8976
11.945
11.9892
12.0294
12.0651
12.0956
12.1202
12.1379
12.1509
1.63876
3.74948
11.4429
11.5266
11.097
10.6878
10.5695
10.5843
10.6257
10.6657
10.6877
10.7017
10.7163
10.7341
10.7546
10.7768
10.8006
10.826
10.8531
10.882
10.9126
10.9451
10.9793
11.0154
11.0533
11.0929
11.1344
11.1776
11.2225
11.269
11.3172
11.3668
11.4177
11.4698
11.5228
11.5765
11.6307
11.6849
11.7388
11.7919
11.8436
11.8935
11.9409
11.9851
12.0253
12.061
12.0915
12.1161
12.1337
12.1466
1.63863
3.74821
11.4396
11.5256
11.0961
10.6866
10.5683
10.5831
10.6244
10.6643
10.6862
10.7
10.7146
10.7324
10.7527
10.7749
10.7986
10.8238
10.8508
10.8796
10.9101
10.9424
10.9765
11.0124
11.0501
11.0896
11.1309
11.1738
11.2185
11.2649
11.3128
11.3621
11.4128
11.4647
11.5175
11.571
11.6249
11.6788
11.7325
11.7854
11.837
11.8868
11.9341
11.9781
12.0183
12.054
12.0844
12.109
12.1265
12.1394
1.63846
3.74635
11.4349
11.5242
11.0948
10.685
10.5666
10.5813
10.6225
10.6623
10.684
10.6978
10.7122
10.7299
10.7501
10.7721
10.7956
10.8208
10.8476
10.8762
10.9065
10.9386
10.9725
11.0082
11.0456
11.0849
11.1259
11.1686
11.213
11.259
11.3065
11.3555
11.4059
11.4573
11.5098
11.5629
11.6165
11.6701
11.7234
11.7761
11.8274
11.8769
11.924
11.968
12.0081
12.0438
12.0742
12.0988
12.1162
12.1291
1.63824
3.74385
11.4287
11.5224
11.0932
10.6829
10.5643
10.579
10.6201
10.6596
10.6811
10.6947
10.7091
10.7265
10.7466
10.7684
10.7918
10.8167
10.8433
10.8717
10.9018
10.9336
10.9672
11.0026
11.0397
11.0786
11.1192
11.1615
11.2055
11.2511
11.2982
11.3468
11.3966
11.4476
11.4995
11.5521
11.6052
11.6583
11.7112
11.7634
11.8143
11.8635
11.9104
11.9541
11.9941
12.0297
12.0601
12.0847
12.1021
12.1152
1.63798
3.74065
11.4208
11.5201
11.0911
10.6803
10.5614
10.5761
10.6169
10.6562
10.6775
10.6909
10.7051
10.7223
10.7422
10.7638
10.7869
10.8115
10.8379
10.8659
10.8957
10.9272
10.9605
10.9955
11.0322
11.0706
11.1108
11.1526
11.1961
11.2411
11.2876
11.3355
11.3848
11.4351
11.4863
11.5383
11.5907
11.6432
11.6954
11.747
11.7974
11.8462
11.8926
11.936
11.9758
12.0113
12.0416
12.0662
12.0836
12.0969
1.63766
3.73669
11.4112
11.5174
11.0886
10.6771
10.5579
10.5724
10.613
10.652
10.6731
10.6862
10.7001
10.7171
10.7367
10.758
10.7808
10.8052
10.8312
10.8589
10.8883
10.9194
10.9522
10.9867
11.0229
11.0608
11.1004
11.1416
11.1844
11.2287
11.2745
11.3217
11.3701
11.4196
11.47
11.5211
11.5726
11.6243
11.6757
11.7265
11.7761
11.8243
11.8701
11.9131
11.9525
11.9878
12.018
12.0426
12.0601
12.0735
1.6373
3.73193
11.3998
11.5142
11.0857
10.6733
10.5536
10.568
10.6083
10.647
10.6677
10.6806
10.6942
10.7109
10.7301
10.7511
10.7736
10.7975
10.8231
10.8504
10.8793
10.9099
10.9422
10.9761
11.0117
11.049
11.0878
11.1283
11.1703
11.2138
11.2587
11.3049
11.3523
11.4007
11.4501
11.5001
11.5506
11.6011
11.6515
11.7013
11.75
11.7972
11.8423
11.8846
11.9235
11.9584
11.9884
12.013
12.0304
12.0443
1.63687
3.72631
11.3863
11.5103
11.0822
10.6688
10.5485
10.5627
10.6027
10.6409
10.6613
10.6738
10.6871
10.7035
10.7223
10.7429
10.7649
10.7885
10.8136
10.8403
10.8687
10.8987
10.9303
10.9636
10.9985
11.0349
11.0729
11.1125
11.1535
11.196
11.2398
11.2849
11.3311
11.3783
11.4264
11.4751
11.5241
11.5733
11.6223
11.6708
11.7182
11.7642
11.8082
11.8496
11.8877
11.9221
11.9517
11.9763
11.9937
12.0079
1.63639
3.71979
11.3707
11.5059
11.0781
10.6636
10.5425
10.5565
10.5961
10.6339
10.6538
10.6659
10.6788
10.6948
10.7132
10.7333
10.7548
10.7778
10.8024
10.8285
10.8563
10.8856
10.9165
10.9489
10.9829
11.0185
11.0555
11.094
11.1339
11.1751
11.2177
11.2614
11.3061
11.3518
11.3983
11.4454
11.4928
11.5403
11.5876
11.6343
11.68
11.7244
11.767
11.8071
11.8441
11.8775
11.9065
11.9308
11.9482
11.9628
1.63584
3.71232
11.3529
11.5007
11.0734
10.6576
10.5356
10.5494
10.5884
10.6257
10.6451
10.6568
10.6692
10.6847
10.7026
10.7221
10.7431
10.7655
10.7894
10.8149
10.8419
10.8704
10.9004
10.932
10.965
10.9994
11.0353
11.0725
11.1111
11.1509
11.192
11.2341
11.2771
11.321
11.3656
11.4107
11.4561
11.5014
11.5465
11.5911
11.6346
11.6769
11.7174
11.7556
11.7909
11.823
11.851
11.8748
11.8919
11.9069
1.63524
3.70385
11.3328
11.4948
11.068
10.6508
10.5277
10.5411
10.5795
10.6162
10.6351
10.6463
10.6582
10.6731
10.6904
10.7093
10.7297
10.7514
10.7746
10.7992
10.8254
10.853
10.882
10.9125
10.9444
10.9776
11.0121
11.048
11.085
11.1232
11.1624
11.2027
11.2437
11.2855
11.3278
11.3705
11.4133
11.4561
11.4985
11.5403
11.581
11.6204
11.658
11.6936
11.7265
11.7563
11.7826
11.8053
11.8218
11.8375
1.63459
3.69434
11.3104
11.488
11.0618
10.6431
10.5187
10.5317
10.5693
10.6053
10.6237
10.6342
10.6455
10.6598
10.6765
10.6948
10.7144
10.7353
10.7577
10.7814
10.8066
10.8332
10.8611
10.8904
10.921
10.9528
10.9858
11.02
11.0553
11.0916
11.1288
11.1668
11.2055
11.2448
11.2844
11.3243
11.3641
11.4036
11.4426
11.4809
11.5179
11.5535
11.5873
11.619
11.6482
11.6748
11.6982
11.7188
11.734
11.75
1.63387
3.68384
11.2856
11.4804
11.0549
10.6345
10.5085
10.521
10.5577
10.5929
10.6106
10.6206
10.6312
10.6448
10.6607
10.6783
10.697
10.7171
10.7386
10.7614
10.7855
10.8109
10.8376
10.8655
10.8946
10.9248
10.9561
10.9884
11.0217
11.0558
11.0907
11.1262
11.1622
11.1985
11.235
11.2715
11.3076
11.3433
11.3781
11.4118
11.4441
11.4747
11.5032
11.5295
11.5531
11.5743
11.5928
11.6095
11.6223
11.6385
1.63308
3.67236
11.2584
11.4722
11.0473
10.6248
10.4969
10.5089
10.5445
10.5789
10.5958
10.6051
10.615
10.6278
10.643
10.6597
10.6776
10.6967
10.7171
10.7388
10.7617
10.7858
10.8111
10.8375
10.865
10.8934
10.9228
10.9531
10.9841
11.0157
11.048
11.0806
11.1135
11.1464
11.1792
11.2116
11.2434
11.2743
11.304
11.3321
11.3583
11.3822
11.4035
11.422
11.4375
11.4503
11.4607
11.4702
11.4774
11.4923
1.63224
3.65996
11.2289
11.4631
11.0389
10.6141
10.4839
10.4952
10.5296
10.563
10.5792
10.5877
10.5968
10.6088
10.6231
10.6388
10.6558
10.6739
10.6932
10.7136
10.7352
10.758
10.7817
10.8064
10.832
10.8585
10.8858
10.9137
10.9421
10.971
11.0003
11.0296
11.0589
11.088
11.1165
11.1442
11.1709
11.1961
11.2195
11.2406
11.259
11.2742
11.2858
11.2934
11.2964
11.2957
11.2923
11.2879
11.2839
11.2946
1.63135
3.64675
11.1974
11.4533
11.0298
10.6021
10.4693
10.4798
10.5127
10.545
10.5604
10.5681
10.5764
10.5875
10.6008
10.6156
10.6315
10.6484
10.6665
10.6857
10.7059
10.727
10.7491
10.7719
10.7956
10.8199
10.8447
10.8701
10.8957
10.9216
10.9474
10.9731
10.9984
11.023
11.0466
11.069
11.0896
11.1081
11.1239
11.1364
11.1451
11.1488
11.1472
11.1402
11.1252
11.1033
11.0754
11.0447
11.0144
11.0108
1.63043
3.63292
11.1645
11.4428
11.0198
10.5888
10.4529
10.4625
10.4936
10.5248
10.5394
10.5463
10.5537
10.5638
10.5762
10.5899
10.6047
10.6204
10.6372
10.6549
10.6735
10.693
10.7132
10.7341
10.7555
10.7774
10.7997
10.8222
10.8447
10.8672
10.8893
10.9109
10.9317
10.9513
10.9694
10.9856
10.9993
11.0099
11.0169
11.0187
11.0158
11.0062
10.9867
10.9577
10.9168
10.8626
10.7932
10.7113
10.6209
10.5654
1.62961
3.61839
11.1311
11.4315
11.0087
10.5738
10.4342
10.4426
10.4717
10.5017
10.5155
10.5216
10.5281
10.5373
10.5486
10.5613
10.5749
10.5894
10.6047
10.6209
10.6379
10.6555
10.6738
10.6925
10.7115
10.7309
10.7503
10.7697
10.7889
10.8076
10.8257
10.8428
10.8586
10.8727
10.8846
10.8938
10.8998
10.9011
10.8982
10.8891
10.8704
10.8422
10.8013
10.7451
10.6683
10.5652
10.4273
10.2464
10.0128
9.75826
1.62886
3.60023
11.0911
11.4182
10.9948
10.5544
10.4094
10.4162
10.4426
10.4713
10.4842
10.4894
10.4948
10.5027
10.5127
10.5239
10.536
10.5489
10.5625
10.5768
10.5916
10.6069
10.6226
10.6386
10.6547
10.6707
10.6866
10.7021
10.717
10.731
10.7439
10.7552
10.7646
10.7717
10.7756
10.7754
10.7723
10.7632
10.7449
10.7181
10.6804
10.6282
10.5575
10.4614
10.3305
10.1481
9.88516
9.48008
8.78172
7.25993
1.62808
3.58092
11.0484
11.4009
10.9756
10.5261
10.3731
10.378
10.4011
10.429
10.4418
10.4465
10.4509
10.4577
10.4664
10.4762
10.4868
10.4978
10.5094
10.5215
10.5338
10.5464
10.5591
10.5718
10.5843
10.5965
10.608
10.6188
10.6286
10.637
10.6436
10.6482
10.6497
10.6486
10.6441
10.6338
10.6166
10.592
10.5582
10.5125
10.4519
10.3716
10.2652
10.1229
9.9299
9.66227
9.27856
8.7097
7.86739
6.48056
1.62762
3.56969
11.0236
11.3893
10.9601
10.4977
10.334
10.3364
10.3557
10.3834
10.3962
10.4002
10.4035
10.4089
10.4163
10.4246
10.4335
10.4427
10.4522
10.4619
10.4717
10.4816
10.4912
10.5005
10.5093
10.5174
10.5246
10.5306
10.5351
10.5376
10.5376
10.5359
10.5307
10.5201
10.5045
10.4829
10.4538
10.4155
10.3658
10.3017
10.2192
10.1134
9.97615
9.79746
9.56226
9.24919
8.82908
8.26167
7.52981
6.55632
1.627
3.56053
11.0004
11.368
10.9321
10.4522
10.2788
10.2813
10.3021
10.3332
10.3475
10.3513
10.3537
10.3581
10.3645
10.3716
10.3789
10.3863
10.3938
10.4012
10.4085
10.4154
10.422
10.4279
10.433
10.4371
10.44
10.441
10.4405
10.4381
10.4325
10.4227
10.4091
10.3906
10.3661
10.3347
10.2946
10.244
10.1805
10.1011
10.0016
9.87709
9.72068
9.52358
9.27468
8.96012
8.56526
8.07434
7.49405
6.76494
1.62753
3.59515
11.0608
11.3655
10.9052
10.3868
10.2019
10.2073
10.2359
10.2741
10.2909
10.2947
10.2966
10.3005
10.3062
10.3124
10.3186
10.3245
10.3302
10.3356
10.3405
10.345
10.3487
10.3516
10.3534
10.3536
10.3528
10.3502
10.3448
10.3364
10.3247
10.3093
10.2892
10.2636
10.2316
10.1917
10.1425
10.0821
10.0082
9.91785
9.8076
9.67307
9.50896
9.30894
9.06573
8.77157
8.41921
8.00144
7.52045
6.96925
1.58971
3.70594
11.0653
11.2739
10.8241
10.3051
10.1324
10.1426
10.1795
10.2199
10.2367
10.2407
10.2429
10.2468
10.2517
10.2567
10.2613
10.2653
10.2689
10.272
10.2743
10.276
10.2766
10.2763
10.2751
10.2719
10.2665
10.259
10.249
10.2358
10.2192
10.1983
10.1725
10.1409
10.1024
10.0558
9.99961
9.93212
9.85124
9.75451
9.63902
9.50135
9.33765
9.14356
8.91466
8.64646
8.33559
7.97929
7.57991
7.13216
1.55437
4.8149
11.2177
10.9506
10.3128
10.0559
10.0511
10.0777
10.1255
10.1524
10.1625
10.167
10.1714
10.1766
10.1819
10.1866
10.1905
10.1936
10.1961
10.1976
10.198
10.1978
10.1966
10.194
10.1893
10.1831
10.1752
10.1649
10.1517
10.135
10.1143
10.0891
10.0587
10.0223
9.97887
9.92733
9.8664
9.79452
9.70991
9.61051
9.49406
9.35796
9.19951
9.01578
8.80408
8.56193
8.28791
7.98197
7.64532
7.27078
1.55522
4.82183
11.1672
10.8809
10.2396
10.0005
10.0105
10.0528
10.1017
10.1239
10.1303
10.1331
10.1363
10.1396
10.1423
10.144
10.1447
10.1446
10.1439
10.1421
10.1389
10.1348
10.1297
10.1233
10.1152
10.1051
10.0927
10.0778
10.0601
10.0391
10.0144
9.98553
9.95165
9.91164
9.8646
9.80959
9.74547
9.67099
9.58478
9.48517
9.37044
9.23868
9.08799
8.91642
8.72233
8.5043
8.26159
7.99376
7.70696
7.39086
1.56536
4.84082
11.2295
10.9006
10.183
9.92278
9.9377
9.9922
10.0499
10.0748
10.0815
10.0845
10.088
10.0915
10.0939
10.095
10.0949
10.094
10.0916
10.0874
10.082
10.0756
10.0678
10.0583
10.0469
10.0335
10.0178
9.99945
9.97827
9.9538
9.92542
9.89247
9.85433
9.8106
9.7606
9.7033
9.63785
9.56274
9.47678
9.37869
9.26731
9.1412
8.99913
8.83976
8.66215
8.46564
8.25041
8.01645
7.76747
7.49711
1.55559
4.81883
11.1529
10.8482
10.1585
9.89752
9.90939
9.95842
10.0149
10.0396
10.0456
10.0474
10.0495
10.0515
10.0523
10.0519
10.0504
10.0471
10.0422
10.0362
10.029
10.0204
10.0102
9.99823
9.98423
9.96807
9.94942
9.92815
9.9038
9.87613
9.84455
9.80863
9.76796
9.72183
9.66959
9.61034
9.54331
9.46773
9.38279
9.28742
9.18068
9.06142
8.92856
8.78128
8.61923
8.44236
8.25092
8.04415
7.82578
7.59107
1.52624
4.76105
10.9443
10.7225
10.1493
9.90163
9.90234
9.93148
9.98043
10.0042
10.0103
10.0112
10.0121
10.0125
10.012
10.0104
10.0069
10.0018
9.99551
9.98804
9.97913
9.96865
9.95639
9.94225
9.92599
9.90753
9.88652
9.86283
9.83601
9.80585
9.77192
9.73381
9.69108
9.64314
9.5895
9.52949
9.46247
9.38772
9.30455
9.21213
9.10969
8.99654
8.87224
8.73636
8.58839
8.42801
8.25535
8.07245
7.87977
7.67381
1.51
4.71528
10.8598
10.7271
10.2324
9.9398
9.88753
9.90586
9.94544
9.96997
9.97706
9.9769
9.97594
9.97392
9.97107
9.96727
9.96222
9.95586
9.94819
9.93916
9.9286
9.91642
9.90243
9.88657
9.86857
9.84833
9.82552
9.80002
9.77142
9.73951
9.70394
9.66432
9.62035
9.57148
9.51726
9.45718
9.39075
9.31741
9.23663
9.14775
9.05024
8.94358
8.82741
8.70141
8.56544
8.4196
8.26419
8.09989
7.92793
7.74534
1.66733
3.28821
10.4936
11.0093
10.5948
10.075
9.88664
9.89061
9.91598
9.9494
9.96044
9.95938
9.95564
9.94949
9.94375
9.93785
9.93097
9.92273
9.91308
9.90197
9.88936
9.87508
9.85896
9.84104
9.82104
9.79876
9.77393
9.74643
9.71592
9.68225
9.645
9.60394
9.55861
9.50871
9.45386
9.39364
9.32775
9.25576
9.17725
9.09177
8.99887
8.8982
8.78952
8.67259
8.54739
8.41404
8.27285
8.12429
7.96953
7.80611
1.6751
3.16349
10.4248
11.1619
10.7142
10.1097
9.8643
9.85134
9.86916
9.90166
9.91237
9.91058
9.90475
9.89558
9.88808
9.88161
9.87469
9.86649
9.85681
9.84563
9.83289
9.81848
9.80223
9.784
9.7636
9.74088
9.71558
9.68752
9.65648
9.62222
9.58449
9.54307
9.49769
9.44806
9.39395
9.335
9.2708
9.20095
9.12517
9.04308
8.95434
8.8588
8.75646
8.64744
8.53172
8.40929
8.28032
8.14521
8.00497
7.85746
1.64068
3.04784
9.89437
11.0037
10.6451
10.1059
9.88243
9.86155
9.8726
9.89121
9.89312
9.88926
9.8793
9.86611
9.85501
9.84536
9.8356
9.82485
9.81287
9.79962
9.78501
9.76892
9.75118
9.73161
9.71004
9.68629
9.66017
9.63142
9.5998
9.56513
9.52721
9.48583
9.44072
9.39163
9.33828
9.2804
9.21769
9.14989
9.07674
8.99811
8.91398
8.82416
8.72845
8.62667
8.51876
8.40476
8.28567
8.16203
8.03426
7.90034
1.43401
4.54618
10.322
10.5046
10.2133
9.91954
9.81191
9.8094
9.81773
9.82836
9.82836
9.825
9.81621
9.80435
9.79417
9.78509
9.77561
9.765
9.75309
9.73987
9.72529
9.70918
9.69139
9.67176
9.65015
9.62638
9.60028
9.57161
9.5402
9.50596
9.46864
9.42798
9.38378
9.33583
9.28391
9.22779
9.16726
9.10211
9.03219
8.95736
8.87753
8.79256
8.70237
8.60696
8.50662
8.40176
8.29218
8.17793
8.06006
7.93715
1.63275
2.99594
9.70634
10.8891
10.5762
10.076
9.85618
9.82172
9.82706
9.83363
9.83093
9.82193
9.80539
9.78969
9.77613
9.76359
9.75077
9.73692
9.72188
9.70577
9.68855
9.67002
9.64999
9.6283
9.60477
9.57928
9.55169
9.52193
9.48986
9.45514
9.41756
9.37694
9.3331
9.2859
9.23513
9.18056
9.122
9.05929
8.9923
8.9209
8.845
8.76457
8.67961
8.59017
8.49637
8.3984
8.29638
8.19068
8.08189
7.96874
1.64157
2.92655
9.7046
11.0149
10.6351
10.0431
9.78502
9.75118
9.76134
9.77713
9.77609
9.76903
9.75322
9.73618
9.72236
9.71026
9.69804
9.68499
9.67087
9.65548
9.63867
9.62041
9.6006
9.57912
9.55586
9.53064
9.50334
9.47381
9.44191
9.40746
9.37032
9.33035
9.28738
9.24119
9.19163
9.13858
9.08194
9.02159
8.9574
8.88931
8.81725
8.74116
8.66105
8.57695
8.48899
8.39726
8.30198
8.20358
8.10248
7.99746
1.63985
2.90687
9.64889
10.9929
10.6096
10.0022
9.73442
9.69883
9.70996
9.72843
9.72798
9.72184
9.70702
9.68947
9.67538
9.66336
9.65131
9.63828
9.62402
9.60846
9.59155
9.57321
9.55336
9.53187
9.50862
9.48347
9.45631
9.42699
9.39541
9.36142
9.32488
9.28568
9.24365
9.19867
9.1506
9.09931
9.04474
8.9868
8.9254
8.86049
8.79201
8.71992
8.64424
8.56501
8.48236
8.39642
8.30734
8.21537
8.121
8.02309
1.6254
2.91473
9.47821
10.8497
10.542
9.99017
9.73367
9.68532
9.68998
9.69833
9.69605
9.68759
9.6705
9.65384
9.63956
9.62652
9.61336
9.59935
9.58427
9.56803
9.55057
9.53179
9.51156
9.48977
9.4663
9.44103
9.41385
9.38464
9.35329
9.31967
9.28365
9.24511
9.20395
9.16007
9.11339
9.06385
9.01132
8.95569
8.89691
8.83495
8.76977
8.70136
8.62973
8.55494
8.47709
8.39633
8.31274
8.22658
8.13815
8.04638
1.39112
4.47732
10.0137
10.2914
10.0123
9.72531
9.61747
9.60816
9.61355
9.6202
9.61919
9.61409
9.60295
9.59033
9.57895
9.56816
9.55687
9.54447
9.53077
9.51574
9.49934
9.4815
9.46216
9.44122
9.41858
9.39415
9.36781
9.33948
9.30906
9.27647
9.24161
9.20438
9.16469
9.12246
9.07761
9.03005
8.97972
8.92652
8.87043
8.81142
8.7495
8.68469
8.61698
8.54639
8.47297
8.39678
8.31808
8.2369
8.15362
8.06728
1.63053
2.93783
9.56365
10.8313
10.4897
9.89987
9.62496
9.58193
9.59217
9.61267
9.61436
9.60974
9.59745
9.58021
9.56537
9.55231
9.53916
9.52496
9.50946
9.49259
9.47447
9.45496
9.43407
9.4118
9.38806
9.36276
9.33572
9.30685
9.27605
9.24323
9.20835
9.1714
9.13231
9.09097
9.04729
9.00119
8.9526
8.90148
8.84776
8.79137
8.73229
8.67051
8.60604
8.53896
8.46934
8.39731
8.32294
8.24638
8.16784
8.08639
1.64055
3.06792
9.83709
10.7619
10.3818
9.76845
9.50514
9.48431
9.50159
9.53459
9.54427
9.54168
9.53347
9.51938
9.50701
9.49623
9.48526
9.47305
9.45938
9.44433
9.42806
9.41046
9.39135
9.3706
9.34812
9.32388
9.29787
9.27006
9.24038
9.2088
9.17527
9.13969
9.10198
9.06207
9.01991
8.97545
8.92863
8.87942
8.82779
8.77371
8.7172
8.65827
8.59698
8.53328
8.46721
8.39884
8.32833
8.25573
8.18124
8.10401
1.40063
4.54066
10.0787
10.1416
9.83745
9.53107
9.43155
9.43676
9.45602
9.47614
9.48206
9.48062
9.47576
9.4665
9.45731
9.44839
9.43876
9.42779
9.41534
9.40143
9.38608
9.36925
9.35083
9.33079
9.30907
9.28565
9.2605
9.23359
9.20485
9.1742
9.14167
9.10721
9.07076
9.03226
8.99166
8.94892
8.904
8.85687
8.8075
8.75588
8.70198
8.64581
8.5874
8.52682
8.46411
8.3993
8.33247
8.26366
8.19304
8.11979
1.3842
4.55047
9.97402
10.0054
9.76596
9.53497
9.45274
9.45004
9.45619
9.46566
9.46744
9.46542
9.45961
9.44973
9.43958
9.4293
9.41826
9.40603
9.39252
9.3777
9.36158
9.34412
9.32528
9.30497
9.28316
9.25977
9.23478
9.20812
9.17978
9.14973
9.11785
9.0841
9.04844
9.01082
8.97121
8.92957
8.88588
8.84007
8.79218
8.74231
8.69047
8.63658
8.58062
8.5226
8.46257
8.40053
8.33657
8.27076
8.20327
8.13334
1.41763
4.56341
10.186
10.1608
9.78301
9.44708
9.35245
9.36409
9.39493
9.41958
9.42672
9.42542
9.42096
9.41251
9.40371
9.39478
9.38501
9.37391
9.36136
9.34737
9.33193
9.31502
9.29661
9.27669
9.25526
9.23226
9.20765
9.18143
9.15357
9.12402
9.09273
9.05967
9.02479
8.9881
8.94958
8.90923
8.86704
8.82303
8.77714
8.72928
8.67941
8.6276
8.57389
8.5183
8.46083
8.40152
8.34042
8.27756
8.21305
8.14607
1.53071
3.34155
9.85494
10.69
10.3049
9.66075
9.37513
9.34839
9.3659
9.40163
9.41593
9.41495
9.41043
9.40086
9.39053
9.38068
9.37042
9.35899
9.34613
9.33185
9.31618
9.29914
9.2807
9.2608
9.23939
9.21642
9.19178
9.16554
9.13774
9.10829
9.07713
9.04425
9.00966
8.97336
8.93535
8.8956
8.85412
8.8109
8.76591
8.71914
8.6706
8.62034
8.56831
8.51445
8.45888
8.40166
8.34287
8.28251
8.22066
8.15667
1.39229
4.52811
10.036
10.0732
9.77225
9.44758
9.32523
9.32324
9.33454
9.35598
9.3649
9.36426
9.36089
9.35346
9.34465
9.33605
9.32706
9.31694
9.30541
9.29243
9.27805
9.26227
9.24506
9.22636
9.20614
9.18437
9.16101
9.13603
9.10944
9.08125
9.05144
9.02001
8.98695
8.95219
8.91569
8.87745
8.83749
8.79579
8.75238
8.70724
8.66039
8.6118
8.56156
8.50974
8.45635
8.40139
8.34485
8.28684
8.22747
8.1662
1.3896
4.52511
10.018
10.0599
9.75499
9.42754
9.30687
9.30692
9.31909
9.34175
9.35121
9.35037
9.34642
9.33802
9.32849
9.31916
9.30941
9.29856
9.28635
9.27278
9.25792
9.24176
9.22429
9.20547
9.18526
9.16363
9.14059
9.11609
9.09005
9.0624
9.03314
9.00224
8.96971
8.93558
8.89987
8.86256
8.82364
8.78309
8.74091
8.69712
8.65172
8.60473
8.55617
8.50608
8.45446
8.40133
8.3467
8.29064
8.23323
8.17393
1.52878
3.32847
9.81214
10.6687
10.2859
9.61926
9.31297
9.27589
9.29226
9.32682
9.34213
9.34127
9.33678
9.32705
9.31629
9.3064
9.29649
9.28563
9.27347
9.25999
9.24522
9.22917
9.21181
9.19311
9.17298
9.15142
9.12848
9.10406
9.0781
9.0506
9.02153
8.9909
8.95874
8.92505
8.88982
8.85304
8.81471
8.77484
8.73343
8.6905
8.64605
8.6001
8.55267
8.50377
8.45344
8.40168
8.3486
8.29416
8.23847
8.18111
1.4035
4.54094
10.0869
10.0656
9.68699
9.33309
9.22109
9.22998
9.25883
9.28804
9.29785
9.29699
9.29318
9.28523
9.27661
9.26821
9.25933
9.24934
9.23805
9.22545
9.21158
9.19647
9.18007
9.16235
9.14327
9.12281
9.10095
9.07765
9.05288
9.02661
8.99883
8.96954
8.93875
8.90643
8.87259
8.83722
8.80033
8.76193
8.72204
8.68066
8.63777
8.59338
8.54751
8.5002
8.45146
8.40134
8.34981
8.29697
8.2429
8.18719
1.38802
4.54831
9.97467
9.95351
9.6476
9.36723
9.27755
9.28023
9.29186
9.30251
9.30292
9.30038
9.29367
9.28353
9.27351
9.26365
9.25325
9.24191
9.22947
9.21591
9.20125
9.18548
9.16856
9.15045
9.13112
9.11052
9.08862
9.06539
9.04079
9.01482
8.98745
8.95865
8.92837
8.8966
8.86335
8.8286
8.79237
8.75464
8.71545
8.67481
8.63276
8.58931
8.54447
8.49824
8.45063
8.40168
8.35139
8.29977
8.24687
8.19221
1.37995
4.54028
9.92542
9.91895
9.63737
9.36588
9.27261
9.27109
9.27699
9.28425
9.28411
9.28162
9.27516
9.26523
9.2553
9.24551
9.23524
9.22409
9.21193
9.19876
9.18453
9.16921
9.15275
9.13511
9.11626
9.09616
9.07478
9.05207
9.02802
9.00259
8.97577
8.94753
8.91784
8.88672
8.85415
8.82014
8.78471
8.74786
8.70959
8.6699
8.6288
8.5863
8.5424
8.49713
8.45053
8.40265
8.35349
8.30298
8.25114
8.19751
1.37179
4.50125
9.88293
10.0062
9.70833
9.381
9.25908
9.25414
9.2625
9.2744
9.27618
9.27374
9.26689
9.25574
9.24499
9.23485
9.22442
9.21315
9.20083
9.18746
9.17305
9.15757
9.14099
9.12328
9.10439
9.08431
9.06299
9.0404
9.01652
8.99132
8.96478
8.93687
8.90757
8.87689
8.84481
8.81133
8.77646
8.7402
8.70255
8.66353
8.62314
8.5814
8.53834
8.494
8.44835
8.40136
8.35308
8.30354
8.25278
8.20044
1.62487
2.9542
9.47801
10.5955
10.2543
9.6268
9.31478
9.24717
9.25447
9.27228
9.2797
9.27747
9.26993
9.25547
9.24221
9.23086
9.22003
9.20858
9.19611
9.18257
9.16801
9.15242
9.13578
9.11806
9.09921
9.07918
9.05796
9.0355
9.01176
8.98673
8.96038
8.93269
8.90364
8.87322
8.84143
8.80826
8.77371
8.7378
8.70052
8.66189
8.62192
8.58063
8.53803
8.49416
8.449
8.4026
8.35499
8.30624
8.25644
8.20527
1.63392
2.83689
9.43411
10.8024
10.3997
9.65822
9.28705
9.20634
9.21651
9.24192
9.25664
9.25549
9.24943
9.23611
9.22192
9.21034
9.19995
9.18915
9.17725
9.16417
9.15002
9.13484
9.11861
9.10132
9.0829
9.06332
9.04256
9.02059
8.99736
8.97286
8.94707
8.91996
8.89152
8.86173
8.8306
8.79811
8.76427
8.72908
8.69255
8.65469
8.6155
8.575
8.53321
8.49013
8.44578
8.40018
8.35339
8.30544
8.25641
8.20604
1.62511
2.94643
9.45942
10.5858
10.2451
9.61086
9.29038
9.22059
9.22867
9.24883
9.2591
9.25729
9.25033
9.23601
9.22208
9.21034
9.19941
9.188
9.17557
9.16208
9.14759
9.13213
9.11568
9.0982
9.07965
9.05999
9.03918
9.01719
8.994
8.96957
8.94388
8.91691
8.88864
8.85905
8.82815
8.79591
8.76236
8.72747
8.69127
8.65376
8.61494
8.57483
8.53344
8.49078
8.44688
8.40174
8.35539
8.30785
8.25915
8.20892
1.36725
4.49824
9.85837
9.98301
9.68177
9.34046
9.21109
9.20597
9.21538
9.22994
9.23312
9.23099
9.22466
9.21378
9.20321
9.1933
9.18318
9.17222
9.16024
9.14725
9.13327
9.11831
9.10234
9.08533
9.06725
9.04806
9.02773
9.00622
8.98352
8.95959
8.93441
8.90796
8.88023
8.85119
8.82085
8.78918
8.75621
8.72191
8.68631
8.6494
8.6112
8.5717
8.53092
8.48887
8.44556
8.40102
8.35524
8.30822
8.25994
8.20992
1.3727
4.53393
9.88398
9.87276
9.58262
9.30622
9.21728
9.21938
9.22978
9.23975
9.24002
9.23747
9.23054
9.21967
9.20896
9.19863
9.18791
9.17634
9.16383
9.15037
9.13598
9.12064
9.10432
9.087
9.06862
9.04917
9.02861
9.0069
8.98401
8.95993
8.93461
8.90805
8.88022
8.85112
8.82073
8.78904
8.75607
8.72179
8.68622
8.64937
8.61125
8.57185
8.5312
8.4893
8.44617
8.40182
8.35626
8.3095
8.26157
8.21213
1.39773
4.55463
10.0155
9.95406
9.56805
9.25212
9.16785
9.17923
9.20873
9.22942
9.23222
9.22962
9.22265
9.21223
9.20221
9.19249
9.18222
9.17099
9.15873
9.1455
9.13132
9.11618
9.10005
9.08291
9.06471
9.04543
9.02504
9.0035
8.98079
8.95688
8.93174
8.90536
8.87772
8.8488
8.8186
8.7871
8.75432
8.72023
8.68487
8.64821
8.61028
8.57108
8.53062
8.48892
8.44599
8.40183
8.35649
8.30996
8.26231
8.2133
3.04294
2.45567
2.99584
4.1792
4.1239
4.10947
4.04827
4.01025
3.99703
3.99938
4.02656
4.06956
4.10638
4.13712
4.17111
4.21373
4.26525
4.32317
4.38469
4.44749
4.50983
4.57046
4.62907
4.68585
4.73674
4.782
4.82157
4.85589
4.88494
4.90883
4.92769
4.94162
4.95078
4.95535
4.95555
4.95381
4.94819
4.93636
4.92046
4.90225
4.88174
4.85892
4.8339
4.80693
4.7783
4.74827
4.71711
4.68504
4.65231
4.61912
4.5857
4.55221
4.5189
4.48592
4.45348
4.42177
4.39098
4.3613
4.33294
4.30607
4.28091
4.25765
4.23646
4.21753
4.20102
4.18707
4.17577
4.16718
4.16131
4.15813
4.15768
4.15812
4.15981
4.16407
4.17297
4.18538
4.19849
4.21167
4.22486
4.23788
4.25043
4.26217
4.27283
4.2822
4.29015
4.29661
4.30157
4.30508
4.30722
4.3081
4.30804
4.30766
4.3065
4.30391
4.29962
4.29505
4.29046
4.28576
4.2808
4.27634
4.0952
3.55108
3.75308
4.23245
4.15188
4.09431
4.03519
3.99493
3.98289
3.99476
4.03512
4.08496
4.11655
4.13884
4.168
4.20872
4.25977
4.31756
4.37894
4.44162
4.50389
4.56471
4.62359
4.68013
4.73111
4.77635
4.81605
4.85045
4.87963
4.90361
4.92258
4.93659
4.94582
4.95038
4.95041
4.94914
4.94463
4.93414
4.91667
4.89783
4.87754
4.85507
4.83033
4.80353
4.77502
4.74512
4.71407
4.68211
4.64948
4.61639
4.58304
4.54964
4.51639
4.48347
4.45109
4.41942
4.38868
4.35904
4.3307
4.30387
4.27873
4.25549
4.23432
4.21541
4.19893
4.185
4.17375
4.16524
4.15953
4.15661
4.15661
4.1571
4.15882
4.16303
4.1718
4.18441
4.19789
4.21144
4.22491
4.23813
4.25085
4.26274
4.27353
4.283
4.29102
4.29751
4.30247
4.30594
4.30802
4.30878
4.3087
4.3083
4.30718
4.30471
4.30032
4.29557
4.29088
4.28625
4.28153
4.27877
5.22578
4.4639
4.23347
4.26577
4.24704
4.19494
4.11361
4.06098
4.04035
4.04254
4.05439
4.08271
4.11806
4.14921
4.18248
4.22314
4.27194
4.32735
4.3866
4.44741
4.50811
4.56748
4.62475
4.67916
4.72927
4.77398
4.81323
4.84713
4.87583
4.89939
4.91795
4.93158
4.94042
4.94451
4.94438
4.94315
4.93922
4.93009
4.91229
4.89257
4.87175
4.84921
4.82461
4.798
4.76965
4.73986
4.70892
4.67707
4.64455
4.61157
4.57833
4.54503
4.51187
4.47905
4.44676
4.41518
4.38452
4.35497
4.32671
4.29996
4.27489
4.25172
4.23062
4.21179
4.19539
4.18156
4.17044
4.16211
4.15674
4.15448
4.1546
4.15529
4.15723
4.16162
4.17058
4.18303
4.19679
4.21089
4.22492
4.2386
4.25168
4.26388
4.27491
4.28457
4.29271
4.29927
4.30423
4.30765
4.30961
4.31012
4.31001
4.30956
4.30842
4.30596
4.30148
4.29655
4.29169
4.2871
4.28258
4.28162
5.82946
5.09564
4.66099
4.46485
4.42651
4.36176
4.27025
4.18993
4.13753
4.11619
4.11823
4.12868
4.1538
4.19092
4.22457
4.25948
4.30022
4.34772
4.40054
4.45644
4.51338
4.56985
4.62465
4.67686
4.72519
4.76884
4.80731
4.8405
4.86847
4.89143
4.90944
4.92256
4.93092
4.93444
4.93422
4.93298
4.92939
4.92122
4.90465
4.88432
4.86271
4.8398
4.81522
4.78884
4.76077
4.73126
4.70058
4.669
4.63674
4.60401
4.57101
4.53795
4.50502
4.47241
4.44033
4.40896
4.3785
4.34913
4.32107
4.29449
4.26961
4.24661
4.22568
4.20701
4.19078
4.17715
4.16624
4.15825
4.15332
4.15179
4.15201
4.1529
4.15513
4.15991
4.16927
4.18149
4.19541
4.21007
4.22479
4.23912
4.25274
4.26535
4.27671
4.28662
4.29493
4.30157
4.30655
4.3099
4.31176
4.31189
4.31175
4.31123
4.30997
4.3073
4.30284
4.29783
4.29281
4.2882
4.28401
4.28415
6.23286
5.59757
5.12177
4.83217
4.68331
4.57105
4.46022
4.3588
4.28098
4.23265
4.21204
4.21281
4.21871
4.23448
4.26624
4.29922
4.33553
4.37667
4.4226
4.47219
4.52391
4.57621
4.62757
4.67682
4.72287
4.76482
4.80203
4.83418
4.86109
4.88328
4.90051
4.91292
4.92065
4.92339
4.92309
4.92175
4.91821
4.91044
4.89481
4.87481
4.85277
4.82935
4.80452
4.77817
4.75032
4.72111
4.69076
4.65949
4.62753
4.5951
4.56239
4.52962
4.49697
4.46465
4.43285
4.40176
4.37158
4.34251
4.31472
4.28844
4.26383
4.24111
4.22047
4.20208
4.18614
4.17281
4.16228
4.15474
4.15025
4.14942
4.14972
4.1508
4.15339
4.15881
4.16841
4.18059
4.19458
4.2096
4.22489
4.23984
4.25402
4.26709
4.2788
4.28895
4.29743
4.30417
4.30916
4.31246
4.31408
4.31405
4.31383
4.31316
4.31165
4.30856
4.3042
4.29922
4.2941
4.28943
4.28564
4.286
6.54017
6.00494
5.54948
5.20482
4.97156
4.80536
4.66863
4.54953
4.45129
4.3786
4.33255
4.31009
4.30873
4.31181
4.32226
4.34504
4.37722
4.41306
4.45168
4.49346
4.53807
4.58435
4.63081
4.6761
4.71914
4.75883
4.79438
4.82528
4.85129
4.87253
4.88888
4.90059
4.90767
4.90964
4.90927
4.90784
4.90423
4.89653
4.8816
4.8624
4.84049
4.81677
4.79163
4.76521
4.73751
4.70862
4.67866
4.64781
4.61627
4.58424
4.55194
4.51956
4.48732
4.4554
4.42401
4.39334
4.36358
4.33493
4.30758
4.28172
4.25755
4.23526
4.21503
4.19705
4.18155
4.16869
4.15865
4.15158
4.14758
4.14742
4.14781
4.1491
4.1521
4.15829
4.16812
4.18028
4.19424
4.20938
4.22498
4.24039
4.25504
4.26853
4.28057
4.29098
4.29964
4.30649
4.31152
4.3148
4.31617
4.31611
4.31579
4.31497
4.31318
4.30972
4.30534
4.30037
4.29522
4.29052
4.28698
4.28744
6.7842
6.33344
5.91554
5.55594
5.27483
5.06263
4.89488
4.75496
4.63772
4.54377
4.47441
4.42896
4.40484
4.39801
4.39949
4.40586
4.42106
4.44934
4.48094
4.51618
4.55427
4.59423
4.63503
4.67572
4.71506
4.75201
4.78558
4.81506
4.84002
4.86033
4.87594
4.88696
4.89335
4.8946
4.89417
4.89262
4.88887
4.88099
4.86667
4.84822
4.82671
4.80302
4.77775
4.75126
4.72367
4.69506
4.66549
4.6351
4.60404
4.5725
4.54068
4.5088
4.47705
4.44563
4.41476
4.38461
4.35539
4.32729
4.30048
4.27519
4.25159
4.22987
4.21023
4.19287
4.17792
4.1656
4.15607
4.14951
4.14621
4.14629
4.14687
4.14847
4.15202
4.15915
4.16902
4.18107
4.19487
4.20991
4.22554
4.24111
4.25601
4.26978
4.28207
4.29269