/*--------------------------------*- C++ -*----------------------------------*\
| =========                 |                                                 |
| \\      /  F ield         | OpenFOAM: The Open Source CFD Toolbox           |
|  \\    /   O peration     | Version:  2412                                  |
|   \\  /    A nd           | Website:  www.openfoam.com                      |
|    \\/     M anipulation  |                                                 |
\*---------------------------------------------------------------------------*/
FoamFile
{
    version     2.0;
    format      ascii;
    arch        "LSB;label=32;scalar=64";
    class       surfaceScalarField;
    location    "14";
    object      phi;
}
// * * * * * * * * * * * * * * * * * * * * * * * * * * * * * * * * * * * * * //

dimensions      [1 0 -1 0 0 0 0];

oriented        oriented;

internalField   nonuniform List<scalar> 
13790
(
0.00292377
-1.98073e-07
0.0027442
9.27726e-07
0.00280294
3.21485e-06
0.00280393
5.55381e-06
0.00279775
6.44684e-06
0.00279046
7.14148e-06
0.00278233
7.93635e-06
0.00277324
8.8893e-06
0.00276307
9.97942e-06
0.00275169
1.12281e-05
0.00273891
1.25624e-05
0.00272484
1.39459e-05
0.00270929
1.53809e-05
0.00269227
1.68817e-05
0.00267361
1.8464e-05
0.00265335
2.01293e-05
0.00263141
2.18877e-05
0.00260756
2.37355e-05
0.00258173
2.56823e-05
0.00255379
2.77317e-05
0.00252387
2.98966e-05
0.00249173
3.21868e-05
0.00245713
3.46036e-05
0.00241983
3.71559e-05
0.00237975
3.98495e-05
0.00233692
4.27059e-05
0.00229124
4.57442e-05
0.00224259
4.89849e-05
0.00219046
5.24434e-05
0.00213439
5.61169e-05
0.00207411
6.00118e-05
0.00200955
6.41226e-05
0.0019405
6.84684e-05
0.00186693
7.30263e-05
0.00178878
7.78286e-05
0.00170564
8.28436e-05
0.00161742
8.80573e-05
0.00152401
9.34453e-05
0.0014252
9.89745e-05
0.00132056
0.000104581
0.00121033
0.000110164
0.00109471
0.000115724
0.000973508
0.000121122
0.000846994
0.000126227
0.000715875
0.000130959
0.000580681
0.000135313
0.000441582
0.000139243
0.000299164
0.000142528
0.000152396
0.000146878
0.000152405
0.0030322
1.97705e-08
0.00284585
8.34037e-07
0.00290537
8.54683e-06
0.00290641
1.12234e-05
0.00290038
1.27544e-05
0.00289304
1.43278e-05
0.00288468
1.61067e-05
0.00287524
1.81139e-05
0.00286466
2.03602e-05
0.00285285
2.28843e-05
0.00283961
2.55812e-05
0.00282503
2.83908e-05
0.0028089
3.13136e-05
0.0027913
3.43735e-05
0.002772
3.75988e-05
0.00275096
4.09907e-05
0.00272815
4.45696e-05
0.00270344
4.83327e-05
0.00267678
5.23028e-05
0.00264787
5.64847e-05
0.00261675
6.08984e-05
0.00258326
6.55641e-05
0.00254735
7.04953e-05
0.00250884
7.57175e-05
0.00246741
8.12416e-05
0.00242287
8.70903e-05
0.00237512
9.32908e-05
0.00232424
9.98837e-05
0.00227001
0.00010691
0.00221203
0.000114377
0.00214987
0.000122303
0.00208328
0.000130677
0.00201186
0.00013952
0.00193556
0.000148785
0.0018544
0.000158536
0.00176806
0.000168715
0.0016765
0.000179312
0.00157962
0.000190281
0.00147716
0.000201563
0.00136864
0.000213024
0.00125427
0.000224469
0.00113422
0.000235881
0.00100827
0.000246987
0.000876689
0.000257512
0.000740204
0.00026728
0.000599381
0.00027626
0.000454466
0.000284309
0.000305987
0.000291122
0.00015423
0.000298749
0.000306642
0.00314491
9.14366e-08
0.00295135
1.1997e-06
0.00301328
1.37865e-05
0.00301427
1.71781e-05
0.00300811
1.92088e-05
0.00300063
2.16467e-05
0.00299203
2.45043e-05
0.00298228
2.7644e-05
0.00297133
3.11099e-05
0.00295909
3.49541e-05
0.0029454
3.90519e-05
0.00293031
4.33305e-05
0.00291362
4.77954e-05
0.00289542
5.24705e-05
0.00287545
5.73998e-05
0.00285367
6.25783e-05
0.00283006
6.80446e-05
0.00280449
7.37883e-05
0.00277692
7.98531e-05
0.00274701
8.62385e-05
0.00271477
9.29813e-05
0.00268009
0.000100104
0.00264296
0.000107639
0.00260317
0.000115622
0.00256032
0.00012407
0.00251419
0.000133016
0.00246469
0.000142495
0.002412
0.000152561
0.00235589
0.000163288
0.00229597
0.000174686
0.00223171
0.000186792
0.00216279
0.000199574
0.00208882
0.000213083
0.00200977
0.000227234
0.00192567
0.000242131
0.00183617
0.000257683
0.00174125
0.000273886
0.00164078
0.000290676
0.00153449
0.000307958
0.00142187
0.000325555
0.00130313
0.000343134
0.0011784
0.000360722
0.00104748
0.000377823
0.000910552
0.000394133
0.00076844
0.000409225
0.000621668
0.000423159
0.000470604
0.000435526
0.000315961
0.000445883
0.000158577
0.000456249
0.000465226
0.00326184
1.15171e-07
0.00306108
1.65286e-06
0.00312555
1.89521e-05
0.00312658
2.33353e-05
0.00312023
2.58681e-05
0.00311257
2.91367e-05
0.00310377
3.30988e-05
0.00309373
3.74639e-05
0.00308241
4.22119e-05
0.00306977
4.74227e-05
0.00305564
5.29571e-05
0.00304007
5.87553e-05
0.00302283
6.48097e-05
0.003004
7.11623e-05
0.00298339
7.78488e-05
0.00296094
8.48834e-05
0.00293655
9.22955e-05
0.00291006
0.000100093
0.00288153
0.000108313
0.00285069
0.000116985
0.00281747
0.000126132
0.00278162
0.000135806
0.00274312
0.000146021
0.00270191
0.000156853
0.00265772
0.00016832
0.00261022
0.000180485
0.00255913
0.000193364
0.00250453
0.000207035
0.00244634
0.000221568
0.00238426
0.00023701
0.00231794
0.000253407
0.00224693
0.000270789
0.00217072
0.00028913
0.00208909
0.000308401
0.0020021
0.000328629
0.00190938
0.000349811
0.00181103
0.000371811
0.00170685
0.000394706
0.00159665
0.000418222
0.00147981
0.000442275
0.00135656
0.0004663
0.001227
0.000490393
0.00109084
0.000513886
0.000948411
0.000536245
0.000800294
0.000557162
0.000647337
0.000576247
0.00048975
0.000593267
0.000328435
0.000607322
0.000164699
0.000620108
0.000629928
0.00338308
1.38356e-07
0.00317489
2.13762e-06
0.00324192
2.41431e-05
0.00324306
2.96226e-05
0.00323655
3.27056e-05
0.00322871
3.6803e-05
0.00321969
4.19038e-05
0.00320939
4.75335e-05
0.00319775
5.36309e-05
0.00318473
6.02585e-05
0.00317018
6.72807e-05
0.00315414
7.46403e-05
0.00313638
8.23408e-05
0.00311699
9.04229e-05
0.00309574
9.89319e-05
0.00307257
0.000107877
0.00304742
0.000117302
0.00302013
0.000127214
0.00299073
0.000137667
0.00295891
0.000148689
0.00292462
0.000160318
0.00288764
0.000172612
0.00284797
0.000185598
0.00280549
0.000199371
0.00275992
0.000213954
0.00271094
0.000229423
0.00265829
0.000245801
0.00260201
0.000263187
0.00254191
0.000281662
0.00247785
0.000301296
0.00240942
0.000322166
0.00233627
0.000344238
0.00225768
0.00036763
0.00217357
0.00039213
0.00208371
0.000417999
0.00198793
0.000444937
0.00188609
0.000473128
0.00177832
0.000502266
0.00166408
0.000532499
0.00154304
0.000563187
0.00141504
0.000594205
0.00128046
0.000625091
0.0011388
0.000655464
0.000990325
0.000684384
0.000836035
0.000711273
0.000676173
0.000736251
0.000511668
0.000757939
0.000343156
0.000775961
0.000171955
0.000791434
0.000801889
0.00350883
1.61762e-07
0.00329295
2.62876e-06
0.00336263
2.93751e-05
0.00336392
3.60099e-05
0.00335728
3.96963e-05
0.00334928
4.46318e-05
0.00334003
5.09201e-05
0.00332951
5.7821e-05
0.00331759
6.5324e-05
0.00330423
7.34303e-05
0.00328928
8.19973e-05
0.00327279
9.09627e-05
0.00325452
0.000100367
0.00323458
0.000110227
0.00321272
0.000120625
0.0031889
0.000131532
0.003163
0.000143044
0.0031349
0.000155123
0.00310462
0.000167885
0.0030719
0.000181313
0.00303664
0.000195514
0.00299857
0.000210494
0.00295766
0.000226342
0.00291397
0.00024311
0.00286715
0.000260916
0.00281679
0.000279772
0.00276251
0.000299774
0.00270454
0.000320939
0.00264278
0.000343505
0.00257693
0.000367435
0.00250649
0.000392938
0.00243108
0.000419903
0.00235013
0.000448474
0.00226339
0.000478443
0.00217082
0.000510064
0.00207194
0.000543131
0.00196685
0.00057764
0.00185533
0.000613536
0.00173727
0.000650575
0.00161173
0.000688578
0.00147918
0.000726651
0.00133922
0.000765176
0.00119191
0.000802666
0.00103713
0.000838834
0.000875805
0.000872416
0.000708925
0.000903275
0.000536387
0.000930663
0.000359799
0.000952686
0.000180517
0.00097085
0.000982406
0.00363927
1.85517e-07
0.00341538
3.12147e-06
0.00348784
3.46437e-05
0.00348932
4.24713e-05
0.00348259
4.67957e-05
0.00347445
5.25968e-05
0.00346505
6.00858e-05
0.00345431
6.83187e-05
0.00344212
7.72743e-05
0.00342844
8.69155e-05
0.00341313
9.70681e-05
0.00339623
0.000107701
0.0033775
0.000118851
0.00335701
0.000130559
0.00333457
0.000142885
0.00331012
0.000155831
0.00328357
0.00016947
0.00325468
0.000183805
0.00322352
0.000198913
0.00318989
0.000214837
0.00315377
0.000231646
0.00311472
0.00024942
0.00307266
0.000268182
0.0030276
0.000288066
0.00297949
0.000309108
0.00292793
0.000331484
0.00287241
0.000355181
0.00281278
0.00038033
0.00274912
0.000406994
0.00268142
0.000435369
0.0026093
0.000465564
0.00253195
0.000497634
0.0024487
0.000531577
0.00235938
0.000567261
0.00226409
0.000604828
0.00216229
0.000644243
0.00205398
0.000685396
0.00193892
0.000728324
0.00181681
0.000772715
0.00168695
0.000818272
0.00154932
0.000864159
0.00140424
0.000910375
0.00125075
0.000956078
0.00108942
0.000999779
0.000920744
0.0010409
0.000745586
0.0010786
0.000564851
0.00111159
0.000379063
0.00113862
0.00019004
0.00116001
0.00117245
0.00377457
2.09421e-07
0.00354236
3.61306e-06
0.00361774
3.99307e-05
0.00361944
4.89768e-05
0.00361267
5.39633e-05
0.00360442
6.06607e-05
0.00359491
6.93616e-05
0.00358398
7.89864e-05
0.00357157
8.94466e-05
0.00355761
0.000100668
0.00354198
0.000112457
0.0035247
0.000124809
0.00350555
0.00013776
0.00348458
0.000151368
0.00346159
0.000165682
0.00343653
0.000180722
0.00340934
0.000196549
0.00337978
0.000213191
0.00334782
0.000230718
0.00331325
0.000249194
0.0032762
0.000268675
0.00323633
0.000289295
0.00319335
0.000311062
0.00314708
0.00033413
0.00309758
0.000358523
0.00304477
0.000384445
0.00298808
0.000411941
0.00292719
0.000441132
0.00286183
0.000472114
0.00279214
0.00050499
0.00271796
0.000539986
0.00263902
0.000577173
0.00255412
0.000616764
0.00246268
0.000658385
0.00236461
0.000702286
0.00225988
0.000748207
0.00214836
0.000796329
0.00202996
0.000846521
0.00190401
0.000898755
0.00176974
0.000952415
0.00162708
0.0010067
0.00147615
0.00106146
0.00131661
0.00111554
0.00114803
0.00116798
0.000971576
0.00121713
0.000787677
0.00126261
0.000596886
0.00130258
0.000400958
0.00133469
0.000201431
0.00135968
0.00137388
0.00391491
2.33325e-07
0.00367405
4.10022e-06
0.00375251
4.52036e-05
0.00375448
5.54875e-05
0.00374771
6.11635e-05
0.0037394
6.87778e-05
0.00372977
7.87448e-05
0.00371875
8.97532e-05
0.00370618
0.000101767
0.003692
0.000114629
0.00367608
0.000128121
0.00365849
0.000142238
0.00363895
0.000157052
0.00361755
0.000172603
0.00359406
0.000188974
0.00356846
0.000206145
0.00354062
0.000224235
0.00351042
0.000243216
0.00347781
0.000263241
0.00344249
0.000284306
0.0034045
0.000306553
0.00336373
0.000330036
0.00331992
0.00035489
0.00327278
0.000381182
0.00322209
0.000409042
0.00316792
0.000438557
0.00311001
0.00046993
0.00304804
0.000503225
0.00298148
0.000538642
0.00291006
0.000576183
0.00283388
0.000616099
0.00275288
0.00065852
0.00266641
0.000703707
0.00257345
0.00075153
0.00247352
0.00080202
0.00236593
0.000854997
0.0022512
0.000910253
0.0021292
0.000968166
0.00199963
0.00102838
0.00186117
0.00109084
0.00171365
0.00115416
0.00155685
0.0012184
0.00139038
0.00128194
0.00121444
0.00134357
0.00102912
0.00140218
0.000835694
0.0014562
0.000634496
0.00150395
0.000426595
0.00154273
0.000214118
0.0015723
0.00158801
0.00406048
2.56927e-07
0.00381062
4.57853e-06
0.00389236
5.04099e-05
0.00389465
6.1951e-05
0.00388794
6.83438e-05
0.00387962
7.68917e-05
0.00386998
8.81334e-05
0.00385886
0.000100587
0.00384619
0.000114194
0.00383185
0.000128753
0.00381572
0.000143996
0.00379785
0.00015994
0.00377799
0.000176659
0.0037562
0.000194219
0.00373227
0.000212684
0.00370619
0.000232057
0.00367783
0.000252438
0.00364704
0.000273836
0.00361382
0.000296376
0.00357787
0.000320111
0.00353915
0.000345144
0.0034975
0.000371584
0.00345284
0.000399532
0.0034049
0.000429132
0.00335334
0.000460477
0.00329808
0.000493706
0.00323901
0.000528991
0.00317591
0.000566476
0.00310829
0.000606354
0.0030357
0.000648684
0.00295793
0.000693695
0.00287502
0.00074148
0.00278663
0.000792395
0.0026922
0.000846384
0.00259073
0.000903718
0.00248129
0.000963973
0.00236362
0.00102708
0.0022382
0.00109293
0.00210466
0.00116178
0.00196219
0.00123314
0.00180992
0.00130634
0.00164765
0.00138085
0.00147431
0.00145529
0.00128997
0.00152755
0.00109567
0.00159621
0.000891086
0.00166087
0.000677497
0.00171769
0.000456284
0.00176408
0.000229724
0.00179902
0.00181773
0.00421148
2.78769e-07
0.00395227
5.04324e-06
0.0040375
5.54693e-05
0.00404018
6.83101e-05
0.00403358
7.54535e-05
0.00402533
8.49347e-05
0.00401571
9.74836e-05
0.00400463
0.000111396
0.0039919
0.000126652
0.00397747
0.000142963
0.00396115
0.000160021
0.00394308
0.00017784
0.00392295
0.000196526
0.00390087
0.000216135
0.0038766
0.000236754
0.00385011
0.000258366
0.00382134
0.000281095
0.00379003
0.000304943
0.00375628
0.000330053
0.00371976
0.000356486
0.00368047
0.000384354
0.00363816
0.000413789
0.00359276
0.000444877
0.00354408
0.00047782
0.00349176
0.000512686
0.00343573
0.00054968
0.00337574
0.000588941
0.00331165
0.000630668
0.00324301
0.000675059
0.00316949
0.00072222
0.00309068
0.000772436
0.00300637
0.00082576
0.00291627
0.000882568
0.00282016
0.000942821
0.00271732
0.00100701
0.00260636
0.00107482
0.00248673
0.00114604
0.00235835
0.00122063
0.00222119
0.00129854
0.00207435
0.00137967
0.00191752
0.00146296
0.00174976
0.00154878
0.00156982
0.00163519
0.00137696
0.00172001
0.00117211
0.0018008
0.000956285
0.0018768
0.000728954
0.00194522
0.000491834
0.00200137
0.000247383
0.00204363
0.00206513
0.00436811
2.93435e-07
0.00409916
5.50184e-06
0.00418815
6.02639e-05
0.00419127
7.45195e-05
0.00418484
8.24366e-05
0.00417676
9.2798e-05
0.00416728
0.000106676
0.00415629
0.000122108
0.00414359
0.00013906
0.00412915
0.000157187
0.0041128
0.000176109
0.00409459
0.000195867
0.00407432
0.000216561
0.00405199
0.000238282
0.00402746
0.000261087
0.00400067
0.000284994
0.00397153
0.000310099
0.00393988
0.000336443
0.00390566
0.000364154
0.0038687
0.000393314
0.00382892
0.00042405
0.00378608
0.000456498
0.00374015
0.000490768
0.00369086
0.000527066
0.00363802
0.000565485
0.00358136
0.000606272
0.00352074
0.000649524
0.00345597
0.000695547
0.00338657
0.000744478
0.0033123
0.000796532
0.00323279
0.000851966
0.00314766
0.000910945
0.00305641
0.000973786
0.00295886
0.00104048
0.0028547
0.00111161
0.00274253
0.00118712
0.00262147
0.00126672
0.00249114
0.00135043
0.00235118
0.00143823
0.00220042
0.00152993
0.00203861
0.00162436
0.00186553
0.00172197
0.00167911
0.00182167
0.00147797
0.00192071
0.00126231
0.00201619
0.0010325
0.00210668
0.000789514
0.00218842
0.000534251
0.00225681
0.000269979
0.00230808
0.00233512
0.00453059
3.06027e-07
0.0042515
5.93552e-06
0.00434444
6.47997e-05
0.00434802
8.04417e-05
0.00434192
8.92015e-05
0.00433422
0.000100309
0.00432501
0.000115607
0.00431421
0.000132603
0.00430167
0.000151313
0.00428735
0.000171317
0.00427099
0.000192174
0.00425279
0.000213913
0.00423241
0.000236682
0.00421
0.000260543
0.00418528
0.000285601
0.00415828
0.000311819
0.00412888
0.000339353
0.00409694
0.000368203
0.00406243
0.000398551
0.00402514
0.000430453
0.00398504
0.000464078
0.0039419
0.000499548
0.00389557
0.00053702
0.00384592
0.000576662
0.00379272
0.000618665
0.00373575
0.000663205
0.00367473
0.000710513
0.00360958
0.00076077
0.00353982
0.000814311
0.00346514
0.000871228
0.00338521
0.00093194
0.00329972
0.000996551
0.00320795
0.00106555
0.00310961
0.00113879
0.00300463
0.00121701
0.00289169
0.0013003
0.00276963
0.00138852
0.00263801
0.00148169
0.00249616
0.0015799
0.00234274
0.00168304
0.00217676
0.00178995
0.00199807
0.00190066
0.0018051
0.00201468
0.00159559
0.00212984
0.00136889
0.00224258
0.00112529
0.0023504
0.000864168
0.00244987
0.000586946
0.00253429
0.000296499
0.0025987
0.00263164
0.00469914
3.26657e-07
0.00440949
6.30709e-06
0.00450653
6.91045e-05
0.00451085
8.58618e-05
0.00450544
9.53933e-05
0.00449811
0.000107443
0.00448928
0.000124146
0.00447889
0.000142745
0.00446656
0.000163304
0.00445243
0.000185249
0.00443619
0.000208104
0.00441804
0.000231883
0.0043977
0.000256776
0.00437521
0.000282832
0.00435049
0.00031017
0.00432334
0.000338744
0.00429388
0.000368713
0.00426176
0.000400112
0.00422714
0.000433083
0.00418969
0.000467763
0.00414942
0.000504245
0.00410614
0.000542762
0.00405967
0.00058339
0.0040099
0.000626405
0.00395659
0.000671925
0.00389959
0.000720234
0.00383855
0.000771523
0.00377335
0.000826035
0.00370361
0.00088411
0.003629
0.000945893
0.00354912
0.00101186
0.00346374
0.00108207
0.00337209
0.00115724
0.00327366
0.00123708
0.0031684
0.00132254
0.00305528
0.00141363
0.00293319
0.00151063
0.00280114
0.00161354
0.00265851
0.00172251
0.00250349
0.00183792
0.00233475
0.00195827
0.00215161
0.00208383
0.0019525
0.0022139
0.00173487
0.00234712
0.00149663
0.00248034
0.00123693
0.0026102
0.00095547
0.00273163
0.000652704
0.00283732
0.000332381
0.00291922
0.00296405
0.00487398
3.44915e-07
0.00457336
6.62954e-06
0.00467489
7.28934e-05
0.00468021
9.06655e-05
0.00467554
0.000100857
0.00466877
0.000114002
0.0046605
0.000132125
0.00465055
0.000152398
0.00463864
0.0001749
0.0046248
0.000198865
0.00460884
0.000223779
0.00459087
0.000249671
0.00457067
0.000276724
0.00454826
0.000305044
0.00452357
0.000334682
0.00449649
0.000365629
0.00446702
0.000398063
0.00443494
0.000431993
0.00440032
0.000467619
0.00436291
0.000505028
0.00432268
0.000544396
0.00427946
0.00058589
0.00423312
0.000629682
0.00418348
0.000675989
0.00413035
0.000725019
0.0040736
0.000777003
0.00401287
0.000832237
0.00394811
0.000890909
0.00387879
0.000953467
0.0038048
0.00102001
0.00372549
0.00109116
0.00364084
0.00116688
0.00355006
0.00124813
0.00345253
0.00133457
0.00334811
0.00142721
0.00323568
0.00152628
0.00311427
0.00163204
0.00298284
0.00174483
0.00284065
0.00186486
0.0026857
0.00199289
0.00251587
0.00212781
0.00232988
0.00226977
0.00212578
0.00241821
0.00190097
0.00257176
0.00165253
0.00272838
0.00137741
0.00288534
0.00107325
0.00303602
0.000738888
0.00317198
0.000377541
0.00328078
0.00334162
0.00505532
3.56827e-07
0.00474333
6.88785e-06
0.00484982
7.58969e-05
0.00485628
9.4605e-05
0.00485254
0.00010549
0.00484663
0.000119697
0.0048391
0.000139354
0.0048298
0.000161399
0.00481842
0.000185928
0.00480508
0.000212008
0.00478944
0.000239087
0.00477178
0.000267153
0.00475186
0.000296452
0.00472969
0.000327006
0.00470518
0.000359005
0.00467827
0.000392329
0.00464898
0.000427246
0.00461709
0.000463692
0.0045827
0.000501957
0.00454554
0.000542061
0.0045056
0.000584277
0.00446271
0.000628692
0.00441673
0.000675595
0.00436758
0.000725106
0.00431498
0.000777582
0.00425887
0.000833129
0.00419893
0.000892219
0.00413495
0.000954929
0.00406668
0.00102183
0.00399375
0.00109303
0.00391579
0.00116916
0.00383244
0.00125035
0.00374334
0.00133736
0.00364745
0.00143039
0.00354492
0.0015299
0.00343461
0.00163688
0.00331536
0.00175134
0.00318605
0.00187407
0.00304575
0.00200526
0.00289267
0.00214611
0.00272437
0.00229598
0.00253866
0.00245557
0.00233233
0.00262476
0.00210193
0.00280194
0.00184372
0.0029862
0.00155301
0.00317603
0.00122477
0.00336441
0.000855109
0.00354192
0.000443889
0.00369222
0.00378555
0.0052434
3.64548e-07
0.00491964
7.04869e-06
0.00503151
7.78636e-05
0.0050395
9.73173e-05
0.00503703
0.000108938
0.00503223
0.00012429
0.00502564
0.000145629
0.00501722
0.000169521
0.00500661
0.000196201
0.00499381
0.000224539
0.00497876
0.000253892
0.00496147
0.000284211
0.00494192
0.00031579
0.00492009
0.000348634
0.00489596
0.000382981
0.00486934
0.000418727
0.0048404
0.000456073
0.00480883
0.000495062
0.00477478
0.000535874
0.00473805
0.000578682
0.00469857
0.000623619
0.00465627
0.000670946
0.00461096
0.000720795
0.00456258
0.000773482
0.00451091
0.000829186
0.00445585
0.000888249
0.00439716
0.000950934
0.00433462
0.00101759
0.00426796
0.00108858
0.00419689
0.00116425
0.004121
0.00124514
0.00403995
0.00133148
0.00395343
0.00142411
0.0038605
0.00152325
0.00376082
0.00162967
0.00365392
0.00174395
0.0035385
0.00186699
0.0034133
0.00199923
0.00327729
0.00214153
0.00312833
0.00229525
0.00296402
0.00246006
0.00278197
0.00263779
0.00257813
0.00282887
0.00234807
0.003032
0.00208575
0.00324819
0.00178388
0.00347773
0.00143197
0.00371644
0.00101881
0.00395527
0.000537929
0.00417339
0.00432354
0.00543848
3.55409e-07
0.00510253
7.09028e-06
0.00522049
7.82847e-05
0.00523043
9.83755e-05
0.00522963
0.000110804
0.0052263
0.000127414
0.005221
0.000150597
0.00521368
0.000176562
0.00520394
0.000205582
0.00519183
0.000236372
0.00517734
0.000268106
0.0051605
0.000300765
0.00514141
0.000334661
0.00511994
0.000369887
0.00509626
0.000406568
0.00507008
0.000444732
0.00504167
0.000484468
0.00501066
0.000525951
0.00497725
0.00056925
0.0049412
0.000614673
0.00490255
0.00066224
0.00486109
0.000712352
0.00481679
0.000765028
0.00476953
0.000820724
0.00471916
0.000879516
0.00466561
0.000941863
0.00460861
0.00100798
0.00454809
0.00107826
0.00448361
0.00115314
0.00441518
0.00123287
0.00434215
0.00131826
0.00426444
0.0014093
0.00418156
0.00150717
0.00409297
0.00161195
0.00399806
0.00172474
0.00389613
0.00184601
0.00378646
0.00197682
0.00366761
0.0021181
0.00353878
0.00227062
0.00339741
0.00243687
0.00324175
0.00261574
0.00306992
0.0028097
0.00287538
0.00302372
0.00265006
0.00325726
0.00238868
0.00350947
0.00208233
0.00378392
0.00171569
0.00408311
0.00126539
0.00440577
0.000701046
0.00473796
0.00502466
0.00564091
2.68403e-07
0.00529213
7.13742e-06
0.00541713
7.64303e-05
0.00542952
9.72696e-05
0.00543072
0.000110704
0.00542916
0.000128766
0.00542545
0.000154064
0.00541939
0.00018242
0.00541061
0.000214138
0.00539934
0.000247543
0.00538543
0.000281745
0.00536927
0.000316785
0.00535076
0.000353019
0.00532978
0.000390604
0.00530664
0.000429631
0.00528111
0.000470124
0.00525327
0.000512238
0.00522303
0.000556082
0.00519043
0.000601834
0.00515536
0.000649687
0.00511772
0.000699832
0.00507758
0.00075249
0.00503466
0.000807927
0.00498908
0.00086633
0.00494048
0.00092812
0.00488901
0.000993388
0.00483427
0.00106278
0.00477636
0.00113628
0.00471482
0.00121478
0.00464967
0.00129816
0.00458053
0.00138756
0.00450701
0.00148289
0.00442913
0.00158531
0.00434598
0.00169523
0.00425748
0.00181341
0.0041627
0.00194106
0.00406107
0.0020786
0.0039511
0.00222812
0.00383298
0.00238892
0.00370646
0.00256361
0.00356468
0.00275768
0.00340399
0.00297051
0.00322459
0.00320347
0.00301987
0.00346227
0.00277871
0.00375034
0.0024873
0.00407509
0.0021256
0.00444471
0.00165301
0.00487852
0.000999238
0.00539204
0.00602399
0.00585113
1.67495e-07
0.00548823
7.07518e-06
0.00562055
7.31573e-05
0.00563623
9.32718e-05
0.00564045
0.000107792
0.0056415
0.000127552
0.00563972
0.000155547
0.00563512
0.000186771
0.00562741
0.000221572
0.00561686
0.000257844
0.00560373
0.000294649
0.00558819
0.000332134
0.00557029
0.000370756
0.00555009
0.000410644
0.0055276
0.000452
0.0055028
0.000494778
0.00547586
0.000539173
0.00544657
0.000585289
0.00541499
0.000633338
0.00538114
0.000683501
0.0053449
0.000736025
0.00530633
0.000791079
0.00526523
0.000849002
0.00522169
0.000909937
0.00517546
0.000974364
0.00512658
0.00104235
0.00507485
0.00111456
0.00502022
0.00119102
0.00496259
0.00127256
0.00490162
0.00135925
0.00483743
0.00145196
0.00476934
0.00155104
0.00469765
0.0016572
0.00462167
0.00177134
0.0045412
0.00189403
0.00445554
0.00202695
0.00436535
0.00216899
0.00427097
0.00232269
0.0041668
0.00249328
0.00405106
0.00267956
0.00392679
0.00288213
0.00379133
0.00310607
0.00364023
0.00335476
0.00346825
0.00363475
0.0032672
0.00395137
0.00302507
0.00431685
0.00271789
0.00475186
0.0022967
0.00529989
0.00164608
0.00604289
0.00767011
0.00846072
1.35434e-07
0.00793317
6.16342e-06
0.00813095
6.41243e-05
0.00815906
8.2273e-05
0.00817102
9.77672e-05
0.00817739
0.000120977
0.00817897
0.000153542
0.00817576
0.000189623
0.00816761
0.000229351
0.00815505
0.000270005
0.00813888
0.000310579
0.00811921
0.000351499
0.00809645
0.000393365
0.00807032
0.000436479
0.00804133
0.000480862
0.00800926
0.000526682
0.00797437
0.000573957
0.0079366
0.000623006
0.00789592
0.000673886
0.00785252
0.000726946
0.00780619
0.000782303
0.00775706
0.000840267
0.00770495
0.000901063
0.00765007
0.000964961
0.00759215
0.00103233
0.00753129
0.00110337
0.00746735
0.00117861
0.00740028
0.00125824
0.00733013
0.00134291
0.00725667
0.00143288
0.00718002
0.00152889
0.00709988
0.00163136
0.00701616
0.00174119
0.00692929
0.0018584
0.00683992
0.00198362
0.00674815
0.00211896
0.00664973
0.0022677
0.00654446
0.00242829
0.0064366
0.0026015
0.00632648
0.00279004
0.00621048
0.0029985
0.00609002
0.00322682
0.0059636
0.00348143
0.0058336
0.0037651
0.00570138
0.00408433
0.00557142
0.00444639
0.00547728
0.00484549
0.00549969
0.00527768
0.00590918
0.00563379
0.00547246
0.00810704
0.0084625
1.05558e-07
0.00793263
3.84459e-06
0.00814534
4.21177e-05
0.00818439
6.05636e-05
0.00820566
7.84677e-05
0.00821901
0.000107404
0.00822473
0.000147427
0.00822374
0.000190213
0.00821659
0.000236205
0.00820492
0.000281319
0.00818994
0.000325343
0.00817166
0.000369413
0.00815057
0.0004143
0.00812658
0.000460295
0.0080999
0.000507395
0.00807074
0.000555767
0.00803911
0.000605526
0.00800521
0.000656943
0.00796885
0.000710192
0.00793033
0.000765518
0.00788943
0.000823165
0.00784644
0.000883329
0.00780117
0.000946355
0.00775385
0.0010124
0.00770436
0.00108191
0.00765286
0.00115503
0.00759932
0.00123233
0.00754382
0.00131393
0.00748642
0.00140052
0.00742719
0.00149233
0.00736608
0.00159024
0.00730423
0.00169345
0.00724229
0.00180338
0.00717836
0.00192259
0.0071112
0.00205103
0.00704217
0.00218825
0.00697511
0.00233503
0.00690989
0.0024938
0.00684632
0.00266539
0.00678532
0.00285138
0.00673143
0.00305276
0.00668504
0.00327365
0.00665605
0.00351076
0.00664803
0.00377346
0.00668191
0.0040509
0.00678039
0.00434835
0.00698655
0.00463893
0.00738215
0.00488179
0.00799659
0.0050193
0.00466973
0.00879962
0.0084632
1.61917e-07
0.00793239
7.31031e-07
0.00816036
5.78397e-06
0.00821784
2.05501e-05
0.00825434
4.39862e-05
0.00827739
8.41173e-05
0.00828821
0.00013621
0.00828823
0.00018981
0.00828199
0.00024215
0.00827186
0.000291189
0.00825861
0.000338466
0.00824212
0.000385698
0.00822269
0.000433568
0.00820056
0.00048226
0.00817593
0.000531806
0.00814915
0.000582398
0.00812029
0.000634292
0.0080895
0.000687694
0.00805678
0.000742883
0.00802228
0.000800027
0.00798603
0.000859434
0.00794817
0.000921254
0.00790877
0.000985846
0.00786795
0.00105335
0.00782584
0.00112417
0.00778256
0.00119849
0.00773833
0.00127676
0.0076932
0.00135927
0.00764779
0.00144619
0.00760279
0.00153757
0.00755883
0.00163445
0.00751355
0.00173896
0.00746719
0.00184999
0.00742272
0.00196732
0.00738187
0.00209213
0.00734409
0.00222629
0.00731046
0.00236892
0.00728176
0.00252277
0.00726107
0.00268635
0.00724979
0.00286298
0.00725253
0.00305034
0.00727467
0.00325194
0.00732241
0.00346342
0.00741136
0.0036849
0.00755135
0.00391128
0.00777196
0.0041283
0.00808704
0.00432412
0.00851279
0.00445594
0.00903039
0.00450139
0.0042443
0.00945566
0.00846176
1.34583e-06
0.00793873
-9.91687e-06
0.008214
-7.77367e-05
0.0083011
-4.90905e-05
0.00834641
7.33592e-07
0.00836653
6.37732e-05
0.00837038
0.000131972
0.00836569
0.000194137
0.00835758
0.00024998
0.00834781
0.000300745
0.00833552
0.000350588
0.00832034
0.000400728
0.00830259
0.000451173
0.00828267
0.000502002
0.00826091
0.00055342
0.00823747
0.00060572
0.00821244
0.00065926
0.00818589
0.00071422
0.00815789
0.000770906
0.0081285
0.000829468
0.00809778
0.000890227
0.00806582
0.000953314
0.00803274
0.00101905
0.00799866
0.00108758
0.00796382
0.00115921
0.00792823
0.00123427
0.00789273
0.00131252
0.00785782
0.00139443
0.00782312
0.00148116
0.00778765
0.00157331
0.00775244
0.00166998
0.00772014
0.00177158
0.0076915
0.00187897
0.00766613
0.00199302
0.00764529
0.00211331
0.00763067
0.00224119
0.00762358
0.0023764
0.00762682
0.00251978
0.00764188
0.0026717
0.00767347
0.0028316
0.00772387
0.00300036
0.00780092
0.00317513
0.00790876
0.00335605
0.00805758
0.00353644
0.00825726
0.003712
0.00851456
0.00387147
0.00884071
0.00399845
0.00922066
0.00407635
0.00967495
0.00404713
0.00392498
0.00999421
0.00845142
9.98926e-06
0.00797899
-6.57826e-05
0.00836055
-0.000271456
0.00854167
-0.000213173
0.00858477
-4.04114e-05
0.00857563
7.28773e-05
0.00855893
0.000148435
0.00854306
0.000209778
0.00853017
0.000262601
0.00851688
0.000313791
0.00850046
0.000366765
0.00848116
0.000419831
0.00845978
0.000472376
0.00843699
0.000524668
0.00841292
0.000577396
0.00838766
0.000630912
0.00836137
0.000685509
0.00833417
0.000741418
0.00830624
0.000798886
0.00827764
0.000858126
0.00824857
0.000919398
0.00821907
0.000982927
0.00818934
0.00104893
0.00815964
0.00111744
0.00813056
0.0011885
0.00810243
0.00126263
0.00807416
0.00134103
0.00804575
0.00142309
0.00801867
0.00150854
0.00799432
0.00159796
0.00797259
0.00169204
0.00795381
0.00179073
0.00793858
0.0018946
0.00792867
0.00200333
0.00792428
0.00211814
0.00792804
0.0022378
0.0079407
0.0023642
0.00796552
0.0024953
0.00800478
0.00263288
0.00806205
0.00277468
0.00814191
0.00292086
0.00824795
0.00306946
0.0083875
0.00321678
0.00856319
0.0033612
0.0087831
0.00349236
0.00904715
0.00360789
0.00935672
0.00368925
0.00970448
0.00372909
0.0100528
0.0036991
0.00359006
0.0103878
0.00851926
1.57495e-05
0.0082475
-0.000395337
0.0087924
-0.000606922
0.00889002
-0.000291691
0.00887167
-1.947e-05
0.00880417
0.00014022
0.00877232
0.000179882
0.00875244
0.000229243
0.00874284
0.000271825
0.00872837
0.000327932
0.00870943
0.000385441
0.00868834
0.000440703
0.00866621
0.000494336
0.00864312
0.000547626
0.00861896
0.000601457
0.00859369
0.000656131
0.00856727
0.000711909
0.00853982
0.000768877
0.00851144
0.000827316
0.00848234
0.000887315
0.00845254
0.00094932
0.00842246
0.00101315
0.00839259
0.00107898
0.00836304
0.00114717
0.00833309
0.00121867
0.00830355
0.00129244
0.00827612
0.00136872
0.00825171
0.00144779
0.00822991
0.00153064
0.00821166
0.00161654
0.00819725
0.00170678
0.00818792
0.00180043
0.00818406
0.00189884
0.00818692
0.00200089
0.00819764
0.0021079
0.00821707
0.00221878
0.00824772
0.00233404
0.0082901
0.00245331
0.00834832
0.00257512
0.008423
0.00270041
0.00851956
0.00282472
0.00863929
0.00295014
0.00878776
0.00306867
0.00896702
0.00318232
0.00918005
0.0032797
0.00942772
0.00336056
0.00970626
0.00341109
0.0100123
0.0034234
0.0103174
0.00339447