/*--------------------------------*- C++ -*----------------------------------*\
| =========                 |                                                 |
| \\      /  F ield         | OpenFOAM: The Open Source CFD Toolbox           |
|  \\    /   O peration     | Version:  2412                                  |
|   \\  /    A nd           | Website:  www.openfoam.com                      |
|    \\/     M anipulation  |                                                 |
\*---------------------------------------------------------------------------*/
FoamFile
{
    version     2.0;
    format      ascii;
    arch        "LSB;label=32;scalar=64";
    class       volScalarField;
    location    "14";
    object      T;
}
// * * * * * * * * * * * * * * * * * * * * * * * * * * * * * * * * * * * * * //

dimensions      [0 0 0 1 0 0 0];

internalField   nonuniform List<scalar> 
7000
(
1.31909
2.65657
2.71952
2.67049
2.66518
2.64834
2.64501
2.6477
2.64993
2.65203
2.65342
2.65444
2.65551
2.657
2.65838
2.66027
2.66176
2.6637
2.66559
2.66785
2.67011
2.67224
2.67461
2.67711
2.68004
2.683
2.68594
2.68871
2.69125
2.69426
2.69764
2.70168
2.70567
2.71032
2.71436
2.71849
2.7225
2.72623
2.72951
2.73262
2.73654
2.73936
2.74221
2.7455
2.74912
2.75105
2.75192
2.75263
2.75214
2.75222
1.31915
2.65679
2.71977
2.67059
2.6653
2.64847
2.64513
2.64782
2.65005
2.65215
2.65352
2.65454
2.65566
2.65713
2.65845
2.66032
2.66189
2.6639
2.6657
2.66782
2.67009
2.67242
2.67493
2.6773
2.67993
2.68275
2.68591
2.68908
2.69191
2.69482
2.69773
2.70119
2.70475
2.70927
2.71343
2.71785
2.72213
2.72605
2.72942
2.73257
2.7365
2.7393
2.74213
2.74541
2.74902
2.75091
2.75177
2.75238
2.75182
2.75179
1.31913
2.6567
2.71967
2.67057
2.66527
2.64841
2.64507
2.64777
2.64997
2.65209
2.65343
2.65447
2.65556
2.65706
2.65834
2.66023
2.66179
2.66382
2.66558
2.66768
2.66996
2.67233
2.67484
2.67714
2.67971
2.68252
2.68575
2.689
2.69184
2.69466
2.69741
2.70079
2.70433
2.70887
2.71305
2.71751
2.72183
2.72577
2.72919
2.73235
2.7363
2.73907
2.74193
2.74515
2.7488
2.75063
2.75152
2.75215
2.75155
2.75157
1.31911
2.65653
2.71949
2.67057
2.66521
2.6483
2.64498
2.64761
2.6499
2.65192
2.65336
2.65428
2.65546
2.65688
2.65827
2.66002
2.66161
2.66359
2.6655
2.66753
2.66974
2.67197
2.6746
2.67704
2.67963
2.68223
2.68528
2.68853
2.6916
2.6946
2.69747
2.7005
2.70377
2.7079
2.71209
2.71649
2.72105
2.72502
2.72865
2.73183
2.73585
2.73866
2.74151
2.74483
2.7483
2.75025
2.75103
2.75163
2.75113
2.75098
1.31907
2.6563
2.71926
2.67059
2.66517
2.64818
2.64485
2.6475
2.64973
2.65179
2.65316
2.65412
2.65527
2.6567
2.65805
2.65981
2.66141
2.66338
2.66524
2.66725
2.66948
2.67173
2.67434
2.67671
2.67931
2.6819
2.68494
2.6881
2.6912
2.69433
2.69712
2.70026
2.70315
2.7074
2.7111
2.71578
2.72
2.7244
2.72764
2.73119
2.73486
2.7379
2.74065
2.74398
2.74779
2.74937
2.75045
2.75091
2.75019
2.75039
1.31903
2.65601
2.71896
2.67063
2.66512
2.64804
2.64467
2.64742
2.64946
2.65168
2.65286
2.65399
2.65495
2.65655
2.6577
2.65963
2.66101
2.66318
2.66484
2.66704
2.66901
2.67141
2.67386
2.67646
2.67877
2.68142
2.68428
2.68777
2.69064
2.69376
2.69638
2.69958
2.70259
2.7067
2.71056
2.71491
2.71939
2.72342
2.72712
2.73008
2.73429
2.7366
2.73974
2.74281
2.74654
2.74865
2.74916
2.75
2.74947
2.74912
1.31898
2.65566
2.7186
2.67068
2.66505
2.64785
2.64447
2.64715
2.64928
2.65139
2.65266
2.65365
2.65471
2.65617
2.65747
2.65924
2.66072
2.66267
2.66455
2.6666
2.6687
2.67077
2.67338
2.67586
2.67855
2.68087
2.68368
2.68672
2.6901
2.69317
2.69588
2.69852
2.70163
2.70567
2.70977
2.71394
2.71844
2.72234
2.72601
2.72915
2.7331
2.73594
2.73824
2.74168
2.74507
2.74713
2.74822
2.74844
2.74776
2.74814
1.31892
2.65522
2.71817
2.67075
2.66498
2.6476
2.64423
2.64682
2.64906
2.65101
2.65241
2.65324
2.65443
2.65571
2.65715
2.65875
2.66038
2.66212
2.66407
2.66604
2.66833
2.67023
2.6727
2.67505
2.67795
2.68037
2.68299
2.68581
2.68894
2.69235
2.69529
2.69817
2.70039
2.70412
2.70798
2.71269
2.717
2.72117
2.72435
2.72757
2.73143
2.73441
2.7372
2.73998
2.74361
2.74527
2.74613
2.74717
2.74661
2.74601
1.31885
2.65471
2.71765
2.67084
2.66489
2.64733
2.64391
2.64658
2.64863
2.65074
2.65193
2.65294
2.65387
2.65538
2.65653
2.65838
2.65972
2.66175
2.66335
2.66551
2.66753
2.66979
2.67191
2.67433
2.67685
2.67968
2.68221
2.68499
2.68767
2.69097
2.69425
2.69738
2.69987
2.70267
2.70599
2.71003
2.71513
2.71921
2.72297
2.72554
2.72931
2.73201
2.73507
2.73847
2.7415
2.74372
2.74427
2.74448
2.74386
2.74446
1.31877
2.65411
2.71704
2.67094
2.66479
2.647
2.64355
2.64616
2.6483
2.65023
2.65156
2.65236
2.65347
2.65474
2.65609
2.6577
2.65919
2.66102
2.66275
2.66469
2.66676
2.66891
2.67117
2.6734
2.67589
2.67853
2.68125
2.68392
2.68654
2.68952
2.69265
2.69603
2.69883
2.70169
2.70416
2.70768
2.712
2.71687
2.72067
2.72394
2.72708
2.72966
2.73201
2.73552
2.7394
2.74062
2.74194
2.74265
2.74207
2.74111
1.31867
2.6534
2.71634
2.67105
2.66467
2.64662
2.64312
2.64573
2.64777
2.64978
2.65095
2.65191
2.65281
2.65422
2.65535
2.65708
2.65841
2.66026
2.66194
2.66384
2.66585
2.66789
2.67017
2.67236
2.67477
2.67733
2.67991
2.68263
2.68519
2.68811
2.69092
2.69419
2.6971
2.70027
2.70259
2.70541
2.70916
2.7135
2.71776
2.72135
2.72512
2.72716
2.72917
2.73203
2.73613
2.73842
2.73841
2.73852
2.73786
2.73872
1.31857
2.6526
2.71554
2.67117
2.66453
2.64617
2.64265
2.64517
2.64729
2.64916
2.6504
2.65115
2.6522
2.65337
2.65469
2.65614
2.65764
2.65928
2.66102
2.66282
2.66481
2.66677
2.66904
2.6711
2.67357
2.67585
2.67856
2.68098
2.68366
2.68639
2.68916
2.69208
2.69494
2.69818
2.70072
2.70321
2.70643
2.71013
2.71399
2.7175
2.72196
2.72476
2.72617
2.72826
2.73172
2.73403
2.73551
2.73572
2.73507
2.73355
1.31845
2.65172
2.71459
2.67142
2.66436
2.64568
2.64206
2.64456
2.64665
2.64845
2.64964
2.65042
2.65132
2.65258
2.65367
2.65529
2.65655
2.65834
2.65985
2.66177
2.66355
2.66558
2.66761
2.66981
2.67201
2.67438
2.67676
2.67935
2.68171
2.68449
2.68705
2.68991
2.69245
2.69566
2.69827
2.70057
2.70337
2.70672
2.71
2.71318
2.71717
2.72073
2.72282
2.72451
2.7273
2.72938
2.72954
2.7294
2.72859
2.72976
1.31833
2.65076
2.71346
2.67203
2.66378
2.64512
2.64139
2.64389
2.6458
2.64773
2.64869
2.64963
2.65032
2.65168
2.65266
2.6542
2.65551
2.65708
2.65874
2.66036
2.66231
2.66407
2.66617
2.66817
2.67039
2.67258
2.67487
2.6773
2.67963
2.68219
2.68465
2.68737
2.68968
2.69273
2.6953
2.69772
2.70016
2.70286
2.7058
2.70818
2.71184
2.71519
2.71773
2.71947
2.72161
2.72366
2.72477
2.72488
2.72398
2.72159
1.3182
2.64967
2.71222
2.67264
2.6631
2.64449
2.64065
2.64309
2.645
2.64679
2.64783
2.64855
2.64936
2.65051
2.65158
2.65298
2.65426
2.65578
2.65733
2.65895
2.66075
2.66249
2.66448
2.66638
2.66852
2.6706
2.67279
2.6751
2.67723
2.67977
2.68186
2.6847
2.68655
2.6895
2.69168
2.69402
2.69627
2.69875
2.70124
2.70301
2.70574
2.70871
2.71143
2.71364
2.71544
2.71592
2.71575
2.71482
2.7144
2.7152
1.31804
2.64845
2.7109
2.67314
2.66251
2.64376
2.6398
2.64222
2.64401
2.64583
2.64669
2.64754
2.64812
2.64938
2.65017
2.65174
2.65274
2.65441
2.65566
2.65739
2.65889
2.66073
2.66243
2.66443
2.66622
2.6684
2.67024
2.67254
2.67448
2.67682
2.67886
2.68128
2.68332
2.6856
2.68808
2.68974
2.6919
2.69377
2.69603
2.69742
2.69929
2.70107
2.70276
2.70506
2.70752
2.70833
2.70801
2.70723
2.70454
2.70139
1.31787
2.64712
2.70946
2.67369
2.66182
2.64297
2.63883
2.64134
2.6428
2.64477
2.64545
2.64627
2.64682
2.64801
2.64874
2.65019
2.65121
2.65269
2.65402
2.65556
2.6571
2.65877
2.66043
2.66226
2.66401
2.66595
2.66774
2.66974
2.67158
2.67362
2.67547
2.6776
2.67946
2.68138
2.68349
2.68532
2.68684
2.68847
2.69004
2.69096
2.69241
2.69353
2.69397
2.69489
2.69641
2.69603
2.69424
2.69093
2.68949
2.68843
1.3177
2.64568
2.70791
2.67423
2.66107
2.64205
2.63777
2.64018
2.64159
2.64346
2.64413
2.64488
2.64545
2.64645
2.64736
2.64845
2.64965
2.65072
2.65222
2.65336
2.65507
2.6563
2.6582
2.65956
2.66154
2.66303
2.66497
2.66658
2.66838
2.67016
2.67173
2.67371
2.67509
2.67693
2.67825
2.67991
2.68109
2.68221
2.6833
2.68343
2.68408
2.6841
2.68373
2.68322
2.6838
2.68349
2.68105
2.6758
2.66806
2.66129
1.3175
2.64415
2.70629
2.67477
2.66024
2.64111
2.63657
2.6388
2.64024
2.64177
2.64249
2.64307
2.64355
2.64445
2.64537
2.64633
2.64747
2.64855
2.64986
2.65104
2.65248
2.65383
2.6553
2.65685
2.65828
2.66003
2.66138
2.66327
2.66448
2.66646
2.66752
2.66938
2.67049
2.67185
2.67305
2.67391
2.67485
2.67531
2.67597
2.67579
2.67486
2.67412
2.67156
2.66938
2.66587
2.66265
2.6583
2.64854
2.63732
2.62346
1.31738
2.64296
2.70396
2.67503
2.65899
2.63959
2.63483
2.63713
2.63825
2.63994
2.64052
2.64109
2.6415
2.64242
2.64302
2.64419
2.64498
2.64616
2.64719
2.64849
2.64959
2.65103
2.65218
2.65373
2.65486
2.65653
2.65763
2.65932
2.66037
2.66192
2.66298
2.66419
2.66533
2.66604
2.66699
2.66722
2.66761
2.66741
2.66699
2.66599
2.66488
2.66226
2.66006
2.65428
2.65015
2.64218
2.63209
2.61497
2.58392
2.51125
1.31739
2.64215
2.69939
2.67548
2.65752
2.6378
2.63268
2.63488
2.63582
2.63741
2.63796
2.63834
2.6388
2.63934
2.64022
2.64085
2.64193
2.64263
2.64382
2.64467
2.64587
2.64686
2.64806
2.64917
2.65029
2.65148
2.65253
2.65372
2.65471
2.65573
2.65661
2.65734
2.65799
2.65837
2.65866
2.65838
2.65778
2.65683
2.65481
2.65268
2.64833
2.64467
2.637
2.63075
2.61737
2.60523
2.58504
2.55191
2.49349
2.36505
1.31737
2.64116
2.69472
2.67562
2.65559
2.63542
2.62979
2.63193
2.63272
2.6342
2.63478
2.63506
2.63553
2.63592
2.63669
2.63726
2.6381
2.63877
2.63961
2.64045
2.64126
2.64223
2.64298
2.64401
2.64468
2.64568
2.64624
2.64715
2.64758
2.64831
2.64852
2.64904
2.649
2.64884
2.64842
2.64789
2.64644
2.64521
2.64217
2.63975
2.63471
2.62859
2.62096
2.60746
2.59437
2.56781
2.54083
2.49304
2.42054
2.3213
1.31734
2.64049
2.69226
2.67547
2.65399
2.63313
2.62689
2.62876
2.62949
2.63093
2.63147
2.63164
2.63196
2.63233
2.63293
2.63354
2.6342
2.63488
2.63556
2.6363
2.63699
2.63777
2.63843
2.63917
2.63976
2.6404
2.64085
2.64127
2.64151
2.64163
2.64146
2.64107
2.64054
2.63932
2.63815
2.63575
2.63379
2.62979
2.62674
2.62042
2.61582
2.60576
2.5982
2.58306
2.5661
2.54222
2.50576
2.46289
2.39297
2.31976
1.31722
2.63935
2.69144
2.67427
2.65204
2.63032
2.62362
2.62558
2.6264
2.62789
2.62837
2.62839
2.62847
2.6287
2.62892
2.62938
2.62963
2.63013
2.63039
2.63092
2.6312
2.63176
2.63204
2.6326
2.63287
2.63334
2.63359
2.63397
2.63405
2.6341
2.63398
2.63363
2.63306
2.63176
2.63055
2.6279
2.62546
2.62106
2.61616
2.60953
2.60095
2.59125
2.57721
2.56287
2.54111
2.51739
2.48422
2.44266
2.3903
2.32837
1.31689
2.64006
2.70378
2.67129
2.65247
2.62909
2.6218
2.6245
2.62543
2.62727
2.62771
2.62766
2.62758
2.6276
2.62766
2.62773
2.62776
2.62775
2.6277
2.6276
2.62749
2.62726
2.62706
2.62666
2.62636
2.62578
2.62537
2.62448
2.62395
2.62277
2.62207
2.62055
2.61957
2.61773
2.61592
2.61367
2.61048
2.6072
2.60188
2.59629
2.5878
2.57793
2.56488
2.54811
2.52871
2.5021
2.4734
2.43425
2.39142
2.34427
1.30175
2.58636
2.69835
2.6777
2.65996
2.63644
2.62958
2.63249
2.63356
2.63512
2.63499
2.63455
2.63387
2.63331
2.6327
2.63214
2.63148
2.63088
2.63018
2.62959
2.62885
2.62828
2.62748
2.62693
2.62598
2.62542
2.62412
2.62318
2.62127
2.61992
2.61717
2.61538
2.6117
2.60945
2.60487
2.60188
2.59655
2.59216
2.586
2.57931
2.57156
2.56123
2.55026
2.53446
2.51764
2.49434
2.46858
2.43598
2.39768
2.35804
1.72107
2.46844
2.72853
2.70651
2.6842
2.67377
2.67426
2.67579
2.67717
2.67747
2.67622
2.6749
2.67318
2.67155
2.66951
2.66747
2.665
2.66257
2.65968
2.65691
2.65362
2.65055
2.64695
2.64362
2.6396
2.63571
2.63124
2.62793
2.62412
2.62126
2.6178
2.61457
2.61082
2.60648
2.60196
2.59604
2.59064
2.58282
2.57642
2.56649
2.55844
2.54605
2.53523
2.51958
2.50429
2.48389
2.46218
2.43518
2.40555
2.37267
1.73298
2.46152
2.72298
2.70176
2.67728
2.66816
2.67199
2.67367
2.67629
2.67715
2.67725
2.6771
2.6768
2.67648
2.67575
2.67513
2.67377
2.67281
2.67076
2.66946
2.66674
2.66501
2.66175
2.65933
2.65574
2.65285
2.64899
2.64457
2.63959
2.63369
2.62781
2.62101
2.61523
2.60862
2.60324
2.59586
2.59003
2.58111
2.57357
2.5628
2.55293
2.53998
2.52717
2.51157
2.49517
2.47622
2.45554
2.43233
2.40714
2.381
1.72971
2.46705
2.72495
2.70205
2.67369
2.66409
2.66889
2.67126
2.6744
2.67551
2.6758
2.67592
2.67602
2.67598
2.67585
2.6755
2.67504
2.67435
2.67375
2.6725
2.67156
2.66967
2.66834
2.66567
2.66379
2.66024
2.65776
2.65333
2.65007
2.64453
2.64055
2.63364
2.6283
2.61907
2.61218
2.60183
2.59387
2.58351
2.5748
2.56357
2.55312
2.54023
2.52723
2.51188
2.49581
2.47729
2.45762
2.43568
2.41213
2.38916
1.73242
2.46029
2.72034
2.69649
2.67057
2.66078
2.66533
2.66747
2.67067
2.67185
2.67229
2.67247
2.67284
2.67304
2.67332
2.6733
2.67321
2.67286
2.67248
2.67164
2.67102
2.66962
2.66866
2.66661
2.66531
2.66257
2.6608
2.65709
2.65474
2.64984
2.64679
2.64067
2.63632
2.62907
2.6229
2.61407
2.60558
2.59447
2.58365
2.57095
2.55836
2.54442
2.5305
2.51503
2.49896
2.48124
2.46296
2.44288
2.42167
2.40092
1.74165
2.44204
2.70867
2.68403
2.66674
2.65724
2.66018
2.66174
2.66491
2.66582
2.66653
2.66658
2.66674
2.66682
2.66692
2.6669
2.66683
2.66663
2.66643
2.66596
2.66558
2.66478
2.6642
2.66292
2.66198
2.65992
2.65853
2.65555
2.65362
2.64958
2.64677
2.64177
2.63777
2.63172
2.62621
2.61883
2.61168
2.60257
2.59326
2.58197
2.5702
2.55637
2.54191
2.52588
2.50955
2.49184
2.47351
2.45421
2.43405
2.4145
1.73665
2.43548
2.70518
2.67624
2.66879
2.65538
2.65545
2.6574
2.66033
2.66143
2.66241
2.66248
2.6627
2.66286
2.66298
2.663
2.66297
2.66284
2.66267
2.66232
2.66202
2.66136
2.66086
2.65978
2.65901
2.65732
2.65616
2.65367
2.652
2.64862
2.64606
2.64176
2.63793
2.63268
2.62767
2.62116
2.61468
2.60672
2.59855
2.58893
2.57882
2.56718
2.55477
2.54077
2.5258
2.50947
2.49232
2.47405
2.455
2.43637
1.35675
2.46602
2.67906
2.66848
2.64657
2.62392
2.61684
2.62087
2.62284
2.62569
2.62709
2.62805
2.6288
2.6297
2.63034
2.63127
2.63184
2.63264
2.63304
2.63368
2.6339
2.63444
2.63453
2.63453
2.63448
2.63428
2.63402
2.63335
2.63279
2.63147
2.63049
2.6284
2.62673
2.62357
2.62063
2.61612
2.61128
2.605
2.5982
2.59008
2.58137
2.57142
2.56077
2.54903
2.53639
2.5226
2.5079
2.49213
2.47545
2.45906
1.3601
2.47522
2.68626
2.67717
2.65268
2.62363
2.61403
2.61485
2.61689
2.61888
2.61974
2.61985
2.62009
2.62013
2.62038
2.62075
2.62105
2.62139
2.62162
2.62185
2.62198
2.62204
2.62203
2.62187
2.62161
2.62105
2.62056
2.61957
2.61864
2.61717
2.61566
2.61354
2.61126
2.60844
2.60526
2.60173
2.59785
2.59347
2.58844
2.58285
2.57639
2.56893
2.56023
2.55036
2.53965
2.52798
2.51574
2.50261
2.48865
2.47495
1.34952
2.41128
2.66859
2.66945
2.65002
2.62361
2.61387
2.61394
2.61465
2.61528
2.61497
2.61413
2.61341
2.6124
2.61176
2.61106
2.6106
2.60993
2.60947
2.60878
2.60834
2.60763
2.60717
2.60639
2.60585
2.60495
2.60427
2.60329
2.60243
2.60117
2.59983
2.59804
2.59609
2.59361
2.59092
2.58759
2.58403
2.57975
2.57522
2.56977
2.56402
2.55756
2.55092
2.54343
2.53554
2.52647
2.51597
2.50492
2.49319
2.48187
1.7422
2.39574
2.67358
2.66076
2.65155
2.63767
2.63247
2.6327
2.63245
2.63215
2.63134
2.63012
2.62875
2.62709
2.62553
2.62395
2.62236
2.62062
2.61888
2.617
2.61513
2.61313
2.61112
2.60902
2.60686
2.60468
2.60242
2.60024
2.59788
2.59535
2.59288
2.59014
2.5874
2.58426
2.58108
2.5774
2.57358
2.56918
2.56455
2.55929
2.55369
2.54743
2.54078
2.53351
2.52565
2.51736
2.50918
2.50014
2.49037
2.48079
1.34678
2.39387
2.65921
2.66553
2.64922
2.62385
2.61525
2.61383
2.6151
2.61532
2.61503
2.61464
2.61375
2.6127
2.61209
2.6111
2.61041
2.60921
2.6083
2.60685
2.60575
2.60429
2.60316
2.60161
2.60036
2.59849
2.59688
2.59441
2.59237
2.58972
2.58732
2.58434
2.58148
2.57803
2.5747
2.57088
2.56705
2.56276
2.55831
2.5534
2.54815
2.5424
2.53619
2.5295
2.52228
2.51457
2.50634
2.49779
2.48875
2.48006
1.34806
2.40451
2.66624
2.67098
2.65062
2.62183
2.61052
2.61034
2.61132
2.61205
2.61192
2.61126
2.61046
2.6095
2.60884
2.60813
2.60746
2.60659
2.6057
2.60459
2.60335
2.60171
2.59992
2.5978
2.59551
2.59305
2.59041
2.58767
2.58464
2.58159
2.5782
2.57485
2.57118
2.56766
2.56365
2.55975
2.55531
2.55101
2.54612
2.54138
2.53602
2.53085
2.52497
2.51924
2.51275
2.50636
2.49916
2.49186
2.48401
2.47658
1.34746
2.40006
2.66338
2.66898
2.64795
2.61844
2.60637
2.60622
2.60702
2.60795
2.60767
2.60687
2.60599
2.60495
2.60417
2.60347
2.60278
2.60202
2.60118
2.60029
2.59924
2.59813
2.59675
2.59531
2.5935
2.59163
2.58934
2.58699
2.58417
2.58131
2.57796
2.57458
2.57071
2.56684
2.56251
2.55815
2.55329
2.54835
2.54296
2.53746
2.5316
2.52557
2.51927
2.51272
2.506
2.49896
2.49189
2.48435
2.47676
2.46933
1.34462
2.37688
2.64591
2.66098
2.64179
2.6139
2.60202
2.60057
2.60087
2.60113
2.60048
2.59974
2.59839
2.59733
2.59623
2.59539
2.59433
2.59343
2.59225
2.59123
2.58993
2.58881
2.58741
2.58615
2.58461
2.58315
2.5814
2.57964
2.57756
2.57544
2.57296
2.57035
2.56733
2.56411
2.56045
2.55655
2.55231
2.54777
2.54289
2.53764
2.53213
2.5262
2.52006
2.51347
2.50672
2.49952
2.49225
2.48466
2.477
2.4696
1.75214
2.37146
2.6434
2.64003
2.62647
2.61241
2.60753
2.60777
2.60776
2.60765
2.6071
2.60645
2.60526
2.60415
2.6029
2.60182
2.60047
2.59921
2.59766
2.59617
2.59442
2.5927
2.59075
2.5888
2.58666
2.58447
2.58212
2.57967
2.57707
2.57438
2.57155
2.56862
2.56552
2.56224
2.55877
2.55503
2.55107
2.54678
2.54223
2.53732
2.53209
2.52653
2.52073
2.51463
2.5083
2.50168
2.4948
2.48765
2.48014
2.47298
1.3467
2.38635
2.65096
2.65914
2.63857
2.6081
2.5967
2.59528
2.59692
2.59822
2.59805
2.59752
2.59692
2.59564
2.5949
2.59371
2.59289
2.59144
2.59039
2.58872
2.58708
2.58528
2.58338
2.58128
2.57914
2.57692
2.57477
2.57251
2.57029
2.56785
2.56531
2.56245
2.55948
2.55625
2.5529
2.54931
2.54557
2.54161
2.53749
2.53319
2.52865
2.52389
2.51882
2.5134
2.50769
2.50164
2.49531
2.48878
2.48194
2.47538
1.35035
2.40934
2.65364
2.64791
2.62607
2.59543
2.58457
2.58483
2.58663
2.58856
2.58892
2.58868
2.58825
2.58745
2.58698
2.58643
2.586
2.58533
2.5847
2.58384
2.58299
2.58191
2.58079
2.57941
2.57794
2.57607
2.574
2.57158
2.56897
2.56605
2.56304
2.55982
2.55649
2.55295
2.54928
2.54541
2.54139
2.53717
2.53281
2.52824
2.52352
2.51859
2.51355
2.5084
2.50304
2.49753
2.49178
2.48581
2.47956
2.47358
1.7723
2.37023
2.63557
2.61553
2.60902
2.59356
2.59087
2.59162
2.59278
2.59416
2.59394
2.59351
2.59322
2.5926
2.59213
2.59157
2.59109
2.59041
2.58977
2.58894
2.58814
2.58713
2.58612
2.58488
2.58361
2.58208
2.58046
2.57857
2.57653
2.57417
2.57148
2.56849
2.56519
2.56164
2.55779
2.55373
2.54939
2.54488
2.54012
2.53521
2.53008
2.52473
2.51914
2.51331
2.50735
2.50119
2.49493
2.48857
2.48209
2.47592
1.79935
2.35272
2.62336
2.60359
2.60029
2.59024
2.58689
2.5871
2.58738
2.58801
2.58777
2.58717
2.5866
2.58558
2.58464
2.58354
2.58245
2.58113
2.57981
2.57829
2.57677
2.57511
2.57345
2.57171
2.56996
2.56816
2.56633
2.56445
2.56252
2.56055
2.55866
2.55661
2.5546
2.5524
2.55017
2.54766
2.54508
2.54216
2.53896
2.5353
2.53142
2.52729
2.5229
2.51827
2.51336
2.5082
2.50276
2.497
2.49098
2.48511
1.764
2.37924
2.64732
2.61692
2.61115
2.59697
2.59373
2.59587
2.59731
2.5982
2.59796
2.59749
2.59646
2.59531
2.59404
2.59279
2.59139
2.58994
2.58833
2.5867
2.58491
2.58315
2.58113
2.57901
2.57663
2.57417
2.57145
2.56871
2.5657
2.5627
2.55943
2.55622
2.55275
2.5493
2.54558
2.54189
2.53794
2.53402
2.53001
2.52608
2.52198
2.51777
2.51338
2.50888
2.50427
2.49951
2.49464
2.48959
2.48437
2.47938
1.28568
2.49164
2.64315
2.64068
2.6155
2.58263
2.57044
2.57086
2.5735
2.57589
2.57715
2.57739
2.57762
2.57759
2.57753
2.57745
2.57729
2.57697
2.57653
2.57588
2.57505
2.57404
2.57286
2.57154
2.57005
2.5684
2.56664
2.56452
2.56233
2.55992
2.55738
2.55455
2.55161
2.54831
2.54497
2.5413
2.5376
2.53357
2.52954
2.5252
2.52088
2.51629
2.51181
2.50709
2.50223
2.49715
2.49194
2.48653
2.48098
2.47566
1.77322
2.36475
2.63617
2.61456
2.60809
2.59255
2.58765
2.58859
2.58903
2.59068
2.59037
2.58986
2.58949
2.58877
2.5881
2.5873
2.58661
2.58569
2.58483
2.58372
2.58267
2.58136
2.58011
2.57856
2.57709
2.57527
2.57355
2.57144
2.56922
2.56661
2.56391
2.56083
2.55776
2.55446
2.55113
2.54757
2.54392
2.54005
2.53605
2.53183
2.52746
2.52288
2.51803
2.51298
2.50784
2.50249
2.49706
2.49144
2.48571
2.48019
1.77466
2.36291
2.63395
2.6125
2.60608
2.59067
2.58577
2.58684
2.58797
2.58898
2.58967
2.58923
2.58888
2.58816
2.58737
2.58647
2.58557
2.58452
2.58338
2.58209
2.58068
2.57915
2.57752
2.5758
2.57396
2.57206
2.57
2.56792
2.56582
2.56368
2.56148
2.55917
2.55669
2.55401
2.55112
2.54808
2.54486
2.54151
2.53795
2.53426
2.53036
2.52636
2.52212
2.51779
2.5132
2.50854
2.5036
2.49861
2.49333
2.48832
1.28506
2.48774
2.64025
2.63784
2.61219
2.57733
2.56436
2.56364
2.56622
2.56816
2.56915
2.5691
2.56899
2.56865
2.56837
2.56789
2.56756
2.56694
2.56643
2.56561
2.56496
2.56394
2.56304
2.56176
2.56057
2.55899
2.55738
2.55563
2.55377
2.55178
2.54971
2.54748
2.54519
2.54272
2.54019
2.53748
2.53468
2.5317
2.52862
2.52534
2.52193
2.51833
2.51458
2.51067
2.5066
2.50237
2.49799
2.49346
2.48876
2.48425
1.76789
2.37027
2.63734
2.60694
2.60046
2.5843
2.58137
2.58355
2.58455
2.58685
2.58665
2.58617
2.58577
2.58499
2.58428
2.5835
2.58274
2.58179
2.5808
2.57963
2.57845
2.5771
2.57575
2.57423
2.57265
2.57091
2.56907
2.56709
2.56502
2.5628
2.56048
2.55792
2.55521
2.55227
2.5492
2.54592
2.54253
2.53896
2.53529
2.53147
2.52758
2.52354
2.51938
2.51509
2.51068
2.50614
2.50148
2.4967
2.49176
2.48704
1.79571
2.35314
2.62063
2.59256
2.58855
2.5766
2.57353
2.57486
2.5753
2.57624
2.57607
2.57568
2.57521
2.57449
2.57391
2.57337
2.5728
2.572
2.57107
2.56998
2.56891
2.56776
2.5666
2.56525
2.56382
2.56218
2.5605
2.55866
2.55682
2.55482
2.55278
2.55066
2.54851
2.54624
2.54392
2.54149
2.53897
2.53633
2.53353
2.53058
2.52741
2.52411
2.52061
2.51701
2.5132
2.50932
2.50519
2.50107
2.49661
2.49252
1.80002
2.34801
2.61557
2.58945
2.58568
2.574
2.57053
2.57124
2.57174
2.5723
2.57216
2.57173
2.57116
2.5704
2.56981
2.56937
2.56875
2.56794
2.56679
2.56567
2.56453
2.56351
2.56235
2.56104
2.55939
2.5576
2.55567
2.55376
2.55184
2.54982
2.5476
2.54518
2.54251
2.53975
2.53689
2.534
2.53107
2.52805
2.52492
2.52169
2.51828
2.51485
2.51121
2.50762
2.50381
2.50007
2.49603
2.49209
2.48771
2.48384
1.78038
2.35334
2.61262
2.60018
2.58978
2.57345
2.56877
2.56928
2.57001
2.57056
2.57054
2.57014
2.56978
2.56909
2.56847
2.56778
2.56705
2.56622
2.56531
2.56438
2.56335
2.56227
2.56102
2.55964
2.5581
2.55648
2.55477
2.55299
2.55112
2.54907
2.54686
2.54444
2.54188
2.53921
2.53643
2.53361
2.53062
2.52753
2.5242
2.52079
2.51709
2.51347
2.50952
2.50579
2.50166
2.49772
2.49336
2.48914
2.48447
2.4803
1.34443
2.37652
2.63516
2.63552
2.61321
2.57945
2.56519
2.56269
2.56402
2.56508
2.56503
2.56474
2.56412
2.56303
2.56226
2.56143
2.56071
2.55979
2.55888
2.55778
2.55671
2.55546
2.55421
2.55279
2.55131
2.5497
2.548
2.54615
2.54423
2.54212
2.53992
2.53758
2.53506
2.53251
2.52971
2.52691
2.52385
2.52075
2.5174
2.51399
2.51031
2.50665
2.50269
2.49879
2.49463
2.49044
2.48608
2.48158
2.47697
2.47247
1.34544
2.38339
2.64991
2.65565
2.62944
2.59053
2.57291
2.57033
2.57199
2.57322
2.57358
2.57325
2.57247
2.57141
2.57047
2.56955
2.56876
2.56778
2.56681
2.56564
2.56451
2.56324
2.56197
2.56058
2.55913
2.55754
2.55588
2.55407
2.5522
2.5502
2.54813
2.54596
2.54367
2.54128
2.53876
2.53609
2.53333
2.53038
2.52739
2.52418
2.52095
2.51748
2.51402
2.51027
2.50657
2.50252
2.49858
2.49424
2.49005
2.48571
1.34475
2.37573
2.63315
2.63449
2.61146
2.57781
2.56256
2.56045
2.56184
2.56276
2.56313
2.56274
2.56205
2.561
2.56016
2.55933
2.55861
2.55772
2.55682
2.55576
2.55469
2.55351
2.55231
2.55102
2.54967
2.5482
2.54665
2.54496
2.54319
2.5413
2.53934
2.53727
2.53513
2.53284
2.53051
2.52796
2.5254
2.52258
2.51981
2.51674
2.51376
2.51047
2.50728
2.50374
2.50034
2.49653
2.4929
2.48882
2.48493
2.48087
1.78318
2.3501
2.60947
2.59713
2.58627
2.56795
2.56304
2.56358
2.56435
2.56573
2.56562
2.56516
2.56474
2.56387
2.5633
2.56268
2.56221
2.56144
2.56063
2.55958
2.55857
2.55746
2.55639
2.55517
2.55385
2.55234
2.55071
2.54898
2.54718
2.54531
2.54336
2.54125
2.53905
2.53664
2.53417
2.53149
2.52882
2.52594
2.52311
2.52001
2.51698
2.51362
2.51035
2.50671
2.50321
2.49934
2.49563
2.49154
2.48761
2.48355
1.80406
2.34236
2.61046
2.58394
2.58044
2.56883
2.56513
2.56614
2.56662
2.5676
2.56758
2.56725
2.56678
2.56577
2.56495
2.56418
2.56367
2.56298
2.56218
2.56095
2.55974
2.55838
2.55721
2.55596
2.55466
2.55308
2.5513
2.54933
2.5473
2.54526
2.54315
2.54097
2.5386
2.536
2.53328
2.53029
2.52737
2.52423
2.52116
2.51788
2.51457
2.51095
2.50737
2.50338
2.49961
2.49539
2.49149
2.48712
2.48302
2.47872
1.79055
2.35655
2.62306
2.59163
2.58525
2.57125
2.56861
2.57057
2.57205
2.57325
2.57351
2.57308
2.57269
2.57186
2.57116
2.57036
2.56973
2.56893
2.56819
2.56712
2.56604
2.56474
2.56347
2.56213
2.56079
2.55931
2.55769
2.55589
2.55393
2.5519
2.54977
2.54758
2.54533
2.54285
2.54033
2.53748
2.53465
2.53154
2.5285
2.52522
2.52205
2.51848
2.51513
2.51122
2.5076
2.50341
2.49956
2.49517
2.49117
2.48684
2.173
2.34398
2.76826
2.85952
2.93872
2.87647
2.87076
2.86852
2.86012
2.8584
2.85995
2.86124
2.86168
2.86183
2.86237
2.86275
2.86357
2.86422
2.86448
2.86454
2.86399
2.86284
2.86045
2.85915
2.85533
2.85246
2.84762
2.84309
2.83777
2.83185
2.82562
2.81902
2.81216
2.80516
2.79811
2.79072
2.78321
2.77501
2.76636
2.75807
2.74958
2.74113
2.73266
2.72413
2.71578
2.7072
2.69904
2.69065
2.68275
2.67458
2.66699
2.65915
2.65195
2.64456
2.63783
2.63097
2.62482
2.61853
2.61306
2.60748
2.60273
2.59806
2.59416
2.59058
2.58768
2.58529
2.58348
2.58232
2.58159
2.58161
2.58181
2.58216
2.5829
2.58449
2.58664
2.58928
2.59192
2.59463
2.59748
2.60007
2.6029
2.60539
2.60773
2.6102
2.6119
2.61403
2.61535
2.61691
2.61788
2.61909
2.61978
2.6208
2.62118
2.62151
2.62155
2.62154
2.62149
2.62142
2.62117
2.61952
2.18211
2.26124
2.45047
2.63044
2.69615
2.75143
2.78891
2.82002
2.83822
2.85248
2.86173
2.87212
2.87954
2.87916
2.87536
2.86784
2.85928
2.84887
2.83675
2.82427
2.81082
2.79761
2.7846
2.77175
2.75916
2.7467
2.73452
2.72213
2.71029
2.69785
2.68605
2.67395
2.66222
2.65009
2.63881
2.62746
2.61627
2.60482
2.59317
2.58185
2.5708
2.56012
2.54966
2.53936
2.52915
2.51923
2.50942
2.49999
2.49073
2.48191
2.47328
2.46518
2.45722
2.44984
2.44265
2.43597
2.42967
2.42376
2.41832
2.41334
2.40875
2.40477
2.40114
2.39816
2.39556
2.39363
2.39208
2.39119
2.39068
2.39076
2.39097
2.39141
2.39213
2.39363
2.39555
2.39802
2.40044
2.40293
2.40543
2.40766
2.41015
2.41196
2.41402
2.41542
2.41683
2.41776
2.41867
2.41917
2.4196
2.41979
2.42003
2.42006
2.4199
2.41952
2.41901
2.41842
2.41787
2.41728
2.41684
2.41469
2.22998
2.21429
2.27418
2.35838
2.4143
2.46011
2.49379
2.52218
2.54466
2.56128
2.57382
2.58292
2.59002
2.59179
2.59075
2.58846
2.58364
2.57801
2.57203
2.56487
2.55795
2.55013
2.54277
2.53476
2.52712
2.51876
2.51075
2.50202
2.49387
2.48501
2.47669
2.46785
2.45943
2.45061
2.44244
2.43408
2.42614
2.41756
2.40875
2.39988
2.3915
2.38313
2.37487
2.36667
2.35871
2.35078
2.34321
2.33561
2.32842
2.32118
2.31438
2.30755
2.30119
2.29482
2.28892
2.28305
2.27768
2.27239
2.26763
2.263
2.25894
2.25508
2.25182
2.24881
2.24647
2.24444
2.24308
2.24209
2.24173
2.24185
2.24211
2.24272
2.24358
2.24524
2.24733
2.24997
2.25275
2.25551
2.25834
2.26096
2.26359
2.26591
2.26814
2.26997
2.2717
2.2729
2.2741
2.27478
2.2754
2.27573
2.27603
2.27613
2.27605
2.27572
2.27536
2.27468
2.27422
2.27356
2.27328
2.27126
2.2606
2.22173
2.21677
2.24155
2.27266
2.29502
2.31002
2.32153
2.33182
2.34078
2.34824
2.35409
2.35849
2.36194
2.36345
2.36351
2.36341
2.3632
2.36302
2.36269
2.36236
2.36164
2.36111
2.35994
2.35854
2.3568
2.35471
2.35218
2.34948
2.34628
2.34305
2.33931
2.3355
2.33133
2.32725
2.3232
2.31905
2.31431
2.30903
2.30357
2.29821
2.2928
2.28741
2.28186
2.2764
2.27074
2.26525
2.25959
2.2541
2.24848
2.24307
2.23759
2.23229
2.22706
2.22194
2.21705
2.21218
2.20769
2.20322
2.1992
2.19529
2.19181
2.18858
2.18578
2.1833
2.18132
2.17966
2.17853
2.17786
2.17758
2.17754
2.17769
2.17814
2.17908
2.18061
2.18251
2.18465
2.18683
2.18904
2.19116
2.19318
2.19502
2.19674
2.19814
2.19951
2.20036
2.20137
2.20169
2.20227
2.20235
2.20253
2.20252
2.20241
2.20208
2.20166
2.20104
2.20056
2.20002
2.19988
2.1982
2.27411
2.24164
2.21982
2.21249
2.21946
2.22406
2.22605
2.22645
2.2272
2.22892
2.23116
2.23363
2.23515
2.23721
2.23948
2.24212
2.24401
2.24683
2.24921
2.2525
2.25513
2.25841
2.26079
2.2635
2.2652
2.267
2.26769
2.26847
2.26818
2.26755
2.26662
2.26497
2.2631
2.2606
2.25822
2.25552
2.2528
2.24921
2.2451
2.24049
2.23591
2.23114
2.22632
2.22134
2.21625
2.21105
2.20581
2.2005
2.19522
2.18987
2.18463
2.17931
2.17421
2.16905
2.1642
2.15931
2.1548
2.15028
2.14619
2.14215
2.13859
2.13516
2.13226
2.12957
2.12745
2.12558
2.1243
2.12337
2.12307
2.12313
2.12333
2.12371
2.12464
2.12574
2.12773
2.12972
2.1322
2.13457
2.13705
2.1394
2.14161
2.14364
2.14542
2.14696
2.14823
2.1492
2.14995
2.15033
2.15064
2.15059
2.15053
2.15037
2.15005
2.14949
2.14885
2.14808
2.14742
2.14676
2.1466
2.14497
2.2975
2.25426
2.23043
2.21085
2.20088
2.19429
2.18845
2.18256
2.17747
2.17376
2.17172
2.17127
2.17175
2.17207
2.17332
2.17535
2.17837
2.18131
2.18468
2.18812
2.1919
2.19562
2.19932
2.20271
2.20577
2.20839
2.21039
2.21197
2.2128
2.2133
2.21314
2.21242
2.21131
2.20968
2.208
2.20611
2.20406
2.20119
2.19784
2.19385
2.18993
2.18557
2.18138
2.17679
2.17237
2.16758
2.16296
2.15807
2.15335
2.14845
2.14368
2.13885
2.13413
2.12945
2.12489
2.12048
2.11618
2.11212
2.10819
2.10458
2.10111
2.09804
2.09516
2.09272
2.09055
2.08884
2.0875
2.08664
2.08628
2.08622
2.08631
2.08657
2.08724
2.08825
2.08977
2.09167
2.09355
2.09588
2.0978
2.10013
2.10182
2.10381
2.10513
2.10664
2.10752
2.10849
2.10893
2.10933
2.10944
2.1094
2.10934
2.10917
2.10892
2.10842
2.10789
2.10726
2.10671
2.10623
2.10618
2.10473
2.32195
2.28111
2.24753
2.22274
2.20274
2.18783
2.17542
2.16496
2.15544
2.14795
2.14202
2.13846
2.1363
2.13588
2.13598
2.13649
2.13836
2.14128
2.14454
2.14806
2.15177
2.15567
2.1595
2.16331
2.1668
2.16999
2.17269
2.17491
2.17654
2.17773
2.17819
2.17838
2.17781
2.17685
2.17578
2.17454
2.17299
2.17074
2.1679
2.16453
2.16099
2.15711
2.15322
2.14907
2.14494
2.14058
2.13626
2.13176
2.1273
2.12273
2.11823
2.11366
2.1092
2.10472
2.10043
2.09614
2.09213
2.08816
2.08453
2.08097
2.07781
2.07476
2.07218
2.06978
2.0679
2.06626
2.06519
2.06446
2.06428
2.06435
2.06454
2.06493
2.0657
2.06701
2.0685
2.07051
2.07241
2.07479
2.07682
2.07918
2.08102
2.08304
2.08447
2.08598
2.08693
2.08788
2.08831