/*--------------------------------*- C++ -*----------------------------------*\
| =========                 |                                                 |
| \\      /  F ield         | OpenFOAM: The Open Source CFD Toolbox           |
|  \\    /   O peration     | Version:  2412                                  |
|   \\  /    A nd           | Website:  www.openfoam.com                      |
|    \\/     M anipulation  |                                                 |
\*---------------------------------------------------------------------------*/
FoamFile
{
    version     2.0;
    format      ascii;
    arch        "LSB;label=32;scalar=64";
    class       volVectorField;
    location    "14";
    object      U;
}
// * * * * * * * * * * * * * * * * * * * * * * * * * * * * * * * * * * * * * //

dimensions      [0 1 -1 0 0 0 0];

internalField   nonuniform List<vector> 
7000
(
(2.59178 -7.28029e-05 0)
(1.62225 0.000178024 0)
(0.49666 0.000206006 0)
(0.552685 0.000348101 0)
(0.654353 0.000444306 0)
(0.719557 0.000522543 0)
(0.732411 0.000590555 0)
(0.725461 0.000661034 0)
(0.715307 0.000739716 0)
(0.707533 0.00083038 0)
(0.703011 0.000929226 0)
(0.699397 0.00103258 0)
(0.695269 0.00113965 0)
(0.690371 0.00125135 0)
(0.684868 0.00136866 0)
(0.678886 0.0014921 0)
(0.672442 0.00162204 0)
(0.665505 0.00175879 0)
(0.658039 0.00190265 0)
(0.650018 0.00205391 0)
(0.64142 0.00221309 0)
(0.632225 0.00238098 0)
(0.622407 0.00255832 0)
(0.611941 0.00274563 0)
(0.600799 0.00294324 0)
(0.58895 0.00315195 0)
(0.576364 0.00337357 0)
(0.563005 0.00361068 0)
(0.548838 0.00386592 0)
(0.533823 0.00414111 0)
(0.517914 0.0044367 0)
(0.501071 0.004752 0)
(0.483256 0.0050864 0)
(0.464426 0.00543931 0)
(0.444546 0.00581094 0)
(0.423588 0.00620154 0)
(0.401512 0.00661129 0)
(0.378298 0.0070396 0)
(0.35394 0.0074852 0)
(0.32844 0.0079458 0)
(0.301769 0.0084192 0)
(0.273965 0.00890233 0)
(0.245107 0.00939086 0)
(0.215199 0.00987929 0)
(0.184248 0.0103643 0)
(0.152392 0.0108407 0)
(0.119808 0.0113092 0)
(0.0868196 0.0117568 0)
(0.0514507 0.0123542 0)
(0.0222139 0.0132178 0)
(2.59191 -4.85135e-05 0)
(1.62242 0.000345701 0)
(0.496345 0.000820596 0)
(0.552421 0.00113273 0)
(0.654112 0.00136867 0)
(0.719328 0.0015912 0)
(0.732183 0.00179976 0)
(0.725236 0.00201558 0)
(0.71509 0.00225377 0)
(0.707326 0.00252425 0)
(0.702809 0.00281764 0)
(0.699199 0.00312436 0)
(0.695074 0.00344223 0)
(0.690181 0.0037734 0)
(0.684682 0.00412046 0)
(0.678705 0.00448476 0)
(0.672267 0.00486718 0)
(0.665334 0.00526836 0)
(0.657873 0.00568919 0)
(0.649857 0.00613066 0)
(0.641263 0.00659443 0)
(0.63207 0.00708228 0)
(0.622251 0.00759586 0)
(0.611781 0.00813627 0)
(0.600631 0.00870474 0)
(0.588769 0.00930309 0)
(0.576163 0.00993472 0)
(0.562777 0.0106034 0)
(0.548582 0.0113121 0)
(0.533542 0.0120619 0)
(0.517617 0.0128526 0)
(0.500768 0.0136837 0)
(0.482957 0.0145543 0)
(0.464137 0.015464 0)
(0.444273 0.0164124 0)
(0.423334 0.0173974 0)
(0.40128 0.0184149 0)
(0.378088 0.0194585 0)
(0.353749 0.0205196 0)
(0.328259 0.0215868 0)
(0.301585 0.0226479 0)
(0.27376 0.023687 0)
(0.244859 0.0246856 0)
(0.214884 0.0256227 0)
(0.183841 0.0264809 0)
(0.151869 0.027241 0)
(0.119136 0.0278972 0)
(0.0860143 0.028426 0)
(0.0504809 0.0290889 0)
(0.0212735 0.0298566 0)
(2.59204 4.73442e-05 0)
(1.62271 0.000388779 0)
(0.49655 0.00159384 0)
(0.552473 0.00196956 0)
(0.654153 0.00229454 0)
(0.71937 0.00266091 0)
(0.732224 0.0030312 0)
(0.72529 0.0034111 0)
(0.715165 0.00382261 0)
(0.707422 0.0042816 0)
(0.70292 0.00477713 0)
(0.699319 0.0052966 0)
(0.695203 0.00583679 0)
(0.690321 0.00640053 0)
(0.684836 0.00699165 0)
(0.678872 0.00761225 0)
(0.672448 0.00826383 0)
(0.665531 0.00894753 0)
(0.658085 0.00966536 0)
(0.650086 0.0104194 0)
(0.64151 0.0112123 0)
(0.632336 0.0120465 0)
(0.622539 0.0129251 0)
(0.612091 0.0138505 0)
(0.600965 0.014826 0)
(0.589129 0.0158549 0)
(0.576549 0.0169414 0)
(0.56319 0.0180899 0)
(0.549023 0.019305 0)
(0.53401 0.02059 0)
(0.518113 0.0219473 0)
(0.501292 0.0233782 0)
(0.483508 0.0248825 0)
(0.464715 0.0264595 0)
(0.444875 0.0281064 0)
(0.423957 0.0298202 0)
(0.401919 0.0315938 0)
(0.378737 0.0334181 0)
(0.354399 0.035278 0)
(0.3289 0.0371576 0)
(0.302202 0.0390351 0)
(0.274337 0.0408858 0)
(0.245372 0.0426774 0)
(0.21531 0.0443779 0)
(0.184153 0.0459544 0)
(0.152041 0.0473698 0)
(0.119134 0.0486073 0)
(0.0858676 0.0496298 0)
(0.0501912 0.050699 0)
(0.0208253 0.0517135 0)
(2.59221 5.36705e-05 0)
(1.62315 0.00053078 0)
(0.496976 0.00233543 0)
(0.552596 0.00279879 0)
(0.654275 0.00322223 0)
(0.719513 0.0037434 0)
(0.732373 0.00429008 0)
(0.725453 0.00484832 0)
(0.715358 0.00544347 0)
(0.707646 0.00609724 0)
(0.703167 0.00679989 0)
(0.699584 0.00753793 0)
(0.695486 0.00830714 0)
(0.690624 0.00911062 0)
(0.68516 0.00995265 0)
(0.67922 0.0108363 0)
(0.67282 0.0117636 0)
(0.665928 0.0127366 0)
(0.658509 0.0137579 0)
(0.650538 0.0148308 0)
(0.641993 0.0159587 0)
(0.632852 0.0171456 0)
(0.623088 0.0183955 0)
(0.612676 0.0197128 0)
(0.601587 0.0211015 0)
(0.589791 0.0225669 0)
(0.577253 0.024114 0)
(0.563938 0.0257489 0)
(0.549814 0.0274769 0)
(0.534845 0.0293034 0)
(0.518995 0.0312326 0)
(0.502225 0.0332679 0)
(0.484495 0.035408 0)
(0.465756 0.0376533 0)
(0.445969 0.0399991 0)
(0.4251 0.0424429 0)
(0.403104 0.0449748 0)
(0.379954 0.0475844 0)
(0.355635 0.0502509 0)
(0.33014 0.0529529 0)
(0.303428 0.0556605 0)
(0.275524 0.0583369 0)
(0.246492 0.0609397 0)
(0.216332 0.0634206 0)
(0.185046 0.0657365 0)
(0.152769 0.0678287 0)
(0.119661 0.0696629 0)
(0.0862093 0.0711865 0)
(0.0503343 0.0726293 0)
(0.0206738 0.0738083 0)
(2.59246 6.71695e-05 0)
(1.62378 0.000709812 0)
(0.497523 0.0030834 0)
(0.552706 0.00365938 0)
(0.654403 0.0041923 0)
(0.719685 0.0048678 0)
(0.732559 0.0055926 0)
(0.725658 0.00633481 0)
(0.715599 0.00712122 0)
(0.707929 0.00797605 0)
(0.703483 0.00889156 0)
(0.699927 0.00985459 0)
(0.695856 0.0108603 0)
(0.691023 0.0119119 0)
(0.685592 0.0130138 0)
(0.679686 0.01417 0)
(0.673322 0.015383 0)
(0.666468 0.016656 0)
(0.659089 0.0179922 0)
(0.651162 0.0193959 0)
(0.642663 0.0208717 0)
(0.633571 0.0224249 0)
(0.62386 0.0240609 0)
(0.613505 0.0257855 0)
(0.602477 0.0276038 0)
(0.590746 0.0295223 0)
(0.578278 0.031548 0)
(0.565037 0.0336895 0)
(0.550989 0.0359528 0)
(0.5361 0.0383439 0)
(0.520331 0.0408669 0)
(0.503642 0.0435266 0)
(0.485993 0.0463249 0)
(0.467335 0.0492636 0)
(0.447624 0.0523392 0)
(0.426825 0.0555454 0)
(0.404889 0.0588718 0)
(0.381786 0.0623012 0)
(0.357499 0.0658115 0)
(0.332013 0.0693705 0)
(0.305287 0.0729463 0)
(0.277336 0.0764849 0)
(0.24822 0.0799331 0)
(0.217936 0.083227 0)
(0.186484 0.0863006 0)
(0.154 0.0890822 0)
(0.12063 0.0915062 0)
(0.0869285 0.0934981 0)
(0.0507618 0.0952512 0)
(0.020687 0.0965235 0)
(2.59279 7.93162e-05 0)
(1.62462 0.000892338 0)
(0.498218 0.00383011 0)
(0.552821 0.00453226 0)
(0.654546 0.005181 0)
(0.719895 0.00601107 0)
(0.732796 0.0069198 0)
(0.72592 0.00785069 0)
(0.715906 0.00883665 0)
(0.708287 0.00990161 0)
(0.703883 0.0110385 0)
(0.700364 0.0122345 0)
(0.696328 0.0134852 0)
(0.691535 0.0147935 0)
(0.686146 0.0161646 0)
(0.680285 0.0176025 0)
(0.673968 0.0191107 0)
(0.667164 0.020693 0)
(0.659839 0.022354 0)
(0.651968 0.0240988 0)
(0.643529 0.0259334 0)
(0.634502 0.0278635 0)
(0.624861 0.0298963 0)
(0.61458 0.0320393 0)
(0.603632 0.0343004 0)
(0.591986 0.0366861 0)
(0.57961 0.0392053 0)
(0.566466 0.0418669 0)
(0.552522 0.0446815 0)
(0.537741 0.0476567 0)
(0.522083 0.0507989 0)
(0.505508 0.0541111 0)
(0.487973 0.0575974 0)
(0.469427 0.0612592 0)
(0.449825 0.0650969 0)
(0.429127 0.0691015 0)
(0.407282 0.0732626 0)
(0.384254 0.0775566 0)
(0.360019 0.0819572 0)
(0.33456 0.0864259 0)
(0.307827 0.090923 0)
(0.279828 0.095388 0)
(0.250613 0.0997478 0)
(0.220177 0.103926 0)
(0.188517 0.107829 0)
(0.155765 0.111356 0)
(0.12206 0.11442 0)
(0.0879995 0.116909 0)
(0.0514226 0.118973 0)
(0.0208343 0.120315 0)
(2.59322 9.1816e-05 0)
(1.62568 0.00107698 0)
(0.499068 0.00458419 0)
(0.552942 0.00542025 0)
(0.654704 0.00619102 0)
(0.720146 0.00717961 0)
(0.733087 0.00827818 0)
(0.726243 0.00940358 0)
(0.716285 0.010597 0)
(0.708725 0.0118803 0)
(0.704375 0.0132461 0)
(0.700902 0.0146826 0)
(0.696913 0.016186 0)
(0.692169 0.0177593 0)
(0.686834 0.019408 0)
(0.68103 0.0211364 0)
(0.674773 0.0229491 0)
(0.668032 0.0248502 0)
(0.660774 0.0268458 0)
(0.652974 0.0289418 0)
(0.644612 0.0311457 0)
(0.635667 0.0334644 0)
(0.626113 0.0359065 0)
(0.615926 0.0384805 0)
(0.605078 0.0411963 0)
(0.593538 0.0440634 0)
(0.581275 0.0470915 0)
(0.568253 0.0502904 0)
(0.554438 0.0536723 0)
(0.53979 0.0572479 0)
(0.524272 0.0610279 0)
(0.50784 0.0650184 0)
(0.490452 0.0692224 0)
(0.472055 0.0736401 0)
(0.452599 0.0782713 0)
(0.432041 0.0831101 0)
(0.410324 0.0881461 0)
(0.387406 0.0933543 0)
(0.363254 0.0987015 0)
(0.337844 0.104142 0)
(0.31112 0.109626 0)
(0.283075 0.115083 0)
(0.253754 0.120431 0)
(0.223138 0.125573 0)
(0.191225 0.130392 0)
(0.158137 0.134751 0)
(0.124002 0.138524 0)
(0.0894754 0.141568 0)
(0.0523297 0.143986 0)
(0.021079 0.145431 0)
(2.59375 0.000104438 0)
(1.62699 0.00126205 0)
(0.500088 0.00534359 0)
(0.553072 0.00631732 0)
(0.654881 0.00721378 0)
(0.720443 0.00836515 0)
(0.733437 0.00965598 0)
(0.726635 0.0109833 0)
(0.716743 0.0123929 0)
(0.709255 0.0139024 0)
(0.704968 0.0155046 0)
(0.701553 0.0171892 0)
(0.697621 0.0189533 0)
(0.692939 0.0208002 0)
(0.687669 0.0227351 0)
(0.681934 0.0247631 0)
(0.67575 0.0268893 0)
(0.669087 0.029119 0)
(0.66191 0.0314589 0)
(0.654199 0.0339162 0)
(0.64593 0.0364995 0)
(0.637086 0.0392179 0)
(0.627641 0.0420806 0)
(0.617569 0.0450985 0)
(0.606844 0.0482819 0)
(0.595435 0.0516434 0)
(0.583312 0.0551942 0)
(0.570439 0.0589475 0)
(0.556781 0.0629151 0)
(0.542298 0.0671104 0)
(0.526951 0.0715465 0)
(0.510697 0.0762347 0)
(0.493493 0.0811817 0)
(0.475283 0.0863881 0)
(0.456015 0.0918514 0)
(0.43564 0.097565 0)
(0.414094 0.103519 0)
(0.391326 0.109691 0)
(0.367295 0.116044 0)
(0.341964 0.12253 0)
(0.315267 0.129084 0)
(0.287185 0.135624 0)
(0.257748 0.142048 0)
(0.226932 0.148249 0)
(0.194713 0.154084 0)
(0.161214 0.159374 0)
(0.12654 0.163962 0)
(0.0913947 0.167646 0)
(0.0535277 0.170479 0)
(0.0214658 0.17206 0)
(2.59438 0.000117116 0)
(1.62856 0.00144664 0)
(0.501292 0.0061054 0)
(0.553214 0.0072193 0)
(0.65508 0.00824487 0)
(0.72079 0.00956319 0)
(0.733856 0.0110518 0)
(0.727108 0.012586 0)
(0.717295 0.0142189 0)
(0.709888 0.0159629 0)
(0.705675 0.0178099 0)
(0.702329 0.019751 0)
(0.698468 0.0217842 0)
(0.693859 0.0239131 0)
(0.688668 0.026143 0)
(0.683015 0.0284794 0)
(0.676919 0.030928 0)
(0.670347 0.0334952 0)
(0.66327 0.0361886 0)
(0.655664 0.0390168 0)
(0.647508 0.0419894 0)
(0.638785 0.0451172 0)
(0.62947 0.0484111 0)
(0.619539 0.0518838 0)
(0.608963 0.0555477 0)
(0.597713 0.0594168 0)
(0.585759 0.0635044 0)
(0.573066 0.0678262 0)
(0.559599 0.0723966 0)
(0.545317 0.0772317 0)
(0.530178 0.0823456 0)
(0.514141 0.0877526 0)
(0.49716 0.093464 0)
(0.479181 0.0994856 0)
(0.460147 0.105817 0)
(0.440002 0.11245 0)
(0.418674 0.119374 0)
(0.396103 0.126566 0)
(0.372236 0.133988 0)
(0.347025 0.141594 0)
(0.320388 0.149312 0)
(0.292286 0.157045 0)
(0.262732 0.164669 0)
(0.231688 0.172054 0)
(0.199115 0.179037 0)
(0.165119 0.185391 0)
(0.129793 0.190908 0)
(0.0938739 0.19534 0)
(0.0550584 0.198681 0)
(0.0219714 0.200451 0)
(2.59512 0.000129742 0)
(1.63041 0.00162939 0)
(0.502695 0.00686387 0)
(0.553373 0.00812022 0)
(0.655306 0.00927801 0)
(0.721197 0.0107661 0)
(0.734352 0.0124577 0)
(0.727668 0.0142035 0)
(0.71795 0.0160661 0)
(0.710638 0.018053 0)
(0.70651 0.0201537 0)
(0.703245 0.0223599 0)
(0.699467 0.0246707 0)
(0.694945 0.0270901 0)
(0.689846 0.0296236 0)
(0.684291 0.0322769 0)
(0.678296 0.0350565 0)
(0.671834 0.0379697 0)
(0.664873 0.0410253 0)
(0.657391 0.044233 0)
(0.64937 0.0476043 0)
(0.64079 0.0511509 0)
(0.631629 0.054886 0)
(0.621863 0.0588235 0)
(0.611465 0.0629786 0)
(0.600405 0.067367 0)
(0.588654 0.0720051 0)
(0.576176 0.0769094 0)
(0.562937 0.0820985 0)
(0.548896 0.0875907 0)
(0.534011 0.0934035 0)
(0.518235 0.0995538 0)
(0.501523 0.106056 0)
(0.48382 0.11292 0)
(0.465069 0.120151 0)
(0.445207 0.127746 0)
(0.424153 0.135694 0)
(0.401834 0.143973 0)
(0.378185 0.152542 0)
(0.353144 0.161351 0)
(0.326612 0.170333 0)
(0.298523 0.179379 0)
(0.268867 0.188347 0)
(0.237587 0.197079 0)
(0.204611 0.205379 0)
(0.170025 0.21298 0)
(0.133892 0.219607 0)
(0.0970037 0.224941 0)
(0.0570225 0.228902 0)
(0.0226745 0.230919 0)
(2.59598 0.000142091 0)
(1.63256 0.00180871 0)
(0.504311 0.00760973 0)
(0.553553 0.0090127 0)
(0.655565 0.0103063 0)
(0.721669 0.0119655 0)
(0.734932 0.0138636 0)
(0.728328 0.0158264 0)
(0.718721 0.0179266 0)
(0.711517 0.0201653 0)
(0.707487 0.0225287 0)
(0.704316 0.0250087 0)
(0.700634 0.0276054 0)
(0.696214 0.0303236 0)
(0.691222 0.0331688 0)
(0.685779 0.0361471 0)
(0.679905 0.0392658 0)
(0.673569 0.0425329 0)
(0.666744 0.0459587 0)
(0.659407 0.0495541 0)
(0.651542 0.0533319 0)
(0.64313 0.0573057 0)
(0.634149 0.0614906 0)
(0.624576 0.0659023 0)
(0.614386 0.0705582 0)
(0.603549 0.0754763 0)
(0.592036 0.080676 0)
(0.579813 0.0861764 0)
(0.566844 0.0919988 0)
(0.553089 0.0981646 0)
(0.538504 0.104695 0)
(0.523043 0.111611 0)
(0.506656 0.11893 0)
(0.489286 0.126669 0)
(0.470873 0.134835 0)
(0.451354 0.143433 0)
(0.430638 0.152459 0)
(0.40864 0.161894 0)
(0.385276 0.171697 0)
(0.360471 0.181814 0)
(0.334103 0.192176 0)
(0.306076 0.202673 0)
(0.276345 0.213152 0)
(0.244832 0.223429 0)
(0.211423 0.233267 0)
(0.176161 0.242344 0)
(0.139082 0.250309 0)
(0.100989 0.256763 0)
(0.0595038 0.261528 0)
(0.0235617 0.26389 0)
(2.59697 0.000151781 0)
(1.63502 0.00198487 0)
(0.506152 0.00832901 0)
(0.553759 0.00988677 0)
(0.655859 0.0113218 0)
(0.72221 0.0131492 0)
(0.735606 0.0152581 0)
(0.729098 0.0174435 0)
(0.719623 0.0197895 0)
(0.712542 0.0222893 0)
(0.708624 0.0249245 0)
(0.705561 0.027687 0)
(0.701991 0.0305782 0)
(0.697688 0.0336033 0)
(0.692819 0.0367682 0)
(0.687506 0.0400792 0)
(0.681768 0.0435442 0)
(0.675579 0.0471726 0)
(0.668909 0.0509756 0)
(0.66174 0.0549656 0)
(0.654054 0.059157 0)
(0.645834 0.0635651 0)
(0.637061 0.0682069 0)
(0.627712 0.0731004 0)
(0.617762 0.0782651 0)
(0.607184 0.0837216 0)
(0.595948 0.0894922 0)
(0.584021 0.0955996 0)
(0.571369 0.102068 0)
(0.557949 0.108922 0)
(0.54372 0.116188 0)
(0.528632 0.12389 0)
(0.512635 0.132051 0)
(0.495666 0.140695 0)
(0.477662 0.149835 0)
(0.458557 0.159481 0)
(0.438257 0.169639 0)
(0.416662 0.180297 0)
(0.393671 0.191424 0)
(0.369188 0.202964 0)
(0.343069 0.21485 0)
(0.315178 0.226968 0)
(0.285432 0.239157 0)
(0.25371 0.251214 0)
(0.21985 0.262868 0)
(0.183824 0.273743 0)
(0.145608 0.28338 0)
(0.106055 0.29126 0)
(0.0627174 0.297069 0)
(0.0247722 0.299909 0)
(2.59809 0.000158328 0)
(1.6378 0.00215582 0)
(0.508215 0.00901411 0)
(0.553992 0.0107315 0)
(0.656188 0.0123153 0)
(0.722824 0.0142975 0)
(0.736384 0.0166254 0)
(0.729994 0.019041 0)
(0.720674 0.0216418 0)
(0.713735 0.0244123 0)
(0.709943 0.0273284 0)
(0.707003 0.0303823 0)
(0.70356 0.0335764 0)
(0.699391 0.0369168 0)
(0.694662 0.0404091 0)
(0.689496 0.0440603 0)
(0.683913 0.0478787 0)
(0.677889 0.0518749 0)
(0.671396 0.0560614 0)
(0.664417 0.0604521 0)
(0.656935 0.0650629 0)
(0.648936 0.069911 0)
(0.6404 0.0750153 0)
(0.631306 0.0803962 0)
(0.621632 0.0860756 0)
(0.61135 0.0920771 0)
(0.600434 0.0984256 0)
(0.588849 0.105148 0)
(0.576562 0.112271 0)
(0.563534 0.119826 0)
(0.54972 0.12784 0)
(0.535071 0.136347 0)
(0.519536 0.145372 0)
(0.50305 0.154949 0)
(0.485541 0.165098 0)
(0.466941 0.175838 0)
(0.447152 0.187184 0)
(0.426063 0.199137 0)
(0.403555 0.211679 0)
(0.37951 0.224763 0)
(0.353759 0.23833 0)
(0.326119 0.25227 0)
(0.296448 0.266417 0)
(0.264579 0.280554 0)
(0.230289 0.294374 0)
(0.193456 0.307438 0)
(0.153947 0.319193 0)
(0.11259 0.328951 0)
(0.0668676 0.336204 0)
(0.0263344 0.339744 0)
(2.59934 0.000167291 0)
(1.64091 0.00231196 0)
(0.510515 0.00966798 0)
(0.554275 0.0115304 0)
(0.656565 0.0132544 0)
(0.723522 0.0153936 0)
(0.737293 0.0179465 0)
(0.731041 0.0205999 0)
(0.721904 0.0234666 0)
(0.715124 0.0265188 0)
(0.711473 0.029726 0)
(0.708671 0.0330807 0)
(0.705371 0.0365865 0)
(0.701351 0.0402507 0)
(0.696778 0.0440779 0)
(0.691777 0.0480756 0)
(0.686368 0.0522531 0)
(0.680529 0.0566223 0)
(0.674235 0.0611968 0)
(0.667469 0.0659922 0)
(0.660217 0.071026 0)
(0.652466 0.0763174 0)
(0.644199 0.0818874 0)
(0.635395 0.0877589 0)
(0.626033 0.0939562 0)
(0.616089 0.100506 0)
(0.605536 0.107437 0)
(0.594343 0.114779 0)
(0.582477 0.122563 0)
(0.5699 0.130826 0)
(0.556568 0.1396 0)
(0.542432 0.148925 0)
(0.52744 0.158834 0)
(0.511526 0.169367 0)
(0.494614 0.180557 0)
(0.47663 0.192433 0)
(0.457473 0.205023 0)
(0.437021 0.218343 0)
(0.415137 0.232394 0)
(0.39168 0.24715 0)
(0.366457 0.262564 0)
(0.339238 0.278546 0)
(0.30981 0.29494 0)
(0.277924 0.311526 0)
(0.243266 0.327978 0)
(0.205597 0.343792 0)
(0.164634 0.358293 0)
(0.121135 0.370584 0)
(0.0724369 0.379873 0)
(0.0285285 0.384468 0)
(2.60072 0.000178289 0)
(1.64435 0.00244866 0)
(0.513077 0.0102727 0)
(0.554605 0.0122577 0)
(0.657001 0.0141015 0)
(0.724332 0.0164223 0)
(0.738353 0.0191993 0)
(0.732269 0.0220998 0)
(0.723343 0.0252482 0)
(0.71674 0.0285946 0)
(0.713243 0.032104 0)
(0.710593 0.0357696 0)
(0.707452 0.0395959 0)
(0.703598 0.0435936 0)
(0.699197 0.0477628 0)
(0.694377 0.0521131 0)
(0.689161 0.0566553 0)
(0.683528 0.0614021 0)
(0.677455 0.0663685 0)
(0.670927 0.0715718 0)
(0.663933 0.0770309 0)
(0.65646 0.0827673 0)
(0.648493 0.0888038 0)
(0.640014 0.0951662 0)
(0.631004 0.101881 0)
(0.621441 0.108979 0)
(0.6113 0.116491 0)
(0.600552 0.124453 0)
(0.589166 0.132899 0)
(0.577105 0.141871 0)
(0.564328 0.151409 0)
(0.550787 0.161558 0)
(0.53643 0.172361 0)
(0.521191 0.183867 0)
(0.504992 0.196124 0)
(0.487755 0.209172 0)
(0.469373 0.223056 0)
(0.44972 0.237812 0)
(0.428643 0.253466 0)
(0.405975 0.270021 0)
(0.381496 0.287463 0)
(0.354931 0.305733 0)
(0.325996 0.324702 0)
(0.294344 0.344173 0)
(0.259525 0.363829 0)
(0.221126 0.383116 0)
(0.178623 0.401241 0)
(0.132575 0.417086 0)
(0.0800233 0.42941 0)
(0.0315531 0.435733 0)
(2.60223 0.000186359 0)
(1.64813 0.00256488 0)
(0.51589 0.0107882 0)
(0.554975 0.0128836 0)
(0.657509 0.0148398 0)
(0.72528 0.0173481 0)
(0.739587 0.0203588 0)
(0.733709 0.0235191 0)
(0.725026 0.0269632 0)
(0.718617 0.0306174 0)
(0.715288 0.0344408 0)
(0.712804 0.0384276 0)
(0.709838 0.0425832 0)
(0.706167 0.046918 0)
(0.701954 0.0514344 0)
(0.697333 0.0561413 0)
(0.692329 0.0610507 0)
(0.686923 0.0661764 0)
(0.681093 0.0715351 0)
(0.674828 0.0771457 0)
(0.668119 0.0830293 0)
(0.660954 0.0892091 0)
(0.653321 0.0957105 0)
(0.645205 0.102561 0)
(0.636588 0.109792 0)
(0.627451 0.117435 0)
(0.617772 0.125525 0)
(0.607524 0.134102 0)
(0.59668 0.143208 0)
(0.585205 0.152886 0)
(0.573062 0.163185 0)
(0.560205 0.174159 0)
(0.546582 0.18586 0)
(0.532134 0.198346 0)
(0.516781 0.211682 0)
(0.500442 0.225925 0)
(0.48301 0.241141 0)
(0.464354 0.257392 0)
(0.444311 0.274735 0)
(0.422695 0.293213 0)
(0.399259 0.312856 0)
(0.373682 0.333666 0)
(0.345607 0.355571 0)
(0.314584 0.378433 0)
(0.279982 0.402034 0)
(0.241126 0.425789 0)
(0.197185 0.44878 0)
(0.148309 0.469722 0)
(0.0909437 0.486723 0)
(0.0361731 0.496099 0)
(2.60386 0.000191761 0)
(1.65222 0.00265146 0)
(0.518945 0.0111765 0)
(0.555402 0.0133727 0)
(0.658108 0.0154407 0)
(0.726392 0.018134 0)
(0.741038 0.0214004 0)
(0.735403 0.0248365 0)
(0.726999 0.0285938 0)
(0.7208 0.0325771 0)
(0.717651 0.0367347 0)
(0.715346 0.0410592 0)
(0.712567 0.0455589 0)
(0.709092 0.0502389 0)
(0.705084 0.0551108 0)
(0.700678 0.0601812 0)
(0.695903 0.0654622 0)
(0.690743 0.0709687 0)
(0.68518 0.0767197 0)
(0.679203 0.0827352 0)
(0.672806 0.089039 0)
(0.66598 0.0956558 0)
(0.658716 0.102614 0)
(0.651 0.109944 0)
(0.642819 0.117678 0)
(0.634156 0.125853 0)
(0.624992 0.134509 0)
(0.615304 0.143688 0)
(0.605069 0.153437 0)
(0.594255 0.163808 0)
(0.58283 0.174855 0)
(0.570752 0.18664 0)
(0.557975 0.199227 0)
(0.544442 0.212688 0)
(0.530082 0.2271 0)
(0.514812 0.242545 0)
(0.498531 0.25911 0)
(0.481109 0.27689 0)
(0.462379 0.295985 0)
(0.442144 0.316488 0)
(0.420143 0.338486 0)
(0.396015 0.362089 0)
(0.369332 0.387319 0)
(0.339597 0.414073 0)
(0.305955 0.44242 0)
(0.267306 0.471894 0)
(0.222419 0.501617 0)
(0.170686 0.530117 0)
(0.107305 0.554913 0)
(0.043494 0.570054 0)
(2.60559 0.00019405 0)
(1.65658 0.002698 0)
(0.52223 0.0113783 0)
(0.555911 0.0136686 0)
(0.658832 0.0158504 0)
(0.727718 0.0187347 0)
(0.742761 0.0222708 0)
(0.737409 0.0259957 0)
(0.729324 0.0300808 0)
(0.723354 0.0344067 0)
(0.720392 0.0389073 0)
(0.718271 0.0435737 0)
(0.715683 0.0484181 0)
(0.71241 0.0534478 0)
(0.708616 0.0586751 0)
(0.704434 0.0641081 0)
(0.699898 0.0697594 0)
(0.694997 0.0756457 0)
(0.689715 0.0817875 0)
(0.684047 0.0882065 0)
(0.677986 0.0949281 0)
(0.671529 0.101979 0)
(0.664668 0.10939 0)
(0.657393 0.117193 0)
(0.649693 0.125423 0)
(0.641555 0.134122 0)
(0.632964 0.14333 0)
(0.623902 0.153096 0)
(0.614348 0.163471 0)
(0.604278 0.174514 0)
(0.593664 0.186286 0)
(0.582472 0.198859 0)
(0.570661 0.212307 0)
(0.558184 0.226717 0)
(0.544978 0.242183 0)
(0.530971 0.258809 0)
(0.516069 0.276711 0)
(0.500155 0.296024 0)
(0.483073 0.316882 0)
(0.464621 0.339498 0)
(0.444566 0.363936 0)
(0.422537 0.390411 0)
(0.397952 0.4193 0)
(0.370403 0.450665 0)
(0.338937 0.484679 0)
(0.301924 0.521332 0)
(0.257468 0.560233 0)
(0.203853 0.600076 0)
(0.13378 0.638332 0)
(0.0565698 0.666329 0)
(2.60741 0.000168298 0)
(1.66116 0.00271931 0)
(0.525689 0.0113014 0)
(0.556524 0.0136748 0)
(0.659698 0.0159963 0)
(0.729267 0.0191115 0)
(0.744753 0.0229736 0)
(0.739706 0.0270525 0)
(0.731956 0.0315355 0)
(0.726206 0.0362585 0)
(0.723414 0.0411418 0)
(0.721468 0.0461797 0)
(0.719074 0.0513888 0)
(0.716012 0.0567848 0)
(0.712443 0.0623742 0)
(0.708504 0.0681676 0)
(0.70423 0.0741807 0)
(0.699615 0.0804325 0)
(0.694645 0.0869456 0)
(0.689317 0.0937451 0)
(0.683629 0.100858 0)
(0.677578 0.108316 0)
(0.671162 0.11615 0)
(0.664373 0.124396 0)
(0.657204 0.133092 0)
(0.649647 0.142283 0)
(0.64169 0.152012 0)
(0.633321 0.162334 0)
(0.624525 0.173302 0)
(0.615285 0.184982 0)
(0.60558 0.197443 0)
(0.595385 0.210762 0)
(0.584669 0.225029 0)
(0.573397 0.24034 0)
(0.561521 0.256812 0)
(0.548983 0.274569 0)
(0.535714 0.293746 0)
(0.521607 0.314569 0)
(0.506587 0.337121 0)
(0.490377 0.361659 0)
(0.472734 0.388612 0)
(0.453641 0.418211 0)
(0.432469 0.450954 0)
(0.408467 0.487325 0)
(0.380811 0.52782 0)
(0.347893 0.573196 0)
(0.307049 0.624199 0)
(0.255034 0.681056 0)
(0.180369 0.743068 0)
(0.0832495 0.803178 0)
(2.6093 0.000109859 0)
(1.66586 0.00272051 0)
(0.528952 0.0109627 0)
(0.557018 0.0133332 0)
(0.66055 0.0157561 0)
(0.730936 0.0190742 0)
(0.746972 0.0232601 0)
(0.742308 0.0276958 0)
(0.734954 0.0325806 0)
(0.729437 0.0376914 0)
(0.726819 0.0429403 0)
(0.725054 0.0483349 0)
(0.722865 0.053903 0)
(0.720023 0.0596614 0)
(0.716685 0.0656182 0)
(0.712994 0.0717828 0)
(0.708992 0.0781706 0)
(0.704675 0.0848014 0)
(0.700034 0.0916992 0)
(0.695068 0.0988899 0)
(0.689778 0.106402 0)
(0.684164 0.114268 0)
(0.678228 0.122521 0)
(0.671965 0.131199 0)
(0.665373 0.140343 0)
(0.658448 0.15 0)
(0.651185 0.160218 0)
(0.643576 0.171054 0)
(0.635614 0.182568 0)
(0.62729 0.194829 0)
(0.618592 0.207914 0)
(0.609507 0.221909 0)
(0.600017 0.236913 0)
(0.590106 0.253032 0)
(0.579743 0.270411 0)
(0.568878 0.289221 0)
(0.557535 0.309494 0)
(0.54554 0.331514 0)
(0.53279 0.355666 0)
(0.519474 0.382141 0)
(0.505298 0.411472 0)
(0.48997 0.444096 0)
(0.473226 0.480513 0)
(0.454608 0.521708 0)
(0.43351 0.568882 0)
(0.4087 0.623904 0)
(0.377743 0.689631 0)
(0.336691 0.771026 0)
(0.270984 0.878308 0)
(0.1465 1.04344 0)
(2.61165 7.42654e-05 0)
(1.67156 0.00257486 0)
(0.532592 0.010234 0)
(0.557545 0.0126769 0)
(0.66169 0.0153119 0)
(0.733258 0.0190781 0)
(0.750103 0.023883 0)
(0.745982 0.028951 0)
(0.739153 0.0344774 0)
(0.733919 0.0401541 0)
(0.731527 0.0458915 0)
(0.730024 0.0517248 0)
(0.728139 0.0577042 0)
(0.725627 0.0638541 0)
(0.722641 0.0701909 0)
(0.719324 0.0767281 0)
(0.715726 0.0834856 0)
(0.71185 0.0904887 0)
(0.707694 0.0977656 0)
(0.703259 0.105346 0)
(0.698551 0.113262 0)
(0.693577 0.121547 0)
(0.688341 0.130239 0)
(0.682848 0.139376 0)
(0.677101 0.149003 0)
(0.671105 0.159167 0)
(0.664864 0.169921 0)
(0.658381 0.181323 0)
(0.651661 0.193438 0)
(0.644709 0.206338 0)
(0.637529 0.220105 0)
(0.630129 0.23483 0)
(0.622507 0.250643 0)
(0.614694 0.267619 0)
(0.606739 0.285862 0)
(0.598423 0.305626 0)
(0.589816 0.327128 0)
(0.581381 0.350553 0)
(0.572942 0.37634 0)
(0.564292 0.404839 0)
(0.555579 0.436403 0)
(0.546883 0.47175 0)
(0.538385 0.511721 0)
(0.530311 0.557613 0)
(0.523238 0.611212 0)
(0.518343 0.67532 0)
(0.518344 0.754435 0)
(0.531408 0.855937 0)
(0.587423 0.99084 0)
(0.657481 1.1855 0)
(2.61414 5.8603e-05 0)
(1.67765 0.00192698 0)
(0.537091 0.00770438 0)
(0.559208 0.00985751 0)
(0.664362 0.0124349 0)
(0.737677 0.0166088 0)
(0.7556 0.0221407 0)
(0.752083 0.0279832 0)
(0.745716 0.0343196 0)
(0.740552 0.0407147 0)
(0.738174 0.0470992 0)
(0.736771 0.0535481 0)
(0.735062 0.0601259 0)
(0.732769 0.0668577 0)
(0.730031 0.0737537 0)
(0.726996 0.0808286 0)
(0.723725 0.0881047 0)
(0.720226 0.0956097 0)
(0.716499 0.103374 0)
(0.71255 0.111428 0)
(0.708388 0.119807 0)
(0.704022 0.128546 0)
(0.699462 0.137685 0)
(0.694719 0.147265 0)
(0.689801 0.157333 0)
(0.684722 0.167939 0)
(0.679493 0.179139 0)
(0.674131 0.190994 0)
(0.668653 0.20357 0)
(0.663077 0.216949 0)
(0.657425 0.231235 0)
(0.651762 0.24644 0)
(0.646049 0.262693 0)
(0.640227 0.280214 0)
(0.634556 0.29912 0)
(0.629206 0.319559 0)
(0.62407 0.341867 0)
(0.619238 0.366238 0)
(0.614924 0.392865 0)
(0.611283 0.422212 0)
(0.608597 0.454798 0)
(0.607344 0.491273 0)
(0.608191 0.532557 0)
(0.612228 0.579811 0)
(0.621289 0.634695 0)
(0.638698 0.69939 0)
(0.670488 0.776842 0)
(0.725718 0.8705 0)
(0.837139 0.980311 0)
(0.985192 1.09503 0)
(2.61559 6.95538e-05 0)
(1.68119 0.00129761 0)
(0.539947 0.00543388 0)
(0.560962 0.00787572 0)
(0.667721 0.0110604 0)
(0.743452 0.0164199 0)
(0.762826 0.0232224 0)
(0.760043 0.0301634 0)
(0.75415 0.0372345 0)
(0.748982 0.0440519 0)
(0.746615 0.050737 0)
(0.745349 0.0574661 0)
(0.743847 0.0643197 0)
(0.741781 0.0713167 0)
(0.739283 0.0784636 0)
(0.736515 0.0857837 0)
(0.733548 0.0933081 0)
(0.730398 0.101071 0)
(0.727068 0.109105 0)
(0.723565 0.117443 0)
(0.719902 0.12612 0)
(0.716095 0.13517 0)
(0.71216 0.144633 0)
(0.708111 0.154547 0)
(0.703968 0.164957 0)
(0.699752 0.175912 0)
(0.695484 0.187463 0)
(0.691189 0.199681 0)
(0.686908 0.21261 0)
(0.68271 0.226292 0)
(0.678488 0.240847 0)
(0.674296 0.256408 0)
(0.670483 0.273038 0)
(0.667049 0.290915 0)
(0.663912 0.310222 0)
(0.661249 0.331037 0)
(0.659225 0.353544 0)
(0.658015 0.378008 0)
(0.657894 0.404714 0)
(0.659233 0.434008 0)
(0.6625 0.466345 0)
(0.668436 0.502247 0)
(0.678121 0.54237 0)
(0.693017 0.587485 0)
(0.715507 0.638448 0)
(0.749064 0.696108 0)
(0.79928 0.760765 0)
(0.871796 0.83147 0)
(0.98499 0.903239 0)
(1.12089 0.956168 0)
(2.61679 5.86241e-05 0)
(1.68425 -0.00154041 0)
(0.545305 -0.00475866 0)
(0.566945 -0.00299957 0)
(0.675512 0.000987788 0)
(0.753627 0.00900965 0)
(0.773892 0.0185366 0)
(0.770896 0.0278206 0)
(0.764415 0.0364186 0)
(0.758656 0.0442341 0)
(0.75611 0.0517388 0)
(0.754927 0.0592285 0)
(0.753592 0.0667822 0)
(0.75171 0.0744095 0)
(0.749426 0.0821168 0)
(0.746929 0.0899385 0)
(0.744295 0.0979165 0)
(0.741536 0.10609 0)
(0.738651 0.114497 0)
(0.735646 0.123173 0)
(0.732534 0.132159 0)
(0.729332 0.141491 0)
(0.726057 0.151211 0)
(0.72273 0.16136 0)
(0.719376 0.171984 0)
(0.71602 0.183146 0)
(0.712712 0.19486 0)
(0.709462 0.207177 0)
(0.70624 0.220205 0)
(0.703195 0.234014 0)
(0.700503 0.248661 0)
(0.69813 0.264316 0)
(0.696115 0.281059 0)
(0.694616 0.298915 0)
(0.693731 0.318038 0)
(0.693625 0.338591 0)
(0.694525 0.360737 0)
(0.696678 0.384678 0)
(0.700429 0.410638 0)
(0.706226 0.438875 0)
(0.714669 0.469668 0)
(0.726567 0.503347 0)
(0.743058 0.540191 0)
(0.765628 0.580472 0)
(0.796337 0.624282 0)
(0.837871 0.67134 0)
(0.893883 0.7206 0)
(0.967065 0.76949 0)
(1.0684 0.813771 0)
(1.18163 0.839392 0)
(2.61244 0.00231832 0)
(1.67427 -0.006788 0)
(0.550237 -0.0137126 0)
(0.582952 -0.00794372 0)
(0.695984 -0.000348083 0)
(0.777732 0.00990513 0)
(0.798323 0.0200997 0)
(0.793874 0.0297533 0)
(0.785475 0.0382854 0)
(0.778355 0.0461621 0)
(0.775177 0.0538535 0)
(0.773645 0.0615176 0)
(0.771998 0.0691902 0)
(0.7698 0.0769027 0)
(0.767225 0.0847089 0)
(0.764494 0.0926602 0)
(0.761687 0.100801 0)
(0.758815 0.109168 0)
(0.75588 0.117793 0)
(0.752893 0.12671 0)
(0.749873 0.13595 0)
(0.746839 0.145546 0)
(0.74381 0.155533 0)
(0.740817 0.165937 0)
(0.737912 0.176774 0)
(0.735061 0.188105 0)
(0.732276 0.200008 0)
(0.729737 0.2125 0)
(0.727514 0.225658 0)
(0.725585 0.239579 0)
(0.724027 0.254291 0)
(0.72294 0.269836 0)
(0.722426 0.286319 0)
(0.722618 0.303837 0)
(0.723677 0.32249 0)
(0.725792 0.342416 0)
(0.729204 0.363737 0)
(0.734202 0.386597 0)
(0.741154 0.411138 0)
(0.750532 0.437508 0)
(0.762931 0.465838 0)
(0.77912 0.49623 0)
(0.800076 0.528703 0)
(0.82704 0.563139 0)
(0.861543 0.599192 0)
(0.905406 0.636109 0)
(0.960927 0.672546 0)
(1.02972 0.706193 0)
(1.11619 0.734095 0)
(1.20916 0.74789 0)
(2.60414 0.00795734 0)
(1.64398 -0.0736204 0)
(0.585677 -0.0728082 0)
(0.62402 -0.0458557 0)
(0.731393 -0.00589201 0)
(0.809013 0.0163698 0)
(0.82705 0.0264964 0)
(0.82112 0.0351948 0)
(0.811586 0.0425994 0)
(0.804184 0.0507534 0)
(0.800778 0.0593185 0)
(0.798896 0.0677825 0)
(0.796892 0.0760202 0)
(0.794424 0.0841196 0)
(0.791673 0.0922055 0)
(0.788811 0.100356 0)
(0.785895 0.108623 0)
(0.782927 0.117047 0)
(0.779909 0.125669 0)
(0.776856 0.134536 0)
(0.773786 0.143697 0)
(0.77073 0.153174 0)
(0.767701 0.162988 0)
(0.764698 0.173193 0)
(0.761812 0.183851 0)
(0.759169 0.194972 0)
(0.756752 0.206621 0)
(0.754575 0.218845 0)
(0.752749 0.231663 0)
(0.751347 0.245138 0)
(0.750451 0.259343 0)
(0.750166 0.274343 0)
(0.750625 0.290202 0)
(0.751979 0.306996 0)
(0.754402 0.324796 0)
(0.758104 0.343682 0)
(0.763323 0.36373 0)
(0.770361 0.385018 0)
(0.779575 0.407617 0)
(0.791407 0.431577 0)