/*--------------------------------*- C++ -*----------------------------------*\
| =========                 |                                                 |
| \\      /  F ield         | OpenFOAM: The Open Source CFD Toolbox           |
|  \\    /   O peration     | Version:  2412                                  |
|   \\  /    A nd           | Website:  www.openfoam.com                      |
|    \\/     M anipulation  |                                                 |
\*---------------------------------------------------------------------------*/
FoamFile
{
    version     2.0;
    format      ascii;
    arch        "LSB;label=32;scalar=64";
    class       volScalarField;
    location    "17.5";
    object      Ma;
}
// * * * * * * * * * * * * * * * * * * * * * * * * * * * * * * * * * * * * * //

dimensions      [0 0 0 0 0 0 0];

internalField   nonuniform List<scalar> 
7000
(
2.25639
0.994878
0.300995
0.338445
0.401084
0.442457
0.450679
0.446209
0.439854
0.434936
0.432091
0.429814
0.427218
0.424126
0.420658
0.416878
0.412814
0.408431
0.403722
0.398657
0.393237
0.387435
0.381251
0.374654
0.367643
0.360185
0.352277
0.343887
0.335006
0.325605
0.315671
0.305175
0.294105
0.282433
0.270145
0.257219
0.243644
0.229404
0.214493
0.198909
0.182656
0.165748
0.148208
0.13007
0.111382
0.092205
0.0725993
0.0528503
0.0319281
0.0155297
2.25644
0.994939
0.300792
0.338279
0.400928
0.442309
0.450531
0.446064
0.439715
0.434804
0.431963
0.429691
0.427098
0.42401
0.420546
0.416772
0.412713
0.408336
0.403633
0.398575
0.393163
0.387369
0.381193
0.374606
0.367605
0.360159
0.352263
0.343887
0.335022
0.325637
0.315722
0.305246
0.294198
0.28255
0.270289
0.257392
0.243849
0.229645
0.214774
0.199234
0.183033
0.166186
0.148719
0.130676
0.112116
0.0931289
0.0738268
0.0546585
0.0351618
0.0220619
2.25657
0.995136
0.300924
0.338313
0.400958
0.442341
0.450564
0.446104
0.439773
0.434873
0.432046
0.429777
0.427195
0.424113
0.420663
0.416897
0.412854
0.408486
0.403801
0.398755
0.393363
0.387584
0.381432
0.374864
0.367891
0.36047
0.352608
0.344262
0.335436
0.32609
0.316222
0.305795
0.294805
0.283217
0.271026
0.258207
0.244751
0.230645
0.215886
0.200477
0.184426
0.167762
0.150518
0.13276
0.114578
0.0961276
0.0776409
0.0598425
0.0430455
0.0335771
2.25674
0.995442
0.301195
0.338391
0.40104
0.442441
0.450668
0.446221
0.439903
0.435031
0.432215
0.429966
0.427391
0.424331
0.420892
0.417151
0.413121
0.408783
0.404113
0.399101
0.393728
0.387989
0.381862
0.375341
0.368398
0.361032
0.353209
0.344929
0.336153
0.326884
0.317079
0.306745
0.295835
0.28436
0.272272
0.259588
0.246265
0.232327
0.217745
0.202549
0.186742
0.170367
0.15348
0.136163
0.118567
0.100907
0.0835573
0.0674606
0.0533078
0.0461857
2.25699
0.995872
0.301544
0.33846
0.401125
0.442562
0.450797
0.446372
0.440065
0.435235
0.432429
0.430213
0.427647
0.424622
0.421197
0.417495
0.413483
0.409187
0.404543
0.399577
0.394238
0.388551
0.382468
0.376005
0.36912
0.361821
0.35407
0.345867
0.337182
0.328005
0.318314
0.308089
0.297321
0.285977
0.274065
0.261545
0.248441
0.234713
0.220406
0.205491
0.190039
0.174058
0.157657
0.140937
0.124084
0.107419
0.0913787
0.0770328
0.065114
0.0595002
2.25732
0.996444
0.301987
0.338532
0.401221
0.442707
0.450966
0.446542
0.440295
0.435471
0.432724
0.430506
0.427997
0.424973
0.421611
0.417914
0.413973
0.409687
0.405121
0.400172
0.39492
0.389261
0.383275
0.376853
0.370078
0.362836
0.35521
0.347087
0.338544
0.329473
0.319945
0.309861
0.299279
0.28812
0.276427
0.264145
0.251303
0.237883
0.223898
0.209385
0.194355
0.178914
0.163106
0.147132
0.131178
0.115623
0.100991
0.0883019
0.0781941
0.0736262
2.25774
0.997169
0.30253
0.338608
0.401328
0.442885
0.451171
0.446772
0.440558
0.435781
0.433066
0.43089
0.428407
0.425431
0.4221
0.418462
0.414555
0.410337
0.40581
0.400943
0.395739
0.390176
0.384248
0.377943
0.371239
0.364137
0.3566
0.348644
0.340214
0.331342
0.321959
0.312109
0.301716
0.290833
0.279384
0.267428
0.254906
0.241875
0.22831
0.214272
0.199797
0.18496
0.169906
0.154767
0.139846
0.12549
0.112242
0.101083
0.0924516
0.0886321
2.25825
0.99806
0.303181
0.338689
0.401448
0.443096
0.451418
0.447055
0.440876
0.436157
0.433479
0.431354
0.428908
0.425986
0.422702
0.419123
0.415273
0.411122
0.406665
0.401874
0.396756
0.391282
0.38546
0.379258
0.372685
0.365705
0.35833
0.350518
0.342289
0.333589
0.324453
0.314814
0.304723
0.294104
0.283023
0.271401
0.259322
0.246721
0.233692
0.220217
0.206397
0.192305
0.178066
0.163913
0.150067
0.136969
0.125083
0.115269
0.107851
0.10463
2.25887
0.999128
0.30395
0.338778
0.401584
0.443342
0.451714
0.447385
0.441265
0.436599
0.433979
0.4319
0.429513
0.426644
0.423425
0.419909
0.416134
0.412057
0.407687
0.402986
0.397969
0.392605
0.386903
0.380836
0.374406
0.367591
0.360388
0.352778
0.344755
0.336305
0.327416
0.318086
0.308293
0.298054
0.287334
0.276185
0.264552
0.252532
0.240068
0.227302
0.21421
0.200978
0.187689
0.174562
0.16191
0.15004
0.139461
0.130896
0.124501
0.121724
2.25959
1.00039
0.304846
0.338876
0.401739
0.443631
0.452063
0.447786
0.441718
0.437131
0.434559
0.432555
0.430217
0.427428
0.424269
0.420844
0.417141
0.413167
0.408884
0.404301
0.399392
0.394166
0.388598
0.382693
0.376429
0.369807
0.362808
0.355431
0.347658
0.339489
0.330909
0.321917
0.312505
0.302675
0.292429
0.281772
0.270729
0.259306
0.247573
0.235539
0.223345
0.211021
0.198804
0.186811
0.175352
0.164797
0.15545
0.147999
0.1425
0.140154
2.26043
1.00185
0.305878
0.338985
0.401915
0.443962
0.452474
0.44824
0.44227
0.437737
0.435257
0.433302
0.431058
0.428328
0.425273
0.421918
0.418331
0.414443
0.410293
0.405817
0.401061
0.395969
0.39058
0.384841
0.378788
0.372373
0.365624
0.358503
0.35103
0.343176
0.334957
0.326355
0.317381
0.308031
0.298315
0.288251
0.277849
0.267158
0.256201
0.245066
0.233804
0.222569
0.211457
0.200721
0.190534
0.181236
0.173175
0.166817
0.162145
0.160109
2.26138
1.00352
0.307055
0.339111
0.402116
0.44435
0.45295
0.448793
0.442892
0.438466
0.436047
0.434192
0.432013
0.429392
0.426413
0.423182
0.419685
0.415938
0.411897
0.407584
0.402963
0.398062
0.39284
0.387327
0.381481
0.375333
0.368841
0.362039
0.354884
0.347413
0.339586
0.331444
0.322955
0.31416
0.305044
0.29565
0.285989
0.276105
0.266055
0.255886
0.245721
0.235621
0.225792
0.216345
0.207555
0.199624
0.192776
0.1875
0.183642
0.182035
2.26247
1.00541
0.308383
0.339255
0.402348
0.444788
0.453502
0.449418
0.443635
0.439294
0.436979
0.435202
0.433131
0.430599
0.427742
0.424612
0.421255
0.417628
0.41375
0.409582
0.405154
0.400428
0.395434
0.390136
0.384563
0.378679
0.372515
0.366036
0.359275
0.352201
0.34485
0.337197
0.329282
0.321088
0.312667
0.304012
0.295191
0.286213
0.27717
0.268104
0.259123
0.250339
0.241853
0.233885
0.22653
0.220081
0.214659
0.210557
0.207581
0.206278
2.26367
1.00752
0.309862
0.339404
0.402627
0.44528
0.454135
0.450147
0.444482
0.440258
0.438038
0.436369
0.434398
0.431988
0.429244
0.426253
0.423026
0.419561
0.415836
0.41186
0.407615
0.403118
0.398347
0.393324
0.38802
0.382467
0.376632
0.37055
0.364193
0.357598
0.350743
0.343668
0.336364
0.328869
0.321197
0.313388
0.305483
0.29753
0.289595
0.281759
0.274104
0.266754
0.259827
0.253444
0.2478
0.242948
0.239038
0.236302
0.234381
0.233727
2.265
1.00985
0.311499
0.339566
0.402952
0.445839
0.454864
0.450991
0.445458
0.441369
0.439251
0.437704
0.435843
0.433566
0.43095
0.428108
0.42503
0.421736
0.418191
0.414415
0.410388
0.406127
0.401623
0.39688
0.391903
0.386685
0.381247
0.375571
0.369697
0.363593
0.357325
0.350851
0.344257
0.337501
0.330688
0.323791
0.316919
0.310087
0.303396
0.296915
0.290744
0.284996
0.279788
0.275259
0.271498
0.268687
0.266713
0.265738
0.265207
0.265173
2.26646
1.01243
0.313302
0.339768
0.403316
0.446488
0.455709
0.451965
0.44661
0.442642
0.440659
0.439219
0.437504
0.435349
0.432894
0.430192
0.4273
0.42417
0.420842
0.417264
0.413495
0.409476
0.405276
0.400832
0.396216
0.391365
0.386358
0.381135
0.375774
0.370231
0.364576
0.358793
0.352937
0.347033
0.341114
0.335258
0.329483
0.323913
0.318575
0.313615
0.309103
0.305182
0.301952
0.299548
0.298104
0.297603
0.298098
0.299527
0.301171
0.302696
2.26803
1.01522
0.315259
0.339998
0.403737
0.447242
0.456693
0.453101
0.447947
0.444114
0.442271
0.440953
0.439386
0.43737
0.435084
0.432541
0.429839
0.426901
0.423793
0.42045
0.416939
0.413207
0.409313
0.405218
0.400968
0.396543
0.391976
0.38727
0.382443
0.377525
0.372525
0.367495
0.362446
0.357449
0.352532
0.347768
0.343234
0.338993
0.335181
0.331863
0.329208
0.327342
0.32642
0.326542
0.327942
0.330683
0.334545
0.339649
0.344751
0.348748
2.26971
1.0182
0.317358
0.340265
0.404228
0.44813
0.457845
0.454448
0.449495
0.445837
0.444116
0.442952
0.441516
0.439676
0.437537
0.435194
0.432663
0.429957
0.427058
0.423988
0.420733
0.417325
0.413746
0.410035
0.406174
0.402204
0.398116
0.393951
0.389715
0.385444
0.381169
0.37692
0.372762
0.368718
0.364888
0.361308
0.358099
0.355344
0.353156
0.35172
0.351095
0.35154
0.353231
0.356441
0.361357
0.368098
0.376929
0.387659
0.399397
0.410001
2.27147
1.02134
0.319575
0.340583
0.404812
0.449177
0.459204
0.456025
0.451307
0.447821
0.446235
0.445216
0.443934
0.442265
0.440304
0.438152
0.435832
0.433348
0.430703
0.427894
0.424947
0.42185
0.418644
0.415307
0.411894
0.408377
0.404828
0.401213
0.397623
0.394027
0.390526
0.387109
0.38388
0.380865
0.378161
0.37586
0.374035
0.372881
0.372458
0.372959
0.374622
0.377739
0.382661
0.389529
0.398956
0.411282
0.426981
0.447138
0.471025
0.498635
2.27328
1.02456
0.321834
0.340954
0.405514
0.45043
0.460839
0.457906
0.45347
0.450133
0.448691
0.447794
0.446681
0.445159
0.4434
0.441416
0.43933
0.437056
0.434687
0.432143
0.429521
0.426754
0.423933
0.421002
0.418046
0.415027
0.412019
0.409014
0.40607
0.403215
0.400492
0.397977
0.395696
0.393776
0.392247
0.391284
0.390924
0.391352
0.392736
0.395422
0.399627
0.405723
0.413929
0.42509
0.439657
0.459196
0.485122
0.520632
0.571973
0.664958
2.27534
1.02826
0.324328
0.341204
0.406298
0.452009
0.462971
0.460407
0.456325
0.453211
0.451933
0.451253
0.450361
0.449112
0.447601
0.445932
0.444133
0.442228
0.440205
0.438097
0.435895
0.433645
0.43133
0.429013
0.42667
0.424378
0.422115
0.419971
0.417932
0.416102
0.414483
0.413189
0.41226
0.411817
0.411958
0.41273
0.414291
0.417055
0.421245
0.426937
0.43463
0.444601
0.457873
0.47486
0.497649
0.527654
0.569648
0.631199
0.729891
0.881582
2.27754
1.03222
0.32733
0.342162
0.408033
0.45488
0.466562
0.464376
0.460613
0.457557
0.456319
0.45573
0.454996
0.453925
0.452629
0.45119
0.449668
0.448062
0.446396
0.444666
0.442908
0.441121
0.439349
0.437591
0.435901
0.43428
0.432798
0.431458
0.43035
0.429482
0.428975
0.428843
0.429208
0.43009
0.431726
0.434313
0.438027
0.442945
0.449511
0.457836
0.468635
0.482353
0.499857
0.522675
0.551847
0.591412
0.643978
0.718113
0.829074
0.967287
2.27881
1.03453
0.329195
0.343225
0.410198
0.458629
0.471289
0.469603
0.466164
0.463133
0.461928
0.461459
0.460887
0.459998
0.458887
0.457656
0.456366
0.455027
0.453658
0.452266
0.450881
0.449516
0.448207
0.44697
0.445847
0.444866
0.444074
0.443512
0.443243
0.443331
0.44379
0.444694
0.446279
0.448684
0.451905
0.456196
0.46163
0.468623
0.477239
0.488209
0.501543
0.518544
0.539266
0.565822
0.599114
0.641781
0.697454
0.767859
0.86429
0.967668
2.27996
1.03663
0.332504
0.346925
0.415064
0.465048
0.478304
0.476493
0.472703
0.469326
0.468044
0.467681
0.46727
0.466557
0.46565
0.46465
0.463644
0.462616
0.461603
0.460589
0.459625
0.458704
0.45788
0.457155
0.45659
0.456199
0.456053
0.456166
0.456583
0.457392
0.458765
0.460747
0.463396
0.466885
0.471279
0.476882
0.483723
0.492309
0.502667
0.515448
0.53094
0.549767
0.572899
0.600764
0.635389
0.677188
0.729008
0.791084
0.869
0.950131
2.27641
1.03025
0.33468
0.356867
0.427516
0.479907
0.493427
0.490635
0.485637
0.481384
0.479721
0.479162
0.478585
0.477712
0.476649
0.475552
0.474485
0.473456
0.472476
0.471561
0.470732
0.470019
0.469437
0.469035
0.468837
0.468873
0.469143
0.469809
0.470886
0.472488
0.474582
0.477369
0.480817
0.485213
0.490525
0.497117
0.505026
0.5146
0.526135
0.539843
0.556406
0.575977
0.599535
0.627447
0.660656
0.700156
0.746427
0.800837
0.864355
0.928971
2.28232
1.02305
0.359143
0.382445
0.448556
0.498469
0.510402
0.506661
0.500923
0.496535
0.494829
0.494136
0.493434
0.492482
0.491414
0.490333
0.489298
0.488297
0.487356
0.486471
0.485691
0.485013
0.484496
0.484109
0.483974
0.484124
0.484667
0.48553
0.486917
0.488761
0.491311
0.494452
0.498537
0.503399
0.509511
0.516636
0.525404
0.535514
0.547753
0.561889
0.578693
0.598249
0.621118
0.647872
0.678726
0.714691
0.755672
0.802564
0.85579
0.909371
1.87643
0.772228
0.273601
0.344154
0.417659
0.441204
0.441159
0.437182
0.433534
0.433432
0.435604
0.43849
0.441492
0.444537
0.447679
0.450928
0.454251
0.457595
0.460937
0.464255
0.467535
0.470716
0.473862
0.477002
0.480197
0.483379
0.486671
0.489994
0.493615
0.497427
0.501725
0.506422
0.511848
0.517956
0.525067
0.533216
0.542653
0.553609
0.566134
0.580791
0.597358
0.616762
0.63853
0.663869
0.692155
0.724638
0.760642
0.801131
0.84596
0.890733
1.86898
0.771585
0.282469
0.3554
0.428265
0.447767
0.443341
0.436005
0.430334
0.428425
0.428329
0.428729
0.429327
0.430229
0.431575
0.433355
0.435613
0.438221
0.441297
0.444724
0.448612
0.452684
0.457161
0.461812
0.466844
0.472007
0.477543
0.483281
0.489368
0.495704
0.50243
0.509514
0.517067
0.525216
0.534005
0.543766
0.554361
0.566393
0.579581
0.594661
0.611309
0.630297
0.651342
0.675109
0.701454
0.730777
0.7631
0.798245
0.836663
0.874364
1.86802
0.770277
0.284601
0.365124
0.443569
0.463689
0.45755
0.4482
0.441181
0.438434
0.437526
0.436925
0.436333
0.435927
0.435836
0.436104
0.436732
0.43773
0.439259
0.441243
0.443728
0.446649
0.45016
0.454176
0.458795
0.463955
0.469671
0.475939
0.482721
0.490107
0.497974
0.506577
0.515658
0.525625
0.536039
0.547496
0.559551
0.572833
0.587001
0.602685
0.619613
0.638354
0.658776
0.681286
0.705828
0.73265
0.761702
0.792922
0.826553
0.859101
1.8695
0.773545
0.29038
0.367339
0.443644
0.464285
0.459107
0.450612
0.444023
0.441646
0.441163
0.440982
0.440762
0.440649
0.440732
0.441035
0.441619
0.442524
0.44371
0.445192
0.446993
0.449228
0.451866
0.455077
0.458761
0.463142
0.468055
0.473777
0.480052
0.487252
0.494999
0.503765
0.513069
0.52345
0.534461
0.546602
0.559513
0.57362
0.58862
0.604882
0.622249
0.640997
0.661088
0.682747
0.705937
0.730797
0.757257
0.785365
0.81517
0.843836
1.87259
0.780199
0.298039
0.361282
0.429004
0.450274
0.448031
0.441986
0.436368
0.434483
0.434513
0.435041
0.435627
0.43634
0.437232
0.438401
0.439859
0.441544
0.443414
0.445521
0.447866
0.450529
0.453487
0.456857
0.460595
0.464873
0.46959
0.475001
0.480928
0.487704
0.495083
0.503413
0.512451
0.522503
0.533374
0.545293
0.558121
0.572045
0.586988
0.603096
0.620327
0.638819
0.658471
0.679423
0.701553
0.725036
0.749657
0.775394
0.802424
0.828276
1.88117
0.78678
0.300291
0.349055
0.412118
0.44121
0.444216
0.439541
0.434388
0.432095
0.431844
0.432364
0.433079
0.433997
0.435092
0.436422
0.438017
0.439872
0.441985
0.444381
0.447056
0.450063
0.453373
0.457074
0.461112
0.465631
0.470538
0.476041
0.482003
0.488681
0.495927
0.503989
0.512758
0.52242
0.53291
0.544382
0.556763
0.570189
0.584589
0.600087
0.616609
0.634266
0.652973
0.672832
0.693741
0.715736
0.73867
0.762507
0.787337
0.811001
2.26334
1.1065
0.407566
0.399289
0.459443
0.508163
0.519475
0.514592
0.507671
0.501615
0.498092
0.495616
0.4935
0.491477
0.489444
0.487467
0.485737
0.484242
0.483088
0.482235
0.481801
0.481746
0.482194
0.483122
0.484597
0.486658
0.489338
0.492695
0.496732
0.50154
0.507095
0.51351
0.520751
0.528947
0.538041
0.548171
0.559262
0.571435
0.584613
0.598902
0.614199
0.630601
0.647985
0.666403
0.685767
0.706066
0.727202
0.749093
0.771818
0.793438
2.27277
1.12841
0.392027
0.377205
0.450061
0.510812
0.529236
0.528364
0.524142
0.520337
0.518892
0.518515
0.518497
0.518455
0.518038
0.517407
0.516732
0.516099
0.515528
0.515049
0.514678
0.514479
0.514473
0.51474
0.515318
0.516284
0.517675
0.519603
0.522062
0.525208
0.528993
0.533602
0.53896
0.545241
0.552381
0.56051
0.569607
0.57976
0.590961
0.603235
0.61661
0.631037
0.646539
0.663024
0.68046
0.69878
0.717891
0.737697
0.758265
0.777841
2.29766
1.17712
0.434595
0.384067
0.447146
0.503461
0.521959
0.522996
0.521173
0.519988
0.520408
0.521639
0.523433
0.525234
0.526642
0.527842
0.528965
0.530112
0.53126
0.532439
0.533625
0.534868
0.536159
0.53756
0.539072
0.540767
0.542662
0.544831
0.547321
0.550196
0.553526
0.557361
0.561798
0.566871
0.572695
0.579284
0.586754
0.595094
0.604399
0.614649
0.625884
0.638078
0.651256
0.665407
0.680498
0.696504
0.713326
0.730808
0.749039
0.766431
1.90081
0.805122
0.30598
0.31687
0.373972
0.414856
0.429143
0.432976
0.435803
0.439457
0.444391
0.45014
0.45658
0.463078
0.469259
0.47526
0.481229
0.487196
0.493144
0.499034
0.504862
0.510605
0.516284
0.521876
0.527417
0.532884
0.538344
0.543767
0.549248
0.554776
0.560421
0.566232
0.572269
0.578602
0.58528
0.592407
0.600006
0.608198
0.616972
0.626463
0.636628
0.647603
0.659304
0.67183
0.685074
0.699047
0.713687
0.729018
0.745042
0.760363
2.30616
1.19424
0.449931
0.386715
0.440714
0.492305
0.509322
0.509392
0.506246
0.503769
0.50251
0.502324
0.502777
0.50317
0.50349
0.503991
0.504812
0.506083
0.507775
0.509929
0.512499
0.515537
0.518997
0.522921
0.527233
0.531991
0.537076
0.542579
0.548341
0.554478
0.560866
0.567608
0.57459
0.581931
0.589527
0.597511
0.605804
0.614532
0.623641
0.63324
0.643301
0.653904
0.665038
0.676732
0.688996
0.701813
0.715191
0.729039
0.743448
0.757174
2.31141
1.20421
0.433212
0.369784
0.43842
0.500708
0.522181
0.523601
0.521382
0.51991
0.520038
0.521168
0.522897
0.524401
0.525426
0.526272
0.527105
0.528052
0.529124
0.53041
0.531917
0.533728
0.535833
0.538314
0.541159
0.544432
0.548124
0.552276
0.556887
0.56197
0.567525
0.573539
0.580019
0.586939
0.594333
0.602139
0.610411
0.619071
0.6282
0.637703
0.647683
0.65803
0.668869
0.680076
0.69177
0.703827
0.716343
0.729181
0.742467
0.755075
2.31412
1.21003
0.437381
0.371825
0.441547
0.505428
0.527825
0.529514
0.52735
0.526001
0.526473
0.527989
0.530259
0.532453
0.534172
0.5357
0.537226
0.538857
0.540588
0.542448
0.544435
0.546581
0.548901
0.551428
0.554195
0.557226
0.560566
0.564226
0.56826
0.572668
0.577506
0.582761
0.588491
0.594664
0.601333
0.608459
0.616087
0.62417
0.632741
0.641761
0.651242
0.661161
0.671505
0.682264
0.6934
0.704925
0.71677
0.72895
0.741458
0.753352
2.31709
1.21771
0.463755
0.387915
0.44715
0.506288
0.528866
0.532107
0.531231
0.530861
0.531753
0.533682
0.536219
0.538518
0.540544
0.542447
0.544404
0.546445
0.548622
0.550903
0.553334
0.555884
0.558609
0.56148
0.564557
0.567816
0.571318
0.575044
0.579056
0.58334
0.587958
0.592902
0.598223
0.603919
0.610024
0.616542
0.623488
0.630879
0.63871
0.647001
0.655721
0.664898
0.674485
0.684505
0.694896
0.705676
0.716773
0.728185
0.739933
0.751114
1.90566
0.813643
0.324841
0.323675
0.376465
0.414353
0.427239
0.43028
0.432568
0.435906
0.440676
0.446586
0.453312
0.460131
0.466841
0.473503
0.480239
0.487036
0.493905
0.500787
0.507689
0.514573
0.521454
0.528308
0.535158
0.541992
0.548836
0.555688
0.562572
0.569498
0.576485
0.583561
0.590739
0.598061
0.605533
0.613207
0.621078
0.629202
0.637569
0.64622
0.655148
0.664378
0.673895
0.683723
0.693837
0.704247
0.714927
0.725867
0.737118
0.747798
2.31217
1.20899
0.465249
0.403592
0.466279
0.527484
0.549432
0.550372
0.546232
0.542402
0.540196
0.538824
0.53823
0.537832
0.537097
0.536372
0.535802
0.535645
0.535828
0.53651
0.537618
0.539224
0.541301
0.543883
0.546938
0.55049
0.5545
0.558992
0.563911
0.569277
0.575038
0.581198
0.587707
0.594575
0.60176
0.609272
0.617078
0.625183
0.633566
0.642234
0.651173
0.66039
0.669874
0.679625
0.689625
0.699865
0.71033
0.720998
0.731929
0.742297
2.29419
1.1699
0.460322
0.422798
0.485882
0.54629
0.566192
0.566236
0.562516
0.559279
0.558522
0.558926
0.560013
0.561278
0.562152
0.562792
0.563384
0.564043
0.564778
0.565603
0.566523
0.567587
0.568837
0.57032
0.572065
0.574121
0.576501
0.579242
0.582356
0.585869
0.589781
0.594117
0.598877
0.604075
0.609702
0.61576
0.622237
0.629126
0.636413
0.644084
0.652118
0.6605
0.669206
0.678221
0.687539
0.697129
0.706988
0.717079
0.727452
0.737309
1.88786
0.805115
0.340909
0.355394
0.406355
0.443128
0.452857
0.452679
0.451739
0.452584
0.455894
0.460514
0.466052
0.472116
0.478206
0.484329
0.490548
0.496872
0.503251
0.509644
0.51601
0.522342
0.528624
0.53486
0.541042
0.547183
0.553288
0.559386
0.565492
0.571641
0.577856
0.584161
0.590584
0.597149
0.603881
0.610798
0.617924
0.625269
0.632849
0.640669
0.648746
0.657076
0.665671
0.674511
0.683595
0.692913
0.702449
0.712193
0.722184
0.731682
1.87402
0.796345
0.339624
0.356688
0.398325
0.426954
0.434869
0.434827
0.43382
0.433308
0.434037
0.435668
0.43822
0.441424
0.444911
0.448739
0.452991
0.457705
0.462863
0.468443
0.474405
0.480727
0.487365
0.494295
0.501472
0.508873
0.516455
0.524199
0.532069
0.540053
0.548122
0.55629
0.564525
0.572853
0.581247
0.58974
0.598313
0.606997
0.615788
0.624692
0.633705
0.642846
0.652116
0.661528
0.671078
0.680776
0.690618
0.700596
0.710754
0.720371
1.88892
0.806089
0.345152
0.373701
0.430961
0.466931
0.473669
0.469614
0.464529
0.461423
0.46047
0.460439
0.46103
0.461994
0.463031
0.464202
0.465631
0.467389
0.46951
0.472009
0.474906
0.478213
0.481957
0.486134
0.490761
0.495823
0.501329
0.507249
0.513585
0.520299
0.527396
0.534828
0.542594
0.550649
0.558986
0.567558
0.576366
0.585363
0.594544
0.603897
0.613418
0.623081
0.632888
0.642811
0.652857
0.663002
0.673256
0.683593
0.694085
0.703983
2.34086
1.12453
0.469246
0.447677
0.51323
0.574989
0.595628
0.59503
0.589734
0.584433
0.581424
0.579517
0.577955
0.576587
0.575037
0.573306
0.571535
0.569825
0.568215
0.566738
0.565412
0.56428
0.563362
0.562711
0.562349
0.562335
0.562679
0.563445
0.564624
0.566254
0.568368
0.570969
0.574086
0.577699
0.581835
0.586462
0.5916
0.59721
0.603304
0.609833
0.616797
0.624152
0.631881
0.639976
0.648391
0.657112
0.6661
0.67534
0.684841
0.693903
1.88938
0.807275
0.346268
0.363509
0.415843
0.456101
0.468572
0.469575
0.469023
0.468998
0.471281
0.474795
0.478999
0.483733
0.488556
0.493368
0.498209
0.50314
0.508117
0.513133
0.518126
0.523108
0.528037
0.532941
0.537788
0.542617
0.547401
0.552183
0.556965
0.561776
0.566623
0.571541
0.576529
0.581638
0.586867
0.592269
0.597833
0.603615
0.609596
0.615832
0.622293
0.62903
0.636016
0.643261
0.650755
0.658508
0.6665
0.67473
0.683215
0.691322
1.88911
0.807421
0.347576
0.364576
0.416119
0.454612
0.465063
0.464001
0.461128
0.458568
0.458099
0.458937
0.46052
0.462724
0.465141
0.467727
0.470592
0.473816
0.477405
0.481345
0.485608
0.490177
0.495031
0.500151
0.505517
0.511102
0.516888
0.522849
0.528967
0.535241
0.541647
0.548184
0.554838
0.561603
0.568472
0.575442
0.582512
0.589686
0.596966
0.604355
0.611859
0.619476
0.627218
0.635081
0.64308
0.651207
0.659475
0.66787
0.676438
0.684575
2.34286
1.12819
0.472907
0.449736
0.516479
0.580734
0.603203
0.603316
0.598241
0.593175
0.590395
0.588842
0.587719
0.586872
0.585873
0.584712
0.58349
0.582368
0.581332
0.580476
0.579736
0.579227
0.578879
0.578819
0.578972
0.579451
0.580211
0.581295
0.582716
0.584486
0.586609
0.589089
0.591922
0.595111
0.59865
0.602542
0.606778
0.611353
0.616254
0.621478
0.627006
0.632834
0.638941
0.645326
0.651964
0.658854
0.665973
0.673316
0.680885
0.688127
1.88983
0.808811
0.353541
0.381463
0.439708
0.479666
0.489631
0.487949
0.484901
0.483511
0.484932
0.487603
0.490949
0.494782
0.49868
0.50263
0.506691
0.51092
0.515283
0.519768
0.52433
0.528967
0.533652
0.538387
0.54316
0.547969
0.552813
0.557695
0.562623
0.567601
0.572637
0.577748
0.58293
0.58821
0.593583
0.599072
0.604673
0.610406
0.616266
0.62227
0.62842
0.634727
0.641191
0.647818
0.654606
0.661562
0.668681
0.675954
0.683409
0.690509
1.87524
0.799764
0.351248
0.378145
0.427548
0.459466
0.467121
0.465995
0.464316
0.463602
0.464127
0.465324
0.467222
0.469506
0.471855
0.474334
0.477038
0.480019
0.483282
0.486829
0.490646
0.49473
0.499069
0.50366
0.508487
0.513545
0.518815
0.524291
0.529954
0.535795
0.5418
0.547952
0.554256
0.560691
0.567263
0.573953
0.580771
0.5877
0.594753
0.601912
0.609187
0.616561
0.624046
0.631628
0.639322
0.64711
0.655006
0.662998
0.671133
0.678837
1.87422
0.79939
0.351765
0.37539
0.422445
0.454118
0.46234
0.461882
0.460767
0.460149
0.460419
0.461243
0.462726
0.464561
0.466408
0.468309
0.470363
0.472616
0.475087
0.477774
0.480687
0.483831
0.487215
0.490839
0.494711
0.498829
0.503198
0.507813
0.512676
0.517782
0.523131
0.528716
0.534533
0.540573
0.546829
0.55329
0.559951
0.566795
0.573823
0.581022
0.588388
0.595913
0.603593
0.611414
0.619369
0.627449
0.635659
0.643994
0.652484
0.660546
1.88907
0.809147
0.354961
0.362699
0.413325
0.452125
0.463072
0.462662
0.460875
0.45963
0.459666
0.460476
0.462016
0.463919
0.465746
0.467552
0.469468
0.471559
0.473841
0.476314
0.478978
0.481833
0.484886
0.488139
0.491595
0.495257
0.499129
0.503212
0.507509
0.512022
0.516752
0.521701
0.526867
0.532252
0.537853
0.543672
0.549701
0.555943
0.562389
0.56904
0.575884
0.58292
0.590135
0.597532
0.605104
0.61285
0.620753
0.628811
0.637036
0.644864
2.31242
1.20487
0.48559
0.431551
0.492639
0.556883
0.58289
0.586393
0.583732
0.581004
0.579718
0.579404
0.579896
0.58073
0.581271
0.581565
0.581799
0.582085
0.582462
0.582933
0.583499
0.584165
0.584942
0.585839
0.586868
0.588037
0.589358
0.59084
0.592492
0.594322
0.596341
0.598555
0.600974
0.603604
0.606453
0.609525
0.612827
0.616362
0.620136
0.624147
0.628402
0.632897
0.637637
0.642614
0.647835
0.653286
0.658966
0.664856
0.670983
0.676875
2.32265
1.229
0.466274
0.405428
0.481499
0.557579
0.588764
0.593451
0.590819
0.587958
0.586969
0.587422
0.588713
0.59053
0.592213
0.593612
0.594944
0.596358
0.597913
0.599594
0.601399
0.603312
0.605342
0.607483
0.609747
0.612125
0.61463
0.617253
0.620006
0.622883
0.625893
0.629033
0.632312
0.635726
0.639287
0.642988
0.646841
0.650841
0.654999
0.65931
0.663785
0.668418
0.67322
0.678185
0.683322
0.688619
0.694084
0.699703
0.705499
0.711036
2.31281
1.20636
0.486815
0.432611
0.494409
0.559878
0.586953
0.591109
0.589059
0.586949
0.58638
0.587036
0.588546
0.590537
0.592337
0.593931
0.595506
0.597189
0.599019
0.600994
0.603105
0.60535
0.607729
0.610247
0.612905
0.615706
0.618651
0.621742
0.624978
0.628362
0.631892
0.635573
0.639401
0.64338
0.647507
0.651786
0.656212
0.660792
0.665518
0.670397
0.675422
0.6806
0.685922
0.691397
0.697014
0.702781
0.708686
0.714736
0.720944
0.726882
1.88896
0.809199
0.356154
0.364343
0.416413
0.457034
0.469138
0.469158
0.467572
0.466558
0.467201
0.468824
0.471305
0.474259
0.47719
0.480153
0.483258
0.486582
0.490122
0.493879
0.497831
0.501982
0.506315
0.510838
0.515536
0.520415
0.525459
0.530674
0.536046
0.541579
0.54726
0.553093
0.559065
0.565182
0.571428
0.577813
0.58432
0.590957
0.597711
0.604589
0.611577
0.618685
0.625896
0.633221
0.640643
0.648175
0.655802
0.663539
0.671407
0.678898
1.8742
0.800025
0.355372
0.380514
0.428605
0.460156
0.467682
0.466518
0.464781
0.463902
0.464119
0.464971
0.466513
0.468395
0.470228
0.472078
0.474042
0.476178
0.478488
0.48098
0.483643
0.486489
0.489514
0.492729
0.49613
0.499726
0.503512
0.507497
0.511675
0.516053
0.520625
0.525396
0.530361
0.535523
0.540876
0.546422
0.552156
0.558077
0.564179
0.570463
0.576921
0.583553
0.59035
0.597312
0.604431
0.611704
0.619125
0.626692
0.634422
0.641785
1.87704
0.803125
0.35946
0.395195
0.451589
0.4846
0.490529
0.487
0.482818
0.480872
0.48086
0.481656
0.483068
0.484735
0.486334
0.487956
0.4897
0.491611
0.493687
0.495923
0.498315
0.500866
0.503578
0.506455
0.509497
0.512708
0.516089
0.519642
0.523369
0.52727
0.531349
0.535604
0.540038
0.544648
0.549438
0.554405
0.559551
0.564873
0.570373
0.576046
0.581893
0.587911
0.5941
0.600454
0.606972
0.61365
0.620484
0.627467
0.634613
0.641423
1.19185
1.04997
0.498465
0.190722
0.00966992
0.108589
0.159582
0.208033
0.229727
0.234186
0.222632
0.211237
0.200951
0.191401
0.179354
0.164886
0.147543
0.127608
0.105769
0.0826359
0.0587942
0.0351018
0.0157756
0.0234555
0.047245
0.071538
0.0957223
0.119442
0.142799
0.165711
0.188253
0.210342
0.232015
0.253171
0.273219
0.292332
0.311902
0.332292
0.352299
0.371485
0.390041
0.408061
0.425626
0.442706
0.459331
0.475461
0.491125
0.506287
0.520973
0.535145
0.548826
0.561975
0.574612
0.586687
0.598217
0.609146
0.619486
0.629176
0.638225
0.646563
0.6542
0.661061
0.667157
0.672416
0.676854
0.680409
0.683116
0.684939
0.685943
0.686232
0.686155
0.685762
0.684707
0.68248
0.679265
0.675808
0.672243
0.668645
0.665041
0.661553
0.658244
0.655229
0.65254
0.650256
0.648371
0.646927
0.645888
0.645265
0.645014
0.645074
0.64531
0.645724
0.646445
0.647624
0.649106
0.650696
0.65231
0.654017
0.655677
0.660433
1.12227
1.0367
0.807045
0.550067
0.503095
0.431836
0.381638
0.340755
0.310341
0.291777
0.260621
0.230487
0.210964
0.209271
0.216399
0.226975
0.239445
0.253403
0.268552
0.284451
0.300851
0.317364
0.33372
0.349939
0.366707
0.383728
0.400923
0.418058
0.435186
0.452149
0.469033
0.485694
0.502222
0.518487
0.534173
0.549116
0.564139
0.579886
0.595784
0.61104
0.625793
0.640199
0.654317
0.66813
0.681628
0.694787
0.707604
0.720064
0.732165
0.743889
0.755233
0.766175
0.77671
0.786811
0.796469
0.805652
0.814348
0.822518
0.830146
0.837193
0.843638
0.849441
0.85458
0.859018
0.862738
0.865713
0.867939
0.86941
0.870139
0.87029
0.87009
0.869576
0.868465
0.866374
0.863353
0.860043
0.856609
0.853169
0.849747
0.846456
0.843346
0.840527
0.838029
0.835921
0.834202
0.832902
0.831992
0.831478
0.831332
0.831446
0.8317
0.832124
0.83278
0.833842
0.835143
0.836565
0.837956
0.839423
0.84064
0.844443
1.0749
1.07604
1.00863
0.900512
0.831713
0.781658
0.745676
0.715565
0.690735
0.67267
0.657695
0.643442
0.63342
0.628353
0.626857
0.627161
0.628739
0.631223
0.634669
0.639002
0.644166
0.649987
0.65638
0.663246
0.670818
0.679001
0.687776
0.696945
0.706515
0.716328
0.726434
0.736692
0.747174
0.75773
0.768106
0.778059
0.788121
0.798916
0.810275
0.82139
0.832195
0.842838
0.853354
0.86378
0.874062
0.884207
0.89416
0.903939
0.913492
0.922836
0.931922
0.940762
0.949305
0.957561
0.965475
0.973052
0.980239
0.987034
0.993383
0.999282
1.00467
1.00955
1.01386
1.0176
1.02072
1.02321
1.02504
1.02622
1.02673
1.02674
1.02647
1.02591
1.0248
1.02285
1.02008
1.01699
1.01376
1.01053
1.00734