/*--------------------------------*- C++ -*----------------------------------*\
| =========                 |                                                 |
| \\      /  F ield         | OpenFOAM: The Open Source CFD Toolbox           |
|  \\    /   O peration     | Version:  2412                                  |
|   \\  /    A nd           | Website:  www.openfoam.com                      |
|    \\/     M anipulation  |                                                 |
\*---------------------------------------------------------------------------*/
FoamFile
{
    version     2.0;
    format      ascii;
    arch        "LSB;label=32;scalar=64";
    class       volScalarField;
    location    "17.5";
    object      p;
}
// * * * * * * * * * * * * * * * * * * * * * * * * * * * * * * * * * * * * * //

dimensions      [1 -1 -2 0 0 0 0];

internalField   nonuniform List<scalar> 
7000
(
1.63862
3.75368
11.4484
11.5263
11.0961
10.6863
10.5674
10.582
10.623
10.6628
10.6847
10.6985
10.713
10.7307
10.7511
10.7734
10.7972
10.8227
10.8499
10.8789
10.9098
10.9425
10.9771
11.0135
11.0517
11.0918
11.1337
11.1774
11.2228
11.2699
11.3185
11.3687
11.4201
11.4727
11.5263
11.5805
11.6351
11.6897
11.744
11.7974
11.8494
11.8995
11.9469
11.9911
12.0314
12.067
12.0973
12.1218
12.1395
12.1524
1.63892
3.75239
11.4479
11.5257
11.0956
10.6859
10.5671
10.5817
10.6226
10.6624
10.6842
10.698
10.7125
10.7302
10.7506
10.7728
10.7966
10.8221
10.8493
10.8783
10.9091
10.9418
10.9763
11.0127
11.0509
11.0909
11.1328
11.1764
11.2218
11.2688
11.3175
11.3676
11.419
11.4716
11.5251
11.5793
11.6339
11.6886
11.7428
11.7963
11.8483
11.8985
11.946
11.9903
12.0307
12.0664
12.0969
12.1215
12.1392
12.1522
1.63881
3.75146
11.446
11.5249
11.0949
10.6852
10.5664
10.5809
10.6218
10.6615
10.6832
10.697
10.7114
10.7291
10.7494
10.7716
10.7953
10.8207
10.8478
10.8768
10.9075
10.9401
10.9745
11.0108
11.0489
11.0888
11.1306
11.1741
11.2193
11.2663
11.3147
11.3647
11.416
11.4684
11.5218
11.5759
11.6303
11.6848
11.739
11.7923
11.8443
11.8944
11.9419
11.9862
12.0265
12.0623
12.0927
12.1174
12.135
12.1479
1.63869
3.75017
11.4427
11.5238
11.094
10.6841
10.5652
10.5797
10.6205
10.6601
10.6817
10.6953
10.7097
10.7273
10.7475
10.7696
10.7932
10.8185
10.8455
10.8743
10.905
10.9374
10.9717
11.0078
11.0457
11.0855
11.1271
11.1704
11.2154
11.2621
11.3104
11.3601
11.4111
11.4633
11.5164
11.5703
11.6245
11.6788
11.7327
11.7859
11.8377
11.8876
11.935
11.9792
12.0195
12.0553
12.0857
12.1103
12.1278
12.1407
1.63851
3.74831
11.438
11.5224
11.0927
10.6824
10.5635
10.578
10.6187
10.658
10.6795
10.693
10.7073
10.7248
10.7449
10.7668
10.7903
10.8154
10.8423
10.8709
10.9014
10.9336
10.9677
11.0036
11.0413
11.0808
11.122
11.1651
11.2098
11.2562
11.3041
11.3535
11.4041
11.456
11.5087
11.5622
11.6161
11.67
11.7236
11.7765
11.828
11.8777
11.925
11.9691
12.0093
12.045
12.0754
12.1001
12.1174
12.1304
1.63829
3.74579
11.4317
11.5206
11.091
10.6804
10.5612
10.5756
10.6162
10.6553
10.6766
10.69
10.7042
10.7215
10.7414
10.7631
10.7864
10.8114
10.838
10.8664
10.8966
10.9286
10.9624
10.9979
11.0353
11.0745
11.1154
11.158
11.2024
11.2483
11.2958
11.3447
11.3949
11.4462
11.4984
11.5514
11.6047
11.6582
11.7114
11.7638
11.8149
11.8643
11.9113
11.9552
11.9953
12.0309
12.0613
12.086
12.1033
12.1164
1.63803
3.74256
11.4238
11.5183
11.089
10.6777
10.5583
10.5727
10.6131
10.6519
10.673
10.6862
10.7001
10.7173
10.737
10.7585
10.7815
10.8062
10.8326
10.8607
10.8906
10.9222
10.9556
10.9908
11.0278
11.0665
11.1069
11.1491
11.1929
11.2383
11.2851
11.3334
11.383
11.4336
11.4852
11.5375
11.5902
11.643
11.6955
11.7474
11.798
11.8469
11.8935
11.937
11.9769
12.0124
12.0428
12.0675
12.0848
12.0981
1.63771
3.73858
11.4142
11.5156
11.0865
10.6745
10.5547
10.569
10.6092
10.6477
10.6685
10.6815
10.6952
10.7121
10.7315
10.7527
10.7755
10.7998
10.8259
10.8536
10.8831
10.9143
10.9473
10.982
11.0185
11.0567
11.0965
11.138
11.1812
11.2259
11.272
11.3195
11.3683
11.4181
11.4689
11.5203
11.5721
11.6241
11.6757
11.7268
11.7767
11.8249
11.8709
11.9141
11.9536
11.9889
12.0191
12.0438
12.0612
12.0748
1.63734
3.73378
11.4026
11.5123
11.0835
10.6707
10.5504
10.5645
10.6044
10.6427
10.6631
10.6758
10.6892
10.7058
10.7249
10.7458
10.7682
10.7922
10.8178
10.8451
10.8741
10.9049
10.9373
10.9714
11.0073
11.0448
11.0839
11.1247
11.167
11.2109
11.2561
11.3027
11.3505
11.3993
11.449
11.4993
11.55
11.6009
11.6515
11.7015
11.7504
11.7978
11.843
11.8855
11.9245
11.9595
11.9895
12.0142
12.0316
12.0455
1.63692
3.72813
11.3891
11.5085
11.08
10.6662
10.5453
10.5593
10.5988
10.6366
10.6567
10.669
10.6821
10.6983
10.7171
10.7376
10.7595
10.783
10.8082
10.835
10.8635
10.8936
10.9254
10.9589
10.994
11.0307
11.069
11.1089
11.1502
11.1931
11.2372
11.2826
11.3292
11.3768
11.4252
11.4742
11.5235
11.573
11.6223
11.6709
11.7186
11.7647
11.8089
11.8504
11.8887
11.9231
11.9528
11.9774
11.9948
12.009
1.63643
3.72156
11.3733
11.504
11.0759
10.6609
10.5393
10.553
10.5921
10.6295
10.6492
10.6611
10.6738
10.6896
10.7079
10.7279
10.7494
10.7724
10.797
10.8232
10.851
10.8805
10.9115
10.9442
10.9784
11.0142
11.0515
11.0903
11.1306
11.1722
11.215
11.2591
11.3042
11.3503
11.3971
11.4445
11.4922
11.5399
11.5874
11.6344
11.6804
11.7249
11.7676
11.8078
11.8449
11.8784
11.9075
11.9318
11.9492
11.9638
1.63588
3.71404
11.3554
11.4988
11.0712
10.6549
10.5323
10.5458
10.5844
10.6213
10.6405
10.6519
10.6642
10.6795
10.6973
10.7168
10.7377
10.7601
10.784
10.8095
10.8366
10.8653
10.8955
10.9272
10.9604
10.9951
11.0313
11.0689
11.1078
11.148
11.1893
11.2318
11.2752
11.3194
11.3643
11.4097
11.4554
11.501
11.5463
11.5911
11.6349
11.6773
11.7179
11.7562
11.7917
11.8238
11.8519
11.8757
11.8928
11.9079
1.63527
3.70553
11.3351
11.4929
11.0657
10.648
10.5244
10.5376
10.5755
10.6118
10.6304
10.6414
10.6531
10.6678
10.6851
10.7039
10.7242
10.7459
10.7691
10.7938
10.8201
10.8478
10.877
10.9077
10.9398
10.9733
11.0081
11.0443
11.0816
11.1202
11.1598
11.2003
11.2417
11.2838
11.3265
11.3695
11.4126
11.4556
11.4982
11.5402
11.5811
11.6207
11.6585
11.6941
11.7271
11.7571
11.7834
11.8061
11.8226
11.8383
1.6346
3.69597
11.3125
11.4861
11.0596
10.6403
10.5153
10.5281
10.5653
10.6009
10.619
10.6293
10.6404
10.6546
10.6711
10.6893
10.7089
10.7298
10.7522
10.776
10.8013
10.828
10.8561
10.8856
10.9164
10.9485
10.9818
11.0163
11.0519
11.0885
11.1261
11.1644
11.2035
11.2431
11.283
11.3232
11.3633
11.403
11.4423
11.4807
11.5179
11.5537
11.5876
11.6194
11.6487
11.6754
11.6989
11.7195
11.7347
11.7507
1.63388
3.68537
11.2876
11.4785
11.0526
10.6316
10.5051
10.5174
10.5537
10.5885
10.6059
10.6156
10.6261
10.6395
10.6553
10.6728
10.6915
10.7116
10.7331
10.7559
10.7801
10.8057
10.8325
10.8606
10.89
10.9204
10.952
10.9847
11.0183
11.0527
11.0879
11.1238
11.1601
11.1968
11.2336
11.2703
11.3067
11.3426
11.3777
11.4116
11.444
11.4748
11.5034
11.5297
11.5536
11.5748
11.5933
11.6101
11.6228
11.639
1.63308
3.67381
11.2602
11.4702
11.045
10.622
10.4936
10.5053
10.5405
10.5744
10.5911
10.6001
10.6098
10.6225
10.6376
10.6542
10.672
10.6911
10.7116
10.7333
10.7564
10.7806
10.8061
10.8327
10.8603
10.8891
10.9187
10.9493
10.9806
11.0126
11.0452
11.0781
11.1113
11.1446
11.1777
11.2104
11.2425
11.2736
11.3035
11.3317
11.3581
11.3821
11.4036
11.4222
11.4378
11.4506
11.4611
11.4706
11.4778
11.4927
1.63224
3.6613
11.2304
11.4611
11.0366
10.6112
10.4806
10.4916
10.5255
10.5585
10.5744
10.5827
10.5916
10.6035
10.6176
10.6333
10.6502
10.6683
10.6876
10.7082
10.7299
10.7527
10.7766
10.8015
10.8274
10.8541
10.8817
10.9099
10.9387
10.9679
10.9974
11.0271
11.0567
11.0861
11.1149
11.143
11.1699
11.1953
11.2189
11.2402
11.2587
11.274
11.2857
11.2934
11.2965
11.2959
11.2924
11.2881
11.2841
11.2948
1.63134
3.64797
11.1987
11.4513
11.0274
10.5993
10.4659
10.4762
10.5086
10.5405
10.5556
10.5631
10.5711
10.5821
10.5953
10.6101
10.6259
10.6429
10.661
10.6802
10.7005
10.7218
10.744
10.7671
10.7909
10.8155
10.8406
10.8663
10.8922
10.9184
10.9446
10.9706
10.9962
11.0211
11.045
11.0676
11.0885
11.1072
11.1232
11.1359
11.1447
11.1486
11.147
11.14
11.1251
11.1032
11.0754
11.0446
11.0144
11.0107
1.63041
3.634
11.1654
11.4408
11.0175
10.586
10.4496
10.4589
10.4895
10.5203
10.5346
10.5412
10.5485
10.5585
10.5707
10.5844
10.5991
10.6149
10.6317
10.6495
10.6682
10.6878
10.7082
10.7292
10.7509
10.7731
10.7956
10.8184
10.8413
10.864
10.8865
10.9084
10.9295
10.9494
10.9678
10.9843
10.9982
11.009
11.0161
11.0181
11.0153
11.0058
10.9864
10.9573
10.9165
10.8623
10.793
10.7111
10.6205
10.5651
1.62948
3.61959
11.1313
11.4297
11.0067
10.5711
10.4309
10.439
10.4676
10.4972
10.5107
10.5166
10.5229
10.5319
10.5431
10.5557
10.5693
10.5838
10.5992
10.6155
10.6326
10.6504
10.6688
10.6877
10.707
10.7266
10.7463
10.766
10.7854
10.8045
10.8229
10.8403
10.8564
10.8708
10.883
10.8924
10.8987
10.9001
10.8974
10.8884
10.8699
10.8417
10.8009
10.7446
10.6678
10.5647
10.4268
10.2458
10.012
9.75757
1.62872
3.60123
11.0909
11.4165
10.993
10.5518
10.406
10.4126
10.4384
10.4667
10.4794
10.4843
10.4895
10.4973
10.5072
10.5184
10.5305
10.5434
10.557
10.5713
10.5863
10.6018
10.6177
10.6338
10.6501
10.6664
10.6826
10.6983
10.7135
10.7279
10.741
10.7527
10.7624
10.7698
10.7739
10.7739
10.771
10.7622
10.7442
10.7174
10.6797
10.6276
10.5569
10.4608
10.3299
10.1474
9.88442
9.4792
8.78082
7.25853
1.62793
3.58183
11.048
11.3993
10.9739
10.5235
10.3698
10.3745
10.397
10.4245
10.437
10.4415
10.4457
10.4523
10.461
10.4707
10.4812
10.4923
10.504
10.5161
10.5286
10.5413
10.5542
10.5671
10.5798
10.5922
10.604
10.6151
10.6252
10.6339
10.6408
10.6457
10.6475
10.6465
10.6424
10.6325
10.6155
10.5911
10.5573
10.5117
10.4512
10.3709
10.2645
10.1222
9.9291
9.66141
9.27754
8.70856
7.86616
6.47957
1.62748
3.57063
11.0233
11.3877
10.9584
10.4952
10.3307
10.3329
10.3517
10.3789
10.3915
10.3953
10.3984
10.4037
10.4109
10.4192
10.428
10.4373
10.4468
10.4566
10.4666
10.4765
10.4863
10.4958
10.5049
10.5132
10.5207
10.5269
10.5317
10.5345
10.5347
10.5333
10.5285
10.5183
10.5029
10.4815
10.4526
10.4144
10.3648
10.3008
10.2184
10.1125
9.97523
9.79652
9.56116
9.24794
8.82763
8.26
7.52801
6.55479
1.62685
3.56149
11.0001
11.3664
10.9304
10.4498
10.2758
10.278
10.2983
10.329
10.343
10.3465
10.3487
10.3531
10.3593
10.3663
10.3737
10.3811
10.3886
10.3961
10.4034
10.4105
10.4172
10.4234
10.4287
10.433
10.4361
10.4375
10.4371
10.435
10.4298
10.4203
10.4069
10.3887
10.3644
10.3332
10.2933
10.2429
10.1795
10.1001
10.0007
9.87613
9.71964
9.52242
9.27332
8.95851
8.56339
8.0722
7.49167
6.76237
1.62751
3.59607
11.0615
11.3637
10.9031
10.3843
10.1989
10.2041
10.2322
10.2701
10.2866
10.2902
10.2919
10.2956
10.3012
10.3074
10.3135
10.3195
10.3252
10.3307
10.3357
10.3403
10.3442
10.3473
10.3493
10.3498
10.3491
10.3468
10.3417
10.3335
10.3221
10.3069
10.2871
10.2619
10.23
10.1904
10.1413
10.081
10.0071
9.91685
9.80661
9.67205
9.50784
9.30767
9.06425
8.76984
8.41719
7.99912
7.51804
6.96677
1.58976
3.70679
11.0666
11.2724
10.8223
10.3029
10.1298
10.1398
10.1763
10.2162
10.2327
10.2365
10.2386
10.2423
10.2471
10.2521
10.2566
10.2607
10.2643
10.2674
10.2699
10.2717
10.2725
10.2723
10.2712
10.2684
10.2631
10.2559
10.2461
10.2332
10.2168
10.1962
10.1707
10.1393
10.101
10.0545
9.99855
9.93114
9.85032
9.75361
9.63811
9.50038
9.33657
9.14233
8.91323
8.64481
8.33372
7.97729
7.57753
7.12969
1.55452
4.81479
11.2185
10.9504
10.3111
10.0538
10.0489
10.0754
10.1228
10.1494
10.1591
10.1634
10.1677
10.1728
10.1779
10.1825
10.1864
10.1895
10.192
10.1936
10.1942
10.194
10.193
10.1906
10.1861
10.1802
10.1725
10.1624
10.1494
10.1329
10.1124
10.0874
10.0572
10.021
9.97779
9.92642
9.86563
9.79384
9.70928
9.60989
9.4934
9.35723
9.19865
9.01476
8.80285
8.56049
8.28621
7.98
7.6432
7.26855
1.55544
4.82189
11.1685
10.8812
10.2383
9.99871
10.0086
10.0508
10.0993
10.1211
10.1272
10.1298
10.1328
10.1361
10.1387
10.1403
10.141
10.141
10.1403
10.1386
10.1355
10.1316
10.1267
10.1204
10.1125
10.1026
10.0904
10.0757
10.0582
10.0374
10.0131
9.98445
9.95074
9.91089
9.86396
9.8091
9.7451
9.67071
9.58454
9.48495
9.37019
9.23836
9.08756
8.91582
8.72154
8.50329
8.26037
7.99226
7.70526
7.38909
1.56562
4.84101
11.2313
10.9013
10.1821
9.92129
9.93617
9.99058
10.048
10.0725
10.0789
10.0817
10.085
10.0884
10.0908
10.0918
10.0917
10.0908
10.0884
10.0843
10.0792
10.0729
10.0652
10.0559
10.0447
10.0315
10.016
9.99787
9.97692
9.95268
9.92449
9.89172
9.85379
9.8103
9.76053
9.70343
9.63806
9.56301
9.47707
9.37897
9.26757
9.14137
8.99921
8.83974
8.66199
8.46528
8.24993
8.01573
7.76653
7.49598
1.55596
4.81928
11.1555
10.8495
10.158
9.89652
9.90839
9.95735
10.0136
10.0379
10.0436
10.0451
10.0471
10.049
10.0497
10.0493
10.0478
10.0444
10.0396
10.0337
10.0266
10.0182
10.0081
9.99632
9.98252
9.96655
9.94812
9.92705
9.90293
9.87547
9.8441
9.80844
9.76798
9.72202
9.66993
9.6108
9.54391
9.46845
9.38361
9.2883
9.1816
9.06225
8.92926
8.7818
8.61958
8.44255
8.25088
8.04399
7.8255
7.59067
1.52677
4.76177
10.9481
10.7249
10.1493
9.90112
9.90186
9.93101
9.97968
10.0031
10.0088
10.0096
10.0103
10.0106
10.0101
10.0084
10.0049
9.99977
9.99355
9.98618
9.97737
9.96701
9.95488
9.9409
9.92482
9.90655
9.88574
9.86225
9.83564
9.80569
9.77198
9.7341
9.69157
9.64381
9.59034
9.53049
9.46361
9.38898
9.30589
9.21352
9.11104
8.99791
8.87361
8.73768
8.58962
8.42912
8.25629
8.07327
7.88049
7.67442
1.51071
4.71629
10.865
10.73
10.2327
9.93978
9.88768
9.90596
9.94534
9.9695
9.97629
9.97603
9.97489
9.97261
9.96973
9.96593
9.96086
9.95452
9.94689
9.93793
9.92746
9.9154
9.90154
9.88583
9.868
9.84795
9.82532
9.80002
9.77163
9.73993
9.70457
9.66517
9.62139
9.57273
9.51869
9.45878
9.39252
9.31933
9.23864
9.14983
9.05236
8.94574
8.82958
8.70354
8.56752
8.4216
8.26612
8.10174
7.92971
7.74704
1.66786
3.29113
10.5025
11.0113
10.5958
10.0758
9.88743
9.89134
9.91653
9.94962
9.96039
9.95924
9.95531
9.94898
9.94316
9.93725
9.93036
9.92212
9.91249
9.90144
9.8889
9.8747
9.8587
9.84091
9.82105
9.79893
9.77427
9.74696
9.71664
9.68313
9.6461
9.60521
9.56011
9.51041
9.45573
9.39574
9.33006
9.25827
9.17991
9.09458
9.00177
8.90117
8.79253
8.6756
8.55038
8.417
8.27578
8.12719
7.97242
7.80897
1.67578
3.16747
10.4367
11.1633
10.7149
10.1108
9.86574
9.85278
9.87051
9.9027
9.91317
9.91131
9.90532
9.89599
9.88838
9.88186
9.87493
9.86674
9.85709
9.84597
9.8333
9.81898
9.80284
9.78471
9.76446
9.7419
9.71675
9.68889
9.65801
9.62396
9.58641
9.54518
9.5
9.45059
9.39671
9.33793
9.27385
9.20413
9.12847
9.04644
8.95781
8.86243
8.76026
8.65143
8.53577
8.41336
8.28439
8.1493
8.00906
7.86156
1.64103
3.05294
9.90799
11.0071
10.6474
10.1084
9.88506
9.86412
9.87508
9.8934
9.89507
9.89113
9.88099
9.86764
9.85648
9.84679
9.83701
9.82626
9.8143
9.80109
9.78653
9.77052
9.75286
9.73339
9.71193
9.68831
9.66232
9.63373
9.60227
9.56776
9.53001
9.4888
9.44387
9.39496
9.34179
9.28407
9.22152
9.15388
9.08092
9.00251
8.91857
8.82886
8.7332
8.63144
8.52347
8.40965
8.29082
8.16731
8.03958
7.90568
1.43554
4.54829
10.333
10.5102
10.218
9.9235
9.81554
9.8129
9.82117
9.83167
9.83159
9.82806
9.81902
9.80707
9.79683
9.78771
9.77823
9.76763
9.75574
9.74255
9.72802
9.71197
9.69427
9.67473
9.65323
9.62956
9.6036
9.57506
9.54379
9.50969
9.47251
9.43199
9.38793
9.34014
9.28837
9.2324
9.17201
9.10702
9.03727
8.96261
8.88292
8.79808
8.70802
8.61277
8.51271
8.40794
8.29835
8.18416
8.06638
7.94355
1.63336
3.00159
9.72312
10.8948
10.5803
10.08
9.86038
9.82602
9.83136
9.83784
9.83509
9.82594
9.80926
9.79347
9.77987
9.76732
9.7545
9.74068
9.72566
9.70958
9.6924
9.67393
9.65397
9.63237
9.60894
9.58358
9.5561
9.52645
9.49449
9.45989
9.42243
9.38194
9.33823
9.29117
9.24053
9.18609
9.12766
9.06509
8.99824
8.92698
8.85123
8.77095
8.68615
8.59686
8.50323
8.40538
8.30347
8.19787
8.08918
7.97616
1.64223
2.9335
9.72462
11.02
10.639
10.0478
9.79034
9.75675
9.7669
9.78256
9.78148
9.77435
9.7584
9.74131
9.72747
9.71535
9.70311
9.69002
9.67591
9.66055
9.64379
9.62559
9.60586
9.58445
9.56127
9.53615
9.50893
9.47949
9.44769
9.41333
9.37629
9.33642
9.29354
9.24744
9.19798
9.14504
9.08851
9.02827
8.96419
8.89622
8.82427
8.7483
8.6683
8.58434
8.49649
8.4049
8.30975
8.21152
8.11062
8.0058
1.64054
2.91424
9.67023
10.9985
10.6139
10.0077
9.74093
9.70572
9.71686
9.7352
9.7347
9.72846
9.7135
9.69589
9.68177
9.66971
9.65763
9.64457
9.63031
9.61477
9.5979
9.57961
9.55981
9.53838
9.5152
9.49013
9.46304
9.43381
9.4023
9.36839
9.33194
9.29282
9.25087
9.20596
9.15796
9.10674
9.05225
8.99439
8.93308
8.86826
8.79986
8.72787
8.65229
8.57318
8.49067
8.4049
8.31592
8.2241
8.1299
8.03217
1.62618
2.92293
9.50242
10.8577
10.5482
9.99714
9.7414
9.69341
9.6981
9.70638
9.70406
9.69551
9.6783
9.66158
9.64726
9.63417
9.62096
9.60692
9.59182
9.57558
9.55813
9.53937
9.51917
9.49743
9.47401
9.44881
9.42169
9.39255
9.36126
9.32772
9.29176
9.25329
9.21219
9.16837
9.12176
9.07227
9.01978
8.9642
8.90546
8.84355
8.77843
8.71007
8.63851
8.56381
8.48604
8.40534
8.32195
8.23595
8.14766
8.05605
1.39387
4.48114
10.0328
10.3028
10.0223
9.73476
9.62689
9.61773
9.62313
9.6297
9.62863
9.62341
9.61208
9.59938
9.58793
9.57708
9.56573
9.55328
9.53956
9.52451
9.5081
9.49028
9.47095
9.45004
9.42745
9.40307
9.3768
9.34852
9.31817
9.28566
9.25086
9.21369
9.17405
9.13186
9.08703
9.0395
8.98917
8.93597
8.8799
8.8209
8.759
8.69422
8.62653
8.55597
8.4826
8.4065
8.32789
8.24683
8.16367
8.07746
1.63142
2.94668
9.58999
10.8412
10.4975
9.90854
9.63491
9.59245
9.60273
9.62317
9.62476
9.62009
9.6077
9.59038
9.57546
9.56234
9.54912
9.53486
9.51931
9.50241
9.48429
9.46477
9.44388
9.42162
9.39792
9.37265
9.34567
9.31686
9.28613
9.25336
9.21856
9.18167
9.14263
9.10133
9.05769
9.01161
8.96303
8.91191
8.85817
8.80175
8.74263
8.68082
8.61634
8.54925
8.47966
8.40766
8.33338
8.25689
8.17843
8.09707
1.64165
3.07642
9.86342
10.7732
10.3909
9.77894
9.51689
9.49666
9.51398
9.54679
9.55626
9.5536
9.54524
9.53101
9.51852
9.50765
9.49658
9.48428
9.47053
9.4554
9.43905
9.42141
9.40229
9.38155
9.35908
9.33488
9.30893
9.28117
9.25156
9.22006
9.18659
9.15106
9.11339
9.07351
9.03137
8.9869
8.94007
8.89083
8.83915
8.78503
8.72847
8.66951
8.60816
8.5444
8.47829
8.40991
8.33936
8.26674
8.19228
8.1151
1.40406
4.54513
10.1019
10.1578
9.85218
9.54485
9.44531
9.45062
9.46999
9.48997
9.4957
9.49418
9.48914
9.47968
9.47034
9.46128
9.45151
9.4404
9.42782
9.4138
9.39835
9.38144
9.36297
9.34289
9.32116
9.29774
9.27262
9.24574
9.21704
9.18645
9.15399
9.11958
9.08319
9.04472
9.00415
8.96142
8.91649
8.86932
8.81991
8.76823
8.71426
8.65801
8.59952
8.53886
8.47606
8.41118
8.34428
8.2754
8.20473
8.13145
1.38801
4.55491
9.99837
10.0238
9.78222
9.55016
9.46781
9.46512
9.47127
9.48066
9.48234
9.48027
9.47432
9.46428
9.45398
9.44356
9.43235
9.41996
9.40627
9.3913
9.37503
9.35745
9.3385
9.31811
9.29623
9.27281
9.2478
9.22116
9.19285
9.16283
9.13099
9.09729
9.06167
9.02408
8.98449
8.94286
8.89915
8.8533
8.8054
8.75552
8.70362
8.64963
8.59356
8.53542
8.47525
8.41308
8.34899
8.28309
8.21555
8.1456
1.42121
4.56835
10.2105
10.1807
9.79717
9.46168
9.36843
9.38039
9.41161
9.4361
9.44303
9.44166
9.43704
9.42844
9.41947
9.41035
9.40039
9.3891
9.37635
9.36215
9.34651
9.32941
9.31083
9.29078
9.26923
9.24614
9.22148
9.19522
9.16734
9.13781
9.10656
9.07354
9.03871
9.00208
8.96363
8.92334
8.8812
8.83722
8.7913
8.74336
8.69341
8.64152
8.58771
8.53198
8.47437
8.4149
8.35365
8.29067
8.22604
8.15897
1.53216
3.3514
9.88634
10.7056
10.3181
9.67576
9.39169
9.36577
9.3834
9.41927
9.43344
9.43241
9.42776
9.41798
9.40751
9.3975
9.38705
9.37541
9.36232
9.34779
9.33188
9.31461
9.29595
9.27584
9.25425
9.23113
9.20641
9.18005
9.15218
9.12269
9.09152
9.05864
9.02409
8.98785
8.9499
8.9102
8.86877
8.82557
8.78059
8.73379
8.68522
8.63491
8.58275
8.52878
8.4731
8.41577
8.35682
8.2963
8.23433
8.17019
1.39643
4.53369
10.0641
10.0937
9.79077
9.46574
9.34374
9.34216
9.35355
9.37499
9.3838
9.3831
9.37958
9.37191
9.36294
9.35418
9.34498
9.33462
9.32281
9.30956
9.29489
9.27882
9.26131
9.24234
9.22186
9.19985
9.17628
9.15113
9.12445
9.09621
9.06637
9.03496
9.00193
8.9672
8.93074
8.89256
8.85264
8.81099
8.7676
8.72246
8.67558
8.62694
8.57665
8.52476
8.47125
8.41614
8.35947
8.3013
8.24177
8.18033
1.39383
4.53082
10.0467
10.0808
9.77422
9.44638
9.32616
9.32645
9.33899
9.36173
9.37111
9.37022
9.36616
9.35756
9.34789
9.33839
9.32842
9.3173
9.30479
9.2909
9.27568
9.25917
9.24135
9.22219
9.20167
9.17975
9.15645
9.13176
9.10555
9.07778
9.04844
9.01749
8.98496
8.95086
8.91521
8.87796
8.83911
8.79862
8.75649
8.71273
8.66734
8.62033
8.57174
8.52157
8.46983
8.41657
8.3618
8.30558
8.24797
8.18852
1.53035
3.33948
9.84717
10.6866
10.3006
9.63602
9.33202
9.29618
9.31271
9.34749
9.3627
9.36181
9.35723
9.34737
9.33654
9.32657
9.3165
9.30545
9.29301
9.27924
9.26412
9.24771
9.22997
9.21088
9.1904
9.16845
9.14517
9.12046
9.09426
9.06655
9.03734
9.0066
8.97438
8.94066
8.90544
8.86869
8.83042
8.7906
8.74924
8.70635
8.66192
8.61597
8.56852
8.51958
8.46917
8.41733
8.36408
8.30948
8.25363
8.19611
1.40787
4.54731
10.1168
10.0907
9.70566
9.35274
9.24249
9.25173
9.28098
9.30995
9.31954
9.31862
9.31471
9.30664
9.29797
9.28948
9.28043
9.2702
9.25862
9.24569
9.23146
9.21594
9.19912
9.18097
9.16148
9.1406
9.11836
9.09472
9.06964
9.04312
9.01512
8.9857
8.95482
8.92247
8.88863
8.85329
8.81644
8.7781
8.73827
8.69693
8.65406
8.60966
8.56376
8.51639
8.46758
8.41734
8.36567
8.31269
8.25846
8.20259
1.39281
4.55513
10.0059
9.98029
9.66761
9.38726
9.29871
9.3017
9.31383
9.32462
9.32515
9.32265
9.31603
9.30592
9.29587
9.28594
9.27541
9.26385
9.25114
9.23727
9.22222
9.20603
9.18865
9.17008
9.15027
9.12921
9.10687
9.08324
9.05829
9.03201
9.0044
8.9754
8.94498
8.91311
8.8798
8.84503
8.80879
8.77108
8.73192
8.69131
8.64929
8.60585
8.56098
8.5147
8.46702
8.41794
8.36753
8.31577
8.26271
8.20788
1.38485
4.54743
9.95727
9.94606
9.65771
9.38601
9.29368
9.29295
9.29909
9.30678
9.30682
9.30455
9.29838
9.28846
9.27851
9.26869
9.25833
9.24702
9.23462
9.22112
9.20653
9.19079
9.17388
9.15577
9.13643
9.11583
9.09397
9.07082
9.04636
9.02057
8.99344
8.96494
8.93506
8.90379
8.87112
8.83706
8.80161
8.76476
8.72649
8.6868
8.64569
8.60316
8.55923
8.5139
8.46722
8.41925
8.36994
8.31926
8.26724
8.21343
1.37694
4.50889
9.91762
10.0302
9.72999
9.40213
9.28086
9.2768
9.28538
9.29771
9.29978
9.29742
9.29072
9.27964
9.26892
9.25876
9.24826
9.23684
9.2243
9.21065
9.19588
9.18
9.16297
9.14478
9.1254
9.10481
9.083
9.05994
9.03562
9.01002
8.98312
8.95492
8.92538
8.89451
8.8623
8.82873
8.7938
8.7575
8.71982
8.68078
8.64036
8.5986
8.5555
8.51109
8.46534
8.41822
8.36979
8.32008
8.26915
8.21661
1.62607
2.96834
9.51968
10.6165
10.2722
9.6464
9.3368
9.27086
9.2784
9.29657
9.304
9.30173
9.29418
9.27977
9.26656
9.25523
9.24435
9.23279
9.22014
9.20635
9.19147
9.17552
9.15848
9.14032
9.12099
9.10049
9.07877
9.05583
9.03165
9.0062
8.97947
8.95145
8.92212
8.89147
8.85949
8.82617
8.79152
8.75552
8.71818
8.6795
8.63948
8.59813
8.55546
8.5115
8.46623
8.41969
8.37193
8.32303
8.27304
8.22165
1.63538
2.85301
9.48188
10.8203
10.4141
9.67576
9.30846
9.23038
9.24092
9.26685
9.28148
9.28026
9.27411
9.2607
9.24655
9.23496
9.22451
9.21357
9.20148
9.18816
9.17371
9.15819
9.14158
9.12385
9.10499
9.08495
9.06373
9.04129
9.01763
8.99273
8.96657
8.93913
8.91041
8.88039
8.84907
8.81643
8.78247
8.74719
8.71058
8.67265
8.6334
8.59283
8.55096
8.50776
8.46328
8.41755
8.37059
8.32247
8.27325
8.22268
1.62643
2.96149
9.50443
10.607
10.2627
9.63029
9.31263
9.2449
9.25326
9.27383
9.28397
9.28208
9.27501
9.26057
9.24669
9.23496
9.22399
9.21247
9.19989
9.18618
9.17142
9.15564
9.13883
9.12095
9.10198
9.08187
9.06062
9.0382
9.01459
8.98976
8.96371
8.93642
8.90788
8.87806
8.84696
8.81458
8.78089
8.74591
8.70962
8.67203
8.63313
8.59294
8.55145
8.50868
8.46464
8.41935
8.37282
8.32509
8.2762
8.22577
1.37393
4.50556
9.89833
10.0106
9.70622
9.36414
9.23542
9.23093
9.24044
9.25496
9.25806
9.25583
9.2493
9.2383
9.22768
9.21772
9.20751
9.19644
9.1843
9.1711
9.15687
9.14162
9.12532
9.10794
9.08947
9.06988
9.04915
9.02725
9.00417
8.97989
8.95439
8.92766
8.89968
8.87044
8.83992
8.80813
8.77505
8.74067
8.70499
8.66801
8.62972
8.59013
8.54924
8.50707
8.46362
8.41891
8.37294
8.32571
8.27721
8.22696
1.3797
4.54084
9.92293
9.9056
9.60602
9.32898
9.24104
9.24332
9.25398
9.26392
9.26414
9.26154
9.25457
9.24371
9.23307
9.22278
9.21206
9.20045
9.18784
9.17423
9.15963
9.14403
9.12741
9.10974
9.09099
9.07115
9.05019
9.02808
9.00482
8.98038
8.95475
8.9279
8.89983
8.87052
8.83997
8.80815
8.77506
8.7407
8.70506
8.66814
8.62994
8.59046
8.5497
8.50767
8.46439
8.41987
8.37411
8.32714
8.27896
8.22927
1.40391
4.56207
10.0534
9.98614
9.59108
9.27499
9.19211
9.20369
9.23337
9.25377
9.25631
9.25365
9.2466
9.23619
9.22622
9.21651
9.20623
9.19494
9.18259
9.16922
9.15484
9.13945
9.12304
9.10557
9.08702
9.06737
9.0466
9.02469
9.00163
8.97738
8.95194
8.9253
8.89742
8.86831
8.83795
8.80633
8.77344
8.73927
8.70383
8.6671
8.62909
8.5898
8.54924
8.50741
8.46432
8.41999
8.37444
8.32769
8.27979
8.23051
3.04268
2.45595
2.99892
4.17721
4.12344
4.1075
4.0468
4.00916
3.9962
3.99886
4.02629
4.06968
4.10673
4.13751
4.17159
4.21439
4.2661
4.32424
4.38592
4.44888
4.51137
4.57217
4.63082
4.68782
4.73887
4.7843
4.82403
4.85852
4.88769
4.91179
4.93077
4.9449
4.95421
4.959
4.9594
4.95777
4.95243
4.94112
4.92562
4.9078
4.88772
4.86533
4.84073
4.8142
4.786
4.75642
4.72568
4.69406
4.66175
4.62901
4.59603
4.56304
4.53022
4.49778
4.46592
4.43484
4.40474
4.37581
4.34824
4.32224
4.29799
4.27569
4.25551
4.23763
4.2222
4.20935
4.19918
4.19173
4.18699
4.18495
4.18505
4.18583
4.18824
4.19385
4.20505
4.21775
4.23084
4.24417
4.2576
4.27082
4.28348
4.29525
4.30585
4.3151
4.32286
4.32907
4.33374
4.33689
4.33865
4.33921
4.33913
4.33874
4.33766
4.33528
4.3312
4.32672
4.32215
4.31745
4.31247
4.30819
4.09468
3.55118
3.75329
4.23145
4.1496
4.09316
4.03413
3.99393
3.98216
3.99423
4.03505
4.08526
4.11702
4.13914
4.16831
4.20928
4.2606
4.31865
4.38022
4.44306
4.50546
4.56641
4.62534
4.68207
4.7332
4.77863
4.81849
4.8531
4.88242
4.90664
4.92574
4.93997
4.94937
4.95417
4.95439
4.95321
4.94894
4.93892
4.9219
4.90345
4.88353
4.86147
4.83712
4.81076
4.78269
4.75321
4.72259
4.69107
4.65888
4.62624
4.59335
4.56044
4.5277
4.49533
4.46354
4.43251
4.40246
4.37357
4.34604
4.32007
4.29584
4.27356
4.2534
4.23554
4.22014
4.20733
4.19722
4.18987
4.18532
4.18372
4.18391
4.18482
4.18732
4.19287
4.204
4.21694
4.23041
4.24405
4.2577
4.27108
4.28389
4.29578
4.30649
4.3158
4.3236
4.32982
4.33447
4.3376
4.33931
4.33977
4.33967
4.33926
4.33818
4.33581
4.33163
4.32702
4.32236
4.31773
4.31296
4.31032
5.2239
4.46235
4.23318
4.26505
4.24603
4.1939
4.11233
4.05957
4.03936
4.04175
4.05404
4.083
4.11834
4.14975
4.183
4.22375
4.27277
4.32837
4.38779
4.44877
4.5096
4.56912
4.6265
4.6811
4.73137
4.7763
4.81573
4.84986
4.87874
4.90254
4.92128
4.93514
4.94419
4.94855
4.94848
4.94738
4.94373
4.93508
4.91776
4.89832
4.8778
4.85562
4.8314
4.80519
4.77725
4.74788
4.71736
4.68596
4.65388
4.62136
4.5886
4.5558
4.52317
4.49092
4.45923
4.4283
4.39834
4.36953
4.34209
4.31619
4.29204
4.26984
4.24976
4.23198
4.21667
4.20398
4.19403
4.18691
4.18273
4.18185
4.18213
4.18319
4.18588
4.19166
4.20266
4.21579
4.22973
4.24391
4.25801
4.27176
4.28485
4.29696
4.30784
4.31726
4.32512
4.33134
4.33592
4.33896
4.34062
4.34087
4.34074
4.34025
4.33905
4.33648
4.33222
4.32749
4.3227
4.3181
4.3135
4.31256
5.82732
5.09391
4.66061
4.46409
4.42539
4.36003
4.26819
4.18798
4.13606
4.11551
4.11774
4.12864
4.15454
4.1916
4.22528
4.26026
4.30117
4.34893
4.40201
4.45812
4.51522
4.57181
4.62667
4.67906
4.72755
4.77137
4.81003
4.8434
4.87159
4.89477
4.91298
4.92632
4.93489
4.93869
4.93852
4.93739
4.93402
4.92623
4.91031
4.89017
4.86876
4.84615
4.82192
4.79591
4.76824
4.73914
4.70889
4.67775
4.64593
4.61366
4.58115
4.5486
4.5162
4.48417
4.4527
4.42199
4.39223
4.36363
4.33638
4.31068
4.28671
4.26469
4.2448
4.22721
4.21211
4.19965
4.18996
4.18323
4.1796
4.17943
4.1798
4.18107
4.18411
4.19047
4.20133
4.21451
4.22886
4.24366
4.25837
4.27262
4.28609
4.29848
4.30953
4.31907
4.32697
4.33318
4.33773
4.34071
4.34216
4.34215
4.34195
4.34133
4.33989
4.33695
4.3327
4.32792
4.32302
4.31843
4.31405
4.31415
6.23041
5.59519
5.12019
4.83087
4.68209
4.56945
4.45838
4.35707
4.27961
4.23201
4.21204
4.21295
4.21916
4.23543
4.26797
4.30085
4.33718
4.37851
4.42467
4.47446
4.52631
4.57867
4.63008
4.67939
4.72557
4.76766
4.80505
4.83728
4.86448
4.88683
4.90424
4.91685
4.92479
4.92782
4.92756
4.92632
4.92295
4.9155
4.90042
4.88064
4.8588
4.83562
4.8111
4.7851
4.75763
4.72882
4.69889
4.66806
4.63656
4.6046
4.57239
4.54015
4.50806
4.47632
4.44515
4.41474
4.38528
4.35698
4.33003
4.30462
4.28096
4.25923
4.23964
4.22236
4.20759
4.19547
4.1862
4.17997
4.17705
4.17715
4.17773
4.17935
4.18294
4.19021
4.20089
4.21394
4.2285
4.24377
4.25904
4.2738
4.28765
4.30029
4.3115
4.32112
4.32904
4.33521
4.3397
4.34254
4.34364
4.34356
4.34322
4.34236
4.34052
4.33725
4.33302
4.32822
4.32325
4.31865
4.31458
4.31489
6.53755
6.00226
5.54738
5.20339
4.97037
4.80412
4.66728
4.54824
4.45027
4.37815
4.33276
4.31079
4.31042
4.3136
4.32428
4.34744
4.37983
4.41585
4.45466
4.49659
4.54127
4.58758
4.63404
4.67937
4.72243
4.76219
4.79783
4.82882
4.85498
4.87639
4.89288
4.90473
4.912
4.91425
4.91392
4.91257
4.90912
4.90171
4.88708
4.86814
4.84644
4.82294
4.79809
4.77199
4.74467
4.71617
4.68663
4.65623
4.62515
4.59361
4.56182
4.52999
4.49832
4.46701
4.43626
4.40628
4.37726
4.34939
4.32288
4.29792
4.2747
4.25343
4.23429
4.21746
4.20315
4.19155
4.18286
4.17717
4.17506
4.17525
4.17607
4.17811
4.18243
4.1905
4.2012
4.21413
4.2287
4.24415
4.25975
4.27486
4.289
4.30183
4.31313
4.32277
4.33068
4.33684
4.34123
4.34391
4.34463
4.34451
4.34405
4.34296
4.34071
4.33722
4.33291
4.32808
4.32308
4.3185
4.31468
4.31509
6.78183
6.33112
5.91336
5.55411
5.27345
5.06176
4.89418
4.75439
4.63743
4.54398
4.47527
4.43045
4.40693
4.40093
4.40255
4.40921
4.42493
4.45342
4.48523
4.52052
4.55856
4.59846
4.6392
4.6798
4.71913
4.75608
4.78964
4.81912
4.84411
4.8645
4.88022
4.89132
4.89787
4.89935
4.89895
4.89747
4.89386
4.88623
4.87208
4.85383
4.83252
4.80906
4.78407
4.7579
4.73067
4.70245
4.67331
4.64337
4.61278
4.58174
4.55045
4.51912
4.48796
4.45717
4.42696
4.39752
4.36905
4.34174
4.3158
4.29141
4.2688
4.24813
4.22959
4.21339
4.19971
4.18872
4.18063
4.17553
4.17428
4.17456
4.17558
4.17802
4.18312
4.19177
4.20272
4.21561
4.23001
4.24532
4.26088
4.27602
4.29023
4.30314
4.31448
4.32412
4.33197
4.33804
4.34229
4.34481