/*--------------------------------*- C++ -*----------------------------------*\
| =========                 |                                                 |
| \\      /  F ield         | OpenFOAM: The Open Source CFD Toolbox           |
|  \\    /   O peration     | Version:  2412                                  |
|   \\  /    A nd           | Website:  www.openfoam.com                      |
|    \\/     M anipulation  |                                                 |
\*---------------------------------------------------------------------------*/
FoamFile
{
    version     2.0;
    format      ascii;
    arch        "LSB;label=32;scalar=64";
    class       surfaceScalarField;
    location    "17.5";
    object      phi;
}
// * * * * * * * * * * * * * * * * * * * * * * * * * * * * * * * * * * * * * //

dimensions      [1 0 -1 0 0 0 0];

oriented        oriented;

internalField   nonuniform List<scalar> 
13790
(
0.00292378
-1.97507e-07
0.0027446
9.30329e-07
0.002804
3.24275e-06
0.00280525
5.57923e-06
0.00279923
6.46696e-06
0.0027921
7.15818e-06
0.00278414
7.95002e-06
0.00277523
8.89917e-06
0.00276524
9.98621e-06
0.002754
1.123e-05
0.00274143
1.25618e-05
0.00272748
1.39425e-05
0.0027121
1.53752e-05
0.00269521
1.6876e-05
0.00267674
1.84583e-05
0.00265661
2.0127e-05
0.00263471
2.18864e-05
0.00261096
2.37396e-05
0.00258526
2.56942e-05
0.00255749
2.7756e-05
0.00252755
2.99348e-05
0.0024953
3.22375e-05
0.00246061
3.46754e-05
0.00242335
3.72561e-05
0.00238334
3.99922e-05
0.00234044
4.28923e-05
0.00229446
4.59698e-05
0.00224522
4.9233e-05
0.00219251
5.26954e-05
0.00213614
5.63642e-05
0.00207588
6.02513e-05
0.0020115
6.43605e-05
0.0019428
6.86998e-05
0.00186952
7.32664e-05
0.00179145
7.80608e-05
0.00170837
8.30687e-05
0.00162008
8.82776e-05
0.00152642
9.3656e-05
0.00142724
9.9171e-05
0.00132246
0.000104768
0.00121206
0.000110386
0.00109611
0.000115942
0.000974743
0.00012135
0.000848237
0.000126495
0.000716942
0.000131286
0.000581332
0.000135601
0.000441858
0.000139466
0.000299187
0.000142672
0.000152293
0.00014689
0.000152284
0.00303221
2.02325e-08
0.00284627
8.40128e-07
0.00290647
8.59741e-06
0.00290779
1.12723e-05
0.00290193
1.27951e-05
0.00289475
1.4361e-05
0.00288656
1.61324e-05
0.00287732
1.81332e-05
0.00286693
2.03717e-05
0.00285527
2.28861e-05
0.00284224
2.55778e-05
0.00282779
2.83818e-05
0.00281186
3.13004e-05
0.00279436
3.43599e-05
0.00277523
3.75836e-05
0.00275436
4.09823e-05
0.00273168
4.45646e-05
0.00270707
4.83387e-05
0.00268043
5.23186e-05
0.00265166
5.65175e-05
0.00262063
6.0954e-05
0.00258721
6.56436e-05
0.00255127
7.06075e-05
0.00251265
7.58633e-05
0.0024712
8.1435e-05
0.00242674
8.73415e-05
0.00237909
9.36089e-05
0.00232805
0.000100256
0.00227343
0.000107308
0.002215
0.000114782
0.00215254
0.000122702
0.00208582
0.000131075
0.00201459
0.00013992
0.00193861
0.000149229
0.00185766
0.000159007
0.00177149
0.000169222
0.00167991
0.000179854
0.00158272
0.000190834
0.00147978
0.000202104
0.00137099
0.000213546
0.00125631
0.000225046
0.00113582
0.000236425
0.00100964
0.000247517
0.000878035
0.000258088
0.00074138
0.000267932
0.000600129
0.000276843
0.000454858
0.00028473
0.000306108
0.000291424
0.000154212
0.000298781
0.000306486
0.00314492
9.19692e-08
0.00295179
1.20885e-06
0.00301442
1.38613e-05
0.00301569
1.7251e-05
0.00300971
1.92708e-05
0.0030024
2.16969e-05
0.00299399
2.45444e-05
0.00298444
2.76731e-05
0.00297368
3.11241e-05
0.0029616
3.49553e-05
0.00294812
3.90464e-05
0.00293318
4.33152e-05
0.00291669
4.77748e-05
0.0028986
5.24478e-05
0.00287879
5.7376e-05
0.0028572
6.25627e-05
0.00283372
6.80363e-05
0.00280826
7.37944e-05
0.00278069
7.98754e-05
0.00275091
8.62812e-05
0.0027188
9.30599e-05
0.00268422
0.000100213
0.00264701
0.000107798
0.00260705
0.000115815
0.00256415
0.000124328
0.00251814
0.000133338
0.00246882
0.000142916
0.00241601
0.000153056
0.00235947
0.000163837
0.002299
0.000175242
0.00223434
0.000187352
0.00216527
0.000200136
0.00209151
0.000213666
0.00201284
0.000227889
0.00192898
0.000242855
0.00183971
0.00025848
0.00174479
0.000274765
0.00164402
0.000291588
0.00153725
0.000308867
0.00142435
0.000326436
0.00130529
0.000344088
0.00118008
0.000361621
0.00104892
0.000378665
0.000911967
0.000395031
0.000769682
0.000410207
0.000622506
0.000424009
0.000471063
0.000436164
0.000316181
0.000446308
0.000158602
0.000456355
0.000465078
0.00326185
1.15929e-07
0.00306154
1.66512e-06
0.00312674
1.90536e-05
0.00312805
2.34335e-05
0.00312189
2.59538e-05
0.00311441
2.92036e-05
0.00310579
3.31644e-05
0.00309595
3.74946e-05
0.00308484
4.22291e-05
0.00307236
4.7425e-05
0.00305845
5.2951e-05
0.00304302
5.87343e-05
0.003026
6.47824e-05
0.00300731
7.11319e-05
0.00298686
7.78176e-05
0.00296455
8.48617e-05
0.00294029
9.22821e-05
0.00291397
0.000100101
0.00288549
0.000108343
0.00285472
0.000117042
0.00282155
0.000126227
0.00278581
0.000135941
0.00274738
0.000146216
0.00270607
0.000157105
0.00266176
0.000168636
0.0026142
0.000180877
0.00256326
0.000193848
0.00250867
0.000207631
0.00245027
0.00022223
0.00238776
0.000237742
0.00232096
0.000254143
0.00224954
0.000271544
0.00217332
0.000289876
0.00209194
0.000309257
0.00200523
0.00032955
0.00191283
0.000350869
0.00181461
0.000372982
0.00171021
0.000395972
0.00159958
0.000419487
0.00148247
0.000443534
0.00135889
0.000467653
0.00122884
0.00049166
0.00109239
0.0005151
0.000949949
0.000537461
0.000801631
0.000558517
0.000648244
0.000577385
0.000490316
0.000594084
0.000328681
0.000607943
0.000164767
0.000620264
0.000629835
0.00338309
1.39267e-07
0.00317536
2.15327e-06
0.00324315
2.42719e-05
0.00324459
2.97474e-05
0.00323828
3.28099e-05
0.00323062
3.68897e-05
0.00322182
4.19622e-05
0.00321172
4.75875e-05
0.00320027
5.36653e-05
0.00318742
6.02698e-05
0.00317309
6.72693e-05
0.0031572
7.46178e-05
0.00313966
8.23026e-05
0.0031204
9.03888e-05
0.00309932
9.88868e-05
0.00307632
0.000107853
0.00305131
0.00011728
0.00302417
0.000127229
0.0029948
0.000137697
0.00296307
0.000148763
0.00292886
0.000160429
0.002892
0.000172784
0.00285237
0.000185835
0.00280978
0.000199681
0.00276407
0.000214332
0.00271505
0.000229893
0.0026625
0.000246382
0.00260622
0.000263901
0.00254596
0.000282474
0.0024815
0.000302188
0.00241256
0.000323079
0.00233889
0.000345194
0.00226018
0.000368579
0.00217621
0.000393216
0.00208659
0.000419155
0.00199118
0.000446267
0.00188954
0.00047461
0.00178163
0.000503873
0.00166698
0.000534123
0.00154571
0.000564794
0.00141741
0.00059594
0.00128235
0.000626708
0.00114043
0.000657011
0.000991937
0.000685937
0.000837481
0.000712963
0.000677152
0.000737703
0.00051223
0.000758997
0.000343488
0.000776686
0.000172041
0.000791705
0.000801865
0.00350885
1.62896e-07
0.00329344
2.64776e-06
0.0033639
2.95337e-05
0.00336551
3.61637e-05
0.00335906
3.9826e-05
0.00335125
4.47383e-05
0.0033422
5.09998e-05
0.0033319
5.78815e-05
0.00332018
6.53704e-05
0.003307
7.34437e-05
0.00329227
8.19903e-05
0.00327594
9.09337e-05
0.00325791
0.000100328
0.0032381
0.000110183
0.0032164
0.000120578
0.00319275
0.000131497
0.00316699
0.000143023
0.00313908
0.000155131
0.00310883
0.000167929
0.00307619
0.000181391
0.00304096
0.000195652
0.00300305
0.000210678
0.00296224
0.000226632
0.00291844
0.000243468
0.00287138
0.00026138
0.00282096
0.000280304
0.00276686
0.000300467
0.00270897
0.000321781
0.00264693
0.000344497
0.0025806
0.000368504
0.00250961
0.00039406
0.00243377
0.000421028
0.00235269
0.000449649
0.00226614
0.000479753
0.00217376
0.000511521
0.00207526
0.00054475
0.00197038
0.000579488
0.00185873
0.000615507
0.00174023
0.000652607
0.00161445
0.000690563
0.00148159
0.000728784
0.00134112
0.000767163
0.0011936
0.00080452
0.00103878
0.000840748
0.000877318
0.000874409
0.000709984
0.000905026
0.000537038
0.000931934
0.000360131
0.000953594
0.000180628
0.000971201
0.000982482
0.00363929
1.86884e-07
0.00341589
3.14394e-06
0.00348917
3.48342e-05
0.00349096
4.26567e-05
0.00348444
4.6954e-05
0.00347649
5.27259e-05
0.00346729
6.01911e-05
0.00345676
6.83946e-05
0.0034448
7.73274e-05
0.0034313
8.69342e-05
0.00341621
9.70658e-05
0.00339946
0.000107672
0.00338097
0.00011881
0.00336063
0.000130511
0.00333837
0.000142835
0.00331405
0.000155796
0.00328762
0.000169449
0.00325892
0.000183816
0.00322787
0.000198966
0.00319431
0.000214938
0.00315814
0.000231809
0.00311917
0.000249637
0.00307729
0.000268502
0.00303226
0.000288482
0.00298397
0.000309653
0.00293214
0.000332123
0.00287665
0.000355947
0.00281714
0.000381273
0.00275351
0.000408117
0.00268533
0.000436668
0.00261249
0.000466889
0.0025345
0.000499002
0.00245125
0.000532892
0.00236219
0.000568793
0.00226721
0.000606495
0.00216576
0.000646191
0.00205767
0.000687564
0.00194249
0.000730678
0.00181998
0.000775102
0.00168989
0.000820639
0.0015519
0.00086676
0.00140627
0.000912783
0.00125245
0.000958319
0.00109121
0.00100198
0.000922314
0.00104329
0.000746706
0.00108062
0.000565541
0.00111309
0.000379449
0.00113969
0.000190155
0.00116049
0.00117263
0.00377459
2.11002e-07
0.00354288
3.63917e-06
0.00361911
4.01557e-05
0.00362114
4.91973e-05
0.00361459
5.41519e-05
0.00360653
6.08145e-05
0.00359722
6.94951e-05
0.00358653
7.90799e-05
0.00357434
8.95088e-05
0.00356057
0.000100694
0.00354516
0.000112461
0.00352804
0.000124781
0.00350912
0.000137717
0.00348831
0.000151316
0.0034655
0.000165629
0.0034406
0.000180682
0.00341351
0.000196529
0.00338411
0.000213202
0.00335228
0.000230779
0.00331791
0.000249305
0.00328082
0.000268875
0.00324091
0.000289544
0.00319797
0.000311427
0.00315185
0.000334581
0.00310235
0.000359147
0.00304928
0.000385178
0.00299237
0.00041284
0.00293146
0.000442174
0.00286619
0.000473374
0.00279639
0.000506447
0.00272165
0.00054162
0.00264181
0.000578834
0.00255633
0.000618359
0.00246509
0.000660015
0.00236747
0.000704107
0.00226336
0.000750286
0.00215208
0.000798828
0.00203354
0.000849197
0.00190712
0.000901509
0.00177268
0.000955064
0.00162985
0.00100958
0.00147832
0.0010643
0.00131847
0.00111815
0.00114978
0.00117066
0.000973238
0.00121982
0.000788871
0.00126498
0.000597623
0.00130433
0.00040136
0.00133595
0.000201564
0.00136028
0.00137418
0.00391493
2.35131e-07
0.00367459
4.1301e-06
0.00375393
4.54678e-05
0.00375624
5.57469e-05
0.00374969
6.13829e-05
0.00374159
6.89564e-05
0.00373218
7.89001e-05
0.00372138
8.98697e-05
0.00370902
0.000101851
0.00369504
0.000114671
0.00367936
0.00012813
0.00366191
0.000142215
0.00364261
0.000157004
0.00362136
0.000172552
0.00359807
0.000188911
0.00357263
0.000206109
0.00354494
0.000224204
0.00351489
0.000243239
0.00348236
0.000263297
0.00344722
0.000284436
0.00340932
0.000306757
0.00336852
0.000330333
0.00332465
0.000355283
0.00327752
0.000381693
0.00322696
0.000409696
0.00317273
0.000439394
0.00311463
0.000470928
0.00305238
0.000504414
0.00298575
0.000539991
0.00291439
0.000577788
0.00283807
0.000617923
0.00275636
0.000660533
0.00266903
0.000705675
0.00257553
0.000753507
0.00247569
0.000803938
0.00236878
0.000857169
0.00225476
0.000912842
0.00213274
0.000971203
0.00200275
0.00103149
0.00186388
0.00109392
0.0017162
0.00115725
0.00155908
0.0012214
0.00139234
0.00128487
0.00121648
0.00134651
0.00103082
0.00140546
0.000836917
0.00145887
0.000635292
0.00150594
0.000427035
0.00154421
0.000214252
0.00157306
0.00158842
0.0040605
2.58925e-07
0.00381118
4.61268e-06
0.00389383
5.07227e-05
0.00389647
6.22547e-05
0.00388999
6.8588e-05
0.00388189
7.71002e-05
0.00387248
8.83004e-05
0.0038616
0.000100738
0.00384913
0.00011431
0.00383498
0.000128811
0.00381909
0.000144013
0.00380137
0.000159919
0.00378175
0.000176612
0.00376013
0.000194164
0.00373641
0.000212617
0.00371049
0.000232015
0.00368227
0.000252406
0.00365164
0.000273856
0.00361849
0.000296441
0.00358266
0.000320245
0.00354404
0.000345365
0.00350246
0.0003719
0.00345776
0.000399969
0.00340975
0.000429686
0.00335825
0.000461187
0.00330302
0.000494603
0.00324385
0.000530086
0.00318047
0.000567777
0.00311261
0.000607837
0.00303997
0.000650413
0.00296222
0.000695661
0.00287902
0.000743723
0.00278995
0.000794727
0.00269466
0.00084878
0.00259264
0.000905957
0.00248351
0.000966273
0.00236663
0.00102972
0.00224173
0.00109609
0.00210791
0.00116529
0.00196514
0.00123667
0.00181231
0.00131006
0.00164964
0.00138407
0.00147613
0.00145836
0.00129192
0.0015307
0.00109759
0.00159978
0.000892422
0.00166402
0.000678313
0.00172004
0.00045673
0.00176579
0.000229862
0.00179992
0.00181827
0.0042115
2.82063e-07
0.00395285
5.08097e-06
0.004039
5.58556e-05
0.00404205
6.86568e-05
0.00403569
7.57268e-05
0.00402765
8.51725e-05
0.00401825
9.76987e-05
0.00400741
0.000111561
0.00399493
0.00012678
0.0039807
0.00014303
0.00396466
0.000160047
0.00394674
0.00017782
0.00392687
0.000196479
0.00390494
0.000216074
0.00388086
0.000236684
0.00385455
0.000258315
0.00382588
0.000281062
0.00379476
0.000304957
0.00376106
0.000330127
0.00372467
0.000356622
0.00368543
0.000384596
0.0036432
0.000414116
0.00359779
0.000445358
0.00354905
0.000478408
0.00349676
0.000513463
0.00344072
0.00055063
0.00338067
0.00059012
0.00331637
0.000632061
0.00324753
0.000676669
0.00317383
0.000724093
0.00309494
0.000774535
0.00301049
0.000828162
0.00292007
0.00088513
0.00282323
0.000945607
0.00271952
0.00100966
0.00260835
0.00107743
0.00248924
0.00114881
0.00236148
0.00122384
0.0022246
0.00130215
0.00207769
0.00138357
0.00192044
0.00146729
0.00175173
0.00155276
0.00157162
0.00163846
0.00137897
0.00172333
0.00117403
0.00180471
0.00095773
0.00188031
0.00072984
0.00194792
0.000492313
0.00200332
0.000247519
0.0020447
0.00206578
0.00436813
3.01911e-07
0.00409977
5.53154e-06
0.00418969
6.07578e-05
0.00419323
7.48809e-05
0.00418705
8.27289e-05
0.00417919
9.3072e-05
0.00416997
0.000106912
0.00415921
0.000122308
0.00414677
0.000139215
0.00413252
0.000157266
0.00411641
0.00017614
0.00409837
0.000195851
0.00407832
0.000216513
0.00405616
0.00023822
0.00403182
0.000261011
0.00400518
0.000284941
0.00397617
0.00031006
0.00394465
0.000336461
0.00391055
0.000364222
0.00387368
0.000393468
0.00383397
0.000424296
0.00379121
0.000456858
0.00374529
0.000491267
0.00369597
0.000527708
0.00364312
0.000566307
0.00358644
0.000607285
0.00352578
0.000650774
0.00346079
0.000697031
0.00339125
0.00074619
0.00331679
0.000798538
0.00323711
0.000854205
0.00315176
0.000913491
0.00306037
0.00097651
0.00296242
0.00104354
0.00285741
0.00111466
0.00274475
0.00119006
0.00262378
0.00126977
0.00249387
0.00135373
0.00235411
0.00144191
0.0022039
0.00153376
0.00204205
0.00162912
0.00186813
0.00172665
0.00168081
0.00182577
0.00147995
0.00192418
0.00126441
0.00202024
0.00103403
0.00211067
0.000790447
0.00219149
0.00053474
0.00225903
0.000270114
0.00230932
0.00233588
0.00453061
3.12743e-07
0.00425215
5.97165e-06
0.00434611
6.52854e-05
0.00435023
8.08563e-05
0.00434429
8.95419e-05
0.00433677
0.000100649
0.00432777
0.0001159
0.00431724
0.000132828
0.00430496
0.000151481
0.00429081
0.000171408
0.00427471
0.000192219
0.00425664
0.00021391
0.0042365
0.000236642
0.00421422
0.000260488
0.00418969
0.000285523
0.00416285
0.000311767
0.00413358
0.000339314
0.0041018
0.000368223
0.00406738
0.000398628
0.00403022
0.000430613
0.00399016
0.000464342
0.00394708
0.000499922
0.00390079
0.000537545
0.00385114
0.000577341
0.0037979
0.000619532
0.00374089
0.000664275
0.00367984
0.000711815
0.00361451
0.000762336
0.00354458
0.000816109
0.00346977
0.000873334
0.00338965
0.000934308
0.0033039
0.000999229
0.00321198
0.00106842
0.00311347
0.00114203
0.00300772
0.0012204
0.00289418
0.00130358
0.00277204
0.0013919
0.00264056
0.00148519
0.00249881
0.00158364
0.00234573
0.00168683
0.00218039
0.00179445
0.0020012
0.00190582
0.00180754
0.00201941
0.0015975
0.0021342
0.00137095
0.00224678
0.001127
0.00235461
0.000865203
0.00245328
0.000587473
0.00253676
0.000296643
0.00260015
0.00263251
0.00469915
3.25778e-07
0.00441017
6.36555e-06
0.00450832
6.95048e-05
0.0045132
8.63749e-05
0.00450782
9.58592e-05
0.0045007
0.000107829
0.0044921
0.00012449
0.0044819
0.000143016
0.00446988
0.000163488
0.00445591
0.000185369
0.00443995
0.000208165
0.00442194
0.000231908
0.00440182
0.000256745
0.0043795
0.000282794
0.00435492
0.000310091
0.00432797
0.000338701
0.0042986
0.000368675
0.00426667
0.000400135
0.00423211
0.000433165
0.00419478
0.000467926
0.00415459
0.000504522
0.00411134
0.000543151
0.00406494
0.000583935
0.00401515
0.000627114
0.00396184
0.000672828
0.00390473
0.000721359
0.00384366
0.000772871
0.00377831
0.000827676
0.00370842
0.000885978
0.00363364
0.000948102
0.00355363
0.0010143
0.00346794
0.0010849
0.00337614
0.00116021
0.00327767
0.00124048
0.00317194
0.00132612
0.00305824
0.00141726
0.0029358
0.00151433
0.00280364
0.00161732
0.0026608
0.00172647
0.00250596
0.00184165
0.00233785
0.00196255
0.00215492
0.00208873
0.0019552
0.00221912
0.0017374
0.00235197
0.00149876
0.0024854
0.00123862
0.00261474
0.000956596
0.00273528
0.000653288
0.00284007
0.000332532
0.0029209
0.00296502
0.00487399
3.47017e-07
0.00457405
6.68344e-06
0.00467662
7.33831e-05
0.00468246
9.12286e-05
0.00467795
0.000101397
0.00467139
0.000114457
0.00466336
0.000132511
0.00465364
0.000152716
0.00464198
0.000175139
0.00462831
0.000199025
0.00461259
0.000223874
0.00459476
0.000249724
0.00457476
0.000276726
0.00455253
0.00030501
0.004528
0.00033461
0.00450109
0.000365594
0.00447172
0.000398026
0.00443982
0.000432021
0.00440527
0.000467697
0.00436799
0.000505192
0.00432783
0.00054467
0.00428468
0.000586277
0.00423836
0.000630238
0.00418876
0.000676697
0.00413562
0.000725952
0.00407882
0.000778137
0.00401804
0.000833637
0.00395313
0.000892566
0.00388368
0.000955413
0.00380951
0.00102226
0.0037301
0.0010937
0.00364518
0.00116979
0.00355415
0.00125123
0.00345656
0.00133804
0.0033517
0.00143097
0.00323887
0.00153007
0.00311721
0.00163598
0.00298564
0.00174888
0.00284301
0.00186908
0.00268783
0.00199681
0.00251841
0.00213194
0.00233282
0.0022743
0.00212884
0.00242307
0.00190368
0.00257711
0.00165517
0.00273389
0.00137941
0.00289048
0.00107443
0.00304024
0.000739562
0.00317493
0.000377713
0.00328274
0.00334272
0.00505534
3.59957e-07
0.00474404
6.9476e-06
0.00485159
7.6487e-05
0.00485856
9.5271e-05
0.00485496
0.000106114
0.00484925
0.000120231
0.00484194
0.000139812
0.00483288
0.000161766
0.00482179
0.000186218
0.00480858
0.00021222
0.00479321
0.000239231
0.00477568
0.000267238
0.00475592
0.00029647
0.0047339
0.000327011
0.00470954
0.000358961
0.00468281
0.000392308
0.00465359
0.000427224
0.00462188
0.000463719
0.00458751
0.000502044
0.00455047
0.000542218
0.00451057
0.000584556
0.00446775
0.000629075
0.00442182
0.000676156
0.00437267
0.000725823
0.00432009
0.00077852
0.00426392
0.000834288
0.00420391
0.000893628
0.00413984
0.000956619
0.00407144
0.0010238
0.00399835
0.00109532
0.0039203
0.00117174
0.00383676
0.00125331
0.00374742
0.00134055
0.00365152
0.00143392
0.00354866
0.00153381
0.00343781
0.0016409
0.0033183
0.00175547
0.00318885
0.00187831
0.00304824
0.00200968
0.00289479
0.00215024
0.0027265
0.00230022
0.00254084
0.00245995
0.0023348
0.00262909
0.00210501
0.00280688
0.00184636
0.00299252
0.00155518
0.00318165
0.00122624
0.00336917
0.000855764
0.0035454
0.000444125
0.00369438
0.00378683
0.00524343
3.6783e-07
0.00492037
7.11786e-06
0.00503332
7.8591e-05
0.00504177
9.81413e-05
0.00503943
0.000109666
0.00503484
0.000124899
0.00502849
0.000146158
0.00502027
0.000169963
0.00500992
0.000196561
0.00499729
0.000224829
0.00498241
0.0002541
0.00496528
0.000284352
0.00494588
0.000315855
0.0049242
0.000348681
0.00490016
0.000382981
0.00487373
0.00041872
0.00484487
0.000456074
0.00481349
0.000495079
0.00477955
0.00053597
0.00474293
0.000578819
0.00470357
0.000623895
0.00466132
0.000671307
0.00461612
0.000721348
0.00456773
0.000774184
0.00451611
0.000830124
0.00446097
0.000889409
0.00440223
0.000952355
0.00433953
0.0010193
0.00427275
0.00109056
0.00420148
0.00116658
0.00412549
0.00124771
0.00404429
0.00133449
0.0039575
0.00142733
0.00386457
0.00152684
0.00376478
0.00163358
0.00365753
0.00174814
0.00354164
0.00187134
0.00341626
0.00200367
0.00327971
0.00214621
0.00313038
0.00229955
0.00296615
0.00246443
0.00278396
0.00264212
0.00258008
0.00283295
0.00235072
0.00303622
0.00208927
0.00325395
0.00178649
0.00348441
0.00143336
0.00372228
0.00101967
0.00395908
0.000538165
0.00417588
0.00432498
0.00543851
3.67197e-07
0.00510327
7.16861e-06
0.00522219
7.93038e-05
0.00523258
9.93941e-05
0.00523194
0.000111626
0.00522884
0.00012809
0.0052238
0.000151186
0.00521666
0.000177085
0.00520718
0.000206031
0.00519526
0.000236731
0.00518099
0.000268356
0.00516439
0.000300941
0.00514549
0.000334739
0.00512423
0.000369923
0.00510064
0.00040655
0.00507465
0.000444692
0.00504628
0.000484431
0.00501542
0.00052592
0.00498208
0.000569295
0.00494612
0.000614754
0.00490754
0.000662465
0.00486617
0.000712658
0.00482196
0.00076554
0.00477474
0.000821377
0.00472442
0.000880429
0.00467082
0.000942991
0.00461376
0.0010094
0.00455307
0.00107996
0.00448847
0.00115514
0.00441979
0.00123524
0.00434662
0.00132087
0.00426873
0.00141235
0.00418559
0.00151047
0.00409682
0.00161558
0.00400175
0.00172864
0.00389968
0.00185019
0.0037898
0.0019812
0.00367074
0.00212271
0.00354154
0.00227539
0.00339954
0.00244154
0.00324359
0.00262036
0.0030715
0.00281419
0.00287671
0.00302771
0.00265183
0.00326109
0.00239141
0.00351435
0.00208593
0.00378987
0.00171798
0.00409021
0.00126609
0.00441096
0.000701258
0.00474071
0.00502622
0.00564087
3.35752e-07
0.00529298
7.09885e-06
0.00541866
7.80387e-05
0.00543159
9.84158e-05
0.00543319
0.000111467
0.00543199
0.000129381
0.00542855
0.000154608
0.00542275
0.000182867
0.00541427
0.000214501
0.00540317
0.000247812
0.0053896
0.000281916
0.00537365
0.000316876
0.00535535
0.000353021
0.0053347
0.000390554
0.0053117
0.000429534
0.00528638
0.000470002
0.00525867
0.000512126
0.0052286
0.000555974
0.00519607
0.000601807
0.0051611
0.000649706
0.00512355
0.000699996
0.00508344
0.000752756
0.00504057
0.000808387
0.00499496
0.000866968
0.00494638
0.000928985
0.00489482
0.000994526
0.00484004
0.00106417
0.00478195
0.00113803
0.00472029
0.00121678
0.00465491
0.0013006
0.00458554
0.00139023
0.00451183
0.00148603
0.00443357
0.00158872
0.00435015
0.00169897
0.00426131
0.00181747
0.00416613
0.00194535
0.00406428
0.00208302
0.0039542
0.00223277
0.00383582
0.00239375
0.0037089
0.00256844
0.00356689
0.00276235
0.00340592
0.00297514
0.00322587
0.00320774
0.00302111
0.00346582
0.00278112
0.00375432
0.00249013
0.00408084
0.00212834
0.00445198
0.00165433
0.00488496
0.000999304
0.00539573
0.00602551
0.00585094
1.84249e-07
0.00548945
7.15445e-06
0.005623
7.4053e-05
0.00563949
9.41822e-05
0.00564403
0.000108495
0.00564543
0.000128085
0.00564403
0.000155989
0.00563976
0.000187119
0.00563242
0.000221826
0.0056222
0.000258019
0.00560935
0.000294739
0.00559407
0.000332145
0.00557637
0.000370696
0.00555638
0.000410529
0.00553404
0.000451854
0.00550942
0.000494601
0.00548251
0.00053902
0.00545333
0.000585134
0.00542184
0.000633279
0.00538802
0.000683499
0.00535184
0.000736165
0.00531322
0.000791349
0.00527214
0.000849456
0.00522847
0.000910608
0.00518221
0.000975235
0.00513317
0.00104354
0.00508136
0.00111597
0.00502652
0.00119284
0.00496869
0.0012746
0.00490751
0.00136175
0.00484302
0.00145471
0.00477478
0.00155424
0.00470276
0.00166072
0.00462648
0.00177524
0.00454568
0.00189825
0.00445946
0.00203155
0.00436873
0.00217374
0.0042739
0.00232759
0.00416952
0.00249811
0.00405348
0.00268445
0.00392875
0.00288706
0.00379295
0.00311092
0.00364128
0.00335939
0.00346871
0.00363836
0.00326852
0.0039545
0.00302851
0.00432082
0.00272147
0.004759
0.00229834
0.00530807
0.00164583
0.00604823
0.00767132
0.0084604
1.36019e-07
0.00793503
6.20131e-06
0.00813406
6.45073e-05
0.00816347
8.27214e-05
0.00817611
9.81459e-05
0.00818308
0.000121258
0.00818531
0.000153739
0.00818264
0.000189757
0.00817506
0.000229394
0.00816308
0.000269969
0.00814734
0.000310458
0.00812815
0.0003513
0.00810572
0.000393107
0.00808007
0.000436149
0.00805137
0.000480521
0.00801965
0.000526296
0.00798503
0.000573616
0.00794745
0.000622669
0.00790706
0.000673653
0.00786372
0.000726799
0.00781755
0.000782307
0.00776841
0.000840452
0.0077164
0.000901442
0.00766136
0.000965616
0.00760337
0.0010332
0.00754228
0.0011046
0.00747814
0.00118009
0.00741081
0.00126014
0.0073403
0.00134509
0.00726653
0.00143549
0.0071894
0.00153181
0.00710893
0.00163467
0.00702479
0.00174484
0.00693749
0.00186251
0.00684763
0.00198809
0.00675561
0.00212354
0.00665674
0.00227258
0.00655081
0.00243349
0.00644192
0.00260697
0.0063308
0.00279554
0.00621391
0.00300392
0.0060927
0.0032321
0.0059655
0.00348657
0.00583402
0.0037698
0.00570036
0.00408812
0.00557205
0.00444911
0.0054823
0.00484872
0.00550605
0.0052843
0.00591264
0.00564162
0.00547739
0.00810655
0.00846219
1.05903e-07
0.00793444
3.83836e-06
0.00814827
4.21069e-05
0.00818849
6.06252e-05
0.00821043
7.85381e-05
0.00822438
0.000107455
0.00823067
0.000147427
0.00823025
0.000190152
0.00822357
0.000236052
0.00821245
0.00028107
0.00819788
0.000325
0.00818018
0.000368972
0.00815947
0.000413794
0.00813589
0.000459698
0.00810961
0.000506779
0.00808076
0.000555106
0.00804946
0.000604893
0.00801577
0.000656328
0.00797972
0.000709674
0.00794137
0.000765113
0.00790073
0.000822925
0.00785784
0.000883301
0.0078127
0.00094656
0.00776538
0.0010129
0.00771584
0.00108271
0.00766421
0.0011562
0.00761043
0.00123384
0.00755468
0.00131585
0.00749691
0.00140283
0.00743733
0.00149505
0.00737575
0.00159336
0.00731336
0.00169703
0.00725081
0.00180736
0.00718657
0.00192672
0.0071191
0.00205553
0.00704943
0.00219318
0.00698174
0.00234025
0.00691598
0.00249922
0.0068519
0.00267103
0.00679026
0.00285715
0.00673555
0.00305861
0.00668823
0.00327939
0.00665842
0.00351635
0.00664937
0.00377882
0.0066818
0.00405566
0.00677856
0.00435231
0.00698559
0.00464166
0.00738538
0.00488447
0.00800236
0.00502462
0.00467561
0.00880411
0.0084629
1.55731e-07
0.00793413
7.24865e-07
0.00816332
5.28666e-06
0.00822193
2.02284e-05
0.00825902
4.37919e-05
0.00828265
8.39803e-05
0.00829401
0.000136044
0.00829455
0.000189581
0.00828877
0.000241815
0.00827908
0.000290738
0.00826615
0.000337907
0.00825006
0.000385037
0.008231
0.000432823
0.00820924
0.000481431
0.00818505
0.000530945
0.00815863
0.000581499
0.00813011
0.00063339
0.00809958
0.000686823
0.00806715
0.000742082
0.00803289
0.000799344
0.00799688
0.000858904
0.00795921
0.000920941
0.00791997
0.000985771
0.00787926
0.00105358
0.00783721
0.00112473
0.00779394
0.00119943
0.00774965
0.0012781
0.00770444
0.00136104
0.00765875
0.00144849
0.00761343
0.00154033
0.00756919
0.00163758
0.00752372
0.00174247
0.00747707
0.00185398
0.00743194
0.00197182
0.00739043
0.00209701
0.00735208
0.00223151
0.00731784
0.00237446
0.00728836
0.00252868
0.00726709
0.00269226
0.00725492
0.0028693
0.00725694
0.00305656
0.00727802
0.00325827
0.00732471
0.00346963
0.0074127
0.0036908
0.00755123
0.0039171
0.00777058
0.00413293
0.0080836
0.0043286
0.00850986
0.00445818
0.00902981
0.00450463
0.00424741
0.00945797
0.00846148
1.31247e-06
0.00794045
-9.9043e-06
0.00821684
-7.86538e-05
0.00830499
-4.97257e-05
0.00835078
3.64908e-07
0.00837132
6.35962e-05
0.00837566
0.00013169
0.00837142
0.000193788
0.00836373
0.000249491
0.00835433
0.000300113
0.00834238
0.000349831
0.00832754
0.00039986
0.00831014
0.000450196
0.00829051
0.00050103
0.00826906
0.000552371
0.0082459
0.000604626
0.00822112
0.000658151
0.00819476
0.000713145
0.00816693
0.00076989
0.00813768
0.000828563
0.00810709
0.000889461
0.00807525
0.000952753
0.00804227
0.00101872
0.00800827
0.00108755
0.00797346
0.00115951
0.00793794
0.00123492
0.00790236
0.00131365
0.00786733
0.00139603
0.00783272
0.00148308
0.00779732
0.0015757
0.00776188
0.00167298
0.00772928
0.00177505
0.00770032
0.00188291
0.00767468
0.00199743
0.00765366
0.00211801
0.0076386
0.00224654
0.00763127
0.00238176
0.007634
0.00252592
0.00764847
0.00267776
0.00767965
0.00283809
0.00772911
0.00300707
0.00780567
0.00318169
0.00791208
0.00336318
0.0080601
0.00354274
0.00825819
0.00371898
0.00851397
0.00387711
0.00883829
0.00400424
0.00921587
0.00408057
0.00966973
0.00405072
0.00392799
0.00998911
0.00845148
9.95318e-06
0.00798004
-6.57534e-05
0.00836243
-0.000271466
0.00854415
-0.000213373
0.00858737
-4.05517e-05
0.0085783
7.28321e-05
0.00856167
0.000148304
0.00854593
0.000209497
0.00853331
0.000262103
0.00852028
0.000313121
0.00850416
0.000365933
0.00848514
0.00041886
0.00846402
0.000471286
0.00844165
0.000523383
0.00841796
0.000576037
0.00839306
0.000629508
0.00836711
0.000684081
0.00834023
0.000739994
0.00831259
0.000797511
0.00828428
0.000856845
0.00825546
0.000918261
0.0082262
0.00098198
0.00819669
0.00104821
0.00816716
0.00111705
0.00813816
0.00118848
0.00811008
0.00126297
0.00808199
0.00134171
0.00805379
0.00142421
0.0080266
0.00151023
0.00800215
0.00160013
0.00798038
0.00169472
0.00796146
0.00179394
0.00794606
0.00189827
0.00793581
0.00200766
0.00793105
0.00212273
0.00793454
0.00224302
0.00794658
0.0023697
0.00797149
0.00250098
0.00800999
0.00263924
0.00806735
0.0027807
0.00814652
0.00292788
0.00825241
0.00307577
0.00839144
0.00322413
0.00856635
0.0033678
0.00878573
0.00349957
0.0090482
0.0036146
0.0093567
0.00369571
0.00970204
0.00373519
0.0100488
0.00370391
0.00359495
0.0103818
0.00851928
1.57126e-05
0.00824802
-0.000394858
0.00879316
-0.000605482
0.0088912
-0.000291371
0.00887263
-1.90255e-05
0.00880489
0.000140788
0.00877295
0.000180223
0.00875303
0.000229395
0.00874334
0.000271784
0.00872881
0.000327632
0.00870984
0.000384884
0.00868877
0.000439907
0.00866674
0.000493301
0.00864371
0.00054639
0.0086197
0.000600021
0.00859463
0.000654563
0.00856846
0.000710228
0.00854128
0.00076715
0.00851321
0.000825561
0.00848441
0.000885625
0.00845494
0.000947711
0.00842515
0.00101174
0.00839556
0.00107779
0.00836642
0.00114616
0.00833693
0.00121795
0.00830775
0.00129213
0.00828065
0.00136879
0.00825655
0.00144828
0.00823509
0.00153167
0.00821712
0.00161807
0.0082029
0.00170892
0.00819376
0.00180305
0.00818984
0.00190217
0.00819286
0.00200461
0.00820318
0.0021124
0.00822274
0.00222343
0.00825274
0.00233968
0.00829496
0.00245872
0.00835266
0.00258152
0.00842688
0.00270645
0.00852321
0.00283152
0.00864225
0.0029567
0.00879083
0.00307551
0.00896932
0.00318929
0.00918244
0.00328642
0.00942934
0.00336768
0.00970743
0.00341758
0.0100123
0.00343033
0.0103156
0.00340057
0.00330246
0.010608