/*--------------------------------*- C++ -*----------------------------------*\
| =========                 |                                                 |
| \\      /  F ield         | OpenFOAM: The Open Source CFD Toolbox           |
|  \\    /   O peration     | Version:  2412                                  |
|   \\  /    A nd           | Website:  www.openfoam.com                      |
|    \\/     M anipulation  |                                                 |
\*---------------------------------------------------------------------------*/
FoamFile
{
    version     2.0;
    format      ascii;
    arch        "LSB;label=32;scalar=64";
    class       volScalarField;
    location    "17.5";
    object      T;
}
// * * * * * * * * * * * * * * * * * * * * * * * * * * * * * * * * * * * * * //

dimensions      [0 0 0 1 0 0 0];

internalField   nonuniform List<scalar> 
7000
(
1.31907
2.65655
2.71948
2.66992
2.66465
2.64786
2.64443
2.64719
2.6492
2.65144
2.65266
2.65371
2.6548
2.65619
2.65765
2.65932
2.66101
2.66291
2.66484
2.66698
2.66916
2.67155
2.67397
2.67662
2.67928
2.68216
2.68507
2.68818
2.69131
2.69462
2.69795
2.70144
2.70493
2.70854
2.71214
2.71581
2.71945
2.72309
2.72666
2.73015
2.73352
2.73673
2.73973
2.7425
2.74498
2.74712
2.74891
2.75026
2.75112
2.75173
1.31913
2.65677
2.71973
2.67002
2.66477
2.64798
2.64455
2.64731
2.64932
2.65156
2.65277
2.65382
2.65491
2.6563
2.65776
2.65943
2.66111
2.66301
2.66494
2.66708
2.66925
2.67164
2.67406
2.6767
2.67936
2.68224
2.68514
2.68824
2.69137
2.69467
2.698
2.70148
2.70497
2.70857
2.71216
2.71583
2.71945
2.72308
2.72663
2.73011
2.73347
2.73666
2.73966
2.7424
2.74487
2.74697
2.74877
2.75001
2.75086
2.75128
1.31911
2.65668
2.71962
2.67
2.66473
2.64792
2.64449
2.64727
2.64923
2.6515
2.65267
2.65376
2.65481
2.65624
2.65765
2.65936
2.66099
2.66293
2.66481
2.66699
2.66911
2.67154
2.67391
2.67659
2.6792
2.68211
2.68496
2.6881
2.69118
2.69451
2.6978
2.7013
2.70475
2.70837
2.71194
2.71561
2.71923
2.72286
2.72643
2.72989
2.73328
2.73643
2.73947
2.74215
2.74465
2.74673
2.74851
2.74981
2.75056
2.75104
1.31909
2.6565
2.71944
2.67
2.66468
2.64782
2.64439
2.64712
2.64916
2.65134
2.65258
2.65358
2.65471
2.65605
2.65754
2.65915
2.66088
2.66271
2.66468
2.66675
2.66898
2.67128
2.67376
2.67629
2.67904
2.68179
2.68479
2.68775
2.69098
2.69413
2.69758
2.70087
2.7045
2.70791
2.71165
2.71511
2.71888
2.72233
2.72601
2.72937
2.7328
2.73598
2.73895
2.74181
2.7441
2.74631
2.74803
2.74922
2.75016
2.75041
1.31905
2.65628
2.71921
2.67002
2.66464
2.64768
2.64428
2.6469
2.64909
2.65111
2.6525
2.65333
2.6546
2.65578
2.65741
2.65887
2.66072
2.66241
2.66449
2.66643
2.66874
2.67094
2.67349
2.67594
2.67871
2.68142
2.6844
2.68737
2.69053
2.69375
2.69705
2.7005
2.7039
2.70754
2.71097
2.71474
2.71813
2.72194
2.72517
2.72889
2.73192
2.73533
2.73817
2.74096
2.7436
2.74538
2.74741
2.74863
2.74919
2.74983
1.31901
2.65599
2.71891
2.67006
2.66458
2.64756
2.64409
2.6469
2.64874
2.65109
2.65211
2.6533
2.65418
2.65573
2.65696
2.6588
2.66024
2.66232
2.66397
2.66631
2.66818
2.67079
2.67287
2.67574
2.67804
2.68116
2.68367
2.68702
2.68975
2.6933
2.69624
2.69993
2.70307
2.70683
2.71016
2.71389
2.71738
2.72095
2.72455
2.72781
2.73138
2.73409
2.73743
2.73978
2.74249
2.74471
2.7461
2.74764
2.74849
2.74853
1.31896
2.65563
2.71855
2.67011
2.66452
2.64736
2.64388
2.64666
2.64854
2.65081
2.65189
2.65298
2.65396
2.65537
2.65673
2.65839
2.66
2.66186
2.66372
2.6658
2.66792
2.67021
2.67261
2.67509
2.67776
2.68042
2.68337
2.68618
2.68941
2.69233
2.69581
2.69884
2.70251
2.70564
2.70944
2.71265
2.71644
2.71971
2.72335
2.72665
2.72996
2.73329
2.73587
2.73887
2.74091
2.74324
2.74518
2.74612
2.74675
2.74755
1.3189
2.65519
2.71811
2.67018
2.66444
2.64711
2.64364
2.64633
2.64831
2.65045
2.65162
2.65259
2.65364
2.65495
2.65636
2.65795
2.65957
2.66138
2.66322
2.66528
2.66735
2.66966
2.67195
2.67451
2.67701
2.67981
2.68251
2.68556
2.68843
2.69172
2.6947
2.69822
2.70126
2.70497
2.70801
2.71184
2.71487
2.71868
2.72173
2.72529
2.72838
2.73145
2.73472
2.73695
2.73973
2.74144
2.74308
2.74484
2.7456
2.74541
1.31883
2.65468
2.71759
2.67027
2.66436
2.64684
2.64332
2.64604
2.64794
2.65011
2.6512
2.65221
2.65319
2.65453
2.65586
2.65747
2.65902
2.66085
2.66263
2.66468
2.6667
2.66898
2.67124
2.67372
2.67622
2.67892
2.68165
2.68453
2.68748
2.69052
2.69369
2.69684
2.70022
2.7034
2.70699
2.71008
2.71384
2.71672
2.72055
2.72321
2.72686
2.72944
2.73244
2.73538
2.73713
2.73985
2.74131
2.74216
2.74281
2.74387
1.31875
2.65407
2.71698
2.67037
2.66425
2.64649
2.64297
2.64557
2.64761
2.64959
2.65083
2.65164
2.65276
2.65392
2.65538
2.65681
2.65848
2.66013
2.66201
2.6639
2.666
2.66812
2.67044
2.67279
2.67531
2.67788
2.68061
2.68338
2.6863
2.68925
2.69233
2.69545
2.69865
2.70189
2.70516
2.7085
2.71172
2.71514
2.71815
2.72163
2.72423
2.72767
2.72982
2.7328
2.73527
2.73649
2.73876
2.74028
2.741
2.74053
1.31865
2.65337
2.71628
2.67048
2.66413
2.64613
2.64252
2.64526
2.64701
2.64922
2.65016
2.65121
2.65204
2.65342
2.6546
2.65624
2.65764
2.65949
2.6611
2.66317
2.66501
2.66728
2.66935
2.67183
2.67412
2.67679
2.6793
2.68213
2.68485
2.68782
2.69073
2.69381
2.69688
2.70002
2.70321
2.70635
2.70962
2.71268
2.71594
2.71881
2.72198
2.72449
2.72745
2.7294
2.73204
2.73433
2.73512
2.73609
2.7367
2.73813
1.31855
2.65256
2.71547
2.67061
2.66399
2.64566
2.64205
2.64462
2.64658
2.64851
2.64967
2.65043
2.65148
2.65258
2.65398
2.65532
2.65694
2.65847
2.66031
2.66206
2.66412
2.66606
2.66835
2.67048
2.67298
2.6753
2.67799
2.68048
2.68336
2.686
2.68902
2.6918
2.69491
2.69781
2.70095
2.70394
2.70702
2.71006
2.71295
2.71604
2.71858
2.72164
2.72373
2.72636
2.72791
2.72975
2.73212
2.73326
2.73386
2.73299
1.31842
2.65165
2.71455
2.67079
2.6638
2.64518
2.64147
2.6441
2.64586
2.64791
2.64887
2.64976
2.65061
2.65184
2.65302
2.6545
2.65588
2.65757
2.65915
2.66105
2.66284
2.66494
2.66692
2.66922
2.67139
2.67388
2.67622
2.67887
2.68137
2.68417
2.6868
2.68971
2.69243
2.69543
2.69819
2.70122
2.70394
2.70695
2.70959
2.7124
2.71499
2.71732
2.72002
2.72169
2.72419
2.72538
2.72601
2.72685
2.72731
2.72919
1.3183
2.65066
2.71344
2.67128
2.66329
2.64461
2.64082
2.64338
2.64515
2.64708
2.64809
2.64885
2.64975
2.65083
2.65208
2.65339
2.65485
2.65634
2.65802
2.6597
2.66159
2.66343
2.66553
2.66755
2.66984
2.672
2.67447
2.67678
2.67939
2.68182
2.68454
2.68709
2.68984
2.6925
2.69523
2.69793
2.7006
2.70325
2.70583
2.70827
2.71071
2.71283
2.71476
2.71677
2.71782
2.71996
2.72158
2.72236
2.72263
2.72103
1.31817
2.64959
2.71217
2.67198
2.6626
2.64398
2.64008
2.64253
2.64437
2.64612
2.6472
2.64781
2.64876
2.6497
2.65097
2.65217
2.65363
2.65501
2.65665
2.65825
2.66005
2.66185
2.6638
2.66581
2.66788
2.67009
2.67224
2.67466
2.67686
2.67945
2.68167
2.6844
2.68661
2.6894
2.6916
2.69432
2.69653
2.69903
2.70123
2.70342
2.70551
2.70744
2.70922
2.71056
2.71193
2.71182
2.71225
2.71238
2.71288
2.71462
1.31801
2.64836
2.71084
2.6725
2.662
2.64327
2.63922
2.64172
2.64333
2.64519
2.64604
2.64678
2.6475
2.64857
2.64959
2.65093
2.65211
2.65366
2.65499
2.65675
2.65822
2.66018
2.66178
2.66392
2.66565
2.66793
2.6698
2.67218
2.67417
2.67659
2.67871
2.68109
2.68333
2.68558
2.68793
2.68997
2.69231
2.69411
2.69623
2.6978
2.69945
2.70071
2.70197
2.70297
2.70353
2.70491
2.70456
2.70449
2.70312
2.70076
1.31784
2.64702
2.70938
2.67306
2.6613
2.64247
2.63826
2.6408
2.64218
2.64412
2.64479
2.64559
2.64614
2.64728
2.6481
2.64949
2.6505
2.65205
2.65324
2.65494
2.65632
2.65814
2.65971
2.66161
2.66336
2.66533
2.66723
2.66922
2.67127
2.67325
2.67538
2.67733
2.67946
2.68137
2.68337
2.68527
2.68698
2.68882
2.69015
2.69171
2.69269
2.69348
2.69379
2.6939
2.69324
2.69142
2.69077
2.68861
2.68785
2.68777
1.31766
2.64557
2.70783
2.67362
2.66057
2.64155
2.6372
2.63959
2.64104
2.64274
2.64354
2.64409
2.64477
2.64562
2.64664
2.64769
2.6489
2.6501
2.65148
2.65281
2.65436
2.65581
2.6575
2.65906
2.66086
2.66252
2.66438
2.66613
2.668
2.66982
2.67161
2.67348
2.67512
2.67695
2.67838
2.68
2.68122
2.68236
2.68343
2.6838
2.68461
2.68453
2.68417
2.68321
2.68205
2.68039
2.6761
2.67256
2.66664
2.66062
1.31747
2.64403
2.70619
2.6742
2.65975
2.64054
2.63601
2.63829
2.63969
2.64126
2.64205
2.6425
2.64315
2.64391
2.64485
2.64585
2.64693
2.64809
2.64929
2.65062
2.6519
2.6534
2.65475
2.65638
2.65777
2.65951
2.66092
2.66273
2.66412
2.66593
2.66729
2.669
2.67033
2.67178
2.67305
2.67406
2.67518
2.67553
2.67617
2.67601
2.67516
2.6744
2.67198
2.66987
2.66523
2.65992
2.65473
2.64503
2.6353
2.62266
1.31728
2.6425
2.70437
2.67475
2.6588
2.63941
2.63461
2.63693
2.63803
2.63972
2.64029
2.64086
2.64128
2.64221
2.64281
2.64402
2.64475
2.64609
2.64696
2.64841
2.6494
2.65092
2.65202
2.65357
2.65475
2.65628
2.65754
2.65899
2.66028
2.66157
2.66287
2.6639
2.66513
2.66584
2.66685
2.66715
2.66781
2.66769
2.66734
2.66649
2.66542
2.66276
2.66055
2.65525
2.65061
2.64064
2.62782
2.61096
2.582
2.51095
1.31729
2.6417
2.69972
2.67524
2.65736
2.63763
2.6325
2.63465
2.63571
2.63718
2.63781
2.63816
2.63863
2.63925
2.64003
2.64083
2.64176
2.64266
2.64373
2.6447
2.64588
2.64689
2.64816
2.64917
2.65048
2.65147
2.65277
2.65368
2.6549
2.65568
2.6567
2.65731
2.65796
2.65826
2.65848
2.65816
2.65757
2.65668
2.65478
2.65274
2.64862
2.64504
2.63741
2.63134
2.61837
2.6062
2.5834
2.54736
2.48956
2.36389
1.31727
2.64072
2.69502
2.67541
2.65545
2.63526
2.62963
2.63174
2.63256
2.63405
2.63461
2.63497
2.6353
2.63589
2.6365
2.63727
2.63799
2.63885
2.63964
2.64056
2.6414
2.64237
2.64322
2.6442
2.64499
2.64595
2.64664
2.64751
2.64802
2.64874
2.64897
2.64948
2.64944
2.64926
2.64879
2.64822
2.64669
2.64542
2.64231
2.63989
2.63482
2.62885
2.62124
2.60778
2.59484
2.56848
2.54174
2.49166
2.41721
2.31786
1.31725
2.64005
2.69258
2.67524
2.65387
2.63297
2.62672
2.62857
2.62932
2.63078
2.63133
2.63159
2.63187
2.63233
2.63287
2.63352
2.63416
2.63487
2.63557
2.63633
2.63706
2.63784
2.63855
2.63929
2.63994
2.64058
2.64109
2.64153
2.6418
2.64197
2.6418
2.64142
2.64088
2.63969
2.63847
2.63612
2.63405
2.63011
2.62701
2.6207
2.61608
2.60606
2.59859
2.58342
2.56665
2.54287
2.50643
2.4639
2.39202
2.31832
1.31713
2.63891
2.69177
2.67405
2.65194
2.63017
2.62347
2.6254
2.62624
2.62776
2.62829
2.62835
2.62845
2.62873
2.62897
2.62943
2.62973
2.63023
2.63056
2.63109
2.63146
2.63201
2.63239
2.63292
2.63329
2.63376
2.63407
2.63448
2.63459
2.63467
2.63457
2.63423
2.63365
2.63237
2.6311
2.62832
2.62599
2.62113
2.61668
2.60949
2.60122
2.59127
2.57725
2.56321
2.54109
2.51814
2.48443
2.44377
2.39089
2.32869
1.31686
2.63994
2.70368
2.67073
2.65198
2.6286
2.62138
2.6241
2.62506
2.62691
2.62739
2.62734
2.6273
2.62733
2.62742
2.62752
2.62758
2.62761
2.6276
2.62756
2.62748
2.62731
2.62715
2.62681
2.62653
2.62606
2.62569
2.62488
2.6244
2.62331
2.62266
2.62119
2.62032
2.6183
2.617
2.61421
2.61162
2.60786
2.60266
2.59704
2.58807
2.57864
2.56469
2.54861
2.52841
2.50239
2.4734
2.43455
2.39192
2.34469
1.30175
2.58636
2.69824
2.67717
2.65954
2.63601
2.62911
2.63201
2.63307
2.6346
2.63447
2.63403
2.63336
2.63282
2.63224
2.63171
2.63107
2.63052
2.62986
2.62931
2.62863
2.62811
2.62737
2.62688
2.626
2.62546
2.62422
2.6233
2.62145
2.62013
2.61746
2.61568
2.61214
2.6099
2.60541
2.60265
2.59697
2.5934
2.58638
2.5807
2.57194
2.56245
2.55063
2.53518
2.51794
2.49449
2.46877
2.4358
2.39812
2.35797
1.72065
2.46859
2.72849
2.70657
2.68416
2.67384
2.67435
2.6759
2.6773
2.67759
2.6764
2.67496
2.67333
2.67157
2.6696
2.66742
2.66501
2.66241
2.65959
2.65664
2.65342
2.65019
2.64664
2.6432
2.63921
2.63529
2.63087
2.62775
2.62392
2.62133
2.6177
2.61493
2.61073
2.60697
2.60187
2.5967
2.5907
2.58357
2.57678
2.56726
2.55919
2.54677
2.53629
2.52019
2.50543
2.48439
2.46312
2.43555
2.40584
2.37303
1.73256
2.4617
2.72299
2.70185
2.67723
2.66822
2.67211
2.67379
2.67649
2.67732
2.67752
2.67738
2.67712
2.67683
2.67615
2.67555
2.67423
2.67327
2.67125
2.66994
2.66722
2.66549
2.66211
2.65979
2.65591
2.65324
2.64892
2.64471
2.63918
2.63367
2.62719
2.62091
2.61483
2.60871
2.60312
2.59598
2.59007
2.58122
2.57379
2.56292
2.55331
2.54018
2.52765
2.51198
2.49567
2.4768
2.45596
2.43303
2.40763
2.38153
1.7293
2.46726
2.72498
2.70216
2.67367
2.66417
2.669
2.67141
2.67459
2.67571
2.67606
2.6762
2.67637
2.67635
2.67625
2.676
2.67541
2.67502
2.67411
2.67339
2.67184
2.67073
2.66861
2.66674
2.66405
2.66125
2.658
2.6542
2.65023
2.64517
2.64059
2.63396
2.62803
2.61893
2.61177
2.60157
2.59368
2.58335
2.57481
2.56356
2.55324
2.54038
2.52736
2.51214
2.49605
2.47774
2.45797
2.43616
2.41265
2.38969
1.732
2.46057
2.72044
2.69668
2.6706
2.66092
2.66547
2.66771
2.67088
2.67214
2.67255
2.67283
2.67317
2.67347
2.67374
2.67378
2.6737
2.67345
2.67303
2.67232
2.67165
2.67034
2.66938
2.66737
2.66606
2.66335
2.66156
2.65786
2.65548
2.65056
2.64747
2.64119
2.63697
2.62941
2.62333
2.61411
2.60559
2.59422
2.58341
2.5706
2.55805
2.5443
2.53039
2.51507
2.49898
2.48137
2.4632
2.44314
2.42208
2.40137
1.74119
2.44241
2.70889
2.68432
2.66685
2.65747
2.66039
2.66209
2.6652
2.66625
2.66692
2.667
2.66723
2.66735
2.66749
2.66749
2.66744
2.66727
2.66709
2.66662
2.66628
2.66549
2.66492
2.66366
2.66273
2.66068
2.6593
2.65633
2.6544
2.65037
2.6475
2.64253
2.63846
2.63246
2.6268
2.61949
2.61209
2.60304
2.59338
2.58214
2.57001
2.55606
2.54144
2.52535
2.50902
2.49127
2.47304
2.45374
2.43371
2.4142
1.73613
2.43599
2.70554
2.67676
2.66905
2.65578
2.65589
2.65788
2.66088
2.662
2.66307
2.66317
2.66345
2.66365
2.66381
2.6639
2.66387
2.66378
2.66363
2.66328
2.66299
2.66233
2.66182
2.66072
2.65993
2.65822
2.65705
2.65455
2.65282
2.64951
2.64681
2.64262
2.63863
2.6335
2.62833
2.62192
2.61529
2.60739
2.59911
2.58949
2.57926
2.56753
2.55499
2.54084
2.52576
2.50928
2.49204
2.47369
2.45457
2.43593
1.35692
2.467
2.67909
2.66843
2.64643
2.62378
2.61671
2.62075
2.62271
2.62559
2.62701
2.62804
2.62883
2.62983
2.63054
2.63162
2.63227
2.63324
2.63374
2.63456
2.63487
2.63561
2.63573
2.63591
2.63591
2.6358
2.63558
2.63499
2.63442
2.63321
2.63206
2.63015
2.62819
2.6252
2.62198
2.6174
2.61239
2.606
2.5991
2.59084
2.58214
2.57205
2.56141
2.54956
2.53682
2.52291
2.50809
2.49222
2.47541
2.45894
1.36033
2.47655
2.68624
2.67704
2.65244
2.62344
2.6138
2.61462
2.61661
2.61857
2.61938
2.61948
2.61968
2.61971
2.61997
2.62031
2.62067
2.62099
2.62133
2.62155
2.62183
2.62191
2.62207
2.62198
2.62181
2.62141
2.62102
2.62014
2.61944
2.61795
2.61678
2.61458
2.61264
2.6097
2.60685
2.60332
2.59965
2.59521
2.59025
2.58461
2.5779
2.57033
2.56134
2.55143
2.54059
2.52892
2.51655
2.50334
2.48924
2.47543
1.34957
2.41232
2.66918
2.66949
2.65007
2.62367
2.61389
2.61395
2.61465
2.61521
2.61488
2.61402
2.61326
2.61223
2.61157
2.61088
2.61038
2.60973
2.60924
2.6086
2.60813
2.60749
2.607
2.60633
2.60576
2.60498
2.60427
2.60343
2.60254
2.60146
2.60008
2.59853
2.59651
2.59433
2.59153
2.58856
2.58488
2.58099
2.57634
2.57125
2.5655
2.55939
2.55271
2.5454
2.53734
2.52799
2.51746
2.50637
2.49458
2.48321
1.74178
2.39639
2.67467
2.66117
2.65229
2.63839
2.63323
2.63348
2.63324
2.63296
2.63216
2.63094
2.62955
2.62789
2.62628
2.62471
2.62304
2.62133
2.61948
2.61763
2.61564
2.61367
2.61154
2.60948
2.6072
2.60509
2.6027
2.6006
2.59813
2.5957
2.59315
2.59051
2.58771
2.58466
2.58148
2.57785
2.57411
2.56971
2.56524
2.55994
2.55455
2.54824
2.54186
2.53453
2.52692
2.51889
2.51075
2.50173
2.49199
2.4824
1.34697
2.39528
2.65997
2.66573
2.6494
2.62409
2.61549
2.61413
2.61539
2.61566
2.61538
2.61503
2.61414
2.61321
2.61256
2.61171
2.61098
2.60992
2.60897
2.60764
2.6065
2.60513
2.60397
2.60247
2.6012
2.59934
2.59776
2.59526
2.59325
2.59053
2.58818
2.5851
2.58231
2.57875
2.57552
2.5716
2.56789
2.5635
2.55916
2.55418
2.54903
2.54325
2.53712
2.53048
2.52328
2.5157
2.50755
2.49913
2.49015
2.48153
1.34829
2.40617
2.66718
2.67121
2.65089
2.62215
2.61087
2.61068
2.61165
2.61236
2.61224
2.61154
2.61078
2.60979
2.60919
2.60845
2.60785
2.60696
2.60614
2.60502
2.60387
2.60221
2.60053
2.59837
2.59619
2.5937
2.59117
2.58837
2.58545
2.58235
2.57905
2.57566
2.57208
2.56853
2.56457
2.56066
2.55625
2.55196
2.54709
2.5424
2.53706
2.53194
2.52607
2.52037
2.51391
2.50752
2.50033
2.49305
2.48523
2.47788
1.34771
2.40183
2.66441
2.66925
2.64829
2.61885
2.60684
2.60669
2.60749
2.60841
2.60812
2.60727
2.60645
2.60534
2.60463
2.60388
2.60325
2.60245
2.60169
2.60075
2.59979
2.59863
2.59735
2.59587
2.59416
2.59226
2.59004
2.58767
2.58491
2.58204
2.57873
2.57534
2.5715
2.56763
2.56333
2.55895
2.5541
2.54915
2.54379
2.53827
2.53245
2.52643
2.52017
2.51365
2.50698
2.49998
2.49295
2.48547
2.47791
2.47054
1.34488
2.37885
2.64724
2.66147
2.64232
2.61447
2.60265
2.60121
2.60152
2.60175
2.6011
2.60032
2.59899
2.59789
2.59681
2.59594
2.5949
2.59398
2.59282
2.59179
2.59053
2.5894
2.58803
2.58679
2.58527
2.58385
2.58211
2.5804
2.57833
2.57624
2.57377
2.57118
2.56818
2.56494
2.56131
2.5574
2.55318
2.54861
2.54377
2.53848
2.53299
2.52704
2.52091
2.51432
2.50759
2.50042
2.49318
2.48566
2.47804
2.4707
1.7514
2.3729
2.64538
2.64152
2.62806
2.61396
2.60908
2.60933
2.60931
2.60919
2.60862
2.60796
2.60674
2.6056
2.60433
2.60322
2.60185
2.60054
2.59896
2.59742
2.59564
2.59388
2.59189
2.58992
2.58773
2.58553
2.58314
2.58068
2.57806
2.57534
2.57253
2.56956
2.56651
2.56319
2.55975
2.55596
2.55205
2.54771
2.54317
2.53821
2.53299
2.52739
2.5216
2.51546
2.50915
2.5025
2.49562
2.48845
2.48095
2.4738
1.34698
2.3885
2.6524
2.65974
2.63919
2.60884
2.59749
2.59613
2.59775
2.59907
2.59891
2.59841
2.59782
2.59655
2.59587
2.59466
2.59392
2.59243
2.59148
2.58975
2.58821
2.58637
2.58454
2.58241
2.58033
2.57809
2.57601
2.57371
2.57155
2.5691
2.56656
2.56367
2.56071
2.55744
2.55409
2.55046
2.54672
2.54274
2.53865
2.53432
2.52981
2.52501
2.51992
2.51448
2.50874
2.50268
2.49635
2.48981
2.48297
2.47641
1.35067
2.41176
2.6547
2.64876
2.62683
2.59626
2.58549
2.58575
2.58754
2.58946
2.5898
2.58956
2.5891
2.58832
2.58781
2.58729
2.58683
2.58621
2.58555
2.58475
2.58387
2.58284
2.5817
2.58038
2.57889
2.57705
2.57497
2.57257
2.56995
2.56706
2.56406
2.56087
2.55754
2.55401
2.55034
2.54648
2.54246
2.53825
2.53388
2.52932
2.52459
2.51968
2.51468
2.50955
2.5042
2.49871
2.49294
2.48699
2.48074
2.47477
1.77129
2.372
2.63818
2.61735
2.61099
2.59568
2.59295
2.59371
2.59481
2.5961
2.59584
2.59536
2.59501
2.59435
2.59378
2.59321
2.59263
2.59195
2.59124
2.59041
2.58954
2.58854
2.58747
2.58624
2.58491
2.5834
2.58174
2.57985
2.57778
2.57538
2.57265
2.56963
2.5663
2.5627
2.55883
2.55473
2.55038
2.54583
2.54106
2.53612
2.53093
2.52557
2.51991
2.51408
2.50809
2.50195
2.49574
2.48942
2.48299
2.47685
1.79785
2.35495
2.62619
2.60566
2.60248
2.59255
2.58917
2.58938
2.58963
2.59018
2.58993
2.58931
2.58867
2.58764
2.58662
2.58549
2.58431
2.58298
2.58158
2.58004
2.57846
2.57675
2.57505
2.57327
2.57151
2.56967
2.56785
2.56593
2.56402
2.56206
2.56018
2.55815
2.55617
2.55397
2.55177
2.54927
2.54669
2.54374
2.54043
2.53675
2.53285
2.52868
2.52428
2.51957
2.51463
2.5094
2.50387
2.49804
2.49194
2.48604
1.76265
2.38145
2.64986
2.61909
2.61331
2.59915
2.59598
2.59809
2.59957
2.6004
2.60014
2.59965
2.5986
2.59739
2.59612
2.5948
2.59336
2.59185
2.5902
2.5885
2.58669
2.58485
2.58276
2.58055
2.57811
2.57558
2.5728
2.56998
2.56692
2.56385
2.56056
2.5573
2.55384
2.55033
2.54661
2.54288
2.53893
2.53503
2.53112
2.52721
2.52313
2.51895
2.51459
2.51018
2.50558
2.50092
2.49605
2.49109
2.48585
2.48094
1.28614
2.49434
2.6446
2.64192
2.61667
2.58394
2.57187
2.57231
2.57494
2.57733
2.57858
2.57881
2.57903
2.579
2.57894
2.57886
2.5787
2.57839
2.57794
2.57727
2.57645
2.57539
2.57425
2.57288
2.57142
2.56971
2.56798
2.56584
2.56359
2.56119
2.55857
2.55579
2.55267
2.54948
2.54597
2.5424
2.53853
2.53461
2.53042
2.5262
2.52175
2.51728
2.51278
2.50805
2.50318
2.4981
2.49292
2.48752
2.48201
2.47674
1.7719
2.36704
2.63929
2.61677
2.61046
2.59504
2.5901
2.59101
2.59143
2.59302
2.59265
2.59207
2.59162
2.59083
2.59009
2.58923
2.58846
2.58748
2.58656
2.5854
2.5843
2.58295
2.58165
2.58008
2.57855
2.57674
2.57495
2.57284
2.57053
2.56792
2.56513
2.56205
2.55896
2.55564
2.55231
2.5487
2.54506
2.54111
2.53713
2.53281
2.52848
2.52378
2.51891
2.51383
2.50867
2.50331
2.49787
2.49224
2.48651
2.48103
1.7733
2.36524
2.6372
2.61485
2.6086
2.5933
2.58834
2.58944
2.59049
2.59159
2.59212
2.59163
2.59119
2.59039
2.58954
2.5886
2.58762
2.58647
2.58523
2.58384
2.58236
2.58077
2.57908
2.57729
2.57539
2.57343
2.57133
2.56922
2.56715
2.56499
2.56282
2.56049
2.55798
2.55528
2.55238
2.54932
2.5461
2.54271
2.53916
2.53545
2.53155
2.52751
2.52327
2.51889
2.5143
2.50959
2.50467
2.49963
2.49438
2.48928
1.28555
2.49075
2.64192
2.63926
2.61352
2.57887
2.56592
2.56542
2.56794
2.57
2.57096
2.5709
2.57075
2.57036
2.57005
2.56958
2.56929
2.56866
2.56822
2.56731
2.56668
2.5655
2.56464
2.56318
2.56208
2.56043
2.5588
2.55702
2.55512
2.5531
2.55097
2.54875
2.54643
2.544
2.54147
2.53879
2.53599
2.53303
2.52994
2.52665
2.52324
2.51963
2.51589
2.51196
2.50791
2.50365
2.49929
2.49473
2.49006
2.48552
1.76684
2.3727
2.64041
2.6097
2.60328
2.58731
2.58425
2.58642
2.58732
2.58944
2.5892
2.58865
2.5882
2.58735
2.58658
2.58568
2.58482
2.58377
2.58272
2.58149
2.58024
2.57884
2.57739
2.57581
2.57415
2.57237
2.57048
2.56849
2.56636
2.56412
2.56175
2.55912
2.55638
2.5534
2.55032
2.54701
2.54362
2.54001
2.53632
2.53251
2.52862
2.52458
2.52044
2.51616
2.51176
2.50722
2.50256
2.49777
2.49284
2.48811
1.79475
2.35579
2.62382
2.59572
2.59172
2.58002
2.57674
2.57794
2.57825
2.57896
2.57878
2.57837
2.57791
2.57716
2.57645
2.57569
2.57489
2.57397
2.57299
2.57189
2.57072
2.56944
2.56809
2.56663
2.56509
2.56345
2.56173
2.5599
2.55799
2.55598
2.55389
2.55183
2.54965
2.54748
2.54517
2.54284
2.54033
2.53774
2.53492
2.53197
2.52877
2.52547
2.52198
2.51838
2.51459
2.5107
2.50661
2.50243
2.49801
2.49384
1.79935
2.35057
2.6188
2.59256
2.58892
2.57767
2.57385
2.57453
2.57471
2.5751
2.57496
2.57455
2.57405
2.57329
2.57251
2.57173
2.57086
2.56993
2.56888
2.56775
2.56651
2.56519
2.56374
2.56221
2.56055
2.5588
2.55691
2.55494
2.55283
2.55063
2.54829
2.54586
2.5433
2.54065
2.53787
2.535
2.53202
2.52899
2.52588
2.52271
2.51945
2.51609
2.51261
2.50902
2.50532
2.5015
2.49756
2.4935
2.4893
2.48529
1.77987
2.35579
2.61634
2.60284
2.59345
2.577
2.57197
2.57245
2.57306
2.57368
2.57367
2.57319
2.57266
2.57184
2.57102
2.57024
2.56939
2.56847
2.56745
2.56635
2.56515
2.56386
2.56248
2.56099
2.5594
2.55771
2.55591
2.55399
2.55197
2.54982
2.54757
2.54518
2.54268
2.54004
2.5373
2.53441
2.53141
2.52827
2.52503
2.52164
2.51815
2.51452
2.5108
2.50694
2.50299
2.49889
2.4947
2.49037
2.48593
2.48167
1.34475
2.37971
2.63785
2.63728
2.61509
2.58162
2.5674
2.56502
2.56632
2.56743
2.56738
2.56712
2.56643
2.56543
2.56452
2.56373
2.5629
2.56202
2.56102
2.55995
2.55876
2.5575
2.55612
2.55465
2.55306
2.55137
2.54956
2.54764
2.5456
2.54344
2.54115
2.53875
2.53621
2.53356
2.53076
2.52785
2.52479
2.52162
2.5183
2.51486
2.51127
2.50757
2.50372
2.49976
2.49564
2.49143
2.48707
2.48263
2.47802
2.47362
1.34599
2.38728
2.65274
2.65692
2.63088
2.59236
2.57483
2.57246
2.5741
2.57538
2.57583
2.57548
2.57466
2.57365
2.57259
2.57172
2.57084
2.56993
2.5689
2.56781
2.5666
2.56535
2.56397
2.56254
2.56099
2.55939
2.55765
2.55585
2.55392
2.55192
2.54978
2.54757
2.54522
2.54279
2.5402
2.53754
2.53473
2.53182
2.52876
2.52561
2.52229
2.51888
2.51531
2.51164
2.50781
2.50387
2.49978
2.49559
2.49125
2.48707
1.34509
2.37918
2.63622
2.63624
2.61333
2.58
2.56483
2.56283
2.56418
2.5651
2.56551
2.56508
2.56437
2.56334
2.5624
2.56157
2.56077
2.55989
2.55894
2.5579
2.55678
2.55559
2.55432
2.55296
2.55152
2.54999
2.54838
2.54667
2.54487
2.54297
2.54098
2.53888
2.53669
2.53438
2.53198
2.52946
2.52685
2.5241
2.52127
2.51829
2.51523
2.51202
2.50872
2.50527
2.50174
2.49804
2.49427
2.49034
2.48631
2.48239
1.78114
2.3541
2.61384
2.59955
2.58986
2.57198
2.56691
2.56727
2.56786
2.5689
2.56874
2.56819
2.5677
2.56682
2.56606
2.56525
2.56446
2.56353
2.56259
2.56151
2.5604
2.55916
2.55789
2.55648
2.55504
2.55346
2.55184
2.55007
2.54826
2.54631
2.5443
2.54215
2.53994
2.53758
2.53517
2.53259
2.52996
2.52717
2.52432
2.5213
2.51823
2.51498
2.51167
2.50819
2.50465
2.50093
2.49715
2.49318
2.48914
2.4852
1.80141
2.34705
2.61441
2.58721
2.58368
2.57241
2.56892
2.57
2.57029
2.57073
2.57058
2.57006
2.56951
2.56861
2.56779
2.5669
2.56601
2.56498
2.56393
2.56274
2.56151
2.56014
2.55874
2.5572
2.5556
2.55387
2.55208
2.55015
2.54815
2.54602
2.54381
2.54147
2.53904
2.53648
2.53383
2.53105
2.52816
2.52516
2.52204
2.5188
2.51546
2.51198
2.5084
2.50469
2.50088
2.49694
2.49289
2.48871
2.48442
2.48029
1.78835
2.36069
2.62684
2.59522
2.58861
2.5745
2.57202
2.57405
2.57554
2.57646
2.57643
2.57592
2.57538
2.57454
2.57377
2.57295
2.57209
2.57112
2.57009
2.56896
2.56775
2.56645
2.56507
2.5636
2.56204
2.56038
2.55863
2.55678
2.55483
2.55278
2.55062
2.54837
2.54599
2.54353
2.54094
2.53825
2.53543
2.53252
2.52947
2.52632
2.52305
2.51966
2.51615
2.51253
2.50878
2.50492
2.50094
2.49684
2.49262
2.48857
2.17199
2.34421
2.76368
2.85926
2.88482
2.83576
2.83275
2.83164
2.82407
2.82277
2.82537
2.82694
2.82787
2.82869
2.82998
2.83128
2.83288
2.83458
2.83567
2.83641
2.83664
2.83644
2.83509
2.83405
2.83062
2.82809
2.82387
2.82001
2.8147
2.80979
2.80368
2.79784
2.79105
2.78452
2.77744
2.77053
2.76315
2.75539
2.74702
2.73892
2.73052
2.72232
2.71385
2.70559
2.69714
2.68893
2.68059
2.67252
2.66438
2.65654
2.64869
2.64118
2.63371
2.62663
2.61964
2.61309
2.60669
2.60078
2.59508
2.58993
2.58505
2.58079
2.57685
2.57359
2.57071
2.56855
2.5668
2.56577
2.56514
2.56513
2.56524
2.56557
2.56636
2.56775
2.56992
2.57211
2.57446
2.57672
2.57908
2.58125
2.58343
2.5853
2.58709
2.58852
2.58982
2.59074
2.59154
2.59198
2.5923
2.59236
2.59228
2.5921
2.59177
2.5911
2.59033
2.58935
2.58849
2.58743
2.58654
2.58361
2.18015
2.25981
2.44987
2.62825
2.6962
2.73841
2.7689
2.79543
2.81118
2.82419
2.83256
2.84269
2.84871
2.84828
2.84439
2.83842
2.83062
2.82231
2.81256
2.80281
2.79203
2.7816
2.77044
2.75992
2.74848
2.73763
2.72598
2.715
2.70335
2.69239
2.68082
2.66993
2.65854
2.64779
2.63687
2.62666
2.61618
2.60563
2.5947
2.58412
2.57379
2.56368
2.5537
2.54391
2.53429
2.52489
2.51567
2.5067
2.49794
2.48944
2.48116
2.47318
2.46543
2.45801
2.45085
2.44406
2.43757
2.43149
2.42576
2.42049
2.41563
2.41127
2.40739
2.40405
2.40123
2.39899
2.3973
2.3962
2.39564
2.39553
2.39572
2.39615
2.39712
2.39861
2.40098
2.40349
2.40619
2.40881
2.4115
2.414
2.41644
2.41857
2.42053
2.42213
2.42348
2.42446
2.42518
2.42556
2.42569
2.4256
2.42542
2.42504
2.42462
2.42375
2.42291
2.42174
2.42082
2.41961
2.41882
2.41594
2.22676
2.21239
2.27127
2.35749
2.41114
2.45961
2.49348
2.52117
2.54285
2.55907
2.57126
2.5804
2.58732
2.58959
2.58876
2.58687
2.58264
2.57778
2.57198
2.56567
2.55869
2.55155
2.54398
2.53651
2.52855
2.52069
2.51236
2.50425
2.49576
2.48757
2.47903
2.47083
2.4623
2.45412
2.44585
2.43815
2.4303
2.42222
2.41369
2.40529
2.39721
2.38919
2.38135
2.37351
2.36586
2.35823
2.35082
2.34346
2.33633
2.32928
2.32248
2.31579
2.30938
2.30311
2.29715
2.29138
2.28596
2.28078
2.27598
2.27147
2.26738
2.26364
2.26037
2.25751
2.25515
2.25323
2.25185
2.25094
2.25057
2.25056
2.2508
2.25124
2.25214
2.25357
2.25572
2.25807
2.26057
2.26303
2.26548
2.2678
2.27
2.27195
2.27369
2.27512
2.2763
2.27714
2.27774
2.27802
2.27808
2.27794
2.27777
2.27741
2.27702
2.27621
2.27547
2.27438
2.27359
2.27252
2.272
2.26956
2.25957
2.21999
2.21552
2.2404
2.27121
2.29367
2.30892
2.32068
2.33122
2.34043
2.34808
2.35412
2.35879
2.36237
2.36392
2.36412
2.36406
2.36391
2.36372
2.36343
2.36297
2.36233
2.36163
2.36041
2.35891
2.3572
2.35495
2.35253
2.34962
2.34658
2.34308
2.3395
2.33545
2.33136
2.32706
2.32303
2.31872
2.31401
2.30862
2.30312
2.2976
2.29215
2.28661
2.28106
2.27542
2.26979
2.26411
2.25848
2.25285
2.24729
2.24178
2.23637
2.23106
2.22589
2.22086
2.21602
2.21137
2.20695
2.20278
2.1989
2.19531
2.19207
2.18917
2.18667
2.18458
2.18292
2.1817
2.18095
2.18071
2.18081
2.18109
2.18153
2.18245
2.18382
2.18587
2.18807
2.19053
2.19288
2.19531
2.1975
2.19966
2.20148
2.20319
2.20451
2.20569
2.20646
2.20709
2.20732
2.20747
2.20737
2.20727
2.20702
2.20671
2.20604
2.20545
2.20454
2.20392
2.20305
2.2028
2.20074
2.27485
2.24088
2.21899
2.21141
2.21844
2.2231
2.22514
2.22576
2.2267
2.22855
2.23131
2.23361
2.23561
2.23745
2.24017
2.24249
2.24468
2.24715
2.24981
2.25269
2.25558
2.25839
2.26099
2.26327
2.26519
2.2666
2.26753
2.26804
2.26775
2.2672
2.26609
2.26463
2.2626
2.26033
2.25779
2.25532
2.25252
2.24921
2.24516
2.2408
2.23629
2.23175
2.22708
2.22236
2.2175
2.21259
2.20758
2.20257
2.19752
2.1925
2.18748
2.18255
2.17766
2.1729
2.16824
2.16375
2.15941
2.1553
2.15139
2.14776
2.14439
2.14135
2.13863
2.13629
2.13432
2.13279
2.13166
2.13102
2.13086
2.13099
2.13128
2.13174
2.13265
2.13404
2.13592
2.13802
2.14035
2.14266
2.14499
2.14713
2.14916
2.15092
2.15251
2.15377
2.15484
2.15555
2.15609
2.1563
2.15638
2.15627
2.15615
2.15586
2.15554
2.15483
2.15431
2.15339
2.15283
2.15199
2.15185
2.14984
2.29834
2.2545
2.23037
2.21047
2.20065
2.19379
2.18805
2.18197
2.17712
2.17331
2.17156
2.17104
2.17162
2.17198
2.17308
2.17531
2.17789
2.18107
2.18403
2.18765
2.19105
2.19491
2.19825
2.20178
2.20455
2.20726
2.20907
2.21071
2.21143
2.21199
2.21178
2.21113
2.20994
2.20843
2.2067
2.20495
2.20286
2.20024
2.19691
2.19319
2.18926
2.18518
2.18102
2.17674
2.17238
2.1679
2.16337
2.15875
2.15412
2.14945
2.14482
2.14019
2.13564
2.13116
2.1268
2.12255
2.11848
2.11458
2.11091
2.10746
2.10429
2.1014
2.09885
2.09663
2.0948
2.09335
2.09235
2.09182
2.09174
2.09188
2.09217
2.09269
2.09365
2.09504
2.09682
2.09883
2.10106
2.1033
2.10556
2.10765
2.10963
2.11133
2.11285
2.11406
2.11507
2.11576
2.11627
2.11646
2.11652
2.11642
2.1163
2.116
2.11568
2.11498
2.11451
2.11362
2.11312
2.11234
2.11226
2.11034
2.32203
2.28193
2.24825
2.22344
2.20303
2.18807
2.1757
2.16521
2.15572
2.14824
2.14236
2.13884
2.13672
2.13632
2.13637
2.13693
2.1388
2.14165
2.14487
2.14828
2.15193
2.15572
2.1595
2.16322
2.16664
2.16979
2.17237
2.17458
2.1761
2.17725
2.17768
2.17782
2.17721
2.1763
2.17522
2.17405
2.17254
2.17047
2.16774
2.16459
2.16117
2.15753
2.15377
2.14988
2.14591
2.14181
2.13765
2.13338
2.12908
2.12472
2.12038
2.11602
2.11174
2.10749
2.10336
2.09932
2.09546
2.09174
2.08825
2.08496
2.08195
2.0792
2.07679
2.07467
2.07296
2.07161
2.07073
2.07029
2.07028
2.07041
2.0707
2.07129
2.07227
2.0737
2.0754
2.07736
2.07945
2.08165
2.08378
2.08585
2.08771
2.0894
2.09082
2.09204
2.09297
2.09368
2.09412
2.09432