/*--------------------------------*- C++ -*----------------------------------*\
| =========                 |                                                 |
| \\      /  F ield         | OpenFOAM: The Open Source CFD Toolbox           |
|  \\    /   O peration     | Version:  2412                                  |
|   \\  /    A nd           | Website:  www.openfoam.com                      |
|    \\/     M anipulation  |                                                 |
\*---------------------------------------------------------------------------*/
FoamFile
{
    version     2.0;
    format      ascii;
    arch        "LSB;label=32;scalar=64";
    class       volVectorField;
    location    "17.5";
    object      U;
}
// * * * * * * * * * * * * * * * * * * * * * * * * * * * * * * * * * * * * * //

dimensions      [0 1 -1 0 0 0 0];

internalField   nonuniform List<vector> 
7000
(
(2.59147 -7.26262e-05 0)
(1.62154 0.000178401 0)
(0.496365 0.000208183 0)
(0.553013 0.000350053 0)
(0.654717 0.000445914 0)
(0.719975 0.000523929 0)
(0.732878 0.000591724 0)
(0.725987 0.00066197 0)
(0.71592 0.000740389 0)
(0.708214 0.000830777 0)
(0.703743 0.000929402 0)
(0.700174 0.0010326 0)
(0.696088 0.00113956 0)
(0.691231 0.00125123 0)
(0.685766 0.00136862 0)
(0.679817 0.00149232 0)
(0.673403 0.00162262 0)
(0.666491 0.00175983 0)
(0.659045 0.00190439 0)
(0.651038 0.00205686 0)
(0.642448 0.00221783 0)
(0.633253 0.00238797 0)
(0.623426 0.002568 0)
(0.61294 0.00275868 0)
(0.601768 0.00296082 0)
(0.589877 0.00317532 0)
(0.577236 0.00340307 0)
(0.563812 0.00364504 0)
(0.549569 0.00390219 0)
(0.534472 0.00417551 0)
(0.518483 0.00446597 0)
(0.501564 0.00477446 0)
(0.483677 0.00510185 0)
(0.464785 0.00544876 0)
(0.444852 0.00581581 0)
(0.423844 0.00620306 0)
(0.401732 0.00661058 0)
(0.378491 0.00703752 0)
(0.354104 0.00748296 0)
(0.328564 0.00794471 0)
(0.301874 0.00842039 0)
(0.274053 0.0089059 0)
(0.245136 0.00939726 0)
(0.215175 0.00988818 0)
(0.184245 0.010374 0)
(0.152439 0.0108479 0)
(0.119835 0.0113141 0)
(0.0868542 0.0117564 0)
(0.0514983 0.0123455 0)
(0.0221233 0.0131982 0)
(2.5916 -4.8253e-05 0)
(1.62171 0.000347129 0)
(0.496052 0.000826188 0)
(0.552751 0.00113792 0)
(0.654478 0.00137307 0)
(0.719748 0.00159498 0)
(0.732653 0.00180283 0)
(0.725766 0.00201799 0)
(0.715707 0.00225537 0)
(0.708011 0.00252506 0)
(0.703546 0.0028178 0)
(0.699981 0.00312401 0)
(0.695898 0.00344151 0)
(0.691047 0.00377257 0)
(0.685587 0.00411983 0)
(0.679644 0.00448466 0)
(0.673236 0.0048678 0)
(0.66633 0.00526992 0)
(0.65889 0.00569214 0)
(0.65089 0.00613568 0)
(0.642307 0.00660208 0)
(0.633119 0.00709281 0)
(0.6233 0.00760961 0)
(0.612823 0.00815411 0)
(0.601659 0.00872823 0)
(0.589777 0.00933368 0)
(0.577146 0.00997248 0)
(0.563731 0.0106462 0)
(0.549498 0.0113568 0)
(0.53441 0.0121056 0)
(0.51843 0.012894 0)
(0.501519 0.0137225 0)
(0.48364 0.0145918 0)
(0.464754 0.0155009 0)
(0.444824 0.0164489 0)
(0.423817 0.0174325 0)
(0.401701 0.0184483 0)
(0.378451 0.0194894 0)
(0.354049 0.0205487 0)
(0.328485 0.0216147 0)
(0.301761 0.022675 0)
(0.273893 0.023713 0)
(0.244915 0.0247109 0)
(0.214877 0.0256478 0)
(0.183849 0.0265028 0)
(0.151926 0.0272564 0)
(0.119176 0.0279068 0)
(0.0860675 0.0284278 0)
(0.0505512 0.0290791 0)
(0.0211964 0.0298299 0)
(2.59173 4.75659e-05 0)
(1.622 0.000391445 0)
(0.496259 0.00160231 0)
(0.552804 0.00197772 0)
(0.654519 0.00230175 0)
(0.719791 0.00266709 0)
(0.732695 0.00303625 0)
(0.725819 0.00341483 0)
(0.715782 0.00382473 0)
(0.708107 0.00428251 0)
(0.703656 0.0047771 0)
(0.700101 0.00529567 0)
(0.696028 0.0058353 0)
(0.691187 0.00639884 0)
(0.68574 0.00699027 0)
(0.679811 0.00761157 0)
(0.673417 0.00826441 0)
(0.666526 0.00894983 0)
(0.659101 0.00967008 0)
(0.651118 0.010427 0)
(0.642553 0.0112237 0)
(0.633384 0.0120623 0)
(0.623585 0.0129464 0)
(0.61313 0.0138783 0)
(0.601989 0.014862 0)
(0.590132 0.0159001 0)
(0.577526 0.0169966 0)
(0.564139 0.0181541 0)
(0.549934 0.0193765 0)
(0.534875 0.0206658 0)
(0.518925 0.0220253 0)
(0.502045 0.023456 0)
(0.484195 0.0249594 0)
(0.465337 0.0265345 0)
(0.445434 0.02818 0)
(0.424449 0.0298913 0)
(0.402351 0.0316623 0)
(0.379112 0.0334836 0)
(0.354711 0.0353415 0)
(0.329137 0.0372198 0)
(0.302388 0.0390951 0)
(0.274477 0.040943 0)
(0.245434 0.0427305 0)
(0.215308 0.044426 0)
(0.184164 0.0459926 0)
(0.152101 0.0473946 0)
(0.119182 0.048621 0)
(0.0859302 0.0496321 0)
(0.0502747 0.0506851 0)
(0.0207562 0.0516792 0)
(2.5919 5.40082e-05 0)
(1.62244 0.000534556 0)
(0.496686 0.00234732 0)
(0.552927 0.00281038 0)
(0.654641 0.00323274 0)
(0.719933 0.00375234 0)
(0.732843 0.00429831 0)
(0.725982 0.00485387 0)
(0.715974 0.00544632 0)
(0.708331 0.00609836 0)
(0.703903 0.00679972 0)
(0.700364 0.00753653 0)
(0.696308 0.00830499 0)
(0.691488 0.00910818 0)
(0.686062 0.00995067 0)
(0.680156 0.0108353 0)
(0.673786 0.0117644 0)
(0.66692 0.0127397 0)
(0.659523 0.0137643 0)
(0.651568 0.0148411 0)
(0.643034 0.015974 0)
(0.633897 0.0171667 0)
(0.624133 0.0184234 0)
(0.613715 0.0197485 0)
(0.602614 0.0211467 0)
(0.590799 0.0226227 0)
(0.578237 0.0241812 0)
(0.564897 0.0258273 0)
(0.550741 0.0275651 0)
(0.535734 0.0293994 0)
(0.519836 0.0313332 0)
(0.503009 0.0333701 0)
(0.485213 0.0355105 0)
(0.466407 0.0377557 0)
(0.446554 0.0401017 0)
(0.425616 0.0425457 0)
(0.403557 0.0450766 0)
(0.380349 0.0476846 0)
(0.355967 0.0503489 0)
(0.330395 0.0530492 0)
(0.303629 0.0557528 0)
(0.275678 0.0584238 0)
(0.246567 0.0610197 0)
(0.21634 0.0634894 0)
(0.185064 0.0657889 0)
(0.152834 0.067861 0)
(0.119713 0.0696783 0)
(0.0862777 0.0711873 0)
(0.0504234 0.072613 0)
(0.0206117 0.0737705 0)
(2.59215 6.76018e-05 0)
(1.62308 0.000714728 0)
(0.497236 0.00309892 0)
(0.553037 0.00367449 0)
(0.654769 0.00420579 0)
(0.720105 0.00487937 0)
(0.733029 0.00560222 0)
(0.726186 0.00634189 0)
(0.716215 0.00712572 0)
(0.708613 0.0079782 0)
(0.704218 0.00889152 0)
(0.700706 0.0098529 0)
(0.696676 0.0108575 0)
(0.691885 0.0119088 0)
(0.686491 0.0130111 0)
(0.680619 0.0141688 0)
(0.674285 0.0153839 0)
(0.667456 0.01666 0)
(0.660099 0.018 0)
(0.652187 0.019409 0)
(0.643698 0.0208907 0)
(0.634611 0.0224513 0)
(0.624899 0.0240951 0)
(0.614537 0.0258292 0)
(0.603495 0.0276582 0)
(0.591742 0.0295899 0)
(0.579248 0.0316292 0)
(0.565978 0.0337838 0)
(0.551896 0.0360584 0)
(0.536965 0.0384601 0)
(0.521147 0.0409925 0)
(0.504401 0.0436607 0)
(0.486686 0.0464655 0)
(0.467961 0.0494087 0)
(0.448185 0.052486 0)
(0.427318 0.0556926 0)
(0.405324 0.059017 0)
(0.382167 0.0624434 0)
(0.357821 0.0659498 0)
(0.332265 0.0695048 0)
(0.305487 0.0730733 0)
(0.277492 0.0766023 0)
(0.248299 0.0800397 0)
(0.21795 0.0833156 0)
(0.186505 0.0863645 0)
(0.154066 0.0891196 0)
(0.120683 0.0915229 0)
(0.0869976 0.0934978 0)
(0.0508548 0.0952357 0)
(0.0206293 0.0964859 0)
(2.59249 7.98427e-05 0)
(1.62392 0.000898441 0)
(0.497935 0.00384949 0)
(0.553152 0.00455113 0)
(0.654912 0.0051976 0)
(0.720316 0.00602547 0)
(0.733266 0.00693051 0)
(0.726449 0.00785945 0)
(0.716521 0.00884334 0)
(0.708969 0.00990515 0)
(0.704616 0.0110389 0)
(0.70114 0.0122326 0)
(0.697147 0.0134818 0)
(0.692394 0.0147898 0)
(0.687042 0.0161612 0)
(0.681215 0.0176007 0)
(0.674928 0.0191115 0)
(0.668149 0.0206977 0)
(0.660844 0.0223634 0)
(0.652988 0.0241143 0)
(0.64456 0.0259559 0)
(0.635537 0.0278949 0)
(0.625895 0.0299379 0)
(0.615607 0.0320924 0)
(0.604644 0.034366 0)
(0.592977 0.0367665 0)
(0.580572 0.0393022 0)
(0.567397 0.0419808 0)
(0.553415 0.0448106 0)
(0.538589 0.0477985 0)
(0.522879 0.0509514 0)
(0.506243 0.054274 0)
(0.488641 0.0577701 0)
(0.470028 0.0614399 0)
(0.450361 0.0652816 0)
(0.429598 0.0692874 0)
(0.407695 0.0734461 0)
(0.384617 0.0777372 0)
(0.360327 0.0821352 0)
(0.334803 0.086601 0)
(0.308021 0.0910894 0)
(0.279982 0.0955411 0)
(0.250695 0.099885 0)
(0.220195 0.104038 0)
(0.188541 0.107907 0)
(0.15583 0.1114 0)
(0.122115 0.114438 0)
(0.088069 0.116909 0)
(0.0515152 0.118959 0)
(0.0207805 0.12028 0)
(2.59292 9.24658e-05 0)
(1.62499 0.00108429 0)
(0.49879 0.00460778 0)
(0.553274 0.00544325 0)
(0.655071 0.00621148 0)
(0.720567 0.00719735 0)
(0.733556 0.00829252 0)
(0.726772 0.00941488 0)
(0.716899 0.0106052 0)
(0.709406 0.0118849 0)
(0.705106 0.0132472 0)
(0.701676 0.014681 0)
(0.697728 0.0161827 0)
(0.693025 0.0177555 0)
(0.687726 0.0194047 0)
(0.681955 0.0211349 0)
(0.675727 0.0229506 0)
(0.669011 0.0248562 0)
(0.661773 0.0268576 0)
(0.653989 0.0289606 0)
(0.645637 0.0311727 0)
(0.636696 0.0335014 0)
(0.627142 0.0359553 0)
(0.616948 0.0385428 0)
(0.606086 0.0412737 0)
(0.594525 0.0441573 0)
(0.582235 0.0472038 0)
(0.569181 0.0504229 0)
(0.555327 0.0538246 0)
(0.540635 0.0574179 0)
(0.525064 0.0612113 0)
(0.508572 0.0652118 0)
(0.491116 0.069424 0)
(0.47265 0.0738499 0)
(0.453128 0.0784877 0)
(0.432502 0.0833302 0)
(0.410727 0.0883643 0)
(0.387758 0.093568 0)
(0.363554 0.0989112 0)
(0.33808 0.104349 0)
(0.31131 0.109826 0)
(0.283228 0.115271 0)
(0.253839 0.1206 0)
(0.223161 0.12571 0)
(0.191252 0.130483 0)
(0.158203 0.134802 0)
(0.124056 0.138544 0)
(0.0895445 0.141567 0)
(0.0524223 0.143976 0)
(0.0210276 0.145401 0)
(2.59345 0.000105204 0)
(1.62631 0.00127063 0)
(0.499816 0.00537174 0)
(0.553404 0.00634482 0)
(0.655247 0.00723845 0)
(0.720864 0.00838651 0)
(0.733907 0.00967445 0)
(0.727163 0.0109974 0)
(0.717357 0.0124024 0)
(0.709934 0.0139079 0)
(0.705696 0.0155065 0)
(0.702323 0.0171882 0)
(0.698433 0.0189504 0)
(0.69379 0.0207965 0)
(0.688557 0.0227321 0)
(0.682855 0.0247622 0)
(0.676699 0.0268919 0)
(0.67006 0.0291267 0)
(0.662904 0.0314731 0)
(0.655208 0.0339386 0)
(0.64695 0.0365316 0)
(0.638111 0.0392612 0)
(0.628665 0.0421373 0)
(0.618586 0.0451703 0)
(0.607849 0.0483714 0)
(0.596421 0.0517521 0)
(0.584272 0.0553244 0)
(0.571368 0.0591002 0)
(0.557672 0.0630914 0)
(0.543146 0.0673095 0)
(0.527749 0.0717648 0)
(0.511437 0.0764664 0)
(0.494165 0.0814213 0)
(0.475884 0.0866325 0)
(0.456545 0.0921006 0)
(0.436097 0.0978177 0)
(0.414488 0.103772 0)
(0.391666 0.109939 0)
(0.367581 0.116287 0)
(0.342188 0.122764 0)
(0.315448 0.129309 0)
(0.287333 0.135837 0)
(0.257832 0.142244 0)
(0.226953 0.148414 0)
(0.194737 0.154193 0)
(0.16128 0.159434 0)
(0.126595 0.163985 0)
(0.091463 0.167646 0)
(0.0536193 0.170472 0)
(0.0214172 0.172037 0)
(2.59408 0.000117999 0)
(1.62789 0.00145655 0)
(0.501027 0.00613862 0)
(0.553546 0.0072517 0)
(0.655446 0.00827392 0)
(0.721211 0.00958844 0)
(0.734325 0.0110742 0)
(0.727634 0.0126036 0)
(0.717906 0.0142311 0)
(0.710565 0.0159703 0)
(0.7064 0.0178131 0)
(0.703096 0.0197507 0)
(0.699275 0.0217816 0)
(0.694706 0.0239095 0)
(0.689551 0.02614 0)
(0.683931 0.0284786 0)
(0.677862 0.0309311 0)
(0.671315 0.0335038 0)
(0.664258 0.0362045 0)
(0.656667 0.0390418 0)
(0.648523 0.0420254 0)
(0.639805 0.0451659 0)
(0.630489 0.0484749 0)
(0.620551 0.0519644 0)
(0.609963 0.0556478 0)
(0.598696 0.0595384 0)
(0.586718 0.0636505 0)
(0.573995 0.067998 0)
(0.560492 0.0725959 0)
(0.546169 0.0774573 0)
(0.530984 0.082596 0)
(0.514892 0.0880227 0)
(0.497846 0.0937478 0)
(0.479796 0.0997759 0)
(0.460686 0.10611 0)
(0.440462 0.112745 0)
(0.419063 0.119668 0)
(0.396433 0.126856 0)
(0.372508 0.134273 0)
(0.347233 0.141867 0)
(0.320552 0.149567 0)
(0.29242 0.157281 0)
(0.26281 0.164883 0)
(0.231706 0.172234 0)
(0.199135 0.179159 0)
(0.165179 0.185458 0)
(0.129846 0.190936 0)
(0.093941 0.195342 0)
(0.0551489 0.198679 0)
(0.021925 0.200435 0)
(2.59483 0.000130721 0)
(1.62975 0.00164076 0)
(0.502438 0.00690322 0)
(0.553704 0.00815791 0)
(0.655672 0.00931106 0)
(0.721617 0.0107955 0)
(0.73482 0.0124828 0)
(0.728193 0.0142247 0)
(0.718559 0.0160825 0)
(0.711312 0.0180636 0)
(0.707233 0.0201589 0)
(0.704009 0.0223608 0)
(0.700271 0.0246687 0)
(0.695789 0.0270868 0)
(0.690725 0.0296207 0)
(0.685202 0.0322763 0)
(0.679236 0.03506 0)
(0.672798 0.0379793 0)
(0.665857 0.041043 0)
(0.65839 0.0442609 0)
(0.650379 0.0476441 0)
(0.641804 0.0512049 0)
(0.632643 0.0549564 0)
(0.62287 0.0589127 0)
(0.61246 0.0630891 0)
(0.601384 0.0675011 0)
(0.589609 0.0721655 0)
(0.577104 0.0770989 0)
(0.563831 0.0823186 0)
(0.549751 0.0878409 0)
(0.534822 0.0936828 0)
(0.518997 0.0998581 0)
(0.502226 0.10638 0)
(0.484456 0.113258 0)
(0.46563 0.120496 0)
(0.445684 0.128092 0)
(0.424554 0.136037 0)
(0.402169 0.144309 0)
(0.378459 0.152871 0)
(0.353347 0.161671 0)
(0.326767 0.17063 0)
(0.298645 0.179648 0)
(0.268934 0.188586 0)
(0.237596 0.197276 0)
(0.20462 0.205511 0)
(0.170081 0.213049 0)
(0.133943 0.219636 0)
(0.0970667 0.224945 0)
(0.0571101 0.228904 0)
(0.0226304 0.230912 0)
(2.5957 0.000143247 0)
(1.63192 0.00182149 0)
(0.504062 0.00765786 0)
(0.553881 0.00905614 0)
(0.655929 0.010343 0)
(0.722089 0.011999 0)
(0.735402 0.0138932 0)
(0.728855 0.015852 0)
(0.719331 0.0179466 0)
(0.712191 0.0201784 0)
(0.708209 0.0225353 0)
(0.70508 0.0250103 0)
(0.701438 0.0276038 0)
(0.697057 0.0303203 0)
(0.692099 0.0331659 0)
(0.686689 0.0361466 0)
(0.680841 0.0392697 0)
(0.674529 0.0425436 0)
(0.667723 0.0459782 0)
(0.660401 0.0495847 0)
(0.652546 0.0533757 0)
(0.644138 0.057365 0)
(0.635157 0.0615677 0)
(0.625578 0.0659999 0)
(0.615375 0.0706789 0)
(0.604522 0.0756227 0)
(0.592987 0.0808508 0)
(0.580737 0.0863824 0)
(0.567735 0.0922382 0)
(0.553944 0.0984378 0)
(0.539318 0.105001 0)
(0.523811 0.111947 0)
(0.507372 0.119292 0)
(0.489942 0.12705 0)
(0.471461 0.135229 0)
(0.45186 0.143834 0)
(0.431065 0.152856 0)
(0.408996 0.16228 0)
(0.385568 0.17207 0)
(0.360688 0.182176 0)
(0.334264 0.192515 0)
(0.306203 0.202981 0)
(0.276415 0.213423 0)
(0.244839 0.223647 0)
(0.211422 0.233414 0)
(0.176204 0.242416 0)
(0.139129 0.250335 0)
(0.101049 0.256765 0)
(0.0595887 0.261533 0)
(0.0235202 0.26389 0)
(2.59669 0.000155011 0)
(1.63439 0.00199709 0)
(0.505915 0.00839045 0)
(0.554085 0.00993747 0)
(0.656224 0.0113627 0)
(0.722635 0.0131872 0)
(0.736081 0.0152922 0)
(0.729629 0.0174729 0)
(0.720236 0.0198123 0)
(0.713219 0.0223042 0)
(0.709348 0.0249322 0)
(0.706327 0.0276892 0)
(0.702796 0.0305768 0)
(0.698531 0.0336001 0)
(0.693696 0.0367653 0)
(0.688413 0.0400789 0)
(0.682702 0.0435488 0)
(0.676534 0.0471845 0)
(0.669883 0.0509971 0)
(0.662727 0.054999 0)
(0.65505 0.0592048 0)
(0.646835 0.0636296 0)
(0.638061 0.0682906 0)
(0.628706 0.073206 0)
(0.618744 0.0783955 0)
(0.608149 0.0838798 0)
(0.596892 0.0896808 0)
(0.584939 0.0958214 0)
(0.572255 0.102325 0)
(0.558801 0.109216 0)
(0.544533 0.116518 0)
(0.529403 0.124255 0)
(0.513357 0.132447 0)
(0.496336 0.141115 0)
(0.478274 0.150273 0)
(0.459095 0.159932 0)
(0.438719 0.17009 0)
(0.417051 0.180738 0)
(0.393994 0.191847 0)
(0.369432 0.20337 0)
(0.34325 0.21523 0)
(0.315319 0.227312 0)
(0.285516 0.239462 0)
(0.253723 0.251458 0)
(0.219844 0.263028 0)
(0.183857 0.273818 0)
(0.14565 0.283404 0)
(0.106109 0.291259 0)
(0.0627987 0.297076 0)
(0.0247342 0.299917 0)
(2.59782 0.000162961 0)
(1.63719 0.00216791 0)
(0.508006 0.00908278 0)
(0.554323 0.0107882 0)
(0.656559 0.0123609 0)
(0.723259 0.0143428 0)
(0.736869 0.016665 0)
(0.730534 0.0190744 0)
(0.721294 0.0216671 0)
(0.714416 0.0244292 0)
(0.710671 0.0273382 0)
(0.707772 0.0303865 0)
(0.704366 0.0335768 0)
(0.700233 0.0369151 0)
(0.695536 0.0404076 0)
(0.690399 0.0440614 0)
(0.684841 0.047885 0)
(0.678838 0.0518889 0)
(0.672362 0.0560855 0)
(0.665395 0.0604888 0)
(0.657921 0.0651148 0)
(0.649926 0.0699806 0)
(0.641388 0.0751054 0)
(0.632289 0.0805095 0)
(0.622603 0.0862152 0)
(0.612305 0.092246 0)
(0.601367 0.0986268 0)
(0.589757 0.105384 0)
(0.577441 0.112545 0)
(0.56438 0.120139 0)
(0.55053 0.128193 0)
(0.535842 0.136737 0)
(0.520262 0.145798 0)
(0.503727 0.155405 0)
(0.486168 0.165577 0)
(0.467505 0.176335 0)
(0.447647 0.187687 0)
(0.426489 0.199634 0)
(0.403915 0.212158 0)
(0.379791 0.225221 0)
(0.353966 0.238756 0)
(0.326281 0.252653 0)
(0.296552 0.266754 0)
(0.26461 0.280827 0)
(0.230285 0.294555 0)
(0.193481 0.307523 0)
(0.153987 0.319214 0)
(0.11264 0.328945 0)
(0.0669459 0.336211 0)
(0.0263007 0.339759 0)
(2.59908 0.000168542 0)
(1.64032 0.00232888 0)
(0.510327 0.00972952 0)
(0.554601 0.0115909 0)
(0.656935 0.0133107 0)
(0.72396 0.0154474 0)
(0.737775 0.0179956 0)
(0.731577 0.0206404 0)
(0.722518 0.023496 0)
(0.715799 0.0265389 0)
(0.712194 0.0297391 0)
(0.709431 0.0330881 0)
(0.706167 0.0365899 0)
(0.702181 0.0402511 0)
(0.697639 0.0440781 0)
(0.692665 0.0480783 0)
(0.687281 0.0522611 0)
(0.681462 0.0566382 0)
(0.675183 0.0612232 0)
(0.668429 0.0660319 0)
(0.661186 0.0710816 0)
(0.653438 0.0763918 0)
(0.645169 0.0819834 0)
(0.63636 0.0878795 0)
(0.626987 0.0941046 0)
(0.617028 0.100685 0)
(0.606455 0.10765 0)
(0.595238 0.115029 0)
(0.583344 0.122853 0)
(0.570736 0.131156 0)
(0.557369 0.139972 0)
(0.543197 0.149337 0)
(0.528164 0.159286 0)
(0.512206 0.169853 0)
(0.49525 0.181071 0)
(0.477212 0.19297 0)
(0.457993 0.205573 0)
(0.437478 0.218893 0)
(0.415532 0.232932 0)
(0.392001 0.247665 0)
(0.3667 0.263046 0)
(0.339424 0.278979 0)
(0.309935 0.295317 0)
(0.277974 0.31183 0)
(0.243274 0.328182 0)
(0.205618 0.343893 0)
(0.164668 0.358318 0)
(0.121182 0.370577 0)
(0.0725136 0.379878 0)
(0.0285005 0.384489 0)
(2.60047 0.000178204 0)
(1.64379 0.0024688 0)
(0.512892 0.0103343 0)
(0.554923 0.0123275 0)
(0.657362 0.0141728 0)
(0.724759 0.0164857 0)
(0.738825 0.0192561 0)
(0.732789 0.0221468 0)
(0.723939 0.025283 0)
(0.717398 0.0286196 0)
(0.713947 0.0321215 0)
(0.711334 0.0357811 0)
(0.708227 0.0396035 0)
(0.704405 0.043596 0)
(0.700035 0.0477648 0)
(0.695241 0.0521179 0)
(0.690048 0.0566653 0)
(0.684434 0.0614201 0)
(0.678376 0.0663971 0)
(0.671859 0.0716138 0)
(0.664873 0.0770892 0)
(0.657403 0.0828448 0)
(0.649436 0.0889036 0)
(0.640952 0.0952916 0)
(0.631933 0.102035 0)
(0.622356 0.109166 0)
(0.612197 0.116713 0)
(0.601427 0.124713 0)
(0.590015 0.133201 0)
(0.577924 0.142216 0)
(0.565116 0.151797 0)
(0.551541 0.161989 0)
(0.537146 0.172835 0)
(0.521866 0.184379 0)
(0.505629 0.196667 0)
(0.488345 0.209742 0)
(0.46991 0.223645 0)
(0.450201 0.238409 0)
(0.429068 0.254058 0)
(0.406331 0.270597 0)
(0.381777 0.288006 0)
(0.355149 0.306224 0)
(0.326145 0.325131 0)
(0.294411 0.344518 0)
(0.259543 0.364056 0)
(0.221152 0.38323 0)
(0.178658 0.40127 0)
(0.132617 0.417076 0)
(0.0800964 0.429411 0)
(0.0315327 0.43576 0)
(2.60199 0.000187911 0)
(1.64759 0.00258555 0)
(0.515723 0.0108636 0)
(0.555293 0.012967 0)
(0.657864 0.0149235 0)
(0.725695 0.0174234 0)
(0.740047 0.0204246 0)
(0.734215 0.0235735 0)
(0.725608 0.027006 0)
(0.71926 0.0306503 0)
(0.715975 0.0344655 0)
(0.713527 0.0384449 0)
(0.71059 0.042595 0)
(0.706948 0.0469247 0)
(0.702765 0.0514396 0)
(0.698169 0.0561484 0)
(0.693185 0.0610622 0)
(0.687795 0.0661956 0)
(0.681979 0.0715649 0)
(0.675725 0.0771892 0)
(0.669022 0.0830894 0)
(0.66186 0.0892892 0)
(0.654227 0.0958136 0)
(0.646106 0.102691 0)
(0.637481 0.109951 0)
(0.628332 0.117627 0)
(0.618636 0.125755 0)
(0.608369 0.134372 0)
(0.597502 0.14352 0)
(0.586001 0.153243 0)
(0.573829 0.163588 0)
(0.560941 0.174606 0)
(0.547285 0.186352 0)
(0.532799 0.19888 0)
(0.51741 0.212251 0)
(0.50103 0.226526 0)
(0.483553 0.241766 0)
(0.464848 0.25803 0)
(0.444756 0.275374 0)
(0.423079 0.293842 0)
(0.399574 0.313459 0)
(0.373935 0.334223 0)
(0.345786 0.356066 0)
(0.314666 0.378838 0)
(0.280006 0.402303 0)
(0.241149 0.425925 0)
(0.197215 0.448819 0)
(0.148349 0.46971 0)
(0.0910151 0.486723 0)
(0.036162 0.496133 0)
(2.60363 0.000193408 0)
(1.65172 0.0026751 0)
(0.518799 0.0112692 0)
(0.555714 0.0134703 0)
(0.658451 0.0155352 0)
(0.726793 0.0182194 0)
(0.741481 0.021476 0)
(0.735891 0.0248996 0)
(0.727562 0.0286449 0)
(0.721423 0.032618 0)
(0.718315 0.0367666 0)
(0.716042 0.0410828 0)
(0.713291 0.0455752 0)
(0.709842 0.0502528 0)
(0.705861 0.0551228 0)
(0.701478 0.0601939 0)
(0.696722 0.0654784 0)
(0.691577 0.0709916 0)
(0.686026 0.0767521 0)
(0.680059 0.0827804 0)
(0.673668 0.0891001 0)
(0.666845 0.0957363 0)
(0.659581 0.102717 0)
(0.651861 0.110073 0)
(0.643673 0.117838 0)
(0.634999 0.126048 0)
(0.62582 0.134741 0)
(0.616115 0.143961 0)
(0.605859 0.153755 0)
(0.595022 0.164171 0)
(0.583571 0.175266 0)
(0.571466 0.187097 0)
(0.558659 0.199731 0)
(0.545093 0.213236 0)
(0.5307 0.227688 0)
(0.515394 0.243168 0)
(0.499073 0.259763 0)
(0.481607 0.277564 0)
(0.462835 0.296666 0)
(0.442547 0.317168 0)
(0.420486 0.339144 0)
(0.396304 0.362706 0)
(0.369554 0.387881 0)
(0.339708 0.414545 0)
(0.305983 0.442742 0)
(0.26733 0.472062 0)
(0.222444 0.501666 0)
(0.170715 0.53011 0)
(0.107372 0.554914 0)
(0.0434896 0.570095 0)
(2.60538 0.000196023 0)
(1.65612 0.00272492 0)
(0.5221 0.0115048 0)
(0.556202 0.0137888 0)
(0.659151 0.0159567 0)
(0.728095 0.0188299 0)
(0.743179 0.0223581 0)
(0.737871 0.0260737 0)
(0.729862 0.0301497 0)
(0.723954 0.034465 0)
(0.721033 0.0389542 0)
(0.718945 0.0436097 0)
(0.716389 0.0484442 0)
(0.713146 0.0534686 0)
(0.70938 0.0586921 0)
(0.705225 0.0641239 0)
(0.700711 0.0697774 0)
(0.695828 0.0756694 0)
(0.690562 0.0818199 0)
(0.684904 0.0882513 0)
(0.678851 0.0949885 0)
(0.672397 0.102059 0)
(0.665534 0.109492 0)
(0.658254 0.117322 0)
(0.650544 0.125583 0)
(0.642393 0.134316 0)
(0.633785 0.143562 0)
(0.624702 0.153371 0)
(0.615126 0.163791 0)
(0.605031 0.174881 0)
(0.59439 0.186702 0)
(0.58317 0.199324 0)
(0.57133 0.21282 0)
(0.558822 0.227276 0)
(0.545585 0.242785 0)
(0.531544 0.25945 0)
(0.516607 0.277385 0)
(0.500654 0.296723 0)
(0.483535 0.317597 0)
(0.465033 0.340217 0)
(0.444922 0.364648 0)
(0.42285 0.391091 0)
(0.398209 0.419927 0)
(0.370551 0.451212 0)
(0.338985 0.485083 0)
(0.301938 0.521548 0)
(0.257483 0.560276 0)
(0.203876 0.600053 0)
(0.13383 0.638329 0)
(0.0565681 0.666372 0)
(2.60722 0.000190742 0)
(1.66075 0.00272944 0)
(0.52559 0.0114937 0)
(0.556782 0.0138449 0)
(0.659998 0.0161266 0)
(0.729646 0.0192183 0)
(0.745195 0.0230681 0)
(0.740214 0.0271351 0)
(0.732561 0.0316077 0)
(0.726889 0.0363185 0)
(0.724155 0.0411888 0)
(0.722255 0.0462143 0)
(0.719903 0.0514128 0)
(0.716878 0.0568007 0)
(0.713342 0.0623848 0)
(0.70943 0.0681764 0)
(0.705179 0.0741909 0)
(0.70058 0.0804481 0)
(0.695621 0.0869704 0)
(0.6903 0.093783 0)
(0.684613 0.100913 0)
(0.678559 0.108391 0)
(0.672133 0.116249 0)
(0.66533 0.124523 0)
(0.658142 0.133252 0)
(0.650561 0.142478 0)
(0.642576 0.152247 0)
(0.634177 0.162611 0)
(0.625348 0.173626 0)
(0.616073 0.185354 0)
(0.606332 0.197864 0)
(0.596101 0.211234 0)
(0.585349 0.225551 0)
(0.574042 0.240911 0)
(0.562131 0.257428 0)
(0.549558 0.275227 0)
(0.536252 0.29444 0)
(0.522108 0.31529 0)
(0.507049 0.337864 0)
(0.4908 0.362411 0)
(0.473109 0.389362 0)
(0.453967 0.418944 0)
(0.432753 0.45164 0)
(0.408665 0.487952 0)
(0.380894 0.528329 0)
(0.347893 0.573499 0)
(0.307021 0.624281 0)
(0.255036 0.681014 0)
(0.180405 0.743055 0)
(0.0832409 0.803216 0)
(2.6091 0.000130897 0)
(1.6655 0.00273128 0)
(0.529135 0.0111487 0)
(0.557454 0.0134943 0)
(0.661033 0.0158751 0)
(0.731528 0.0191677 0)
(0.747644 0.023341 0)
(0.743055 0.0277632 0)
(0.735802 0.0326365 0)
(0.730365 0.0377366 0)
(0.727806 0.0429755 0)
(0.726088 0.0483611 0)
(0.723939 0.0539218 0)
(0.721133 0.0596751 0)
(0.717827 0.0656293 0)
(0.714161 0.0717942 0)
(0.710177 0.0781856 0)
(0.705871 0.0848237 0)
(0.701236 0.0917324 0)
(0.69627 0.0989379 0)
(0.690974 0.106469 0)
(0.685349 0.114357 0)
(0.679394 0.122636 0)
(0.673107 0.131343 0)
(0.666485 0.140521 0)
(0.659524 0.150214 0)
(0.652219 0.160472 0)
(0.644565 0.17135 0)
(0.636555 0.18291 0)
(0.628181 0.195218 0)
(0.619432 0.208351 0)
(0.610296 0.222395 0)
(0.600757 0.237448 0)
(0.590797 0.253616 0)
(0.580389 0.27104 0)
(0.569479 0.289899 0)
(0.558089 0.310214 0)
(0.546054 0.332261 0)
(0.533266 0.356428 0)
(0.519901 0.382921 0)
(0.505681 0.412258 0)
(0.49031 0.444876 0)
(0.473533 0.481264 0)
(0.454859 0.522407 0)
(0.433643 0.569482 0)
(0.408714 0.624307 0)
(0.377682 0.689777 0)
(0.336635 0.77097 0)
(0.270965 0.878228 0)
(0.146456 1.04346 0)
(2.61148 7.41779e-05 0)
(1.67126 0.00259676 0)
(0.532797 0.0103306 0)
(0.557932 0.0127651 0)
(0.662143 0.0153858 0)
(0.733847 0.0191402 0)
(0.750787 0.0239366 0)
(0.74675 0.0289946 0)
(0.740032 0.0345107 0)
(0.734887 0.0401777 0)
(0.732561 0.0459061 0)
(0.731114 0.0517317 0)
(0.72928 0.0577049 0)
(0.726816 0.0638512 0)
(0.723873 0.0701871 0)
(0.720593 0.0767265 0)
(0.717026 0.08349 0)
(0.713176 0.0905031 0)
(0.709039 0.0977943 0)
(0.704617 0.105393 0)
(0.699915 0.113332 0)
(0.69494 0.121645 0)
(0.689696 0.130368 0)
(0.684187 0.139541 0)
(0.678416 0.149207 0)
(0.672388 0.159413 0)
(0.666107 0.170211 0)
(0.659578 0.18166 0)
(0.652805 0.193822 0)
(0.645794 0.206771 0)
(0.638553 0.220587 0)
(0.631088 0.23536 0)
(0.623401 0.251217 0)
(0.61552 0.268245 0)
(0.607509 0.286533 0)
(0.599138 0.306332 0)
(0.590454 0.32787 0)
(0.58194 0.351329 0)
(0.573454 0.377138 0)
(0.564773 0.405659 0)
(0.556013 0.437243 0)
(0.547263 0.472596 0)
(0.538712 0.512556 0)
(0.530588 0.558408 0)
(0.523431 0.611938 0)
(0.518419 0.675909 0)
(0.518273 0.754784 0)
(0.531198 0.855994 0)
(0.58717 0.990716 0)
(0.657253 1.18541 0)
(2.61398 5.8818e-05 0)
(1.67738 0.00193223 0)
(0.537305 0.0077248 0)
(0.559575 0.00988268 0)
(0.664793 0.0124618 0)
(0.738239 0.0166338 0)
(0.756256 0.0221613 0)
(0.752819 0.0279979 0)
(0.746561 0.0343264 0)
(0.741484 0.0407131 0)
(0.739173 0.0470891 0)
(0.737827 0.0535301 0)
(0.736172 0.060101 0)
(0.73393 0.0668281 0)
(0.731239 0.0737224 0)
(0.728247 0.080799 0)
(0.725013 0.0880812 0)
(0.721548 0.0955973 0)
(0.71785 0.103378 0)
(0.713925 0.111454 0)
(0.70978 0.11986 0)
(0.705425 0.128632 0)
(0.70087 0.137809 0)
(0.696123 0.147432 0)
(0.691195 0.157547 0)
(0.686097 0.168204 0)
(0.680842 0.179457 0)
(0.675445 0.191367 0)
(0.669924 0.204 0)
(0.664299 0.217434 0)
(0.658589 0.231775 0)
(0.65286 0.247039 0)
(0.647091 0.263344 0)
(0.641206 0.280904 0)
(0.635441 0.299854 0)
(0.630014 0.320326 0)
(0.624815 0.342665 0)
(0.619911 0.367071 0)
(0.615531 0.393733 0)
(0.611832 0.423104 0)
(0.609087 0.455704 0)
(0.607771 0.492188 0)
(0.608555 0.533472 0)
(0.61253 0.580707 0)
(0.621521 0.635554 0)
(0.638847 0.700174 0)
(0.670516 0.777483 0)
(0.725545 0.870917 0)
(0.836724 0.980502 0)
(0.984612 1.09509 0)
(2.61542 6.97868e-05 0)
(1.68092 0.00129556 0)
(0.54015 0.00542606 0)
(0.561328 0.00787051 0)
(0.668148 0.0110566 0)
(0.744007 0.0164134 0)
(0.76347 0.0232072 0)
(0.760764 0.0301384 0)
(0.754976 0.0371971 0)
(0.749895 0.0440022 0)
(0.747594 0.0506761 0)
(0.746383 0.0573956 0)
(0.744932 0.064241 0)
(0.742913 0.0712328 0)
(0.740458 0.0783774 0)
(0.737727 0.0856981 0)
(0.734794 0.0932283 0)
(0.731673 0.101003 0)
(0.728367 0.109055 0)
(0.724885 0.117417 0)
(0.72124 0.126125 0)
(0.717446 0.135213 0)
(0.713519 0.144719 0)
(0.709475 0.154682 0)
(0.70533 0.165148 0)
(0.701107 0.176162 0)
(0.696826 0.187776 0)
(0.692512 0.200057 0)
(0.688202 0.21306 0)
(0.683967 0.226811 0)
(0.679715 0.241426 0)
(0.675478 0.257049 0)
(0.67159 0.273742 0)
(0.66809 0.291667 0)
(0.664896 0.311021 0)
(0.662165 0.331887 0)
(0.660071 0.354435 0)
(0.658788 0.378932 0)
(0.658597 0.405667 0)
(0.659867 0.434984 0)
(0.663063 0.467339 0)
(0.668933 0.503253 0)
(0.678543 0.543384 0)
(0.693369 0.588498 0)
(0.715797 0.639451 0)
(0.749285 0.697086 0)
(0.799424 0.761676 0)
(0.871815 0.832267 0)
(0.984778 0.903903 0)
(1.12047 0.956748 0)
(2.61662 4.44814e-05 0)
(1.68397 -0.00154316 0)
(0.545504 -0.00486222 0)
(0.5673 -0.00307284 0)
(0.67592 0.00095606 0)
(0.754149 0.00899693 0)
(0.774492 0.0185237 0)
(0.771563 0.0278027 0)
(0.765182 0.0363875 0)
(0.759509 0.0441881 0)
(0.757029 0.0516794 0)
(0.755901 0.0591568 0)
(0.754617 0.0666984 0)
(0.752783 0.0743231 0)
(0.750539 0.0820271 0)
(0.748076 0.0898462 0)
(0.745473 0.0978255 0)
(0.74274 0.106006 0)
(0.739877 0.114426 0)
(0.736888 0.123123 0)
(0.73379 0.132135 0)
(0.730598 0.141502 0)
(0.727329 0.151263 0)
(0.724006 0.16146 0)
(0.720652 0.172139 0)
(0.717292 0.18336 0)
(0.713976 0.195145 0)
(0.710724 0.207535 0)
(0.707493 0.220634 0)
(0.704408 0.234518 0)
(0.701684 0.249239 0)
(0.69929 0.264963 0)
(0.697235 0.281779 0)
(0.695689 0.299705 0)
(0.694754 0.318893 0)
(0.694594 0.339501 0)
(0.695429 0.361697 0)
(0.697514 0.38568 0)
(0.701205 0.411677 0)
(0.706933 0.439941 0)
(0.715305 0.470756 0)
(0.727133 0.504451 0)
(0.743552 0.541306 0)
(0.766057 0.5816 0)
(0.796703 0.625416 0)
(0.838183 0.672474 0)
(0.894134 0.721718 0)
(0.967253 0.770559 0)
(1.06847 0.814777 0)
(1.18154 0.840346 0)
(2.61228 0.00229797 0)
(1.67392 -0.00678833 0)
(0.550136 -0.0138294 0)
(0.583149 -0.00805141 0)
(0.696204 -0.000431032 0)
(0.778006 0.00983211 0)
(0.798638 0.0200193 0)
(0.794229 0.0296617 0)
(0.785902 0.0381746 0)
(0.778854 0.0460344 0)
(0.775732 0.0537136 0)
(0.774247 0.0613691 0)
(0.772657 0.0690358 0)
(0.770512 0.0767456 0)
(0.767973 0.0845513 0)
(0.76528 0.0925059 0)
(0.762514 0.100654 0)
(0.759682 0.109032 0)
(0.756782 0.117675 0)
(0.753827 0.126614 0)
(0.750834 0.135883 0)
(0.747824 0.145515 0)
(0.744816 0.155543 0)
(0.741839 0.165999 0)
(0.738944 0.176895 0)
(0.736113 0.188287 0)
(0.733345 0.200259 0)
(0.730798 0.212826 0)
(0.72857 0.226055 0)
(0.726644 0.240053 0)
(0.725081 0.254852 0)
(0.723989 0.270477 0)
(0.723453 0.287041 0)
(0.72362 0.304635 0)
(0.724653 0.323363 0)
(0.726733 0.343359 0)
(0.730108 0.36474 0)
(0.73506 0.387657 0)
(0.741964 0.412247 0)
(0.751286 0.438659 0)
(0.763624 0.467021 0)
(0.779751 0.497438 0)
(0.800642 0.529931 0)
(0.827546 0.564382 0)
(0.861989 0.600448 0)
(0.905801 0.637368 0)
(0.961271 0.673805 0)
(1.03 0.707428 0)
(1.1164 0.735304 0)
(1.20927 0.749059 0)
(2.60398 0.00793774 0)
(1.64364 -0.0735591 0)
(0.585445 -0.0726707 0)
(0.624078 -0.0458069 0)
(0.731484 -0.005837 0)
(0.809135 0.0164384 0)
(0.827164 0.026545 0)
(0.821223 0.0352121 0)
(0.811716 0.0425804 0)
(0.80435 0.0506972 0)
(0.80097 0.0592285 0)
(0.799107 0.0676614 0)
(0.797122 0.0758723 0)
(0.794677 0.083942 0)
(0.79195 0.0920065 0)
(0.789114 0.100145 0)
(0.78623 0.108405 0)
(0.783296 0.116829 0)
(0.780313 0.12546 0)
(0.777294 0.134343 0)
(0.77426 0.143527 0)
(0.771236 0.153039 0)
(0.768247 0.162894 0)
(0.765283 0.173143 0)
(0.76242 0.183856 0)
(0.759804 0.195039 0)
(0.757421 0.206749 0)
(0.755269 0.219044 0)
(0.753467 0.231946 0)
(0.752089 0.245508 0)
(0.751211 0.259804 0)
(0.750944 0.274896 0)
(0.751415 0.290846 0)
(0.752777 0.307735 0)
(0.755207 0.325621 0)
(0.758902 0.344593 0)
(0.764113 0.364718 0)
(0.771143 0.386078 0)