/*--------------------------------*- C++ -*----------------------------------*\
| =========                 |                                                 |
| \\      /  F ield         | OpenFOAM: The Open Source CFD Toolbox           |
|  \\    /   O peration     | Version:  2412                                  |
|   \\  /    A nd           | Website:  www.openfoam.com                      |
|    \\/     M anipulation  |                                                 |
\*---------------------------------------------------------------------------*/
FoamFile
{
    version     2.0;
    format      ascii;
    arch        "LSB;label=32;scalar=64";
    class       volScalarField;
    location    "29.5";
    object      Ma;
}
// * * * * * * * * * * * * * * * * * * * * * * * * * * * * * * * * * * * * * //

dimensions      [0 0 0 0 0 0 0];

internalField   nonuniform List<scalar> 
7000
(
2.25598
0.994166
0.300522
0.338438
0.401061
0.442387
0.450593
0.446123
0.439769
0.434859
0.432014
0.429742
0.427142
0.424055
0.420584
0.416808
0.412742
0.408364
0.403653
0.398592
0.393171
0.387374
0.381188
0.374596
0.367583
0.36013
0.352221
0.343835
0.334954
0.325556
0.315623
0.305131
0.294062
0.282392
0.270106
0.257183
0.24361
0.229372
0.214464
0.198882
0.182632
0.165726
0.148189
0.130053
0.111368
0.0921923
0.0725905
0.0528468
0.0319229
0.0155243
2.25603
0.994227
0.300319
0.338273
0.400907
0.442239
0.450445
0.445979
0.439631
0.434728
0.431887
0.429618
0.427022
0.423939
0.420472
0.416702
0.412642
0.408269
0.403564
0.398511
0.393097
0.387308
0.38113
0.374548
0.367546
0.360105
0.352208
0.343836
0.33497
0.325589
0.315674
0.305202
0.294155
0.28251
0.27025
0.257356
0.243815
0.229613
0.214745
0.199208
0.183009
0.166164
0.148701
0.13066
0.112102
0.093117
0.0738189
0.0546556
0.0351572
0.0220571
2.25616
0.994424
0.300452
0.338308
0.400937
0.442271
0.450479
0.446019
0.439688
0.434797
0.431969
0.429705
0.42712
0.424042
0.42059
0.416827
0.412782
0.408419
0.403732
0.398691
0.393297
0.387523
0.38137
0.374806
0.367832
0.360415
0.352552
0.344211
0.335385
0.326042
0.316175
0.305751
0.294761
0.283177
0.270988
0.258171
0.244717
0.230613
0.215857
0.20045
0.184403
0.167741
0.150499
0.132744
0.114565
0.0961164
0.0776336
0.0598396
0.0430408
0.0335721
2.25633
0.99473
0.300723
0.338385
0.401018
0.442371
0.450582
0.446136
0.439819
0.434955
0.432138
0.429893
0.427315
0.42426
0.420818
0.417082
0.413049
0.408716
0.404044
0.399037
0.393662
0.387928
0.381799
0.375283
0.368339
0.360977
0.353153
0.344877
0.336101
0.326836
0.317032
0.306701
0.295792
0.28432
0.272233
0.259552
0.246232
0.232295
0.217716
0.202522
0.186718
0.170346
0.153462
0.136147
0.118554
0.100896
0.0835503
0.0674573
0.0533027
0.0461802
2.25658
0.995161
0.301072
0.338454
0.401103
0.442492
0.450712
0.446286
0.439981
0.435159
0.432353
0.43014
0.427572
0.424551
0.421123
0.417425
0.413412
0.40912
0.404474
0.399512
0.394172
0.388489
0.382405
0.375947
0.36906
0.361765
0.354014
0.345815
0.337131
0.327957
0.318267
0.308044
0.297278
0.285936
0.274027
0.261509
0.248408
0.234681
0.220378
0.205464
0.190015
0.174037
0.157639
0.140921
0.124072
0.107408
0.0913716
0.077029
0.0651081
0.059494
2.25691
0.995734
0.301516
0.338526
0.401199
0.442637
0.450881
0.446457
0.440211
0.435394
0.432648
0.430433
0.427922
0.424901
0.421537
0.417845
0.413902
0.40962
0.405052
0.400108
0.394854
0.389199
0.383212
0.376795
0.370019
0.362781
0.355155
0.347035
0.338492
0.329425
0.319897
0.309816
0.299236
0.28808
0.276387
0.264109
0.251268
0.237851
0.223869
0.209359
0.194331
0.178893
0.163087
0.147116
0.131165
0.115612
0.100984
0.088297
0.0781875
0.0736194
2.25733
0.99646
0.302059
0.338601
0.401306
0.442815
0.451085
0.446689
0.440472
0.435706
0.432987
0.430818
0.42833
0.425361
0.422025
0.418393
0.414482
0.410271
0.40574
0.400879
0.395672
0.390115
0.384185
0.377885
0.371179
0.364083
0.356544
0.348593
0.340162
0.331295
0.32191
0.312067
0.301672
0.290794
0.279345
0.267393
0.254871
0.241843
0.22828
0.214245
0.199771
0.184938
0.169887
0.154751
0.139833
0.125478
0.112234
0.101078
0.0924442
0.0886247
2.25784
0.997352
0.302711
0.338682
0.401426
0.443025
0.451332
0.446969
0.440791
0.436081
0.433402
0.43128
0.428832
0.425915
0.422627
0.419053
0.415201
0.411055
0.406595
0.40181
0.396688
0.391221
0.385396
0.3792
0.372624
0.36565
0.358273
0.350466
0.342236
0.333541
0.324404
0.31477
0.30468
0.294064
0.282985
0.271366
0.259289
0.24669
0.233664
0.22019
0.206374
0.192282
0.178048
0.163895
0.150053
0.136957
0.125074
0.115262
0.107842
0.104622
2.25846
0.998421
0.30348
0.33877
0.401561
0.443271
0.451629
0.447299
0.441181
0.436521
0.433902
0.431826
0.429437
0.426571
0.42335
0.419838
0.416062
0.411989
0.407617
0.402921
0.397902
0.392542
0.38684
0.380776
0.374347
0.367535
0.360332
0.352726
0.344703
0.336257
0.327368
0.318042
0.308248
0.298014
0.287294
0.276148
0.264518
0.2525
0.24004
0.227274
0.214187
0.200955
0.187669
0.174546
0.161895
0.150027
0.139452
0.130888
0.124492
0.121715
2.25918
0.999681
0.304377
0.338868
0.401715
0.44356
0.451977
0.4477
0.441633
0.437053
0.434482
0.43248
0.430141
0.427355
0.424195
0.420773
0.417068
0.413098
0.408814
0.404236
0.399325
0.394104
0.388534
0.382635
0.376369
0.369752
0.362752
0.355379
0.347606
0.339441
0.33086
0.321873
0.312461
0.302635
0.29239
0.281735
0.270694
0.259273
0.247543
0.235511
0.22332
0.210999
0.198784
0.186793
0.175337
0.164783
0.155438
0.14799
0.142489
0.140144
2.26002
1.00114
0.30541
0.338976
0.401891
0.443892
0.452388
0.448156
0.442182
0.43766
0.435177
0.433229
0.43098
0.428256
0.425196
0.421848
0.418257
0.414376
0.410221
0.405753
0.400993
0.395907
0.390514
0.384783
0.378727
0.372318
0.365567
0.358451
0.350977
0.343128
0.334909
0.326311
0.317337
0.30799
0.298275
0.288213
0.277815
0.267125
0.256171
0.245037
0.233779
0.222544
0.211437
0.200702
0.190516
0.181221
0.173163
0.166806
0.162133
0.160098
2.26098
1.00282
0.306588
0.3391
0.402092
0.44428
0.452864
0.448708
0.442804
0.438388
0.435966
0.434118
0.431933
0.42932
0.426336
0.423111
0.41961
0.41587
0.411825
0.407519
0.402895
0.397999
0.392775
0.387267
0.38142
0.375277
0.368784
0.361986
0.354831
0.347363
0.339538
0.331399
0.322912
0.314118
0.305005
0.295612
0.285954
0.276071
0.266025
0.255856
0.245695
0.235597
0.22577
0.216326
0.207538
0.199606
0.192762
0.187488
0.183629
0.182023
2.26207
1.00471
0.307918
0.339242
0.402321
0.44472
0.453417
0.449333
0.443547
0.439215
0.436898
0.435127
0.433052
0.430525
0.427665
0.424541
0.421181
0.417559
0.413679
0.409516
0.405085
0.400365
0.39537
0.390077
0.384502
0.378623
0.372458
0.365983
0.359222
0.352151
0.344801
0.337151
0.329238
0.321046
0.312628
0.303973
0.295156
0.286179
0.277139
0.268074
0.259095
0.250314
0.241828
0.233863
0.226513
0.220064
0.214644
0.210543
0.207567
0.206264
2.26328
1.00683
0.309402
0.339397
0.402593
0.445217
0.454052
0.450064
0.444396
0.44018
0.437959
0.436295
0.434321
0.431915
0.429168
0.426182
0.422953
0.419492
0.415766
0.411793
0.407548
0.403055
0.398283
0.393263
0.387961
0.382409
0.376576
0.370497
0.364141
0.357548
0.350696
0.343622
0.33632
0.328826
0.321157
0.31335
0.305447
0.297496
0.289563
0.281729
0.274075
0.266728
0.259803
0.25342
0.247778
0.242927
0.239021
0.236286
0.234365
0.233711
2.26461
1.00917
0.31104
0.339556
0.402918
0.445776
0.454781
0.450906
0.445373
0.441289
0.439173
0.437628
0.435766
0.433492
0.430875
0.428036
0.424958
0.421666
0.418121
0.414348
0.410322
0.406064
0.40156
0.396819
0.391843
0.386628
0.381191
0.375517
0.369644
0.363543
0.357277
0.350804
0.344212
0.337459
0.330647
0.323752
0.316882
0.310052
0.303361
0.296883
0.290714
0.284967
0.279762
0.275235
0.271477
0.268666
0.266692
0.26572
0.265189
0.265154
2.26607
1.01175
0.312844
0.339753
0.403283
0.446421
0.455625
0.451877
0.446522
0.442559
0.440578
0.439141
0.437425
0.435272
0.432818
0.430118
0.427226
0.424099
0.420771
0.417197
0.413427
0.409413
0.405212
0.400771
0.396155
0.391309
0.386301
0.381082
0.375721
0.370182
0.364527
0.358748
0.352891
0.346991
0.341072
0.33522
0.329445
0.323878
0.318541
0.313582
0.309072
0.305151
0.301923
0.29952
0.298079
0.297579
0.298076
0.299505
0.30115
0.302675
2.26765
1.01454
0.314805
0.339981
0.403702
0.447174
0.456607
0.453011
0.447857
0.444029
0.44219
0.440873
0.439306
0.437292
0.435005
0.432466
0.429763
0.42683
0.423721
0.420382
0.41687
0.413142
0.409248
0.405157
0.400906
0.396486
0.391918
0.387217
0.382389
0.377476
0.372474
0.367449
0.3624
0.357406
0.352489
0.347728
0.343196
0.338955
0.335147
0.331828
0.329176
0.327311
0.32639
0.326514
0.327914
0.330654
0.33452
0.339626
0.344725
0.348723
2.26934
1.01754
0.316909
0.340246
0.40419
0.448059
0.457757
0.454356
0.449402
0.445751
0.444032
0.44287
0.441433
0.439597
0.437457
0.435117
0.432586
0.429885
0.426984
0.423919
0.420663
0.417259
0.41368
0.409974
0.406111
0.402147
0.398057
0.393898
0.38966
0.385395
0.381119
0.376874
0.372715
0.368674
0.364846
0.361266
0.358061
0.355305
0.353119
0.351684
0.351059
0.351506
0.353198
0.356409
0.361328
0.368067
0.376898
0.387631
0.399367
0.40997
2.2711
1.02069
0.319133
0.340562
0.404771
0.449104
0.459114
0.455933
0.451211
0.447735
0.446148
0.445135
0.443849
0.442185
0.440222
0.438076
0.435753
0.433275
0.430627
0.427825
0.424874
0.421784
0.418574
0.415244
0.411829
0.408318
0.404766
0.401158
0.397566
0.393975
0.390474
0.38706
0.383832
0.38082
0.378118
0.375817
0.373995
0.372841
0.372421
0.372921
0.374586
0.377703
0.382626
0.389493
0.39892
0.411249
0.426945
0.447105
0.470987
0.498594
2.27293
1.02393
0.321413
0.34094
0.40548
0.450365
0.460758
0.457821
0.453386
0.450054
0.448613
0.447718
0.446604
0.445086
0.443321
0.441347
0.439253
0.436989
0.434612
0.432077
0.42945
0.426691
0.423865
0.420942
0.417982
0.414969
0.411959
0.408959
0.406013
0.403163
0.40044
0.397927
0.395648
0.393729
0.392202
0.39124
0.390881
0.39131
0.392695
0.395382
0.399588
0.405684
0.41389
0.425051
0.439617
0.459155
0.48508
0.520593
0.571925
0.664902
2.27501
1.02767
0.323947
0.341215
0.40628
0.451965
0.462913
0.460348
0.456261
0.453157
0.451875
0.451202
0.450303
0.44906
0.447542
0.44588
0.444074
0.442176
0.440146
0.438045
0.435837
0.433592
0.431274
0.42896
0.426615
0.424326
0.422061
0.41992
0.417881
0.416052
0.414434
0.41314
0.412213
0.41177
0.411913
0.412685
0.414247
0.417013
0.421204
0.426895
0.434586
0.444557
0.457828
0.474814
0.497601
0.527608
0.56959
0.631144
0.729821
0.881472
2.27721
1.03164
0.326958
0.342166
0.40801
0.454834
0.466502
0.464317
0.460549
0.457503
0.456263
0.45568
0.454942
0.453876
0.452577
0.451142
0.449618
0.448015
0.446347
0.44462
0.44286
0.441075
0.439301
0.437545
0.435854
0.434234
0.432751
0.431412
0.430304
0.429436
0.428929
0.428797
0.429162
0.430044
0.431681
0.434269
0.437982
0.4429
0.449466
0.45779
0.468589
0.482302
0.499809
0.522619
0.55179
0.591352
0.643909
0.71803
0.828973
0.967127
2.2785
1.03396
0.328831
0.343226
0.410173
0.45858
0.471227
0.46954
0.466099
0.463074
0.46187
0.461405
0.460832
0.459945
0.458834
0.457606
0.456316
0.454979
0.453611
0.452221
0.450836
0.449473
0.448163
0.446928
0.445805
0.444825
0.444033
0.443472
0.443202
0.44329
0.443749
0.444652
0.446237
0.448643
0.451864
0.456152
0.461587
0.468577
0.477192
0.488159
0.501492
0.51849
0.539208
0.565766
0.599038
0.641708
0.697365
0.767747
0.86416
0.967467
2.27966
1.03607
0.332145
0.346924
0.415037
0.464994
0.478236
0.47642
0.47263
0.469257
0.467978
0.467618
0.467207
0.466496
0.465591
0.464593
0.463588
0.462562
0.46155
0.460539
0.459575
0.458656
0.457833
0.45711
0.456545
0.456155
0.45601
0.456123
0.45654
0.457351
0.458724
0.460706
0.463355
0.466844
0.471237
0.476839
0.483677
0.492267
0.502615
0.515403
0.530883
0.549715
0.572834
0.600696
0.635319
0.677089
0.728921
0.790936
0.86886
0.949895
2.27609
1.02967
0.334282
0.356822
0.427457
0.479817
0.493317
0.490518
0.485516
0.481268
0.479611
0.479056
0.478483
0.477614
0.476554
0.475462
0.474398
0.473375
0.472399
0.471488
0.470663
0.469953
0.469375
0.468977
0.468781
0.46882
0.469091
0.46976
0.470839
0.472442
0.474537
0.477325
0.480773
0.485169
0.49048
0.497074
0.504974
0.514554
0.526081
0.539787
0.556352
0.575907
0.599477
0.627359
0.660587
0.700045
0.746329
0.800692
0.864196
0.928771
2.28202
1.02253
0.358733
0.382355
0.448474
0.498366
0.510276
0.506524
0.500781
0.496398
0.494697
0.494008
0.493309
0.49236
0.491295
0.490218
0.489187
0.48819
0.487253
0.486373
0.485596
0.484923
0.48441
0.484027
0.483898
0.484054
0.4846
0.485466
0.486856
0.488704
0.491255
0.494401
0.498485
0.50335
0.509461
0.516587
0.525355
0.535458
0.547706
0.56182
0.578643
0.59817
0.621055
0.64778
0.678642
0.714583
0.755554
0.802424
0.855615
0.909171
1.87633
0.772009
0.273257
0.344116
0.417756
0.441224
0.441128
0.437147
0.433504
0.43341
0.435584
0.438473
0.441472
0.444516
0.447654
0.450902
0.45422
0.457563
0.460901
0.464217
0.467491
0.470671
0.473813
0.476954
0.480146
0.483327
0.486619
0.489939
0.493562
0.497371
0.501674
0.506364
0.5118
0.517896
0.52502
0.533154
0.542606
0.553542
0.566083
0.580721
0.597298
0.616685
0.638454
0.66378
0.692057
0.724528
0.760515
0.800986
0.845793
0.890534
1.8689
0.771401
0.282161
0.355347
0.428336
0.447791
0.443317
0.435955
0.430298
0.428404
0.428316
0.428719
0.42932
0.430224
0.431572
0.433353
0.435611
0.438218
0.441294
0.44472
0.448604
0.452671
0.457148
0.461792
0.466825
0.471979
0.477519
0.483246
0.489339
0.495663
0.502396
0.509467
0.517028
0.525163
0.533961
0.543708
0.554311
0.566331
0.579524
0.594594
0.611242
0.630221
0.651262
0.675018
0.701355
0.730662
0.762973
0.798096
0.836497
0.87417
1.86794
0.770087
0.284294
0.365059
0.44362
0.463692
0.457504
0.448127
0.441121
0.43839
0.437491
0.436893
0.436306
0.435903
0.435816
0.436087
0.436717
0.43772
0.439253
0.441237
0.443725
0.446641
0.450161
0.454162
0.458796
0.463938
0.469667
0.475916
0.48271
0.490078
0.497955
0.506542
0.515632
0.525583
0.536004
0.547446
0.559505
0.572776
0.586945
0.602619
0.619545
0.638277
0.658694
0.681193
0.705727
0.732535
0.761575
0.792776
0.826388
0.858915
1.86943
0.773369
0.290089
0.367274
0.44369
0.464289
0.459065
0.450543
0.443966
0.441603
0.441128
0.44095
0.440733
0.440623
0.440708
0.441014
0.441602
0.44251
0.443698
0.44518
0.446984
0.449218
0.451859
0.45507
0.458756
0.463136
0.468048
0.473768
0.480041
0.487238
0.494983
0.503742
0.513048
0.523418
0.534429
0.546562
0.559472
0.573571
0.588567
0.604822
0.622184
0.640922
0.661007
0.682655
0.705837
0.730684
0.75713
0.785224
0.815011
0.843659
1.87254
0.780052
0.297772
0.361233
0.429069
0.450305
0.448017
0.44195
0.436341
0.434467
0.434505
0.435036
0.435624
0.436338
0.43723
0.438402
0.439863
0.441547
0.443417
0.445525
0.447869
0.450532
0.45349
0.45686
0.460597
0.464874
0.469589
0.474998
0.480925
0.487696
0.495076
0.503398
0.512436
0.52248
0.533349
0.54526
0.558084
0.572001
0.586939
0.60304
0.620265
0.638749
0.658392
0.679335
0.701455
0.724927
0.749536
0.775259
0.802273
0.828109
1.88112
0.786632
0.300022
0.349024
0.412201
0.441241
0.444209
0.439522
0.43437
0.432088
0.431844
0.432367
0.433086
0.434006
0.435102
0.436435
0.438031
0.439887
0.442
0.444397
0.447071
0.450078
0.453388
0.457088
0.461125
0.465642
0.470548
0.476049
0.48201
0.488682
0.495928
0.503985
0.512751
0.522408
0.532894
0.544359
0.556735
0.570153
0.584547
0.600037
0.616552
0.634199
0.652897
0.672747
0.693647
0.71563
0.738553
0.762376
0.787193
0.810841
2.26308
1.10599
0.407181
0.399177
0.459361
0.508054
0.519344
0.514452
0.507529
0.501481
0.497965
0.495494
0.493383
0.491366
0.489338
0.487367
0.485643
0.484154
0.483007
0.48216
0.481732
0.481684
0.482138
0.483071
0.484552
0.486618
0.489302
0.492663
0.496703
0.501513
0.507071
0.513485
0.520728
0.528921
0.538016
0.548142
0.559231
0.571399
0.584572
0.598856
0.614146
0.63054
0.647915
0.666324
0.685677
0.705966
0.727091
0.74897
0.771681
0.793288
2.27249
1.12788
0.391657
0.377125
0.449991
0.510703
0.5291
0.528217
0.523994
0.520191
0.518749
0.518374
0.518359
0.518319
0.517905
0.517276
0.516604
0.515976
0.515408
0.514934
0.514567
0.514373
0.514372
0.514645
0.515228
0.5162
0.517596
0.519529
0.521993
0.525144
0.528931
0.533546
0.538904
0.545189
0.552328
0.560458
0.569553
0.579707
0.590904
0.603177
0.616548
0.63097
0.646467
0.662944
0.680372
0.698683
0.717784
0.737579
0.758136
0.7777
2.29742
1.1766
0.434238
0.383991
0.447088
0.503379
0.521855
0.522882
0.521057
0.519872
0.520291
0.521522
0.523317
0.525118
0.526527
0.527726
0.52885
0.529998
0.531146
0.532327
0.533514
0.534758
0.536051
0.537454
0.538968
0.540666
0.542564
0.544736
0.547229
0.550108
0.553441
0.557279
0.561721
0.566795
0.572623
0.579212
0.586684
0.595023
0.604328
0.614574
0.625806
0.637996
0.651171
0.665316
0.680402
0.696402
0.713215
0.730688
0.748909
0.766292
1.90074
0.805027
0.305802
0.316892
0.374008
0.414893
0.429173
0.432999
0.435822
0.439473
0.444404
0.45015
0.456588
0.463082
0.469259
0.475255
0.481221
0.487183
0.493127
0.499012
0.504835
0.510573
0.516247
0.521833
0.52737
0.532833
0.538288
0.543708
0.549186
0.55471
0.560354
0.566162
0.572198
0.57853
0.585208
0.592334
0.599932
0.608123
0.616896
0.626386
0.636549
0.647522
0.659217
0.671741
0.684977
0.698943
0.713575
0.7289
0.744914
0.760229
2.30593
1.19373
0.44958
0.386636
0.440662
0.492233
0.509232
0.509292
0.506146
0.503669
0.502411
0.502226
0.502682
0.503077
0.503402
0.503906
0.504731
0.506007
0.507703
0.509862
0.512435
0.515476
0.518938
0.522865
0.527178
0.531937
0.537021
0.542524
0.548284
0.55442
0.560805
0.567546
0.574525
0.581864
0.589456
0.597439
0.605729
0.614456
0.623561
0.633159
0.643216
0.653818
0.664947
0.676638
0.688897
0.70171
0.715081
0.728923
0.743325
0.757043
2.31117
1.20371
0.432881
0.36973
0.438371
0.500627
0.522078
0.52349
0.52127
0.5198
0.519928
0.521059
0.522789
0.524294
0.525319
0.526166
0.527
0.527949
0.529024
0.530313
0.531822
0.533637
0.535744
0.538229
0.541077
0.544353
0.548047
0.552202
0.556814
0.561898
0.567454
0.573468
0.579948
0.586867
0.594259
0.602063
0.610333
0.618991
0.628117
0.637618
0.647594
0.657939
0.668775
0.679978
0.691668
0.703722
0.716234
0.729067
0.742348
0.75495
2.31389
1.20954
0.437058
0.371771
0.441498
0.505349
0.527724
0.529404
0.52724
0.525892
0.526364
0.527881
0.530152
0.532345
0.534064
0.535593
0.53712
0.538752
0.540483
0.542345
0.544333
0.54648
0.548802
0.551331
0.554099
0.557133
0.560474
0.564136
0.568172
0.572581
0.57742
0.582676
0.588407
0.59458
0.601249
0.608375
0.616001
0.624083
0.632651
0.64167
0.651148
0.661063
0.671404
0.68216
0.693292
0.704812
0.716653
0.728828
0.741331
0.753221
2.31688
1.21726
0.463427
0.387825
0.447095
0.506221
0.528778
0.532008
0.53113
0.530759
0.531651
0.53358
0.536118
0.538417
0.540443
0.542347
0.544304
0.546346
0.548523
0.550805
0.553236
0.555787
0.558512
0.561384
0.564461
0.56772
0.571223
0.57495
0.578963
0.583248
0.587865
0.592811
0.598131
0.603829
0.609933
0.616451
0.623396
0.630787
0.638616
0.646905
0.655623
0.664798
0.67438
0.684397
0.694785
0.705561
0.716653
0.728061
0.739804
0.750981
1.90562
0.813582
0.324705
0.323678
0.376481
0.414374
0.42726
0.430302
0.432593
0.435933
0.440703
0.446614
0.453341
0.460158
0.466867
0.473527
0.48026
0.487054
0.493919
0.500797
0.507694
0.514572
0.521448
0.528297
0.535141
0.541969
0.548807
0.555654
0.562532
0.569453
0.576434
0.583506
0.590679
0.597998
0.605465
0.613135
0.621002
0.629123
0.637486
0.646134
0.655058
0.664285
0.673798
0.683621
0.693731
0.704136
0.714812
0.725747
0.736993
0.747668
2.31198
1.20857
0.464946
0.403495
0.4662
0.527383
0.549308
0.550234
0.54609
0.542258
0.540052
0.53868
0.538086
0.53769
0.536957
0.536235
0.53567
0.535517
0.535705
0.536393
0.537507
0.53912
0.541202
0.54379
0.54685
0.550407
0.55442
0.558916
0.563836
0.569205
0.574966
0.581126
0.587634
0.594502
0.601685
0.609195
0.616999
0.625102
0.633481
0.642146
0.651083
0.660296
0.669777
0.679524
0.68952
0.699755
0.710216
0.72088
0.731807
0.74217
2.29402
1.16956
0.46005
0.422683
0.485793
0.546187
0.566071
0.566109
0.562389
0.559153
0.558396
0.5588
0.559886
0.56115
0.562023
0.562662
0.563253
0.563911
0.564647
0.565471
0.566392
0.567456
0.568708
0.570192
0.571941
0.573999
0.576383
0.579126
0.582245
0.58576
0.589675
0.594013
0.598777
0.603976
0.609605
0.615663
0.622142
0.62903
0.636317
0.643986
0.652019
0.660398
0.669101
0.678113
0.687429
0.697016
0.706871
0.716958
0.727328
0.73718
1.88783
0.80507
0.340769
0.355363
0.406342
0.443121
0.452856
0.452684
0.451749
0.452601
0.455914
0.460537
0.466077
0.472142
0.478231
0.484352
0.490568
0.496888
0.503264
0.509651
0.516013
0.522338
0.528614
0.534843
0.541019
0.547153
0.553253
0.559344
0.565446
0.571589
0.5778
0.5841
0.59052
0.59708
0.60381
0.610723
0.617846
0.625187
0.632765
0.640582
0.648657
0.656983
0.665575
0.674411
0.683491
0.692805
0.702337
0.712076
0.722064
0.731557
1.87402
0.796327
0.339515
0.356659
0.398325
0.426968
0.434883
0.434836
0.433828
0.433316
0.434049
0.435683
0.43824
0.441448
0.44494
0.448772
0.453028
0.457746
0.462907
0.468488
0.474452
0.480775
0.487412
0.49434
0.501515
0.508911
0.516489
0.524227
0.532091
0.540068
0.548131
0.556291
0.56452
0.57284
0.581228
0.589714
0.59828
0.606957
0.615742
0.624639
0.633646
0.642782
0.652046
0.661452
0.670996
0.680689
0.690525
0.700499
0.710651
0.720262
1.88891
0.806044
0.345012
0.373645
0.43094
0.466892
0.473619
0.469566
0.464485
0.461383
0.460432
0.460402
0.460994
0.461959
0.462999
0.464172
0.465605
0.467366
0.469492
0.471994
0.474897
0.478208
0.481958
0.48614
0.490771
0.495837
0.501346
0.507268
0.513605
0.52032
0.527416
0.534846
0.542609
0.550661
0.558992
0.56756
0.576361
0.585352
0.594526
0.603873
0.613386
0.623044
0.632843
0.642759
0.652798
0.662937
0.673183
0.683515
0.693998
0.703892
2.34071
1.12427
0.469012
0.447557
0.513125
0.574863
0.595479
0.594869
0.58957
0.584268
0.581258
0.579348
0.577784
0.576413
0.57486
0.573126
0.571354
0.569642
0.568033
0.566555
0.565232
0.564101
0.563188
0.562539
0.562184
0.562175
0.562526
0.563299
0.564486
0.566125
0.568246
0.570857
0.573982
0.577602
0.581745
0.586379
0.591522
0.597137
0.603234
0.609766
0.616732
0.624088
0.631816
0.63991
0.648323
0.657042
0.666026
0.675262
0.684759
0.693817
1.88936
0.807235
0.34615
0.363469
0.41582
0.456081
0.468552
0.469556
0.469007
0.468985
0.471272
0.47479
0.478997
0.483731
0.488554
0.493366
0.498206
0.503134
0.508108
0.51312
0.518109
0.523086
0.52801
0.532908
0.537751
0.542574
0.547353
0.55213
0.556908
0.561715
0.566559
0.571475
0.576459
0.581567
0.586794
0.592196
0.59776
0.603542
0.609523
0.615758
0.62222
0.628957
0.635943
0.643187
0.65068
0.658432
0.666423
0.674652
0.683135
0.69124
1.8891
0.807383
0.347462
0.364536
0.416093
0.454584
0.465033
0.463969
0.461094
0.458534
0.458068
0.45891
0.460496
0.462703
0.465122
0.467712
0.47058
0.473809
0.477401
0.481345
0.48561
0.490182
0.495037
0.500159
0.505525
0.51111
0.516894
0.522853
0.528969
0.53524
0.541643
0.548177
0.554827
0.561588
0.568453
0.575418
0.582485
0.589654
0.596931
0.604315
0.611816
0.619429
0.627167
0.635027
0.643023
0.651146
0.659412
0.667803
0.676368
0.684502
2.34273
1.12795
0.472696
0.449623
0.516379
0.580616
0.603062
0.603163
0.598084
0.593015
0.590233
0.588678
0.587551
0.5867
0.585698
0.584533
0.583308
0.582184
0.581147
0.58029
0.579551
0.579041
0.578697
0.578638
0.578796
0.579277
0.580042
0.58113
0.582558
0.584333
0.586463
0.588948
0.591788
0.594981
0.598527
0.602423
0.606665
0.611243
0.61615
0.621376
0.626908
0.632738
0.638849
0.645234
0.651874
0.658765
0.665886
0.673229
0.680798
0.688039
1.88982
0.808778
0.353419
0.381408
0.439685
0.479631
0.489588
0.487907
0.484862
0.483477
0.484903
0.487578
0.490926
0.49476
0.49866
0.50261
0.506673
0.5109
0.515263
0.519745
0.524307
0.528939
0.533622
0.538352
0.543122
0.547926
0.552766
0.557644
0.562568
0.567542
0.572575
0.577681
0.582862
0.588138
0.593509
0.598995
0.604594
0.610325
0.616184
0.622186
0.628336
0.634641
0.641105
0.647731
0.654519
0.661474
0.668593
0.675865
0.68332
0.690419
1.87526
0.799751
0.351148
0.378098
0.427534
0.459445
0.467092
0.465963
0.464281
0.463568
0.464094
0.465293
0.467193
0.469478
0.47183
0.474311
0.477019
0.480002
0.48327
0.486819
0.490641
0.494727
0.499069
0.503661
0.508491
0.513549
0.518821
0.524295
0.529958
0.535797
0.5418
0.547949
0.554251
0.560682
0.567252
0.573937
0.580752
0.587678
0.594727
0.601882
0.609153
0.616522
0.624003
0.631582
0.639272
0.647056
0.654949
0.662938
0.671069
0.67877
1.87423
0.799385
0.351673
0.375346
0.422432
0.4541
0.462312
0.46185
0.460733
0.460114
0.460384
0.461209
0.462692
0.464528
0.466376
0.468278
0.470334
0.47259
0.475063
0.477753
0.48067
0.483817
0.487204
0.490832
0.494708
0.49883
0.503202
0.50782
0.512687
0.517795
0.523147
0.528733
0.534552
0.540592
0.546848
0.553308
0.559968
0.56681
0.573836
0.581032
0.588396
0.595917
0.603594
0.611411
0.619362
0.627437
0.635644
0.643974
0.65246
0.660517
1.88906
0.809112
0.354847
0.362656
0.413293
0.452092
0.463033
0.462619
0.460831
0.459584
0.45962
0.460431
0.461971
0.463874
0.465701
0.467508
0.469426
0.471518
0.473803
0.476278
0.478945
0.481803
0.484859
0.488115
0.491575
0.49524
0.499116
0.503202
0.507503
0.512019
0.516753
0.521704
0.526874
0.532261
0.537866
0.543685
0.549718
0.555959
0.562408
0.569058
0.575904
0.582938
0.590154
0.597548
0.60512
0.612862
0.620764
0.628817
0.637041
0.644863
2.31231
1.20463
0.4854
0.431466
0.492564
0.556792
0.582779
0.586271
0.583606
0.580875
0.579587
0.579272
0.579761
0.580591
0.58113
0.581421
0.581654
0.581936
0.582313
0.582781
0.583347
0.58401
0.584788
0.585683
0.586713
0.587882
0.589206
0.590687
0.592343
0.594174
0.596197
0.598413
0.600837
0.603469
0.606324
0.609398
0.612707
0.616245
0.620025
0.624039
0.628301
0.632799
0.637544
0.642525
0.647751
0.653205
0.65889
0.664782
0.670913
0.676807
2.32252
1.22873
0.46608
0.405359
0.481434
0.557491
0.588654
0.593332
0.590698
0.587836
0.586848
0.587301
0.588592
0.590407
0.592089
0.593486
0.594817
0.59623
0.597783
0.599463
0.601266
0.603178
0.605206
0.607346
0.609608
0.611986
0.614489
0.617111
0.619863
0.622738
0.625748
0.628887
0.632166
0.63558
0.639141
0.642842
0.646696
0.650697
0.654856
0.659168
0.663644
0.668279
0.673083
0.67805
0.683188
0.688488
0.693955
0.699576
0.705374
0.710913
2.31271
1.20614
0.486648
0.432532
0.494343
0.5598
0.586859
0.591008
0.588956
0.586844
0.586275
0.586932
0.588441
0.590431
0.592229
0.593823
0.595397
0.59708
0.598908
0.600883
0.602992
0.605237
0.607614
0.610132
0.612788
0.615589
0.618532
0.621622
0.624856
0.62824
0.631768
0.635449
0.639275
0.643254
0.647378
0.651657
0.656082
0.660661
0.665386
0.670265
0.675289
0.680467
0.685788
0.691263
0.696878
0.702645
0.70855
0.714601
0.720808
0.726746
1.88895
0.80918
0.356052
0.364301
0.416383
0.457002
0.469101
0.469118
0.467532
0.466518
0.467162
0.468789
0.471271
0.474227
0.477161
0.480127
0.483235
0.486563
0.490106
0.493868
0.497822
0.501976
0.506311
0.510838
0.515537
0.520418
0.525462
0.530679
0.53605
0.541584
0.547262
0.553096
0.559065
0.565181
0.571424
0.577807
0.584309
0.590945
0.597693
0.604569
0.611551
0.618656
0.625862
0.633184
0.6406
0.648128
0.655749
0.663483
0.671345
0.678832
1.87422
0.800022
0.355289
0.380469
0.428584
0.46013
0.46765
0.466483
0.464741
0.463859
0.464077
0.464928
0.46647
0.468351
0.470184
0.472035
0.473999
0.476138
0.47845
0.480944
0.483609
0.486459
0.489486
0.492706
0.496109
0.49971
0.503499
0.507489
0.51167
0.516053
0.520627
0.525403
0.53037
0.535537
0.540891
0.546441
0.552175
0.558099
0.564201
0.570488
0.576944
0.583578
0.590373
0.597337
0.604452
0.611726
0.619143
0.626709
0.634434
0.641796
1.87704
0.803103
0.359359
0.395135
0.45155
0.484552
0.490473
0.486941
0.482757
0.480811
0.4808
0.481596
0.483007
0.484672
0.48627
0.487892
0.489636
0.491548
0.493623
0.495861
0.498253
0.500807
0.503519
0.506398
0.509441
0.512656
0.516038
0.519595
0.523323
0.527229
0.531308
0.535568
0.540002
0.544618
0.549409
0.554381
0.559528
0.564855
0.570355
0.576033
0.581881
0.587904
0.594092
0.60045
0.606968
0.613649
0.620482
0.627468
0.634613
0.641425
1.19153
1.04877
0.497479
0.190535
0.0109264
0.108743
0.160306
0.208641
0.230225
0.234575
0.222862
0.211385
0.201057
0.191521
0.179484
0.16503
0.147698
0.127763
0.105942
0.0827979
0.0589752
0.0352611
0.0158726
0.0232601
0.0469715
0.0712774
0.095411
0.119117
0.14243
0.165331
0.187827
0.2099
0.23153
0.252669
0.272674
0.291773
0.311308
0.331679
0.351637
0.3708
0.389307
0.407299
0.424812
0.441859
0.458425
0.474516
0.490115
0.505229
0.519841
0.533955
0.547552
0.560633
0.573171
0.585164
0.59658
0.607411
0.617619
0.627192
0.636086
0.644285
0.651743
0.658442
0.664336
0.669409
0.673622
0.676973
0.679442
0.681054
0.681814
0.681981
0.681798
0.681229
0.679878
0.67736
0.673969
0.670356
0.66667
0.662947
0.659252
0.65567
0.652298
0.649213
0.646478
0.644132
0.642202
0.640691
0.639597
0.638899
0.638564
0.638534
0.638687
0.639019
0.639648
0.640734
0.642112
0.643622
0.645163
0.646831
0.648469
0.653245
1.12189
1.03595
0.806057
0.549155
0.502138
0.431213
0.381334
0.340606
0.310345
0.291789
0.260406
0.230117
0.210543
0.20879
0.215928
0.226478
0.238936
0.252846
0.267973
0.283823
0.300198
0.316664
0.332984
0.349152
0.36588
0.382858
0.400015
0.41711
0.434201
0.451127
0.467974
0.484599
0.501091
0.51732
0.532973
0.547884
0.562879
0.578595
0.594453
0.609673
0.624386
0.638753
0.652827
0.666597
0.680046
0.693157
0.70592
0.718326
0.730366
0.74203
0.753304
0.764177
0.77463
0.784649
0.794209
0.803294
0.811873
0.819927
0.82742
0.83433
0.840619
0.846263
0.851226
0.855485
0.85901
0.861789
0.86381
0.865079
0.865623
0.865628
0.865326
0.86465
0.863284
0.860883
0.857654
0.85417
0.850611
0.847037
0.843515
0.840116
0.83693
0.834027
0.831468
0.829286
0.827506
0.826128
0.82515
0.824544
0.824308
0.82433
0.8245
0.824828
0.825388
0.826346
0.827548
0.828882
0.830197
0.831607
0.832796
0.836595
1.07461
1.07543
1.00802
0.899551
0.831123
0.780816
0.744906
0.714815
0.69
0.671906
0.656786
0.642441
0.632443
0.627301
0.625778
0.626028
0.627522
0.629918
0.633292
0.637549
0.642658
0.648422
0.65478
0.661607
0.66916
0.677315
0.686084
0.695235
0.704807
0.714607
0.72472
0.734967
0.745459
0.756003
0.76639
0.776331
0.786407
0.797187
0.808554
0.819646
0.830455
0.84107
0.851587
0.86198
0.872256
0.882361
0.892302
0.902034
0.911566
0.920855
0.92991
0.938685
0.947186
0.955365
0.963224
0.970713
0.97783
0.984521
0.990783
0.99656
1.00185
1.00658
1.01077
1.01435
1.01732
1.01963
1.0213
1.0223
1.02264
1.02252
1.02216
1.02146
1.02013
1.01791
1.01494
1.01169
1.00833
1.00498
1.00169
0.99855
0.995614
0.992958
0.990625
0.988655