/*--------------------------------*- C++ -*----------------------------------*\
| =========                 |                                                 |
| \\      /  F ield         | OpenFOAM: The Open Source CFD Toolbox           |
|  \\    /   O peration     | Version:  2412                                  |
|   \\  /    A nd           | Website:  www.openfoam.com                      |
|    \\/     M anipulation  |                                                 |
\*---------------------------------------------------------------------------*/
FoamFile
{
    version     2.0;
    format      ascii;
    arch        "LSB;label=32;scalar=64";
    class       volVectorField;
    location    "29.5";
    object      U;
}
// * * * * * * * * * * * * * * * * * * * * * * * * * * * * * * * * * * * * * //

dimensions      [0 1 -1 0 0 0 0];

internalField   nonuniform List<vector> 
7000
(
(2.59104 -7.248e-05 0)
(1.62048 0.000178363 0)
(0.495614 0.000208993 0)
(0.552993 0.00035077 0)
(0.654683 0.000446562 0)
(0.719878 0.000524602 0)
(0.732759 0.000592445 0)
(0.725866 0.00066274 0)
(0.715804 0.000741202 0)
(0.708106 0.000831618 0)
(0.703639 0.00093026 0)
(0.700071 0.00103347 0)
(0.695985 0.00114043 0)
(0.69113 0.0012521 0)
(0.685666 0.00136948 0)
(0.679719 0.00149317 0)
(0.673306 0.00162345 0)
(0.666396 0.00176064 0)
(0.658951 0.00190518 0)
(0.650946 0.00205762 0)
(0.642358 0.00221856 0)
(0.633165 0.00238868 0)
(0.62334 0.00256867 0)
(0.612857 0.00275932 0)
(0.601686 0.00296143 0)
(0.589798 0.00317588 0)
(0.577159 0.0034036 0)
(0.563737 0.00364552 0)
(0.549497 0.00390263 0)
(0.534402 0.0041759 0)
(0.518416 0.00446631 0)
(0.501499 0.00477475 0)
(0.483615 0.00510208 0)
(0.464726 0.00544893 0)
(0.444796 0.0058159 0)
(0.423791 0.00620308 0)
(0.401682 0.00661052 0)
(0.378444 0.00703739 0)
(0.35406 0.00748275 0)
(0.328523 0.00794442 0)
(0.301837 0.00842003 0)
(0.274019 0.00890547 0)
(0.245105 0.00939681 0)
(0.215148 0.00988768 0)
(0.184222 0.0103736 0)
(0.152418 0.0108474 0)
(0.11982 0.0113135 0)
(0.0868489 0.0117555 0)
(0.0514909 0.0123441 0)
(0.0221143 0.0131962 0)
(2.59117 -4.80817e-05 0)
(1.62064 0.000347466 0)
(0.495302 0.000828129 0)
(0.552732 0.00113979 0)
(0.654444 0.0013749 0)
(0.719652 0.00159694 0)
(0.732534 0.00180495 0)
(0.725645 0.00202025 0)
(0.715592 0.00225776 0)
(0.707904 0.00252754 0)
(0.703443 0.00282034 0)
(0.699878 0.00312658 0)
(0.695797 0.00344409 0)
(0.690946 0.00377514 0)
(0.685487 0.00412237 0)
(0.679546 0.00448716 0)
(0.67314 0.00487024 0)
(0.666235 0.0052723 0)
(0.658797 0.00569443 0)
(0.650799 0.00613789 0)
(0.642218 0.0066042 0)
(0.633032 0.00709483 0)
(0.623215 0.00761153 0)
(0.61274 0.00815592 0)
(0.601578 0.00872992 0)
(0.589698 0.00933524 0)
(0.577069 0.00997392 0)
(0.563657 0.0106475 0)
(0.549426 0.011358 0)
(0.534341 0.0121066 0)
(0.518363 0.0128948 0)
(0.501455 0.0137232 0)
(0.483579 0.0145923 0)
(0.464695 0.0155012 0)
(0.444769 0.0164491 0)
(0.423764 0.0174325 0)
(0.401651 0.0184481 0)
(0.378405 0.019489 0)
(0.354006 0.0205481 0)
(0.328445 0.021614 0)
(0.301724 0.0226741 0)
(0.27386 0.023712 0)
(0.244886 0.0247099 0)
(0.214851 0.0256466 0)
(0.183827 0.0265017 0)
(0.151907 0.0272554 0)
(0.119163 0.0279055 0)
(0.0860637 0.0284259 0)
(0.0505452 0.0290766 0)
(0.0211884 0.0298264 0)
(2.59129 4.76388e-05 0)
(1.62094 0.0003924 0)
(0.495509 0.00160506 0)
(0.552785 0.00198061 0)
(0.654486 0.00230481 0)
(0.719695 0.00267043 0)
(0.732576 0.00303987 0)
(0.725699 0.00341871 0)
(0.715667 0.00382881 0)
(0.708 0.00428673 0)
(0.703553 0.00478141 0)
(0.699998 0.00530004 0)
(0.695926 0.00583968 0)
(0.691087 0.00640321 0)
(0.685641 0.0069946 0)
(0.679713 0.00761584 0)
(0.673321 0.00826859 0)
(0.666431 0.0089539 0)
(0.659009 0.00967402 0)
(0.651027 0.0104309 0)
(0.642464 0.0112274 0)
(0.633297 0.0120658 0)
(0.6235 0.0129497 0)
(0.613047 0.0138814 0)
(0.601908 0.0148649 0)
(0.590053 0.0159028 0)
(0.57745 0.0169991 0)
(0.564065 0.0181564 0)
(0.549862 0.0193785 0)
(0.534806 0.0206676 0)
(0.518859 0.0220269 0)
(0.501981 0.0234572 0)
(0.484134 0.0249604 0)
(0.465279 0.0265351 0)
(0.445379 0.0281803 0)
(0.424397 0.0298912 0)
(0.402302 0.0316619 0)
(0.379066 0.0334828 0)
(0.354668 0.0353404 0)
(0.329097 0.0372183 0)
(0.302351 0.0390934 0)
(0.274444 0.0409411 0)
(0.245405 0.0427285 0)
(0.215282 0.0444239 0)
(0.184143 0.0459903 0)
(0.152083 0.0473927 0)
(0.119169 0.0486186 0)
(0.0859275 0.0496289 0)
(0.0502697 0.0506812 0)
(0.0207489 0.0516738 0)
(2.59147 5.4122e-05 0)
(1.62138 0.0005359 0)
(0.495936 0.00235111 0)
(0.552908 0.00281446 0)
(0.654608 0.00323714 0)
(0.719837 0.00375716 0)
(0.732724 0.00430348 0)
(0.725861 0.00485942 0)
(0.715858 0.00545216 0)
(0.708223 0.0061044 0)
(0.703799 0.0068059 0)
(0.700262 0.00754278 0)
(0.696207 0.00831124 0)
(0.691387 0.0091144 0)
(0.685963 0.00995683 0)
(0.680058 0.0108414 0)
(0.67369 0.0117703 0)
(0.666825 0.0127455 0)
(0.659429 0.0137699 0)
(0.651476 0.0148465 0)
(0.642944 0.0159792 0)
(0.63381 0.0171716 0)
(0.624048 0.0184281 0)
(0.613632 0.019753 0)
(0.602533 0.0211508 0)
(0.59072 0.0226266 0)
(0.578161 0.0241847 0)
(0.564823 0.0258305 0)
(0.550669 0.027568 0)
(0.535664 0.029402 0)
(0.519769 0.0313354 0)
(0.502945 0.0333719 0)
(0.485151 0.0355119 0)
(0.466349 0.0377566 0)
(0.446499 0.0401022 0)
(0.425563 0.0425457 0)
(0.403508 0.0450762 0)
(0.380303 0.0476837 0)
(0.355924 0.0503476 0)
(0.330356 0.0530472 0)
(0.303593 0.0557504 0)
(0.275646 0.0584209 0)
(0.246538 0.0610166 0)
(0.216315 0.0634861 0)
(0.185043 0.0657852 0)
(0.152816 0.0678576 0)
(0.119701 0.0696747 0)
(0.0862753 0.0711828 0)
(0.0504191 0.0726079 0)
(0.020605 0.0737637 0)
(2.59172 6.77579e-05 0)
(1.62202 0.000716455 0)
(0.496488 0.00310389 0)
(0.553018 0.00367984 0)
(0.654736 0.00421156 0)
(0.720009 0.00488566 0)
(0.73291 0.00560906 0)
(0.726065 0.00634916 0)
(0.716099 0.00713328 0)
(0.708505 0.00798605 0)
(0.704114 0.00889961 0)
(0.700603 0.00986109 0)
(0.696574 0.0108657 0)
(0.691783 0.011917 0)
(0.686391 0.0130192 0)
(0.680521 0.0141767 0)
(0.674188 0.0153917 0)
(0.667361 0.0166676 0)
(0.660005 0.0180074 0)
(0.652095 0.0194161 0)
(0.643609 0.0208975 0)
(0.634523 0.0224578 0)
(0.624813 0.0241013 0)
(0.614453 0.025835 0)
(0.603413 0.0276637 0)
(0.591663 0.0295949 0)
(0.579171 0.0316338 0)
(0.565904 0.033788 0)
(0.551824 0.0360622 0)
(0.536896 0.0384634 0)
(0.52108 0.0409953 0)
(0.504336 0.0436629 0)
(0.486624 0.0464672 0)
(0.467902 0.0494097 0)
(0.448129 0.0524865 0)
(0.427266 0.0556923 0)
(0.405274 0.0590162 0)
(0.382121 0.0624419 0)
(0.357778 0.0659479 0)
(0.332225 0.0695022 0)
(0.305451 0.0730702 0)
(0.27746 0.0765985 0)
(0.248271 0.0800356 0)
(0.217925 0.0833114 0)
(0.186485 0.0863595 0)
(0.154049 0.0891147 0)
(0.120672 0.0915178 0)
(0.0869957 0.0934919 0)
(0.0508509 0.0952294 0)
(0.0206229 0.0964778 0)
(2.59206 8.00488e-05 0)
(1.62286 0.000900579 0)
(0.497187 0.00385576 0)
(0.553133 0.00455783 0)
(0.654879 0.00520484 0)
(0.72022 0.00603334 0)
(0.733147 0.0069393 0)
(0.726328 0.00786861 0)
(0.716405 0.00885274 0)
(0.708861 0.0099149 0)
(0.704512 0.0110489 0)
(0.701037 0.0122428 0)
(0.697044 0.013492 0)
(0.692292 0.0147999 0)
(0.686942 0.0161712 0)
(0.681116 0.0176106 0)
(0.674831 0.0191212 0)
(0.668053 0.0207071 0)
(0.66075 0.0223726 0)
(0.652896 0.0241231 0)
(0.64447 0.0259644 0)
(0.635449 0.0279029 0)
(0.625809 0.0299456 0)
(0.615523 0.0320996 0)
(0.604563 0.0343728 0)
(0.592897 0.0367728 0)
(0.580495 0.039308 0)
(0.567322 0.041986 0)
(0.553343 0.0448154 0)
(0.538519 0.0478026 0)
(0.522812 0.0509551 0)
(0.506179 0.0542769 0)
(0.488579 0.0577725 0)
(0.469969 0.0614415 0)
(0.450305 0.0652824 0)
(0.429544 0.0692872 0)
(0.407645 0.0734452 0)
(0.38457 0.0777352 0)
(0.360284 0.0821324 0)
(0.334763 0.0865973 0)
(0.307985 0.0910851 0)
(0.27995 0.0955362 0)
(0.250666 0.0998794 0)
(0.220171 0.104032 0)
(0.18852 0.1079 0)
(0.155813 0.111393 0)
(0.122103 0.114431 0)
(0.0880668 0.116902 0)
(0.0515117 0.118952 0)
(0.0207743 0.120271 0)
(2.59249 9.27156e-05 0)
(1.62394 0.00108688 0)
(0.498043 0.00461543 0)
(0.553254 0.00545138 0)
(0.655037 0.00622013 0)
(0.720471 0.00720678 0)
(0.733438 0.00830278 0)
(0.72665 0.00942588 0)
(0.716782 0.0106168 0)
(0.709298 0.0118968 0)
(0.705001 0.0132594 0)
(0.701573 0.0146933 0)
(0.697625 0.016195 0)
(0.692923 0.0177677 0)
(0.687625 0.0194168 0)
(0.681856 0.0211468 0)
(0.675629 0.0229623 0)
(0.668915 0.0248676 0)
(0.661679 0.0268686 0)
(0.653896 0.0289711 0)
(0.645547 0.0311829 0)
(0.636608 0.033511 0)
(0.627055 0.0359644 0)
(0.616864 0.0385514 0)
(0.606004 0.0412818 0)
(0.594446 0.0441647 0)
(0.582158 0.0472107 0)
(0.569106 0.0504291 0)
(0.555254 0.0538301 0)
(0.540565 0.0574227 0)
(0.524996 0.0612154 0)
(0.508508 0.0652151 0)
(0.491054 0.0694266 0)
(0.472591 0.0738518 0)
(0.453071 0.0784888 0)
(0.432449 0.0833303 0)
(0.410677 0.0883635 0)
(0.387711 0.0935662 0)
(0.36351 0.0989082 0)
(0.33804 0.104345 0)
(0.311273 0.109821 0)
(0.283195 0.115265 0)
(0.25381 0.120593 0)
(0.223136 0.125703 0)
(0.191231 0.130476 0)
(0.158186 0.134794 0)
(0.124045 0.138536 0)
(0.0895419 0.141558 0)
(0.0524187 0.143967 0)
(0.0210217 0.145391 0)
(2.59302 0.000105498 0)
(1.62526 0.00127369 0)
(0.49907 0.00538091 0)
(0.553383 0.00635449 0)
(0.655213 0.00724858 0)
(0.720767 0.00839757 0)
(0.733788 0.0096862 0)
(0.727042 0.0110103 0)
(0.71724 0.0124164 0)
(0.709826 0.0139222 0)
(0.705591 0.015521 0)
(0.70222 0.0172027 0)
(0.69833 0.0189649 0)
(0.693688 0.0208109 0)
(0.688456 0.0227463 0)
(0.682755 0.0247762 0)
(0.676601 0.0269056 0)
(0.669964 0.02914 0)
(0.66281 0.031486 0)
(0.655115 0.033951 0)
(0.64686 0.0365435 0)
(0.638022 0.0392726 0)
(0.628578 0.0421481 0)
(0.618502 0.0451805 0)
(0.607766 0.0483809 0)
(0.596341 0.051761 0)
(0.584194 0.0553325 0)
(0.571292 0.0591076 0)
(0.557599 0.0630979 0)
(0.543075 0.0673152 0)
(0.527681 0.0717696 0)
(0.511372 0.0764702 0)
(0.494102 0.0814241 0)
(0.475824 0.0866342 0)
(0.456489 0.0921013 0)
(0.436043 0.0978175 0)
(0.414438 0.103771 0)
(0.391619 0.109937 0)
(0.367537 0.116283 0)
(0.342148 0.12276 0)
(0.315411 0.129303 0)
(0.2873 0.135831 0)
(0.257803 0.142236 0)
(0.226928 0.148405 0)
(0.194716 0.154184 0)
(0.161263 0.159424 0)
(0.126583 0.163975 0)
(0.0914599 0.167636 0)
(0.0536157 0.170463 0)
(0.0214115 0.172025 0)
(2.59366 0.000118348 0)
(1.62684 0.00146013 0)
(0.500282 0.00614954 0)
(0.553525 0.00726309 0)
(0.655411 0.00828574 0)
(0.721114 0.00960127 0)
(0.734206 0.0110882 0)
(0.727513 0.0126188 0)
(0.717789 0.0142471 0)
(0.710456 0.0159867 0)
(0.706295 0.0178297 0)
(0.702992 0.0197674 0)
(0.699171 0.0217983 0)
(0.694603 0.0239261 0)
(0.689449 0.0261564 0)
(0.683831 0.0284947 0)
(0.677764 0.0309468 0)
(0.671219 0.0335192 0)
(0.664163 0.0362194 0)
(0.656574 0.0390561 0)
(0.648432 0.0420392 0)
(0.639715 0.045179 0)
(0.630402 0.0484873 0)
(0.620466 0.0519762 0)
(0.60988 0.0556589 0)
(0.598615 0.0595486 0)
(0.586639 0.0636599 0)
(0.573919 0.0680066 0)
(0.560419 0.0726036 0)
(0.546098 0.077464 0)
(0.530915 0.0826017 0)
(0.514827 0.0880272 0)
(0.497783 0.0937511 0)
(0.479735 0.099778 0)
(0.460629 0.106111 0)
(0.440408 0.112744 0)
(0.419013 0.119666 0)
(0.396386 0.126852 0)
(0.372464 0.134268 0)
(0.347193 0.141862 0)
(0.320515 0.149559 0)
(0.292387 0.157272 0)
(0.26278 0.164874 0)
(0.231681 0.172223 0)
(0.199114 0.179149 0)
(0.165162 0.185446 0)
(0.129834 0.190924 0)
(0.0939372 0.195331 0)
(0.055145 0.198668 0)
(0.0219192 0.200422 0)
(2.59441 0.000131127 0)
(1.62871 0.00164492 0)
(0.501695 0.00691623 0)
(0.553681 0.00817116 0)
(0.655636 0.00932453 0)
(0.72152 0.0108102 0)
(0.734701 0.0124993 0)
(0.728071 0.0142423 0)
(0.718441 0.0161006 0)
(0.711202 0.0180821 0)
(0.707126 0.0201778 0)
(0.703904 0.0223798 0)
(0.700166 0.0246877 0)
(0.695685 0.0271057 0)
(0.690623 0.0296393 0)
(0.685101 0.0322946 0)
(0.679137 0.035078 0)
(0.6727 0.0379968 0)
(0.665761 0.0410599 0)
(0.658296 0.0442772 0)
(0.650287 0.0476598 0)
(0.641714 0.0512198 0)
(0.632555 0.0549706 0)
(0.622785 0.0589261 0)
(0.612377 0.0631016 0)
(0.601302 0.0675128 0)
(0.58953 0.0721763 0)
(0.577027 0.0771086 0)
(0.563757 0.0823273 0)
(0.54968 0.0878486 0)
(0.534753 0.0936893 0)
(0.51893 0.0998635 0)
(0.502162 0.106384 0)
(0.484396 0.113261 0)
(0.465572 0.120497 0)
(0.445629 0.128092 0)
(0.424502 0.136035 0)
(0.40212 0.144305 0)
(0.378414 0.152866 0)
(0.353306 0.161664 0)
(0.326729 0.170621 0)
(0.298611 0.179638 0)
(0.268904 0.188575 0)
(0.23757 0.197263 0)
(0.204599 0.205498 0)
(0.170062 0.213035 0)
(0.13393 0.219621 0)
(0.0970628 0.224931 0)
(0.0571061 0.228892 0)
(0.0226247 0.230898 0)
(2.59528 0.000143707 0)
(1.63087 0.00182632 0)
(0.503321 0.00767364 0)
(0.553857 0.00907124 0)
(0.655892 0.0103576 0)
(0.721992 0.0120156 0)
(0.735283 0.0139122 0)
(0.728732 0.0158723 0)
(0.719212 0.0179673 0)
(0.71208 0.0201995 0)
(0.708102 0.0225566 0)
(0.704974 0.0250317 0)
(0.701332 0.0276251 0)
(0.696952 0.0303416 0)
(0.691996 0.0331868 0)
(0.686587 0.0361672 0)
(0.680741 0.0392899 0)
(0.674431 0.0425632 0)
(0.667626 0.0459972 0)
(0.660306 0.049603 0)
(0.652453 0.0533933 0)
(0.644047 0.0573818 0)
(0.635068 0.0615837 0)
(0.625491 0.0660149 0)
(0.615291 0.070693 0)
(0.60444 0.0756358 0)
(0.592907 0.0808628 0)
(0.580659 0.0863934 0)
(0.567661 0.0922479 0)
(0.553872 0.0984464 0)
(0.539249 0.105009 0)
(0.523745 0.111953 0)
(0.507308 0.119297 0)
(0.489881 0.127053 0)
(0.471403 0.13523 0)
(0.451805 0.143833 0)
(0.431013 0.152854 0)
(0.408947 0.162276 0)
(0.385522 0.172064 0)
(0.360646 0.182168 0)
(0.334225 0.192506 0)
(0.306168 0.20297 0)
(0.276384 0.213411 0)
(0.244812 0.223633 0)
(0.211399 0.233398 0)
(0.176185 0.2424 0)
(0.139116 0.250319 0)
(0.101044 0.256749 0)
(0.0595845 0.261519 0)
(0.0235144 0.263875 0)
(2.59628 0.0001558 0)
(1.63335 0.00200225 0)
(0.505176 0.0084107 0)
(0.554057 0.0099542 0)
(0.656186 0.0113767 0)
(0.722538 0.013206 0)
(0.735962 0.0153134 0)
(0.729506 0.017496 0)
(0.720116 0.0198362 0)
(0.713106 0.0223282 0)
(0.70924 0.0249562 0)
(0.70622 0.0277131 0)
(0.702689 0.0306006 0)
(0.698425 0.0336238 0)
(0.693591 0.0367886 0)
(0.68831 0.0401018 0)
(0.682601 0.0435713 0)
(0.676435 0.0472064 0)
(0.669785 0.0510182 0)
(0.662631 0.0550195 0)
(0.654956 0.0592244 0)
(0.646743 0.0636483 0)
(0.637971 0.0683084 0)
(0.628618 0.0732228 0)
(0.618659 0.0784112 0)
(0.608066 0.0838944 0)
(0.596811 0.0896942 0)
(0.584861 0.0958337 0)
(0.57218 0.102336 0)
(0.558728 0.109226 0)
(0.544463 0.116526 0)
(0.529336 0.124261 0)
(0.513293 0.132452 0)
(0.496274 0.141119 0)
(0.478215 0.150275 0)
(0.459039 0.159932 0)
(0.438666 0.170087 0)
(0.417001 0.180734 0)
(0.393947 0.191841 0)
(0.369389 0.203362 0)
(0.34321 0.21522 0)
(0.315284 0.227299 0)
(0.285484 0.239447 0)
(0.253695 0.251442 0)
(0.219822 0.263011 0)
(0.183837 0.273801 0)
(0.145636 0.283385 0)
(0.106104 0.291241 0)
(0.0627944 0.29706 0)
(0.0247285 0.2999 0)
(2.5974 0.000165261 0)
(1.63616 0.00217217 0)
(0.50727 0.00910988 0)
(0.55429 0.0108075 0)
(0.656522 0.0123737 0)
(0.723165 0.0143653 0)
(0.736751 0.0166885 0)
(0.730411 0.0191 0)
(0.721174 0.021694 0)
(0.714303 0.0244561 0)
(0.710562 0.0273648 0)
(0.707664 0.0304129 0)
(0.704259 0.0336031 0)
(0.700126 0.0369412 0)
(0.695431 0.0404334 0)
(0.690295 0.0440866 0)
(0.684739 0.0479097 0)
(0.678737 0.0519129 0)
(0.672263 0.0561088 0)
(0.665298 0.0605113 0)
(0.657827 0.0651364 0)
(0.649833 0.0700012 0)
(0.641298 0.0751249 0)
(0.6322 0.080528 0)
(0.622517 0.0862325 0)
(0.612221 0.0922621 0)
(0.601286 0.0986416 0)
(0.589679 0.105398 0)
(0.577365 0.112557 0)
(0.564306 0.120149 0)
(0.550458 0.128202 0)
(0.535773 0.136744 0)
(0.520196 0.145804 0)
(0.503664 0.155408 0)
(0.486108 0.165578 0)
(0.467448 0.176334 0)
(0.447593 0.187684 0)
(0.426438 0.199629 0)
(0.403867 0.212151 0)
(0.379747 0.225211 0)
(0.353926 0.238744 0)
(0.326244 0.252639 0)
(0.296519 0.266738 0)
(0.264581 0.280809 0)
(0.230261 0.294535 0)
(0.193461 0.307503 0)
(0.153971 0.319193 0)
(0.112633 0.328925 0)
(0.0669412 0.336193 0)
(0.026295 0.339741 0)
(2.59866 0.000170581 0)
(1.6393 0.00233403 0)
(0.509603 0.00975702 0)
(0.554564 0.011613 0)
(0.6569 0.0133285 0)
(0.723874 0.0154729 0)
(0.737661 0.0180222 0)
(0.731459 0.0206689 0)
(0.722401 0.0235256 0)
(0.715688 0.0265685 0)
(0.712087 0.0297684 0)
(0.709325 0.0331173 0)
(0.706061 0.036619 0)
(0.702077 0.0402799 0)
(0.697536 0.0441064 0)
(0.692564 0.0481061 0)
(0.68718 0.0522883 0)
(0.681363 0.0566647 0)
(0.675086 0.0612489 0)
(0.668334 0.0660567 0)
(0.661092 0.0711054 0)
(0.653346 0.0764145 0)
(0.645079 0.0820049 0)
(0.636272 0.0878999 0)
(0.626901 0.0941236 0)
(0.616944 0.100703 0)
(0.606373 0.107666 0)
(0.595159 0.115044 0)
(0.583267 0.122866 0)
(0.570661 0.131168 0)
(0.557297 0.139982 0)
(0.543128 0.149345 0)
(0.528097 0.159292 0)
(0.512142 0.169857 0)
(0.495189 0.181073 0)
(0.477154 0.19297 0)
(0.457938 0.20557 0)
(0.437426 0.218888 0)
(0.415483 0.232924 0)
(0.391956 0.247655 0)
(0.366658 0.263033 0)
(0.339385 0.278964 0)
(0.309901 0.2953 0)
(0.277943 0.31181 0)
(0.243249 0.32816 0)
(0.205597 0.34387 0)
(0.164651 0.358294 0)
(0.121174 0.370554 0)
(0.0725086 0.379857 0)
(0.0284948 0.384468 0)
(2.60006 0.000178101 0)
(1.64277 0.00247679 0)
(0.512171 0.0103563 0)
(0.554883 0.0123518 0)
(0.657326 0.0142001 0)
(0.724673 0.0165126 0)
(0.73871 0.0192867 0)
(0.732669 0.022179 0)
(0.723821 0.0253149 0)
(0.717286 0.0286515 0)
(0.713839 0.0321534 0)
(0.711228 0.035813 0)
(0.708121 0.0396354 0)
(0.7043 0.0436276 0)
(0.699931 0.0477959 0)
(0.695139 0.0521485 0)
(0.689947 0.0566952 0)
(0.684335 0.0614493 0)
(0.678279 0.0664254 0)
(0.671764 0.0716411 0)
(0.664779 0.0771154 0)
(0.657312 0.0828699 0)
(0.649346 0.0889275 0)
(0.640864 0.0953141 0)
(0.631847 0.102057 0)
(0.622272 0.109185 0)
(0.612115 0.116731 0)
(0.601347 0.12473 0)
(0.589937 0.133216 0)
(0.57785 0.142229 0)
(0.565043 0.151808 0)
(0.551471 0.161998 0)
(0.537078 0.172842 0)
(0.521802 0.184383 0)
(0.505567 0.196669 0)
(0.488286 0.209741 0)
(0.469854 0.223642 0)
(0.450148 0.238403 0)
(0.429018 0.254049 0)
(0.406285 0.270586 0)
(0.381734 0.287992 0)
(0.35511 0.306208 0)
(0.326109 0.325111 0)
(0.294379 0.344496 0)
(0.259516 0.364032 0)
(0.221129 0.383205 0)
(0.178639 0.401243 0)
(0.132608 0.417049 0)
(0.0800911 0.429388 0)
(0.0315268 0.435736 0)
(2.60159 0.00018795 0)
(1.64659 0.00259422 0)
(0.515002 0.0108875 0)
(0.55525 0.0129957 0)
(0.657824 0.0149563 0)
(0.725605 0.0174547 0)
(0.73993 0.0204585 0)
(0.734091 0.0236083 0)
(0.725485 0.0270403 0)
(0.719143 0.0306847 0)
(0.715863 0.0345 0)
(0.713416 0.0384796 0)
(0.710481 0.0426298 0)
(0.70684 0.0469589 0)
(0.702658 0.0514732 0)
(0.698064 0.0561815 0)
(0.693082 0.0610947 0)
(0.687694 0.0662273 0)
(0.68188 0.0715956 0)
(0.675627 0.0772189 0)
(0.668926 0.083118 0)
(0.661767 0.0893165 0)
(0.654136 0.0958397 0)
(0.646017 0.102716 0)
(0.637394 0.109974 0)
(0.628247 0.117649 0)
(0.618554 0.125775 0)
(0.608289 0.13439 0)
(0.597424 0.143536 0)
(0.585926 0.153257 0)
(0.573756 0.1636 0)
(0.56087 0.174616 0)
(0.547216 0.186359 0)
(0.532733 0.198885 0)
(0.517347 0.212254 0)
(0.50097 0.226526 0)
(0.483495 0.241763 0)
(0.464794 0.258024 0)
(0.444705 0.275365 0)
(0.423031 0.29383 0)
(0.399529 0.313444 0)
(0.373894 0.334204 0)
(0.345749 0.356044 0)
(0.314633 0.378814 0)
(0.279977 0.402276 0)
(0.241125 0.425896 0)
(0.197195 0.448788 0)
(0.148338 0.469679 0)
(0.0910091 0.486696 0)
(0.036156 0.496105 0)
(2.60324 0.00019426 0)
(1.65072 0.00268402 0)
(0.518084 0.0112999 0)
(0.55567 0.0135041 0)
(0.658409 0.0155709 0)
(0.7267 0.0182557 0)
(0.741361 0.0215126 0)
(0.735764 0.0249364 0)
(0.727435 0.0286815 0)
(0.721303 0.0326548 0)
(0.7182 0.0368036 0)
(0.715929 0.0411199 0)
(0.713178 0.0456122 0)
(0.709731 0.0502893 0)
(0.705751 0.0551588 0)
(0.70137 0.0602293 0)
(0.696616 0.0655131 0)
(0.691473 0.0710255 0)
(0.685924 0.076785 0)
(0.679959 0.0828123 0)
(0.67357 0.0891308 0)
(0.66675 0.0957657 0)
(0.659488 0.102745 0)
(0.651771 0.1101 0)
(0.643585 0.117863 0)
(0.634913 0.126071 0)
(0.625736 0.134763 0)
(0.616034 0.143981 0)
(0.60578 0.153773 0)
(0.594945 0.164187 0)
(0.583497 0.175279 0)
(0.571394 0.187109 0)
(0.558589 0.19974 0)
(0.545026 0.213242 0)
(0.530635 0.227691 0)
(0.515333 0.243168 0)
(0.499015 0.25976 0)
(0.481552 0.277557 0)
(0.462782 0.296656 0)
(0.442498 0.317155 0)
(0.420439 0.339128 0)
(0.396261 0.362686 0)
(0.369514 0.387857 0)
(0.339673 0.414518 0)
(0.305952 0.442713 0)
(0.267303 0.472029 0)
(0.222421 0.501631 0)
(0.170702 0.530074 0)
(0.107365 0.554883 0)
(0.043483 0.570062 0)
(2.60499 0.000196906 0)
(1.65514 0.00273511 0)
(0.521392 0.0115434 0)
(0.556154 0.0138287 0)
(0.659105 0.0159965 0)
(0.727998 0.0188694 0)
(0.743055 0.022398 0)
(0.73774 0.0261136 0)
(0.729732 0.0301896 0)
(0.723831 0.034505 0)
(0.720915 0.0389944 0)
(0.718829 0.0436498 0)
(0.716273 0.048484 0)
(0.713032 0.053508 0)
(0.709268 0.0587309 0)
(0.705114 0.064162 0)
(0.700603 0.0698147 0)
(0.695722 0.0757058 0)
(0.690458 0.0818552 0)
(0.684802 0.0882854 0)
(0.678751 0.0950213 0)
(0.672299 0.10209 0)
(0.665439 0.109522 0)
(0.658161 0.11735 0)
(0.650454 0.12561 0)
(0.642305 0.134341 0)
(0.633699 0.143586 0)
(0.624619 0.153392 0)
(0.615045 0.16381 0)
(0.604953 0.174898 0)
(0.594314 0.186717 0)
(0.583096 0.199336 0)
(0.571259 0.21283 0)
(0.558753 0.227283 0)
(0.545519 0.242789 0)
(0.531481 0.25945 0)
(0.516546 0.277382 0)
(0.500597 0.296717 0)
(0.48348 0.317587 0)
(0.464982 0.340203 0)
(0.444873 0.36463 0)
(0.422804 0.391069 0)
(0.398167 0.419901 0)
(0.370514 0.451183 0)
(0.338952 0.48505 0)
(0.301908 0.521512 0)
(0.257457 0.560236 0)
(0.20386 0.60001 0)
(0.133822 0.638291 0)
(0.0565602 0.666332 0)
(2.60683 0.000195383 0)
(1.65978 0.0027361 0)
(0.524893 0.0115446 0)
(0.556729 0.0138951 0)
(0.659946 0.0161709 0)
(0.729545 0.0192599 0)
(0.745069 0.0231095 0)
(0.74008 0.0271766 0)
(0.732428 0.0316497 0)
(0.726764 0.0363608 0)
(0.724034 0.0412312 0)
(0.722137 0.0462567 0)
(0.719785 0.0514555 0)
(0.716761 0.0568423 0)
(0.713228 0.0624257 0)
(0.709318 0.0682166 0)
(0.705068 0.0742305 0)
(0.700471 0.0804867 0)
(0.695515 0.087008 0)
(0.690195 0.0938194 0)
(0.684511 0.100948 0)
(0.678459 0.108425 0)
(0.672035 0.116282 0)
(0.665235 0.124554 0)
(0.658049 0.133281 0)
(0.65047 0.142505 0)
(0.642488 0.152272 0)
(0.634091 0.162634 0)
(0.625265 0.173647 0)
(0.615993 0.185372 0)
(0.606254 0.19788 0)
(0.596026 0.211247 0)
(0.585277 0.225561 0)
(0.573972 0.240918 0)
(0.562063 0.257432 0)
(0.549493 0.275227 0)
(0.53619 0.294436 0)
(0.522048 0.315283 0)
(0.506993 0.337853 0)
(0.490746 0.362396 0)
(0.473058 0.389343 0)
(0.45392 0.41892 0)
(0.432709 0.451613 0)
(0.408624 0.48792 0)
(0.380857 0.528292 0)
(0.34786 0.573457 0)
(0.306991 0.624236 0)
(0.255015 0.680964 0)
(0.180393 0.743007 0)
(0.0832308 0.803165 0)
(2.60872 0.000142195 0)
(1.66455 0.0027304 0)
(0.528488 0.0112121 0)
(0.557417 0.0135574 0)
(0.660993 0.0159263 0)
(0.731442 0.0192137 0)
(0.747535 0.0233864 0)
(0.742939 0.0278084 0)
(0.735686 0.0326821 0)
(0.730255 0.0377824 0)
(0.727699 0.043021 0)
(0.725982 0.0484063 0)
(0.723832 0.0539668 0)
(0.721025 0.0597196 0)
(0.71772 0.065673 0)
(0.714055 0.0718372 0)
(0.710072 0.0782275 0)
(0.705767 0.0848646 0)
(0.701133 0.0917721 0)
(0.696168 0.0989763 0)
(0.690874 0.106506 0)
(0.68525 0.114392 0)
(0.679297 0.122669 0)
(0.673011 0.131375 0)
(0.666391 0.140551 0)
(0.659432 0.150243 0)
(0.65213 0.160499 0)
(0.644478 0.171375 0)
(0.636471 0.182932 0)
(0.628099 0.195237 0)
(0.619352 0.208368 0)
(0.610219 0.22241 0)
(0.600682 0.237459 0)
(0.590725 0.253624 0)
(0.580319 0.271045 0)
(0.569411 0.2899 0)
(0.558025 0.31021 0)
(0.545992 0.332254 0)
(0.533206 0.356418 0)
(0.519845 0.382906 0)
(0.505628 0.412238 0)
(0.490259 0.444851 0)
(0.473485 0.481234 0)
(0.454814 0.522372 0)
(0.433601 0.569441 0)
(0.408676 0.62426 0)
(0.377647 0.689725 0)
(0.336607 0.770911 0)
(0.270944 0.878168 0)
(0.14644 1.04339 0)
(2.61109 8.1663e-05 0)
(1.67033 0.00260025 0)
(0.532246 0.010387 0)
(0.557938 0.0128223 0)
(0.662136 0.0154362 0)
(0.7338 0.0191884 0)
(0.75072 0.0239858 0)
(0.746676 0.0290449 0)
(0.739958 0.034562 0)
(0.734819 0.0402296 0)
(0.732495 0.0459582 0)
(0.731048 0.0517835 0)
(0.729213 0.057756 0)
(0.726747 0.0639027 0)
(0.723802 0.0702381 0)
(0.720521 0.0767766 0)
(0.716953 0.0835389 0)
(0.713102 0.0905507 0)
(0.708964 0.0978404 0)
(0.70454 0.105438 0)
(0.699838 0.113375 0)
(0.694862 0.121686 0)
(0.689617 0.130407 0)
(0.684107 0.139577 0)
(0.678336 0.149241 0)
(0.672308 0.159445 0)
(0.666027 0.170241 0)
(0.659498 0.181687 0)
(0.652726 0.193847 0)
(0.645716 0.206793 0)
(0.638476 0.220606 0)
(0.631012 0.235375 0)
(0.623327 0.25123 0)
(0.615448 0.268254 0)
(0.607437 0.286538 0)
(0.599067 0.306333 0)
(0.590388 0.327867 0)
(0.581878 0.351322 0)
(0.573393 0.377127 0)
(0.564712 0.405644 0)
(0.555955 0.437221 0)
(0.547206 0.472568 0)
(0.538659 0.512523 0)
(0.530537 0.558369 0)
(0.523382 0.611892 0)
(0.518372 0.675855 0)
(0.518227 0.754721 0)
(0.531151 0.855919 0)
(0.587123 0.990629 0)
(0.657196 1.1853 0)
(2.61361 5.93811e-05 0)
(1.67648 0.00194274 0)
(0.536769 0.00776525 0)
(0.559571 0.0099257 0)
(0.66478 0.0125069 0)
(0.73819 0.0166817 0)
(0.756188 0.0222122 0)
(0.752745 0.028052 0)
(0.746488 0.034383 0)
(0.741418 0.0407711 0)
(0.73911 0.0471479 0)
(0.737765 0.0535894 0)
(0.73611 0.0601605 0)
(0.733868 0.0668878 0)
(0.731177 0.073782 0)
(0.728186 0.0808581 0)
(0.724952 0.0881395 0)
(0.721486 0.0956545 0)
(0.717788 0.103434 0)
(0.713862 0.111508 0)
(0.709717 0.119913 0)
(0.705362 0.128683 0)
(0.700805 0.137857 0)
(0.696058 0.147478 0)
(0.691129 0.15759 0)
(0.686029 0.168244 0)
(0.680773 0.179494 0)
(0.675376 0.191401 0)
(0.669854 0.204031 0)
(0.664229 0.217462 0)
(0.658519 0.231799 0)
(0.65279 0.247059 0)
(0.64702 0.263359 0)
(0.641135 0.280917 0)
(0.635373 0.299862 0)
(0.629947 0.32033 0)
(0.624748 0.342665 0)
(0.619845 0.367065 0)
(0.615466 0.393721 0)
(0.611767 0.423086 0)
(0.609023 0.455681 0)
(0.60771 0.49216 0)
(0.608495 0.533437 0)
(0.612471 0.580663 0)
(0.621462 0.635502 0)
(0.638786 0.700112 0)
(0.670453 0.777409 0)
(0.725472 0.870827 0)
(0.836619 0.980393 0)
(0.984472 1.09495 0)
(2.61506 7.02146e-05 0)
(1.68003 0.00130482 0)
(0.539625 0.00545879 0)
(0.56132 0.00791051 0)
(0.668131 0.0111034 0)
(0.743954 0.016466 0)
(0.763398 0.0232636 0)
(0.760686 0.030198 0)
(0.754898 0.0372585 0)
(0.749822 0.0440643 0)
(0.747525 0.0507385 0)
(0.746315 0.0574584 0)
(0.744865 0.0643042 0)
(0.742847 0.0712962 0)
(0.740393 0.0784409 0)
(0.737663 0.0857615 0)
(0.734731 0.0932913 0)
(0.731611 0.101065 0)
(0.728306 0.109116 0)
(0.724825 0.117478 0)
(0.72118 0.126184 0)
(0.717386 0.13527 0)
(0.713459 0.144774 0)
(0.709415 0.154736 0)
(0.70527 0.165198 0)
(0.701046 0.17621 0)
(0.696765 0.187821 0)
(0.69245 0.200099 0)
(0.68814 0.213098 0)
(0.683905 0.226845 0)
(0.679651 0.241456 0)
(0.675412 0.257076 0)
(0.671525 0.273764 0)
(0.668025 0.291685 0)
(0.664831 0.311035 0)
(0.662099 0.331895 0)
(0.660003 0.354438 0)
(0.65872 0.378928 0)
(0.65853 0.405656 0)
(0.6598 0.434967 0)
(0.662997 0.467316 0)
(0.668867 0.503222 0)
(0.678474 0.543346 0)
(0.693298 0.58845 0)
(0.715726 0.639394 0)
(0.74921 0.697017 0)
(0.799339 0.761593 0)
(0.871713 0.832168 0)
(0.984638 0.903782 0)
(1.12027 0.95661 0)
(2.61626 3.67571e-05 0)
(1.6831 -0.00152776 0)
(0.544988 -0.00484963 0)
(0.567289 -0.00305232 0)
(0.675899 0.000996113 0)
(0.754088 0.00905103 0)
(0.77441 0.0185852 0)
(0.771473 0.0278693 0)
(0.765089 0.036455 0)
(0.759421 0.0442558 0)
(0.756945 0.0517474 0)
(0.755821 0.0592253 0)
(0.754538 0.0667671 0)
(0.752705 0.0743925 0)
(0.750463 0.0820966 0)
(0.748002 0.0899154 0)
(0.745401 0.0978942 0)
(0.74267 0.106074 0)
(0.739808 0.114494 0)
(0.736822 0.123189 0)
(0.733725 0.1322 0)
(0.730533 0.141565 0)
(0.727266 0.151325 0)
(0.723943 0.16152 0)
(0.72059 0.172196 0)
(0.717231 0.183415 0)
(0.713916 0.195197 0)
(0.710663 0.207583 0)
(0.707431 0.220679 0)
(0.704348 0.234559 0)
(0.701624 0.249277 0)
(0.699228 0.264997 0)
(0.697173 0.281808 0)
(0.695626 0.299729 0)
(0.69469 0.318912 0)
(0.694529 0.339513 0)
(0.695362 0.361703 0)
(0.697446 0.38568 0)
(0.701136 0.41167 0)
(0.706864 0.439927 0)
(0.715234 0.470735 0)
(0.72706 0.504421 0)
(0.743476 0.541266 0)
(0.765976 0.581552 0)
(0.796617 0.625356 0)
(0.838089 0.672402 0)
(0.894024 0.721633 0)
(0.967121 0.770458 0)
(1.0683 0.81466 0)
(1.18131 0.840214 0)
(2.61194 0.00228814 0)
(1.67308 -0.00676301 0)
(0.549512 -0.0137844 0)
(0.583061 -0.0080157 0)
(0.696124 -0.000387307 0)
(0.777879 0.00988922 0)
(0.798481 0.0200829 0)
(0.794058 0.029729 0)
(0.785725 0.0382412 0)
(0.778683 0.0461008 0)
(0.775569 0.0537807 0)
(0.774089 0.0614372 0)
(0.772505 0.0691049 0)
(0.770367 0.0768156 0)
(0.767832 0.084622 0)
(0.765145 0.0925769 0)
(0.762386 0.100725 0)
(0.75956 0.109103 0)
(0.756666 0.117745 0)
(0.753717 0.126684 0)
(0.75073 0.135953 0)
(0.747725 0.145583 0)
(0.744722 0.15561 0)
(0.741749 0.166064 0)
(0.738859 0.176957 0)
(0.736032 0.188348 0)
(0.733266 0.200316 0)
(0.730723 0.21288 0)
(0.728498 0.226106 0)
(0.726574 0.240101 0)
(0.725013 0.254896 0)
(0.723922 0.270517 0)
(0.723387 0.287076 0)
(0.723554 0.304665 0)
(0.724586 0.323388 0)
(0.726665 0.343378 0)
(0.730041 0.364752 0)
(0.734991 0.387664 0)
(0.741894 0.412246 0)
(0.751214 0.43865 0)
(0.763549 0.467003 0)
(0.779673 0.497412 0)
(0.800558 0.529895 0)
(0.827456 0.564336 0)
(0.861889 0.600391 0)
(0.90569 0.637299 0)
(0.961143 0.673724 0)
(1.02985 0.707332 0)
(1.11621 0.735198 0)
(1.20903 0.748946 0)
(2.60367 0.00790267 0)
(1.64288 -0.0735095 0)
(0.584816 -0.0725414 0)
(0.623921 -0.0457578 0)
(0.73137 -0.00575777 0)
(0.808988 0.0165336 0)
(0.826982 0.0266326 0)
(0.821021 0.0352893 0)
(0.811505 0.0426523 0)
(0.804146 0.0507659 0)
(0.800773 0.0592948 0)
(0.798915 0.067726 0)
(0.796934 0.0759357 0)
(0.794492 0.0840039 0)
(0.791769 0.0920675 0)
(0.788938 0.100205 0)
(0.786059 0.108466 0)
(0.783131 0.116889 0)
(0.780154 0.125519 0)
(0.777142 0.134403 0)
(0.774114 0.143587 0)
(0.771097 0.153097 0)
(0.768113 0.162951 0)
(0.765155 0.1732 0)
(0.7623 0.183911 0)
(0.759692 0.195093 0)
(0.757314 0.206802 0)
(0.755167 0.219095 0)
(0.75337 0.231994 0)
(0.751998 0.245554 0)
(0.751124 0.259847 0)
(0.75086 0.274936 0)
(0.751334 0.290882 0)
(0.752699 0.307767 0)
(0.75513 0.325649 0)
(0.758827 0.344616 0)
(0.76404 0.364735 0)
(0.771067 0.386089 0)
(0.78026 0.408747 0)
(0.792067 0.432757 0)