/*--------------------------------*- C++ -*----------------------------------*\
| =========                 |                                                 |
| \\      /  F ield         | OpenFOAM: The Open Source CFD Toolbox           |
|  \\    /   O peration     | Version:  2412                                  |
|   \\  /    A nd           | Website:  www.openfoam.com                      |
|    \\/     M anipulation  |                                                 |
\*---------------------------------------------------------------------------*/
FoamFile
{
    version     2.0;
    format      ascii;
    arch        "LSB;label=32;scalar=64";
    class       volScalarField;
    location    "27.5";
    object      Ma;
}
// * * * * * * * * * * * * * * * * * * * * * * * * * * * * * * * * * * * * * //

dimensions      [0 0 0 0 0 0 0];

internalField   nonuniform List<scalar> 
7000
(
2.25598
0.994172
0.300525
0.338438
0.401062
0.442387
0.450594
0.446124
0.43977
0.43486
0.432014
0.429742
0.427143
0.424055
0.420584
0.416809
0.412743
0.408364
0.403654
0.398593
0.393172
0.387374
0.381188
0.374596
0.367584
0.360131
0.352222
0.343836
0.334955
0.325557
0.315623
0.305131
0.294062
0.282393
0.270106
0.257183
0.24361
0.229372
0.214464
0.198882
0.182632
0.165726
0.148189
0.130053
0.111368
0.0921924
0.0725906
0.0528469
0.0319229
0.0155243
2.25603
0.994233
0.300323
0.338273
0.400907
0.442239
0.450446
0.44598
0.439631
0.434729
0.431888
0.429619
0.427023
0.42394
0.420473
0.416703
0.412642
0.40827
0.403565
0.398511
0.393097
0.387308
0.381131
0.374549
0.367546
0.360105
0.352209
0.343836
0.334971
0.32559
0.315674
0.305203
0.294155
0.28251
0.27025
0.257357
0.243815
0.229613
0.214745
0.199208
0.183009
0.166164
0.148701
0.13066
0.112102
0.0931171
0.073819
0.0546557
0.0351572
0.0220572
2.25616
0.99443
0.300456
0.338308
0.400937
0.442272
0.45048
0.44602
0.439689
0.434797
0.43197
0.429705
0.427121
0.424043
0.420591
0.416828
0.412783
0.40842
0.403733
0.398691
0.393297
0.387523
0.38137
0.374807
0.367833
0.360416
0.352553
0.344211
0.335385
0.326043
0.316175
0.305752
0.294762
0.283178
0.270988
0.258171
0.244717
0.230614
0.215857
0.20045
0.184403
0.167741
0.150499
0.132745
0.114565
0.0961165
0.0776337
0.0598397
0.0430408
0.0335721
2.25634
0.994736
0.300727
0.338385
0.401018
0.442371
0.450583
0.446137
0.439819
0.434956
0.432139
0.429894
0.427316
0.424261
0.420819
0.417083
0.41305
0.408716
0.404045
0.399037
0.393663
0.387929
0.3818
0.375283
0.36834
0.360978
0.353154
0.344878
0.336102
0.326837
0.317032
0.306702
0.295792
0.28432
0.272234
0.259552
0.246232
0.232295
0.217716
0.202523
0.186718
0.170346
0.153462
0.136148
0.118554
0.100896
0.0835504
0.0674574
0.0533027
0.0461803
2.25659
0.995167
0.301076
0.338454
0.401103
0.442493
0.450712
0.446287
0.439982
0.435159
0.432354
0.430141
0.427572
0.424551
0.421124
0.417426
0.413413
0.409121
0.404475
0.399513
0.394173
0.38849
0.382405
0.375947
0.369061
0.361766
0.354015
0.345816
0.337131
0.327957
0.318267
0.308045
0.297278
0.285937
0.274027
0.261509
0.248408
0.234682
0.220378
0.205464
0.190015
0.174037
0.157639
0.140921
0.124072
0.107409
0.0913717
0.0770291
0.0651082
0.0594941
2.25692
0.995739
0.301519
0.338526
0.401199
0.442638
0.450882
0.446458
0.440211
0.435395
0.432648
0.430434
0.427922
0.424902
0.421538
0.417846
0.413902
0.409621
0.405052
0.400109
0.394855
0.3892
0.383213
0.376795
0.370019
0.362782
0.355155
0.347036
0.338493
0.329425
0.319898
0.309817
0.299236
0.28808
0.276388
0.264109
0.251268
0.237851
0.223869
0.209359
0.194332
0.178893
0.163088
0.147116
0.131165
0.115612
0.100984
0.0882971
0.0781876
0.0736195
2.25733
0.996466
0.302063
0.338602
0.401306
0.442815
0.451086
0.44669
0.440473
0.435706
0.432988
0.430818
0.428331
0.425361
0.422026
0.418393
0.414483
0.410271
0.405741
0.40088
0.395672
0.390116
0.384185
0.377886
0.37118
0.364083
0.356544
0.348594
0.340162
0.331296
0.321911
0.312067
0.301672
0.290794
0.279345
0.267394
0.254871
0.241844
0.22828
0.214245
0.199771
0.184938
0.169887
0.154751
0.139833
0.125479
0.112234
0.101078
0.0924443
0.0886248
2.25785
0.997357
0.302715
0.338682
0.401426
0.443026
0.451333
0.44697
0.440792
0.436081
0.433402
0.431281
0.428833
0.425915
0.422628
0.419054
0.415201
0.411056
0.406596
0.401811
0.396689
0.391221
0.385396
0.379201
0.372625
0.365651
0.358274
0.350467
0.342236
0.333542
0.324405
0.314771
0.30468
0.294064
0.282985
0.271366
0.259289
0.246691
0.233664
0.220191
0.206374
0.192282
0.178048
0.163895
0.150053
0.136957
0.125074
0.115263
0.107842
0.104622
2.25846
0.998427
0.303484
0.33877
0.401562
0.443271
0.45163
0.447299
0.441182
0.436522
0.433902
0.431827
0.429437
0.426572
0.423351
0.419839
0.416062
0.41199
0.407618
0.402921
0.397903
0.392543
0.38684
0.380777
0.374347
0.367535
0.360332
0.352727
0.344703
0.336258
0.327369
0.318042
0.308249
0.298014
0.287295
0.276149
0.264518
0.252501
0.24004
0.227275
0.214187
0.200955
0.18767
0.174546
0.161895
0.150027
0.139452
0.130888
0.124492
0.121715
2.25919
0.999687
0.304381
0.338868
0.401716
0.44356
0.451978
0.447701
0.441634
0.437054
0.434482
0.432481
0.430141
0.427356
0.424195
0.420773
0.417069
0.413099
0.408815
0.404236
0.399326
0.394104
0.388535
0.382635
0.376369
0.369753
0.362752
0.35538
0.347606
0.339441
0.330861
0.321873
0.312462
0.302635
0.29239
0.281735
0.270695
0.259273
0.247543
0.235511
0.22332
0.210999
0.198785
0.186793
0.175337
0.164783
0.155438
0.14799
0.142489
0.140144
2.26003
1.00115
0.305414
0.338976
0.401891
0.443892
0.452389
0.448156
0.442183
0.437661
0.435178
0.433229
0.43098
0.428256
0.425197
0.421849
0.418257
0.414377
0.410222
0.405754
0.400993
0.395908
0.390515
0.384783
0.378727
0.372318
0.365568
0.358452
0.350978
0.343129
0.334909
0.326311
0.317337
0.307991
0.298276
0.288214
0.277815
0.267125
0.256171
0.245037
0.233779
0.222544
0.211437
0.200702
0.190516
0.181222
0.173164
0.166806
0.162133
0.160098
2.26099
1.00282
0.306592
0.3391
0.402092
0.44428
0.452864
0.448709
0.442804
0.438389
0.435967
0.434119
0.431934
0.42932
0.426336
0.423112
0.419611
0.41587
0.411826
0.407519
0.402896
0.398
0.392776
0.387268
0.38142
0.375277
0.368785
0.361986
0.354832
0.347364
0.339539
0.331399
0.322912
0.314119
0.305006
0.295612
0.285955
0.276071
0.266026
0.255857
0.245696
0.235597
0.22577
0.216326
0.207538
0.199606
0.192762
0.187488
0.18363
0.182023
2.26207
1.00472
0.307922
0.339242
0.402321
0.44472
0.453418
0.449334
0.443548
0.439216
0.436899
0.435128
0.433053
0.430526
0.427666
0.424542
0.421182
0.41756
0.413679
0.409517
0.405086
0.400365
0.39537
0.390077
0.384503
0.378623
0.372458
0.365983
0.359222
0.352152
0.344802
0.337151
0.329238
0.321046
0.312628
0.303974
0.295156
0.286179
0.277139
0.268074
0.259095
0.250314
0.241829
0.233864
0.226513
0.220064
0.214644
0.210543
0.207567
0.206264
2.26328
1.00684
0.309406
0.339397
0.402593
0.445217
0.454053
0.450064
0.444397
0.44018
0.437959
0.436295
0.434322
0.431915
0.429169
0.426182
0.422954
0.419493
0.415766
0.411794
0.407548
0.403055
0.398284
0.393264
0.387961
0.38241
0.376576
0.370497
0.364142
0.357549
0.350696
0.343622
0.33632
0.328827
0.321158
0.313351
0.305447
0.297496
0.289563
0.281729
0.274075
0.266728
0.259803
0.25342
0.247778
0.242928
0.239021
0.236287
0.234365
0.233711
2.26461
1.00918
0.311044
0.339556
0.402918
0.445776
0.454781
0.450907
0.445374
0.44129
0.439173
0.437629
0.435767
0.433492
0.430875
0.428036
0.424959
0.421667
0.418122
0.414348
0.410322
0.406064
0.40156
0.39682
0.391844
0.386628
0.381192
0.375517
0.369645
0.363544
0.357277
0.350805
0.344213
0.337459
0.330647
0.323753
0.316882
0.310052
0.303362
0.296883
0.290715
0.284967
0.279763
0.275235
0.271477
0.268666
0.266693
0.265721
0.265189
0.265155
2.26607
1.01175
0.312848
0.339753
0.403283
0.446422
0.455625
0.451878
0.446522
0.44256
0.440579
0.439142
0.437425
0.435273
0.432818
0.430119
0.427227
0.4241
0.420772
0.417198
0.413428
0.409413
0.405213
0.400772
0.396156
0.391309
0.386302
0.381082
0.375721
0.370182
0.364527
0.358749
0.352892
0.346992
0.341073
0.335221
0.329445
0.323878
0.318541
0.313582
0.309073
0.305151
0.301924
0.29952
0.298079
0.29758
0.298076
0.299505
0.30115
0.302675
2.26765
1.01455
0.314809
0.339982
0.403702
0.447174
0.456607
0.453012
0.447858
0.444029
0.44219
0.440873
0.439307
0.437293
0.435006
0.432467
0.429764
0.42683
0.423722
0.420383
0.41687
0.413143
0.409248
0.405158
0.400907
0.396487
0.391919
0.387217
0.382389
0.377476
0.372475
0.36745
0.3624
0.357406
0.352489
0.347728
0.343196
0.338955
0.335147
0.331828
0.329177
0.327312
0.32639
0.326514
0.327915
0.330655
0.33452
0.339626
0.344725
0.348724
2.26934
1.01754
0.316912
0.340247
0.404191
0.44806
0.457758
0.454357
0.449403
0.445752
0.444032
0.442871
0.441434
0.439597
0.437457
0.435118
0.432587
0.429885
0.426985
0.42392
0.420663
0.41726
0.41368
0.409974
0.406112
0.402148
0.398058
0.393899
0.389661
0.385395
0.381119
0.376875
0.372716
0.368675
0.364847
0.361267
0.358061
0.355306
0.35312
0.351684
0.35106
0.351506
0.353198
0.356409
0.361328
0.368067
0.376899
0.387632
0.399367
0.409971
2.27111
1.02069
0.319136
0.340562
0.404771
0.449105
0.459114
0.455934
0.451212
0.447736
0.446148
0.445136
0.44385
0.442186
0.440223
0.438076
0.435754
0.433276
0.430627
0.427825
0.424875
0.421785
0.418575
0.415245
0.411829
0.408319
0.404767
0.401159
0.397567
0.393976
0.390475
0.387061
0.383833
0.38082
0.378119
0.375817
0.373996
0.372842
0.372421
0.372922
0.374586
0.377704
0.382626
0.389493
0.398921
0.411249
0.426945
0.447105
0.470987
0.498595
2.27293
1.02394
0.321416
0.340941
0.40548
0.450366
0.460759
0.457822
0.453387
0.450055
0.448614
0.447719
0.446605
0.445087
0.443322
0.441347
0.439254
0.436989
0.434613
0.432078
0.429451
0.426692
0.423866
0.420943
0.417982
0.41497
0.41196
0.408959
0.406014
0.403163
0.400441
0.397927
0.395648
0.39373
0.392202
0.391241
0.390881
0.391311
0.392696
0.395382
0.399588
0.405685
0.413891
0.425051
0.439618
0.459156
0.48508
0.520593
0.571925
0.664902
2.27501
1.02767
0.32395
0.341215
0.406281
0.451966
0.462913
0.460349
0.456262
0.453158
0.451876
0.451202
0.450303
0.449061
0.447542
0.445881
0.444075
0.442176
0.440147
0.438045
0.435837
0.433593
0.431274
0.428961
0.426615
0.424326
0.422062
0.419921
0.417881
0.416052
0.414434
0.413141
0.412213
0.411771
0.411913
0.412685
0.414248
0.417014
0.421204
0.426895
0.434587
0.444557
0.457829
0.474815
0.497602
0.527609
0.569591
0.631145
0.729822
0.881474
2.27722
1.03165
0.326961
0.342166
0.40801
0.454834
0.466502
0.464317
0.46055
0.457503
0.456264
0.455681
0.454942
0.453877
0.452577
0.451143
0.449618
0.448015
0.446347
0.44462
0.44286
0.441075
0.439302
0.437545
0.435854
0.434235
0.432752
0.431412
0.430304
0.429437
0.428929
0.428798
0.429162
0.430044
0.431681
0.43427
0.437983
0.442901
0.449466
0.45779
0.46859
0.482303
0.49981
0.52262
0.55179
0.591353
0.64391
0.718031
0.828975
0.967129
2.2785
1.03396
0.328834
0.343226
0.410173
0.45858
0.471227
0.46954
0.4661
0.463075
0.46187
0.461405
0.460832
0.459946
0.458835
0.457607
0.456317
0.45498
0.453611
0.452221
0.450837
0.449473
0.448164
0.446928
0.445806
0.444825
0.444034
0.443472
0.443202
0.443291
0.443749
0.444653
0.446238
0.448643
0.451865
0.456153
0.461587
0.468577
0.477192
0.48816
0.501493
0.518491
0.539209
0.565767
0.599039
0.641709
0.697366
0.767748
0.864162
0.96747
2.27966
1.03608
0.332148
0.346924
0.415037
0.464994
0.478237
0.476421
0.472631
0.469257
0.467979
0.467618
0.467208
0.466497
0.465591
0.464594
0.463589
0.462563
0.461551
0.460539
0.459576
0.458657
0.457833
0.457111
0.456545
0.456156
0.456011
0.456124
0.456541
0.457351
0.458725
0.460706
0.463356
0.466845
0.471238
0.47684
0.483678
0.492267
0.502616
0.515403
0.530883
0.549716
0.572835
0.600697
0.63532
0.67709
0.728923
0.790938
0.868862
0.949898
2.2761
1.02968
0.334285
0.356823
0.427458
0.479818
0.493318
0.490519
0.485517
0.481269
0.479612
0.479057
0.478484
0.477615
0.476555
0.475463
0.474399
0.473376
0.4724
0.471489
0.470663
0.469954
0.469376
0.468977
0.468782
0.46882
0.469092
0.469761
0.47084
0.472443
0.474538
0.477326
0.480774
0.48517
0.49048
0.497075
0.504975
0.514555
0.526082
0.539788
0.556353
0.575908
0.599478
0.62736
0.660588
0.700047
0.74633
0.800694
0.864198
0.928774
2.28203
1.02253
0.358736
0.382356
0.448475
0.498367
0.510278
0.506525
0.500782
0.496399
0.494698
0.494009
0.49331
0.492361
0.491296
0.490219
0.489188
0.488191
0.487254
0.486374
0.485598
0.484924
0.484411
0.484028
0.483899
0.484054
0.484601
0.485467
0.486857
0.488705
0.491256
0.494402
0.498486
0.50335
0.509461
0.516587
0.525356
0.535459
0.547707
0.561821
0.578643
0.598171
0.621056
0.647782
0.678643
0.714584
0.755555
0.802426
0.855617
0.909174
1.87633
0.772011
0.27326
0.344116
0.417755
0.441224
0.441129
0.437148
0.433504
0.43341
0.435585
0.438473
0.441473
0.444516
0.447655
0.450903
0.454221
0.457563
0.460902
0.464217
0.467492
0.470671
0.473814
0.476955
0.480147
0.483328
0.486619
0.48994
0.493563
0.497372
0.501675
0.506365
0.5118
0.517897
0.525021
0.533155
0.542607
0.553543
0.566084
0.580722
0.597299
0.616686
0.638455
0.663781
0.692058
0.72453
0.760516
0.800988
0.845795
0.890536
1.8689
0.771403
0.282164
0.355347
0.428336
0.447791
0.443317
0.435955
0.430298
0.428404
0.428316
0.42872
0.42932
0.430224
0.431572
0.433353
0.435611
0.438218
0.441294
0.44472
0.448605
0.452672
0.457148
0.461793
0.466826
0.47198
0.477519
0.483247
0.489339
0.495663
0.502397
0.509467
0.517029
0.525164
0.533962
0.543709
0.554312
0.566332
0.579525
0.594595
0.611243
0.630222
0.651263
0.675019
0.701356
0.730663
0.762975
0.798098
0.836499
0.874173
1.86794
0.770089
0.284297
0.36506
0.44362
0.463692
0.457504
0.448127
0.441122
0.43839
0.437492
0.436894
0.436306
0.435904
0.435817
0.436087
0.436717
0.437721
0.439254
0.441237
0.443725
0.446642
0.450161
0.454162
0.458797
0.463938
0.469667
0.475917
0.48271
0.490079
0.497956
0.506543
0.515632
0.525584
0.536005
0.547447
0.559506
0.572777
0.586945
0.60262
0.619546
0.638278
0.658695
0.681194
0.705728
0.732536
0.761577
0.792778
0.82639
0.858917
1.86943
0.773371
0.290091
0.367274
0.44369
0.464289
0.459065
0.450544
0.443966
0.441603
0.441129
0.44095
0.440734
0.440623
0.440708
0.441014
0.441602
0.44251
0.443698
0.445181
0.446984
0.449219
0.451859
0.45507
0.458756
0.463136
0.468048
0.473768
0.480041
0.487238
0.494983
0.503742
0.513048
0.523418
0.53443
0.546563
0.559473
0.573572
0.588568
0.604823
0.622184
0.640923
0.661008
0.682656
0.705838
0.730685
0.757132
0.785226
0.815013
0.843661
1.87254
0.780054
0.297775
0.361234
0.429068
0.450305
0.448018
0.44195
0.436342
0.434468
0.434505
0.435036
0.435624
0.436338
0.43723
0.438402
0.439863
0.441547
0.443418
0.445525
0.447869
0.450532
0.45349
0.45686
0.460597
0.464874
0.46959
0.474999
0.480925
0.487697
0.495076
0.503398
0.512436
0.522481
0.533349
0.54526
0.558085
0.572001
0.586939
0.60304
0.620265
0.63875
0.658393
0.679336
0.701456
0.724929
0.749537
0.77526
0.802275
0.828111
1.88112
0.786633
0.300025
0.349024
0.4122
0.441241
0.444209
0.439522
0.43437
0.432088
0.431844
0.432367
0.433086
0.434006
0.435102
0.436435
0.438031
0.439887
0.442
0.444397
0.447071
0.450078
0.453388
0.457088
0.461125
0.465642
0.470548
0.476049
0.48201
0.488683
0.495928
0.503985
0.512751
0.522408
0.532894
0.54436
0.556735
0.570154
0.584548
0.600038
0.616552
0.6342
0.652899
0.672748
0.693648
0.715632
0.738554
0.762378
0.787194
0.810843
2.26308
1.106
0.407185
0.399178
0.459362
0.508055
0.519345
0.514453
0.50753
0.501483
0.497967
0.495496
0.493384
0.491367
0.489339
0.487368
0.485644
0.484155
0.483008
0.482161
0.481733
0.481684
0.482139
0.483072
0.484553
0.486618
0.489303
0.492663
0.496704
0.501514
0.507072
0.513485
0.520729
0.528922
0.538016
0.548143
0.559231
0.571399
0.584573
0.598857
0.614146
0.630541
0.647916
0.666325
0.685679
0.705968
0.727092
0.748971
0.771683
0.79329
2.2725
1.12788
0.391661
0.377126
0.449992
0.510705
0.529101
0.528218
0.523996
0.520193
0.518751
0.518376
0.51836
0.518321
0.517906
0.517277
0.516606
0.515977
0.51541
0.514935
0.514569
0.514374
0.514373
0.514646
0.515229
0.516201
0.517597
0.51953
0.521994
0.525145
0.528932
0.533547
0.538905
0.54519
0.552329
0.560459
0.569554
0.579708
0.590905
0.603177
0.616549
0.630971
0.646468
0.662945
0.680373
0.698685
0.717785
0.737581
0.758137
0.777702
2.29742
1.17661
0.434242
0.383992
0.447089
0.50338
0.521856
0.522883
0.521058
0.519873
0.520292
0.521524
0.523318
0.52512
0.526528
0.527728
0.528851
0.529999
0.531148
0.532328
0.533515
0.534759
0.536053
0.537455
0.53897
0.540667
0.542565
0.544737
0.54723
0.550109
0.553442
0.55728
0.561722
0.566796
0.572623
0.579213
0.586685
0.595024
0.604329
0.614575
0.625807
0.637997
0.651172
0.665317
0.680403
0.696403
0.713216
0.730689
0.748911
0.766293
1.90075
0.805028
0.305805
0.316892
0.374008
0.414893
0.429173
0.432999
0.435822
0.439473
0.444404
0.45015
0.456588
0.463082
0.46926
0.475256
0.481221
0.487183
0.493128
0.499013
0.504836
0.510574
0.516248
0.521834
0.527371
0.532834
0.53829
0.543709
0.549187
0.554711
0.560355
0.566163
0.5722
0.578531
0.58521
0.592335
0.599933
0.608124
0.616897
0.626387
0.63655
0.647523
0.659219
0.671742
0.684978
0.698944
0.713577
0.728901
0.744915
0.76023
2.30593
1.19374
0.449584
0.386637
0.440663
0.492234
0.509233
0.509293
0.506147
0.50367
0.502412
0.502227
0.502683
0.503078
0.503403
0.503907
0.504732
0.506008
0.507704
0.509863
0.512436
0.515477
0.518939
0.522866
0.527179
0.531938
0.537022
0.542525
0.548285
0.554421
0.560806
0.567547
0.574526
0.581865
0.589457
0.59744
0.60573
0.614457
0.623562
0.63316
0.643218
0.653819
0.664949
0.676639
0.688899
0.701711
0.715083
0.728925
0.743326
0.757045
2.31117
1.20371
0.432885
0.36973
0.438372
0.500628
0.522079
0.523491
0.521272
0.519801
0.519929
0.521061
0.52279
0.524295
0.52532
0.526167
0.527002
0.527951
0.529025
0.530314
0.531823
0.533638
0.535745
0.53823
0.541078
0.544354
0.548049
0.552203
0.556816
0.5619
0.567455
0.573469
0.579949
0.586868
0.59426
0.602065
0.610334
0.618992
0.628119
0.637619
0.647595
0.65794
0.668776
0.679979
0.69167
0.703723
0.716236
0.729069
0.74235
0.754952
2.31389
1.20954
0.437062
0.371772
0.441499
0.50535
0.527725
0.529405
0.527241
0.525893
0.526366
0.527882
0.530153
0.532346
0.534065
0.535594
0.537121
0.538753
0.540485
0.542347
0.544335
0.546482
0.548803
0.551332
0.5541
0.557134
0.560475
0.564137
0.568173
0.572582
0.577422
0.582678
0.588408
0.594581
0.60125
0.608376
0.616002
0.624084
0.632653
0.641671
0.651149
0.661065
0.671405
0.682161
0.693293
0.704814
0.716654
0.72883
0.741333
0.753223
2.31688
1.21727
0.463431
0.387827
0.447096
0.506222
0.528779
0.532009
0.531131
0.53076
0.531653
0.533581
0.53612
0.538418
0.540444
0.542348
0.544306
0.546347
0.548525
0.550806
0.553237
0.555788
0.558513
0.561385
0.564463
0.567722
0.571224
0.574951
0.578964
0.583249
0.587866
0.592812
0.598132
0.60383
0.609934
0.616452
0.623397
0.630789
0.638617
0.646907
0.655624
0.664799
0.674382
0.684399
0.694786
0.705562
0.716655
0.728063
0.739806
0.750982
1.90563
0.813583
0.324707
0.323678
0.376481
0.414373
0.42726
0.430302
0.432593
0.435933
0.440703
0.446614
0.453341
0.460158
0.466867
0.473527
0.48026
0.487055
0.493919
0.500797
0.507695
0.514573
0.521449
0.528298
0.535142
0.54197
0.548808
0.555655
0.562533
0.569454
0.576435
0.583507
0.590681
0.597999
0.605466
0.613136
0.621003
0.629124
0.637487
0.646136
0.65506
0.664286
0.673799
0.683623
0.693733
0.704138
0.714813
0.725749
0.736995
0.74767
2.31198
1.20858
0.46495
0.403496
0.466201
0.527384
0.54931
0.550236
0.546092
0.54226
0.540054
0.538681
0.538087
0.537691
0.536958
0.536236
0.535671
0.535518
0.535707
0.536395
0.537508
0.539122
0.541203
0.543792
0.546851
0.550408
0.554421
0.558917
0.563837
0.569206
0.574967
0.581128
0.587636
0.594503
0.601687
0.609196
0.617
0.625103
0.633482
0.642148
0.651084
0.660298
0.669779
0.679525
0.689522
0.699757
0.710218
0.720881
0.731809
0.742171
2.29403
1.16957
0.460053
0.422685
0.485794
0.546189
0.566073
0.566111
0.562391
0.559155
0.558398
0.558801
0.559888
0.561152
0.562024
0.562663
0.563255
0.563913
0.564648
0.565472
0.566393
0.567457
0.568709
0.570194
0.571942
0.574
0.576384
0.579128
0.582246
0.585761
0.589677
0.594015
0.598779
0.603977
0.609607
0.615665
0.622143
0.629032
0.636319
0.643987
0.652021
0.660399
0.669103
0.678115
0.687431
0.697017
0.706873
0.716959
0.727329
0.737182
1.88783
0.80507
0.34077
0.355364
0.406342
0.443121
0.452856
0.452684
0.451749
0.452601
0.455914
0.460538
0.466077
0.472142
0.478231
0.484353
0.490569
0.496889
0.503264
0.509651
0.516013
0.522338
0.528615
0.534844
0.54102
0.547154
0.553254
0.559345
0.565447
0.57159
0.577802
0.584101
0.590521
0.597081
0.603811
0.610724
0.617847
0.625189
0.632767
0.640583
0.648658
0.656984
0.665576
0.674412
0.683493
0.692806
0.702339
0.712078
0.722065
0.731558
1.87402
0.796327
0.339517
0.35666
0.398325
0.426968
0.434882
0.434835
0.433828
0.433316
0.434049
0.435683
0.43824
0.441448
0.44494
0.448772
0.453028
0.457746
0.462906
0.468488
0.474452
0.480775
0.487412
0.49434
0.501515
0.508912
0.516489
0.524228
0.532092
0.540068
0.548131
0.556292
0.564521
0.572841
0.581229
0.589714
0.598281
0.606958
0.615743
0.62464
0.633647
0.642783
0.652047
0.661453
0.670997
0.68069
0.690526
0.7005
0.710652
0.720264
1.88891
0.806045
0.345014
0.373645
0.43094
0.466892
0.47362
0.469567
0.464485
0.461383
0.460432
0.460402
0.460995
0.46196
0.462999
0.464172
0.465605
0.467366
0.469492
0.471995
0.474897
0.478209
0.481958
0.48614
0.490772
0.495837
0.501346
0.507268
0.513606
0.520321
0.527417
0.534847
0.542609
0.550661
0.558993
0.567561
0.576361
0.585353
0.594527
0.603874
0.613387
0.623045
0.632844
0.64276
0.652799
0.662938
0.673184
0.683516
0.694
0.703893
2.34071
1.12427
0.469016
0.447559
0.513126
0.574865
0.595481
0.594871
0.589573
0.58427
0.58126
0.57935
0.577786
0.576415
0.574861
0.573128
0.571356
0.569644
0.568035
0.566557
0.565234
0.564103
0.563189
0.56254
0.562186
0.562176
0.562528
0.563301
0.564487
0.566126
0.568247
0.570858
0.573983
0.577603
0.581746
0.58638
0.591523
0.597138
0.603235
0.609767
0.616733
0.624089
0.631817
0.639911
0.648325
0.657043
0.666027
0.675264
0.684761
0.693818
1.88937
0.807235
0.346152
0.36347
0.415821
0.456081
0.468552
0.469556
0.469007
0.468985
0.471273
0.47479
0.478997
0.483732
0.488555
0.493366
0.498206
0.503134
0.508109
0.51312
0.51811
0.523086
0.528011
0.532909
0.537752
0.542575
0.547354
0.552131
0.556909
0.561716
0.56656
0.571476
0.57646
0.581568
0.586795
0.592197
0.597761
0.603543
0.609524
0.615759
0.622221
0.628958
0.635944
0.643189
0.650681
0.658433
0.666425
0.674653
0.683136
0.691241
1.8891
0.807383
0.347463
0.364537
0.416093
0.454585
0.465034
0.463969
0.461094
0.458535
0.458069
0.45891
0.460496
0.462703
0.465122
0.467712
0.470581
0.473809
0.477402
0.481345
0.485611
0.490182
0.495038
0.500159
0.505525
0.51111
0.516895
0.522854
0.52897
0.535241
0.541644
0.548177
0.554828
0.561589
0.568454
0.575419
0.582486
0.589655
0.596932
0.604316
0.611817
0.61943
0.627168
0.635028
0.643024
0.651148
0.659413
0.667804
0.67637
0.684504
2.34274
1.12796
0.4727
0.449624
0.51638
0.580617
0.603064
0.603165
0.598086
0.593017
0.590235
0.58868
0.587553
0.586702
0.5857
0.584535
0.58331
0.582186
0.581149
0.580291
0.579553
0.579043
0.578698
0.578639
0.578797
0.579279
0.580044
0.581132
0.582559
0.584334
0.586465
0.588949
0.591789
0.594982
0.598528
0.602425
0.606666
0.611245
0.616151
0.621377
0.62691
0.632739
0.63885
0.645236
0.651876
0.658767
0.665887
0.67323
0.6808
0.688041
1.88982
0.808779
0.353421
0.381409
0.439685
0.479632
0.489589
0.487908
0.484862
0.483477
0.484904
0.487579
0.490927
0.494761
0.498661
0.502611
0.506673
0.510901
0.515264
0.519746
0.524308
0.52894
0.533623
0.538353
0.543123
0.547927
0.552767
0.557645
0.562569
0.567543
0.572576
0.577682
0.582863
0.588139
0.59351
0.598996
0.604595
0.610326
0.616186
0.622188
0.628337
0.634643
0.641107
0.647732
0.654521
0.661475
0.668594
0.675866
0.683321
0.69042
1.87526
0.799751
0.35115
0.378099
0.427534
0.459446
0.467093
0.465963
0.464281
0.463568
0.464095
0.465293
0.467194
0.469479
0.47183
0.474312
0.477019
0.480003
0.48327
0.48682
0.490641
0.494727
0.49907
0.503661
0.508491
0.513549
0.518821
0.524296
0.529959
0.535797
0.541801
0.54795
0.554252
0.560683
0.567253
0.573938
0.580753
0.587679
0.594728
0.601883
0.609154
0.616523
0.624004
0.631583
0.639273
0.647057
0.65495
0.662939
0.67107
0.678771
1.87423
0.799385
0.351674
0.375347
0.422432
0.4541
0.462313
0.46185
0.460734
0.460114
0.460384
0.461209
0.462692
0.464528
0.466376
0.468278
0.470334
0.47259
0.475063
0.477753
0.48067
0.483817
0.487205
0.490832
0.494709
0.49883
0.503203
0.507821
0.512687
0.517795
0.523147
0.528733
0.534552
0.540592
0.546849
0.553309
0.559968
0.566811
0.573837
0.581033
0.588397
0.595918
0.603595
0.611412
0.619363
0.627438
0.635645
0.643975
0.652461
0.660518
1.88906
0.809112
0.354849
0.362656
0.413294
0.452092
0.463034
0.46262
0.460831
0.459585
0.459621
0.460431
0.461971
0.463874
0.465702
0.467509
0.469427
0.471518
0.473804
0.476278
0.478945
0.481803
0.48486
0.488115
0.491575
0.49524
0.499116
0.503202
0.507504
0.512019
0.516753
0.521704
0.526875
0.532262
0.537867
0.543685
0.549718
0.55596
0.562409
0.569058
0.575904
0.582938
0.590154
0.597548
0.60512
0.612862
0.620765
0.628818
0.637042
0.644864
2.31231
1.20464
0.485403
0.431467
0.492566
0.556793
0.58278
0.586273
0.583608
0.580876
0.579589
0.579274
0.579763
0.580593
0.581132
0.581422
0.581655
0.581938
0.582315
0.582782
0.583349
0.584012
0.58479
0.585685
0.586715
0.587884
0.589208
0.590689
0.592344
0.594175
0.596198
0.598414
0.600839
0.603471
0.606325
0.6094
0.612708
0.616246
0.620026
0.624041
0.628302
0.6328
0.637546
0.642526
0.647752
0.653206
0.658891
0.664784
0.670915
0.676809
2.32252
1.22873
0.466083
0.405361
0.481435
0.557493
0.588656
0.593334
0.5907
0.587838
0.58685
0.587303
0.588594
0.590409
0.592091
0.593488
0.594819
0.596232
0.597785
0.599465
0.601268
0.60318
0.605208
0.607348
0.60961
0.611987
0.614491
0.617113
0.619865
0.62274
0.62575
0.628889
0.632168
0.635582
0.639143
0.642844
0.646698
0.650698
0.654858
0.65917
0.663646
0.66828
0.673084
0.678052
0.68319
0.688489
0.693957
0.699578
0.705376
0.710915
2.31271
1.20615
0.486653
0.432531
0.494346
0.559801
0.58686
0.59101
0.588958
0.586846
0.586276
0.586933
0.588442
0.590432
0.592231
0.593824
0.595398
0.597081
0.59891
0.600885
0.602994
0.605238
0.607615
0.610133
0.612789
0.615591
0.618533
0.621624
0.624857
0.628241
0.63177
0.63545
0.639276
0.643255
0.64738
0.651659
0.656084
0.660663
0.665387
0.670267
0.67529
0.680468
0.685789
0.691264
0.69688
0.702647
0.708551
0.714602
0.72081
0.726748
1.88895
0.809179
0.356054
0.364302
0.416384
0.457003
0.469101
0.469118
0.467532
0.466518
0.467163
0.468789
0.471272
0.474228
0.477162
0.480127
0.483236
0.486564
0.490107
0.493868
0.497823
0.501977
0.506312
0.510838
0.515537
0.520418
0.525463
0.53068
0.53605
0.541585
0.547263
0.553097
0.559065
0.565182
0.571425
0.577808
0.58431
0.590946
0.597694
0.60457
0.611552
0.618657
0.625863
0.633185
0.640601
0.64813
0.65575
0.663484
0.671346
0.678833
1.87422
0.800022
0.35529
0.38047
0.428584
0.460131
0.46765
0.466483
0.464742
0.46386
0.464077
0.464929
0.466471
0.468352
0.470184
0.472035
0.474
0.476138
0.47845
0.480944
0.483609
0.486459
0.489486
0.492706
0.496109
0.49971
0.503499
0.507489
0.51167
0.516053
0.520627
0.525403
0.53037
0.535537
0.540891
0.546441
0.552175
0.5581
0.564201
0.570488
0.576945
0.583579
0.590374
0.597337
0.604453
0.611727
0.619143
0.62671
0.634435
0.641797
1.87704
0.803103
0.359361
0.395136
0.451551
0.484553
0.490474
0.486942
0.482758
0.480812
0.480801
0.481597
0.483008
0.484673
0.486271
0.487892
0.489636
0.491549
0.493624
0.495862
0.498253
0.500807
0.50352
0.506399
0.509442
0.512656
0.516038
0.519595
0.523323
0.52723
0.531309
0.535569
0.540003
0.544619
0.54941
0.554382
0.559529
0.564856
0.570356
0.576034
0.581882
0.587904
0.594092
0.60045
0.606968
0.613649
0.620483
0.627469
0.634614
0.641425
1.19153
1.04879
0.497492
0.190539
0.0109058
0.108739
0.16029
0.208628
0.230213
0.234567
0.222858
0.211383
0.201057
0.19152
0.179484
0.16503
0.147698
0.127764
0.105943
0.0827985
0.0589759
0.035262
0.0158726
0.0232588
0.0469726
0.0712771
0.0954125
0.119118
0.142432
0.165333
0.18783
0.209903
0.231534
0.252674
0.272679
0.291779
0.311314
0.331686
0.351644
0.370808
0.389315
0.407308
0.424821
0.441869
0.458436
0.474527
0.490127
0.505241
0.519854
0.53397
0.547568
0.560649
0.573189
0.585183
0.596601
0.607433
0.617643
0.627217
0.636113
0.644314
0.651774
0.658475
0.664371
0.669447
0.673663
0.677016
0.679488
0.681102
0.681865
0.682033
0.681851
0.681284
0.679937
0.677421
0.674033
0.67042
0.666735
0.663013
0.65932
0.655738
0.652367
0.649281
0.646548
0.644202
0.642272
0.640762
0.639669
0.638971
0.638637
0.638609
0.638763
0.639096
0.639726
0.640813
0.642192
0.643703
0.645246
0.646914
0.648552
0.653328
1.1219
1.03596
0.806072
0.549166
0.502158
0.431222
0.381335
0.340603
0.310338
0.291781
0.260404
0.23012
0.210546
0.208795
0.215933
0.226483
0.238941
0.252852
0.26798
0.283831
0.300206
0.316673
0.332994
0.349163
0.365891
0.382871
0.400029
0.417124
0.434216
0.451143
0.467991
0.484616
0.501109
0.517339
0.532992
0.547904
0.562899
0.578616
0.594475
0.609696
0.624409
0.638777
0.652852
0.666623
0.680072
0.693184
0.705948
0.718355
0.730396
0.74206
0.753336
0.764209
0.774664
0.784684
0.794246
0.803332
0.811913
0.819967
0.827463
0.834374
0.840666
0.846311
0.851276
0.855537
0.859065
0.861847
0.863871
0.865141
0.865688
0.865694
0.865393
0.86472
0.863356
0.860959
0.857732
0.854249
0.850691
0.847119
0.843597
0.8402
0.837015
0.834112
0.831553
0.829372
0.827593
0.826216
0.825239
0.824634
0.824399
0.824422
0.824593
0.824922
0.825483
0.826443
0.827646
0.828981
0.830297
0.831708
0.832897
0.836696
1.07462
1.07544
1.00803
0.899566
0.83113
0.780829
0.744917
0.714826
0.690011
0.671917
0.6568
0.642458
0.632459
0.627319
0.625797
0.626048
0.627545
0.629942
0.633318
0.637577
0.642687
0.648453
0.654812
0.661639
0.669193
0.677349
0.686117
0.695269
0.704841
0.714641
0.724754
0.735001
0.745493
0.756037
0.766423
0.776365
0.78644
0.79722
0.808587
0.819679
0.830488
0.841103
0.85162
0.862013
0.872289
0.882395
0.892336
0.902068
0.9116
0.92089
0.929945
0.938721
0.947223
0.955402
0.963263
0.970752
0.97787
0.984563
0.990826
0.996605
1.00189
1.00663
1.01082
1.0144
1.01737
1.01969
1.02136
1.02236
1.02271
1.02258
1.02222
1.02153
1.0202
1.01798
1.01501
1.01176
1.00841
1.00506
1.00177
0.998629
0.995694
0.993039
0.990707