/*--------------------------------*- C++ -*----------------------------------*\
| =========                 |                                                 |
| \\      /  F ield         | OpenFOAM: The Open Source CFD Toolbox           |
|  \\    /   O peration     | Version:  2412                                  |
|   \\  /    A nd           | Website:  www.openfoam.com                      |
|    \\/     M anipulation  |                                                 |
\*---------------------------------------------------------------------------*/
FoamFile
{
    version     2.0;
    format      ascii;
    arch        "LSB;label=32;scalar=64";
    class       volScalarField;
    location    "4";
    object      Ma;
}
// * * * * * * * * * * * * * * * * * * * * * * * * * * * * * * * * * * * * * //

dimensions      [0 0 0 0 0 0 0];

internalField   nonuniform List<scalar> 
7000
(
3.00001
3.00001
3.00001
3.00001
3.00001
3.00001
3.00001
3.00001
3
3
2.99995
2.99995
2.99967
2.9996
2.99807
2.99733
2.98856
2.99656
2.93082
3.12979
2.83631
2.44325
1.61117
0.864872
0.359158
0.396402
0.441348
0.465923
0.462247
0.445579
0.421122
0.398167
0.379269
0.361746
0.34357
0.324422
0.304739
0.284635
0.264109
0.243228
0.221886
0.200075
0.177936
0.155437
0.132675
0.109614
0.0862837
0.0631562
0.038154
0.017692
3.00001
3.00001
3.00001
3.00001
3.00001
3.00001
3.00001
3.00001
3
3
2.99996
2.99995
2.99971
2.99963
2.99825
2.99738
2.98865
2.99654
2.93099
3.1297
2.83671
2.44439
1.61287
0.866471
0.360136
0.396724
0.441567
0.46614
0.462445
0.445776
0.421342
0.398437
0.379568
0.362051
0.343884
0.32476
0.305114
0.285054
0.264572
0.24374
0.222449
0.200701
0.178645
0.156257
0.133654
0.110831
0.0878572
0.0653643
0.0420089
0.0255963
3.00001
3.00001
3.00001
3.00001
3.00001
3.00001
3.00001
3.00001
3
3
2.99997
2.99997
2.99979
3.00006
2.9986
2.9986
2.9888
2.99691
2.93147
3.12955
2.83769
2.44687
1.61651
0.869965
0.362224
0.397457
0.441974
0.466636
0.462933
0.446287
0.421914
0.399113
0.380317
0.362846
0.344738
0.325708
0.306184
0.286259
0.265927
0.245256
0.224147
0.202613
0.180821
0.15877
0.136617
0.114425
0.0923886
0.0714418
0.0512153
0.0392128
3.00001
3.00001
3.00001
3.00001
3.00001
3.00001
3.00001
3.00001
3
3
2.99999
2.99999
2.99991
3.00026
2.99901
2.99887
2.98896
2.99687
2.93235
3.12923
2.83923
2.45068
1.62241
0.875688
0.365534
0.398638
0.442819
0.467503
0.463839
0.447199
0.422916
0.40027
0.3816
0.364214
0.346201
0.327305
0.307959
0.288245
0.268138
0.247721
0.226904
0.205712
0.184335
0.16281
0.141341
0.120079
0.0993492
0.0803406
0.0632216
0.0541289
3.00001
3.00001
3.00001
3.00001
3.00001
3.00001
3.00001
3.00001
3.00001
3.00001
3
3.00002
2.99996
3.00031
2.99921
2.99898
2.98918
2.99732
2.93316
3.12945
2.84147
2.45585
1.63096
0.883766
0.370498
0.400143
0.44396
0.468765
0.465183
0.448596
0.424453
0.401964
0.383421
0.366161
0.348305
0.329621
0.310527
0.291091
0.271298
0.251221
0.230787
0.210061
0.189254
0.168424
0.147832
0.127705
0.10849
0.0914892
0.0770195
0.0698514
3.00001
3.00001
3.00001
3.00001
3.00001
3.00001
3.00001
3.00001
3.00001
3.00001
3.00001
3.00004
2.99998
3.00032
2.9993
2.99906
2.98967
2.99786
2.93483
3.12947
2.84445
2.4626
1.64175
0.894266
0.376475
0.401779
0.445422
0.470545
0.467044
0.450542
0.426535
0.404217
0.385851
0.368784
0.351158
0.332735
0.313954
0.294869
0.275452
0.255819
0.235905
0.215758
0.195637
0.175655
0.156111
0.1373
0.119691
0.104603
0.0923111
0.0865002
3.00001
3.00001
3.00001
3.00001
3.00001
3.00001
3.00001
3.00001
3.00001
3.00001
3.00001
3.00003
2.99998
3.00029
2.99934
2.9991
2.9902
2.99869
2.93671
3.12979
2.84824
2.47092
1.65535
0.907505
0.384051
0.403438
0.447234
0.47252
0.46923
0.452864
0.429075
0.407053
0.388986
0.372153
0.354786
0.33668
0.318266
0.299626
0.280699
0.261581
0.242264
0.222839
0.203569
0.184575
0.166188
0.148756
0.132764
0.119447
0.108936
0.104141
3.00001
3.00001
3.00001
3.00001
3.00001
3.00001
3.00001
3.00001
3.00001
3.00001
3.00001
3.00002
2.99997
3.00025
2.99936
2.99912
2.99087
2.99965
2.93892
3.13005
2.85284
2.48089
1.6724
0.923734
0.393897
0.405313
0.449252
0.474851
0.471843
0.455725
0.432282
0.410562
0.392795
0.376291
0.359259
0.341532
0.323563
0.305415
0.287062
0.268615
0.250032
0.231429
0.213102
0.195204
0.178085
0.162072
0.147635
0.13591
0.126871
0.122891
3.00001
3.00001
3.00001
3.00001
3.00001
3.00001
3.00001
3.00001
3.00001
3.00001
3
3.00001
2.99996
3.00019
2.99938
2.99923
2.99219
3.00048
2.94143
3.12954
2.8581
2.4931
1.69334
0.944029
0.405992
0.408111
0.451759
0.477794
0.47517
0.459324
0.436192
0.414798
0.397347
0.381156
0.364521
0.347277
0.329876
0.312342
0.294623
0.276892
0.259145
0.241485
0.224222
0.207521
0.191725
0.177187
0.164257
0.153942
0.146183
0.142825
3.00001
3.00001
3.00001
3.00001
3.00001
3.00001
3.00001
3.00001
3.00001
3
2.99999
2.99999
2.99993
3.00011
2.99937
2.99925
2.9931
3.00181
2.94441
3.12952
2.86427
2.50745
1.71757
0.96831
0.419994
0.411704
0.454473
0.481173
0.47903
0.463481
0.440706
0.419662
0.4026
0.386865
0.37073
0.35401
0.337204
0.320392
0.303491
0.286624
0.269821
0.253209
0.237106
0.221683
0.20725
0.194139
0.182666
0.173685
0.166957
0.164207
3.00001
3.00001
3.00001
3.00001
3.00001
3.00001
3.00001
3.00001
3
3
2.99999
2.99999
2.9999
3.00001
2.99937
2.99931
2.99413
3.00326
2.94754
3.12913
2.87113
2.52409
1.746
0.997225
0.436973
0.416198
0.457817
0.485256
0.483658
0.468434
0.446034
0.425385
0.408735
0.393457
0.377907
0.361874
0.345778
0.329695
0.313606
0.297686
0.281974
0.266564
0.251753
0.237698
0.224716
0.213043
0.202934
0.195181
0.189507
0.18718
3.00001
3.00001
3.00001
3.00001
3.00001
3.00001
3.00001
3.00001
3
3
2.99999
2.99999
2.9999
2.99992
2.99943
2.99944
2.99577
3.00392
2.95102
3.1278
2.87853
2.543
1.7792
1.0314
0.456915
0.42165
0.461877
0.490002
0.48899
0.474102
0.45215
0.431896
0.41576
0.401012
0.38603
0.370667
0.355345
0.340197
0.325113
0.31027
0.295708
0.281556
0.268137
0.255557
0.244072
0.233961
0.225334
0.218806
0.213978
0.212237
3.00001
3.00001
3.00001
3.00001
3.00001
3.00001
3.00001
3.00001
3.00001
3
3
2.99999
2.99994
2.99986
2.99953
2.99943
2.99668
3.00504
2.95505
3.12636
2.88675
2.56393
1.81716
1.07082
0.479777
0.427703
0.46641
0.49513
0.494754
0.480313
0.458835
0.439175
0.423584
0.409526
0.395312
0.380713
0.366264
0.352019
0.338034
0.324414
0.311189
0.298469
0.286553
0.275551
0.265726
0.257163
0.249966
0.244768
0.241044
0.239647
3.00001
3.00001
3.00001
3.00001
3.00001
3.00001
3.00001
3.00001
3.00001
3.00001
3
2.99999
2.99994
2.9999
2.99957
2.99978
2.99762
3.00618
2.95929
3.12412
2.89543
2.58667
1.8604
1.11627
0.505992
0.434784
0.47157
0.500622
0.500903
0.486988
0.466097
0.447007
0.432044
0.418655
0.405263
0.391614
0.378169
0.365144
0.35231
0.340068
0.328373
0.317233
0.306976
0.297735
0.289611
0.282946
0.277499
0.273666
0.270958
0.27035
3.00001
3.00001
3.00001
3.00001
3.00001
3.00001
3.00001
3.00001
3.00001
3.00001
3.00001
3.00001
3
3.00003
2.9999
3.00043
2.99859
3.00705
2.96361
3.12078
2.9046
2.61165
1.90984
1.16869
0.535613
0.44288
0.47698
0.505713
0.50692
0.493784
0.473723
0.455366
0.441356
0.428825
0.416322
0.403637
0.391212
0.379327
0.367949
0.357121
0.347149
0.337909
0.329623
0.322374
0.316386
0.311566
0.308129
0.306245
0.305068
0.305054
3.00001
3.00001
3.00001
3.00001
3.00001
3.00001
3.00001
3.00001
3.00001
3.00001
3.00001
3.00002
3
3.00009
3.00008
3.00077
2.99937
3.00755
2.96757
3.11585
2.91342
2.63642
1.96525
1.22886
0.569232
0.453231
0.483233
0.509898
0.512186
0.499725
0.480484
0.462937
0.44998
0.438743
0.427575
0.416302
0.405344
0.394927
0.385072
0.375955
0.367616
0.360336
0.354274
0.34938
0.345809
0.343881
0.342854
0.343226
0.344178
0.34585
3.00001
3.00001
3.00001
3.00001
3.00001
3.00001
3.00001
3.00001
3.00001
3.00001
3
3.00001
2.99995
3.00012
3.00014
3.00153
3.00085
3.0088
2.97308
3.11504
2.92576
2.67336
2.02764
1.29891
0.603111
0.464333
0.488478
0.511629
0.514479
0.502883
0.484699
0.468296
0.456695
0.447075
0.437705
0.428208
0.419123
0.410776
0.403025
0.396145
0.390156
0.385029
0.381466
0.3793
0.378763
0.379723
0.382498
0.386777
0.391027
0.395026
3.00001
3.00001
3.00001
3.00001
3.00001
3.00001
3.00001
3.00001
3.00001
3.00001
3.00001
3.00001
3.00001
3.00002
2.99999
3.00007
2.99926
3.00105
2.99266
3.05144
2.92869
2.79145
2.12707
1.39797
0.622783
0.467526
0.485388
0.505567
0.509696
0.499995
0.483833
0.469597
0.460268
0.452779
0.445742
0.438815
0.432201
0.426143
0.420813
0.416509
0.413353
0.411373
0.410752
0.411918
0.415126
0.420898
0.428147
0.437925
0.448821
0.459101
3.00001
3.00001
3.00001
3.00001
3.00001
3.00001
3.00001
3.00001
3.00001
3.00001
3
3
2.99996
2.99993
2.99973
2.99951
2.99824
2.9987
2.99081
3.01343
2.95442
2.80387
2.21589
1.42011
0.671111
0.475497
0.483827
0.499834
0.504994
0.496663
0.482585
0.470346
0.462958
0.457486
0.452471
0.447872
0.44388
0.440924
0.438606
0.437383
0.437462
0.438976
0.442168
0.447319
0.455259
0.466654
0.482195
0.50112
0.523389
0.549594
3.00001
3.00001
3.00001
3.00001
3.00001
3.00001
3.00001
3.00001
3
3
2.99998
2.99997
2.99983
2.99979
2.99898
2.99836
2.99387
2.99501
2.96889
3.03102
2.92956
2.65363
2.34116
1.64015
0.787389
0.514402
0.501912
0.512332
0.514301
0.503805
0.489023
0.476422
0.469006
0.464114
0.460422
0.457491
0.455691
0.455044
0.455828
0.457691
0.461266
0.466632
0.474478
0.485607
0.499356
0.517836
0.542645
0.577614
0.626896
0.715855
3.00001
3.00001
3.00001
3.00001
3.00001
3.00001
3.00001
3.00001
3.00001
3
3
2.99997
2.99996
2.99981
2.99976
2.99908
2.99823
2.99465
2.98857
2.96601
2.93662
2.75843
2.52294
1.88956
0.931219
0.580137
0.531505
0.537836
0.538577
0.528803
0.514564
0.500408
0.490768
0.484552
0.480381
0.47793
0.476816
0.477929
0.48074
0.485629
0.493062
0.503835
0.517822
0.53578
0.559519
0.589702
0.631847
0.691445
0.786479
0.935396
3.00001
3.00001
3.00001
3.00001
3.00001
3.00001
3.00001
3.00001
3.00001
3
3
2.99998
2.99997
2.99983
2.99978
2.99911
2.99869
2.99505
2.99248
2.97018
2.95481
2.82148
2.64682
2.07213
1.16404
0.719607
0.576252
0.566952
0.567744
0.564986
0.554026
0.540735
0.528551
0.519979
0.514182
0.510697
0.509233
0.509546
0.512863
0.51957
0.529768
0.543326
0.561399
0.584623
0.615057
0.655955
0.710012
0.787189
0.898001
1.03534
3.00001
3.00001
3.00001
3.00001
3.00001
3.00001
3.00001
3.00001
3.00001
3
3
2.99999
2.99998
2.99989
2.99987
2.99939
2.99918
2.99663
2.99525
2.98337
2.96912
2.88971
2.7542
2.3814
1.59546
0.977088
0.654716
0.619755
0.625951
0.631559
0.621091
0.605715
0.590334
0.576998
0.567218
0.559974
0.555575
0.554104
0.556952
0.563735
0.574159
0.589012
0.608885
0.635055
0.668745
0.712744
0.770301
0.844303
0.947472
1.05092
3.00001
3.00001
3.00001
3.00001
3.00001
3.00001
3.00001
3.00001
3.00001
3.00001
3
3
2.99999
2.99999
2.99993
3.00014
2.99933
2.9992
2.99246
2.99995
2.94925
3.11101
2.8753
2.56329
1.86179
1.15609
0.669289
0.621497
0.643817
0.663934
0.667742
0.658746
0.646722
0.634031
0.623206
0.614637
0.608377
0.606216
0.608036
0.613686
0.623703
0.638133
0.658738
0.685294
0.719898
0.762534
0.816864
0.880758
0.964556
1.05017
3.00001
3.00001
3.00001
3.00001
3.00001
3.00001
3.00001
3.00001
3.00001
3.00001
3.00001
3.00001
3
3.00001
2.99994
3.00016
3.00023
3.00229
3.00177
3.01422
2.98414
3.12854
2.9438
2.73277
2.08859
1.37573
0.707685
0.608116
0.633336
0.661758
0.678101
0.679647
0.674634
0.667739
0.661915
0.656977
0.653771
0.653507
0.656988
0.662748
0.672536
0.686907
0.706658
0.732782
0.765468
0.806131
0.854083
0.911108
0.976707
1.04647
3.00001
3.00001
3.00001
3.00001
3.00001
3.00001
3.00001
3.00001
3.00001
3.00001
3.00001
3
3
2.99997
2.99996
2.9998
2.99975
2.99887
2.99842
2.99329
2.99054
2.96502
2.91998
2.71242
2.42224
1.66639
0.879366
0.661425
0.648682
0.67026
0.686861
0.691421
0.689778
0.686868
0.685144
0.684565
0.685782
0.690136
0.696745
0.704997
0.715697
0.730668
0.749921
0.774546
0.805202
0.84221
0.886139
0.935752
0.994235
1.05075
3.00001
3.00001
3.00001
3.00001
3.00001
3.00001
3.00001
3.00001
3.00001
3.00001
3.00001
3
3
2.99998
2.99998
2.99986
2.99981
2.99925
2.99906
2.99557
3.00273
2.95892
3.10698
2.89332
2.62284
1.9602
1.24177
0.744162
0.680288
0.69078
0.70618
0.713593
0.713481
0.711295
0.70957
0.709569
0.713103
0.72026
0.728741
0.739267
0.75168
0.767549
0.786982
0.810336
0.838788
0.872186
0.911515
0.955808
1.00692
1.05903
3.00001
3.00001
3.00001
3.00001
3.00001
3.00001
3.00001
3.00001
3.00001
3.00001
3.00001
3
3
2.99998
2.99997
2.9998
2.99976
2.99872
2.99782
2.99232
2.99294
2.96313
3.02937
2.91959
2.6186
2.29994
1.60722
0.879202
0.711438
0.705346
0.722118
0.733502
0.735161
0.73375
0.733205
0.735499
0.740786
0.748314
0.756847
0.767853
0.781014
0.79739
0.817091
0.840066
0.866917
0.897699
0.933092
0.972732
1.01759
1.06374
3.00001
3.00001
3.00001
3.00001
3.00001
3.00001
3.00001
3.00001
3.00001
3.00001
3.00001
3.00001
3
3
2.99998
2.99996
2.99984
2.99976
2.99907
2.9985
2.99482
2.99074
2.97174
2.94133
2.81762
2.58911
2.03411
1.13429
0.813428
0.747511
0.748074
0.753997
0.75781
0.75808
0.75822
0.761793
0.768189
0.776304
0.785727
0.796265
0.808703
0.824031
0.842379
0.864353
0.889811
0.918373
0.950574
0.986507
1.02666
1.06754
3.00001
3.00001
3.00001
3.00001
3.00001
3.00001
3.00001
3.00001
3.00001
3.00001
3.00001
3.00001
3
3
2.99998
2.99998
2.99987
2.99984
2.99927
2.99921
2.99616
2.99525
2.9793
2.97077
2.88421
2.74717
2.36971
1.58302
1.06963
0.839586
0.799393
0.79572
0.795752
0.795309
0.794591
0.795391
0.800024
0.806282
0.815314
0.825518
0.8378
0.852098
0.868487
0.887539
0.909935
0.936161
0.965462
0.997736
1.0338
1.06992
3.00001
3.00001
3.00001
3.00001
3.00001
3.00001
3.00001
3.00001
3.00001
3.00001
3.00001
3.00001
3.00001
3
3
2.99996
2.99996
2.99976
2.9997
2.99864
2.99811
2.99216
2.99758
2.9567
3.08761
2.89394
2.63733
2.05407
1.38649
0.921317
0.834191
0.825249
0.82936
0.834096
0.835443
0.83555
0.837065
0.841412
0.847508
0.856651
0.867063
0.880763
0.895735
0.913751
0.933087
0.95532
0.980924
1.00974
1.04194
1.07439
3.00001
3.00001
3.00001
3.00001
3.00001
3.00001
3.00001
3.00001
3.00001
3.00001
3.00001
3.00001
3.00001
3.00001
3
3
2.99996
2.99995
2.99976
2.9997
2.99895
2.99797
2.99348
2.98788
2.96114
2.92854
2.72481
2.48961
1.82358
1.12922
0.881569
0.847158
0.854209
0.863648
0.870647
0.872597
0.872967
0.874856
0.878806
0.885704
0.894793
0.906545
0.920938
0.937384
0.95673
0.977692
1.00095
1.02579
1.05381
1.08228
3.00001
3.00001
3.00001
3.00001
3.00001
3.00001
3.00001
3.00001
3.00001
3.00001
3.00001
3.00001
3.00001
3.00001
3
3
2.99998
2.99997
2.99983
2.99981
2.99906
2.9987
2.99475
2.99573
2.97776
3.03014
2.90747
2.78358
2.21152
1.52647
0.96568
0.878696
0.873028
0.884688
0.894844
0.898824
0.899418
0.900691
0.903934
0.909656
0.91812
0.928788
0.942141
0.95782
0.975632
0.996204
1.01811
1.04291
1.06918
1.09603
3.00001
3.00001
3.00001
3.00001
3.00001
3.00001
3.00001
3.00001
3.00001
3.00001
3.00001
3.00001
3.00001
3.00001
3.00001
3
3
2.99998
2.99996
2.99982
2.99973
2.99908
2.9984
2.99561
2.98949
2.97006
2.94051
2.78545
2.6034
2.03275
1.26429
0.982196
0.922194
0.915998
0.917953
0.921094
0.922693
0.924214
0.92638
0.931198
0.938447
0.948353
0.960904
0.975947
0.992719
1.01207
1.03303
1.05606
1.08169
1.10695
3.00001
3.00001
3.00001
3.00001
3.00001
3.00001
3.00001
3.00001
3.00001
3.00001
3.00001
3.00001
3.00001
3.00001
3.00001
3
3
2.99999
2.99999
2.99991
2.99987
2.99947
2.99939
2.99729
2.99961
2.9878
2.97943
2.90686
2.80578
2.51329
1.83974
1.28113
1.02249
0.97158
0.96014
0.956604
0.956493
0.956461
0.958326
0.961466
0.966567
0.97396
0.983975
0.996608
1.01157
1.02889
1.04825
1.06932
1.09318
1.11679
3.00001
3.00001
3.00001
3.00001
3.00001
3.00001
3.00001
3.00001
3.00001
3.00001
3.00001
3.00001
3.00001
3.00001
3.00001
3.00001
3
3
2.99998
2.99998
2.99987
2.99985
2.99925
2.99902
2.9959
2.99431
2.97959
2.96115
2.88033
2.75097
2.38197
1.69949
1.23217
1.03402
0.999698
0.991857
0.989426
0.990984
0.99363
0.998037
1.00321
1.01062
1.01866
1.02794
1.0391
1.05232
1.06811
1.08599
1.10664
1.12778
3.00001
3.00001
3.00001
3.00001
3.00001
3.00001
3.00001
3.00001
3.00001
3.00001
3.00001
3.00001
3.00001
3.00001
3.00001
3.00001
3.00001
3
3
2.99998
2.99997
2.99984
2.99982
2.99908
2.99879
2.99549
2.99185
2.97488
2.95069
2.86622
2.67732
2.23419
1.55954
1.19339
1.05386
1.02639
1.02194
1.02267
1.02688
1.03272
1.03885
1.04567
1.05395
1.06301
1.07332
1.08447
1.09653
1.10993
1.1258
1.14286
3.00001
3.00001
3.00001
3.00001
3.00001
3.00001
3.00001
3.00001
3.00001
3.00001
3.00001
3.00001
3.00001
3.00001
3.00001
3.00001
3.00001
3.00001
3.00001
3.00002
3.00002
3.00008
3.00004
3.0004
2.99943
2.99906
2.98925
2.99182
2.94931
3.06716
2.87988
2.62376
2.09856
1.50721
1.13417
1.06201
1.04839
1.04846
1.05409
1.06221
1.06957
1.07609
1.08344
1.09167
1.10111
1.11145
1.12307
1.13549
1.15017
1.16438
3.00001
3.00001
3.00001
3.00001
3.00001
3.00001
3.00001
3.00001
3.00001
3.00001
3.00001
3.00001
3.00001
3.00001
3.00001
3.00001
3.00001
3.00001
3.00001
3
3
2.99997
2.99996
2.99979
2.9997
2.99883
2.99833
2.99354
2.9902
2.96585
2.93215
2.7939
2.55053
2.059
1.40755
1.1545
1.08728
1.07635
1.07881
1.08485
1.09215
1.09883
1.10554
1.11297
1.12133
1.13086
1.14158
1.15388
1.16718
1.18002
3.00001
3.00001
3.00001
3.00001
3.00001
3.00001
3.00001
3.00001
3.00001
3.00001
3.00001
3.00001
3.00001
3.00001
3.00001
3.00001
3.00001
3.00001
3.00001
3
3
2.99999
2.99999
2.99991
2.9999
2.99947
2.99932
2.9972
2.99579
2.98668
2.97591
2.91754
2.81878
2.56098
1.96627
1.4405
1.17664
1.12922
1.11759
1.11552
1.11869
1.12321
1.12759
1.1329
1.13953
1.14792
1.15728
1.16734
1.17831
1.18676
3.00001
3.00001
3.00001
3.00001
3.00001
3.00001
3.00001
3.00001
3.00001
3.00001
3.00001
3.00001
3.00001
3.00001
3.00001
3.00001
3.00001
3.00001
3.00001
3.00001
3
3
2.99999
2.99998
2.9999
2.99988
2.99945
2.99916
2.99719
2.99492
2.98383
2.9718
2.90449
2.80156
2.52571
1.94362
1.44919
1.20109
1.15539
1.14546
1.14433
1.14839
1.15467
1.15928
1.16357
1.16835
1.17342
1.17877
1.18241
1.18328
3.00001
3.00001
3.00001
3.00001
3.00001
3.00001
3.00001
3.00001
3.00001
3.00001
3.00001
3.00001
3.00001
3.00001
3.00001
3.00001
3.00001
3.00001
3.00001
3.00001
3.00001
3
3
2.99998
2.99998
2.99988
2.99986
2.99935
2.9991
2.99696
2.9943
2.98139
2.96944
2.89517
2.7907
2.51281
1.94939
1.47786
1.23088
1.17886
1.16856
1.16769
1.17211
1.17833
1.18318
1.18626
1.18696
1.18519
1.17906
1.16855
3.00001
3.00001
3.00001
3.00001
3.00001
3.00001
3.00001
3.00001
3.00001
3.00001
3.00001
3.00001
3.00001
3.00001
3.00001
3.00001
3.00001
3.00001
3.00001
3.00001
3.00001
3.00001
3.00001
3.00001
3
3
2.99996
3.00008
2.99962
2.99961
2.99616
2.99847
2.97817
3.05252
2.93534
2.82059
2.43564
1.95715
1.42551
1.23776
1.19103
1.18325
1.18309
1.18564
1.18885
1.18733
1.1815
1.17122
1.15545
1.13099
3.00001
3.00001
3.00001
3.00001
3.00001
3.00001
3.00001
3.00001
3.00001
3.00001
3.00001
3.00001
3.00001
3.00001
3.00001
3.00001
3.00001
3.00001
3.00001
3.00001
3.00001
3.00001
3.00001
3.00001
3
2.99999
2.99999
2.99993
2.99993
2.99961
2.99971
2.99737
2.99646
2.98182
2.98172
2.93044
2.842
2.45076
1.96398
1.42454
1.2431
1.2003
1.18851
1.18131
1.17255
1.16046
1.14172
1.11673
1.08519
1.05032
3.00001
3.00001
3.00001
3.00001
3.00001
3.00001
3.00001
3.00001
3.00001
3.00001
3.00001
3.00001
3.00001
3.00001
3.00001
3.00001
3.00001
3.00001
3.00001
3.00001
3.00001
3.00001
3.00001
3.00001
3
3
2.99998
2.99998
2.99988
2.99986
2.99933
2.99908
2.99622
2.99513
2.9819
2.96822
2.89928
2.78479
2.52225
1.95878
1.50216
1.27483
1.20304
1.16328
1.12735
1.09254
1.05427
1.01512
0.98205
0.960914
3.00001
3.00001
3.00001
3.00001
3.00001
3.00001
3.00001
3.00001
3.00001
3.00001
3.00001
3.00001
3.00001
3.00001
3.00001
3.00001
3.00001
3.00001
3.00001
3.00001
3.00001
3.00001
3.00001
3.00001
3.00001
3.00001
3.00001
3
3
2.99997
3.00011
2.99963
2.99957
2.9959
2.99782
2.97842
3.04938
2.93324
2.82299
2.43259
1.95713
1.42381
1.19882
1.07749
0.99971
0.951056
0.92116
0.909027
0.909558
0.916026
3.00001
3.00001
3.00001
3.00001
3.00001
3.00001
3.00001
3.00001
3.00001
3.00001
3.00001
3.00001
3.00001
3.00001
3.00001
3.00001
3.00001
3.00001
3.00001
3.00001
3.00001
3.00001
3.00001
3.00001
3.00001
3.00001
3
3
2.99998
2.99998
2.99987
2.99986
2.99927
2.99906
2.99625
2.99552
2.98179
2.98213
2.91694
2.86762
2.34942
1.78222
1.10817
0.833759
0.750056
0.768489
0.802652
0.840739
0.878804
0.908053
3.00001
3.00001
3.00001
3.00001
3.00001
3.00001
3.00001
3.00001
3.00001
3.00001
3.00001
3.00001
3.00001
3.00001
3.00001
3.00001
3.00001
3.00001
3.00001
3.00001
3.00001
3.00001
3.00001
3.00001
3.00001
3.00001
3.00001
3
3
2.99999
2.99999
2.99991
2.99991
2.99932
2.99921
2.9967
3.00433
2.95653
3.13686
2.86532
2.54327
1.81768
1.06589
0.497713
0.470864
0.560994
0.654182
0.730799
0.789813
0.834448
3.00001
3.00001
3.00001
3.00001
3.00001
3.00001
3.00001
3.00001
3.00001
3.00001
3.00001
3.00001
3.00001
3.00001
3.00001
3.00001
3.00001
3.00001
3.00001
3.00001
3.00001
3.00001
3.00001
3.00001
3.00001
3.00001
3.00001
3.00001
3
3
2.99999
2.99996
2.99999
2.99998
3.00105
3.00046
3.01259
2.97187
3.16029
2.88117
2.5563
1.77373
0.973109
0.322234
0.318788
0.419817
0.524041
0.602828
0.663223
0.711911
3.00001
3.00001
3.00001
3.00001
3.00001
3.00001
3.00001
3.00001
3.00001
3.00001
3.00001
3.00001
3.00001
3.00001
3.00001
3.00001
3.00001
3.00001
3.00001
3.00001
3.00001
3.00001
3.00001
3.00001
3.00001
3.00001
3.00001
3
2.99999
2.99999
2.99994
2.99993
2.99968
2.99959
2.99866
2.99735
2.99186
2.97648
2.95972
2.80517
2.62804
1.87488
0.925356
0.46596
0.35335
0.416779
0.490176
0.536211
0.569074
0.59933
3.00001
3.00001
3.00001
3.00001
3.00001
3.00001
3.00001
3.00001
3.00001
3.00001
3.00001
3.00001
3.00001
3.00001
3.00001
3.00001
3.00001
3.00001
3.00001
3.00001
3.00001
3.00001
3.00001
3.00001
3.00001
3.00001
3.00001
3.00001
3
3
2.99999
2.99998
2.99996
3.00003
3.00063
3.00059
3.00806
2.99639
3.10098
2.89945
2.68414
1.87911
1.05241
0.342119
0.303023
0.382842
0.455761
0.490199
0.508497
0.525279
3.00001
3.00001
3.00001
3.00001
3.00001
3.00001
3.00001
3.00001
3.00001
3.00001
3.00001
3.00001
3.00001
3.00001
3.00001
3.00001
3.00001
3.00001
3.00001
3.00001
3.00001
3.00001
3.00001
3.00001
3.00001
3.00001
3.00001
3.00001
3
3
2.99997
2.99996
2.99984
2.99975
2.99957
2.99874
3.00217
2.98855
3.07383
2.90442
2.71082
1.92596
1.12044
0.372289
0.31044
0.382325
0.45021
0.478173
0.490408
0.501171
3.00001
3.00001
3.00001
3.00001
3.00001
3.00001
3.00001
3.00001
3.00001
3.00001
3.00001
3.00001
3.00001
3.00001
3.00001
3.00001
3.00001
3.00001
3.00001
3.00001
3.00001
3.00001
3.00001
3.00001
3.00001
3.00001
3.00001
3.00001
3
3
2.99998
2.99997
2.9999
2.99977
2.9996
2.99965
3.00321
2.99592
3.04804
2.94837
2.75245
2.00562
1.18206
0.392497
0.301312
0.375361
0.446672
0.477429
0.491313
0.502868
3.00001
3.00001
3.00001
3.00001
3.00001
3.00001
3.00001
3.00001
3.00001
3.00001
3.00001
3.00001
3.00001
3.00001
3.00001
3.00001
3.00001
3.00001
3.00001
3.00001
3.00001
3.00001
3.00001
3.00001
3.00001
3.00001
3.00001
3.00001
3
3
2.99997
2.99996
2.99979
2.99975
2.99888
2.99838
2.99554
2.98896
3.0056
2.94524
2.8342
2.06955
1.25273
0.42786
0.28623
0.363286
0.440421
0.474233
0.490282
0.502851
3.00001
3.00001
3.00001
3.00001
3.00001
3.00001
3.00001
3.00001
3.00001
3.00001
3.00001
3.00001
3.00001
3.00001
3.00001
3.00001
3.00001
3.00001
3.00001
3.00001
3.00001
3.00001
3.00001
3.00001
3.00001
3.00001
3.00001
3.00001
3
3
2.99996
2.99993
2.9996
2.99955
2.99725
2.99624
2.98398
2.98757
2.92878
3.00995
2.74888
2.27144
1.30528
0.635857
0.310704
0.386096
0.464065
0.493166
0.497562
0.49646
3.00001
3.00001
3.00001
3.00001
3.00001
3.00001
3.00001
3.00001
3.00001
3.00001
3.00001
3.00001
3.00001
3.00001
3.00001
3.00001
3.00001
3.00001
3.00001
3.00001
3.00001
3.00001
3.00001
3.00001
3.00001
3.00001
3.00001
3.00001
3
3
2.99997
2.99996
2.99971
2.99968
2.99799
2.99725
2.9862
2.99643
2.92237
3.13027
2.79088
2.32245
1.422
0.705729
0.288453
0.379715
0.460384
0.488171
0.489145
0.483903
3.00001
3.00001
3.00001
3.00001
3.00001
3.00001
3.00001
3.00001
3.00001
3.00001
3.00001
3.00001
3.00001
3.00001
3.00001
3.00001
3.00001
3.00001
3.00001
3.00001
3.00001
3.00001
3.00001
3.00001
3.00001
3.00001
3.00001
3.00001
3
3
2.99997
2.99995
2.99969
2.99963
2.99778
2.99695
2.98503
2.9945
2.9199
3.12187
2.78071
2.32893
1.42701
0.712455
0.300853
0.378023
0.450391
0.477495
0.48152
0.480014
3.00001
3.00001
3.00001
3.00001
3.00001
3.00001
3.00001
3.00001
3.00001
3.00001
3.00001
3.00001
3.00001
3.00001
3.00001
3.00001
3.00001
3.00001
3.00001
3.00001
3.00001
3.00001
3.00001
3.00001
3.00001
3.00001
3.00001
3.00001
3
3
2.99997
2.99996
2.99981
2.9997
2.99901
2.99775
2.99233
2.98723
2.958
2.9352
2.69398
2.29435
1.44571
0.505312
0.257415
0.347572
0.425513
0.46168
0.480343
0.491467
3.00001
3.00001
3.00001
3.00001
3.00001
3.00001
3.00001
3.00001
3.00001
3.00001
3.00001
3.00001
3.00001
3.00001
3.00001
3.00001
3.00001
3.00001
3.00001
3.00001
3.00001
3.00001
3.00001
3.00001
3.00001
3.00001
3.00001
3.00001
3
3
2.99998
2.99997
2.99987
2.99974
2.99924
2.99819
2.9944
2.9894
2.96538
2.93699
2.70797
2.30738
1.52998
0.56399
0.284912
0.363155
0.436529
0.477065
0.498261
0.507714
3.00001
3.00001
3.00001
3.00001
3.00001
3.00001
3.00001
3.00001
3.00001
3.00001
3.00001
3.00001
3.00001
3.00001
3.00001
3.00001
3.00001
3.00001
3.00001
3.00001
3.00001
3.00001
3.00001
3.00001
3.00001
3.00001
3.00001
3.00001
3
3
2.99997
2.99996
2.99978
2.99972
2.99878
2.99829
2.99363
2.98822
2.96074
2.93337
2.72383
2.32555
1.54075
0.568117
0.286255
0.369347
0.448035
0.492199
0.514262
0.522104
1.213
0.835447
0.275755
0.35237
0.489546
0.589625
0.627342
0.650485
0.674438
0.69707
0.715528
0.730345
0.745771
0.761912
0.776352
0.787083
0.79481
0.800742
0.801895
0.793285
0.771557
0.734367
0.684715
0.625321
0.56112
0.495375
0.430745
0.370745
0.31529
0.263987
0.215534
0.170089
0.127709
0.0878804
0.0508654
0.0242295
0.0363508
0.0659154
0.0978822
0.128105
0.157143
0.18382
0.210338
0.237631
0.264861
0.290613
0.315857
0.340036
0.364001
0.387177
0.410102
0.432313
0.454379
0.475553
0.496829
0.517063
0.537478
0.556946
0.5765
0.595306
0.614147
0.632269
0.650552
0.668072
0.685839
0.702872
0.72011
0.736715
0.753456
0.769623
0.785919
0.801657
0.817521
0.832836
0.848292
0.863146
0.878257
0.892618
0.90741
0.921303
0.935762
0.949248
0.963338
0.976472
0.990159
1.00298
1.01626
1.02874
1.04172
1.05384
1.06656
1.07825
1.0907
1.10191
1.11391
1.12444
1.13544
1.14435
1.15228
1.15672
1.15403
0.94406
0.535608
0.381915
0.241875
0.0917833
0.154173
0.26951
0.359388
0.424987
0.463514
0.487188
0.50661
0.526067
0.543658
0.556247
0.563935
0.568699
0.567577
0.555622
0.529778
0.488692
0.43399
0.372214
0.309497
0.247799
0.19071
0.140919
0.0987457
0.0711147
0.0661188
0.0853759
0.113001
0.143174
0.173156
0.202205
0.229183
0.255806
0.282543
0.308798
0.334253
0.358131
0.381432
0.405289
0.429528
0.452502
0.474743
0.496126
0.517119
0.537467
0.557488
0.576991
0.59628
0.615111
0.633842
0.652165
0.670112
0.688011
0.705107
0.722712
0.739157
0.756314
0.772369
0.78898
0.80474
0.820818
0.836262
0.851879
0.867019
0.882299
0.897109
0.912114
0.926591
0.941282
0.955482
0.9698
0.983762
0.997681
1.01144
1.02496
1.03851
1.05167
1.06499
1.07785
1.09097
1.10356
1.11647
1.12871
1.1414
1.15323
1.1657
1.17711
1.1893
1.20025
1.21197
1.22227
1.23298
1.24178
1.24957
1.25405
1.13264
1.06766
0.909482
0.781175
0.674917
0.545155
0.415543
0.301039
0.202156
0.114807
0.0555798
0.0965137
0.153878
0.204163
0.2424
0.271176
0.290932
0.302493
0.306332
0.29222
0.262836
0.219742
0.173756
0.136373
0.119072
0.124743
0.146534
0.17346
0.202114
0.230242
0.256994
0.283389
0.309607
0.335469
0.360843
0.385224
0.408556
0.431333
0.453867
0.476151
0.497824
0.518446
0.538352
0.55883
0.58001
0.600826
0.620965
0.64065
0.660004
0.67898
0.697481
0.71543
0.732757
0.749434
0.765445
0.78097
0.796098
0.810757
0.825047
0.839146
0.853033
0.866788
0.880346
0.894108
0.907655
0.921623
0.935148
0.94906
0.962503
0.976269
0.98969
1.00323
1.01666
1.02989
1.0433
1.05618
1.06952
1.08208
1.09529
1.10763
1.12075
1.13301
1.14603
1.15809
1.17099
1.18278
1.19557
1.20708
1.21968
1.23094
1.24328
1.25427
1.26626
1.27698
1.28843
1.29868
1.30909
1.3181
1.32569
1.33067
1.13487
1.13832
1.09049
1.03374
0.964155
0.884391
0.783191
0.687762
0.59829
0.511144
0.428414
0.351547
0.283879
0.221116
0.164382
0.115588
0.0746715
0.0404934
0.0101611
0.0267789
0.0739839
0.139649
0.202332
0.259699
0.306815
0.342469
0.371079
0.395187
0.416757
0.436693
0.455571
0.474032
0.492421
0.510973
0.529562
0.547873
0.565832
0.583521
0.601147
0.61873
0.636024
0.652635
0.668441
0.684753
0.701984
0.719758
0.737042
0.754242
0.771313
0.788574
0.805728
0.822796
0.839555
0.855907
0.871837
0.887178
0.902082
0.916381
0.930254
0.943643
0.956681
0.969343
0.98174
0.993879
1.00587
1.01766
1.02934
1.04088
1.05244
1.06386
1.07553
1.08697
1.09902
1.1105
1.1228
1.1342
1.14657
1.15791
1.17042
1.1818
1.19424
1.20562
1.21777
1.22921
1.24102
1.25251
1.26406
1.27547
1.28687
1.29819
1.30937
1.32064
1.3315
1.34266
1.35303
1.36391
1.37336
1.38323
1.39026
1.39636
1.13577
1.16938
1.17244
1.16142
1.13496
1.09442
1.038
0.974123
0.906545
0.832927
0.758519
0.686148
0.620849
0.559393
0.501752
0.449121
0.403943
0.365974
0.335232
0.317899
0.34303
0.398377
0.459015
0.513638
0.557318
0.587159
0.606177
0.619301
0.629157
0.638215
0.647406
0.656973
0.666984
0.67732
0.688209
0.69939
0.710823
0.722431
0.734441
0.746832
0.7594
0.771861
0.783529
0.795627
0.808445
0.822531
0.836334
0.850494
0.86458
0.879397
0.894301
0.909559
0.92475
0.93965
0.954534
0.968567
0.982676
0.995778
1.00896
1.02124
1.03377
1.04548
1.05759
1.06894
1.08078
1.0919
1.10362
1.11461
1.12626
1.1372
1.1488
1.15963
1.17097
1.18168
1.19275
1.20345
1.21455
1.22542
1.23645
1.2473
1.25817
1.26896
1.27965
1.29039
1.30089
1.31158
1.32187
1.33249
1.34255
1.35309
1.36289
1.37337
1.38288
1.39327
1.40247
1.41261
1.42122
1.43051
1.43717
1.44289
1.13494
1.18131
1.20878
1.2225
1.22547
1.21471
1.18965
1.15535
1.11399
1.06524
1.01093
0.953754
0.897388
0.841308
0.784913
0.732448
0.683851
0.639524
0.59602
0.570105
0.584141
0.631854
0.687994
0.740266
0.782627
0.811331
0.824727
0.828208
0.826168
0.823825
0.822808
0.823792
0.826285
0.830062
0.834754
0.839933
0.84542
0.851445
0.858127
0.865571
0.87362
0.882023
0.890164
0.898671
0.908048
0.918759
0.929745
0.941053
0.952618
0.964706
0.977424
0.990288
1.00362
1.01653
1.02964
1.04206
1.05446
1.06598
1.07744
1.08806
1.09885
1.10897
1.11949
1.12946
1.13996
1.14995
1.16054
1.1706
1.18145
1.19172
1.20295
1.21354
1.22482
1.23548