/*--------------------------------*- C++ -*----------------------------------*\
| =========                 |                                                 |
| \\      /  F ield         | OpenFOAM: The Open Source CFD Toolbox           |
|  \\    /   O peration     | Version:  2412                                  |
|   \\  /    A nd           | Website:  www.openfoam.com                      |
|    \\/     M anipulation  |                                                 |
\*---------------------------------------------------------------------------*/
FoamFile
{
    version     2.0;
    format      ascii;
    arch        "LSB;label=32;scalar=64";
    class       volScalarField;
    location    "4";
    object      p;
}
// * * * * * * * * * * * * * * * * * * * * * * * * * * * * * * * * * * * * * //

dimensions      [1 -1 -2 0 0 0 0];

internalField   nonuniform List<scalar> 
7000
(
1
1
1
1
1
1
1
1
1
1.00002
1.00002
1.0001
1.0001
1.00057
1.00068
1.00308
1.00491
1.01882
1.01006
1.0523
1.12032
1.01555
2.81691
4.43029
10.2046
10.1162
9.80864
9.5302
9.51507
9.57107
9.70392
9.84425
9.95141
10.0408
10.1279
10.2162
10.3039
10.3892
10.4716
10.5512
10.6273
10.6995
10.7672
10.8293
10.8855
10.9345
10.9761
11.0094
11.0327
11.05
1
1
1
1
1
1
1
1
1
1.00001
1.00002
1.00009
1.00009
1.0005
1.00064
1.00287
1.0048
1.0188
1.01006
1.05216
1.11987
1.01507
2.81419
4.42286
10.1944
10.114
9.80752
9.52852
9.5136
9.56966
9.70259
9.84273
9.94977
10.0393
10.1265
10.2149
10.3027
10.388
10.4705
10.5501
10.6263
10.6986
10.7663
10.8285
10.8847
10.9339
10.9756
11.0091
11.0324
11.0499
1
1
1
1
1
1
1
1
1
1.00001
1.00002
1.00006
1.00007
1.00034
1.00027
0.999958
1.008
1.01905
1.01037
1.05178
1.11871
1.01378
2.80822
4.40647
10.1721
10.1094
9.80489
9.52446
9.50951
9.5656
9.69861
9.83837
9.94514
10.0347
10.122
10.2105
10.2982
10.3836
10.466
10.5455
10.6216
10.6937
10.7613
10.8234
10.8796
10.9288
10.9705
11.0041
11.0274
11.0449
1
1
1
1
1
1
1
1
1
1
1.00002
1.00004
1.00003
1.00013
0.999985
0.99952
1.00779
1.01981
1.00945
1.05119
1.11697
1.0118
2.79902
4.37972
10.1376
10.1027
9.80062
9.51806
9.50277
9.55895
9.69202
9.83136
9.93782
10.0274
10.1149
10.2033
10.291
10.3762
10.4585
10.5379
10.6137
10.6856
10.7529
10.8149
10.8709
10.9201
10.9618
10.9954
11.0186
11.0362
1
1
1
1
1
1
1
1
1
1
1
1
0.999988
1.00004
0.999872
0.999385
1.00767
1.01854
1.00967
1.04988
1.1144
1.00898
2.78663
4.33881
10.0903
10.0939
9.79408
9.50898
9.49317
9.54942
9.68242
9.82133
9.92745
10.017
10.1045
10.1929
10.2805
10.3655
10.4476
10.5267
10.6022
10.6737
10.7408
10.8024
10.8583
10.9074
10.9491
10.9829
11.006
11.0237
1
1
1
1
1
1
1
1
1
0.999998
0.999996
0.999992
0.99996
1.00001
0.999846
0.999393
1.00712
1.01863
1.00801
1.04817
1.11089
1.00514
2.76983
4.28854
10.0263
10.0813
9.78488
9.49724
9.48075
9.53688
9.66957
9.80806
9.91381
10.0032
10.0906
10.1789
10.2662
10.351
10.4328
10.5114
10.5865
10.6576
10.7242
10.7855
10.8411
10.8901
10.9317
10.9656
10.9888
11.0067
1
1
1
1
1
1
1
1
0.999999
0.999999
0.999995
0.999993
0.999956
1.00002
0.999865
0.999454
1.00665
1.01772
1.00686
1.04579
1.10641
1.00031
2.74897
4.22459
9.9438
10.0651
9.77258
9.48307
9.4654
9.52122
9.65321
9.79133
9.89669
9.98576
10.073
10.161
10.2479
10.3322
10.4135
10.4917
10.5662
10.6367
10.7026
10.7634
10.8187
10.8675
10.9091
10.9431
10.9663
10.9844
1
1
1
1
1
1
1
1
1
0.999999
0.999998
0.999998
0.999986
1.00003
0.999909
0.999556
1.0061
1.01656
1.00555
1.04301
1.10109
0.994554
2.72488
4.14185
9.84063
10.0462
9.75823
9.46624
9.44672
9.50207
9.63329
9.77102
9.87587
9.96444
10.0512
10.1386
10.225
10.3088
10.3894
10.4669
10.5406
10.6103
10.6755
10.7356
10.7904
10.8389
10.8804
10.9145
10.9377
10.956
1
1
1
1
1
1
1
1
1
1
1
1.00001
1.00001
1.00006
0.999963
0.999673
1.00515
1.01412
1.00391
1.04044
1.09529
0.988357
2.69548
4.0445
9.71277
10.0229
9.7425
9.44663
9.42435
9.47921
9.6097
9.74699
9.85118
9.93901
10.025
10.1116
10.1971
10.28
10.3598
10.4363
10.5092
10.5778
10.6421
10.7013
10.7554
10.8034
10.8446
10.8787
10.9019
10.9206
1
1
1
1
1
1
1
1
1
1
1.00001
1.00002
1.00002
1.00011
1.00005
0.999837
1.00441
1.0125
1.00213
1.03674
1.08827
0.981214
2.65916
3.93662
9.55619
9.99394
9.72526
9.42411
9.3982
9.45257
9.58235
9.71916
9.82245
9.90917
9.99399
10.0795
10.1638
10.2455
10.324
10.3993
10.4709
10.5383
10.6013
10.6594
10.7126
10.7599
10.8007
10.8347
10.8578
10.8768
1
1
1
1
1
1
1
1
1
1.00001
1.00001
1.00003
1.00003
1.00016
1.00014
1.00001
1.00371
1.00995
1.00049
1.03278
1.08059
0.973641
2.61702
3.81355
9.36784
9.95908
9.70536
9.39836
9.36817
9.42198
9.551
9.68726
9.78942
9.87464
9.95785
10.0417
10.1244
10.2045
10.2815
10.3552
10.4252
10.4909
10.5522
10.6088
10.6606
10.7069
10.7471
10.7807
10.8035
10.823
1
1
1
1
1
1
1
1
1
1.00001
1.00001
1.00003
1.00003
1.00017
1.00023
1.0002
1.00256
1.00647
0.998968
1.02915
1.07265
0.966187
2.56847
3.67496
9.14511
9.91651
9.68125
9.36887
9.33413
9.38727
9.51539
9.65098
9.75172
9.83506
9.91624
9.99797
10.0785
10.1565
10.2314
10.303
10.3709
10.4345
10.4937
10.5482
10.5982
10.6429
10.6817
10.7147
10.7371
10.7568
1
1
1
1
1
1
1
1
1
1
1.00001
1.00002
1.00002
1.00015
1.00027
1.00069
1.00137
1.0045
0.996687
1.02472
1.06389
0.958456
2.51381
3.51944
8.88491
9.864
9.65092
9.33464
9.29561
9.34801
9.47499
9.60972
9.70878
9.78982
9.86844
9.94753
10.0254
10.1007
10.1728
10.2418
10.3069
10.3676
10.424
10.4757
10.5231
10.5654
10.6023
10.634
10.6556
10.6756
1
1
1
1
1
1
1
1
1
1
1
1.00002
1.00003
1.00012
1.00021
1.00068
1.00071
1.00261
0.994514
1.02027
1.05499
0.951226
2.45316
3.34755
8.58396
9.79985
9.61284
9.29591
9.2527
9.30398
9.42924
9.56297
9.66023
9.7386
9.81416
9.89
9.9645
10.0363
10.105
10.1704
10.2319
10.289
10.3416
10.3894
10.4328
10.4717
10.5054
10.5347
10.5548
10.5747
1
1
1
1
1
1
1
1
1
1
1
1
1
1.00001
0.999991
1.00006
0.999795
1.00109
0.992757
1.01604
1.04611
0.944805
2.38588
3.15815
8.23807
9.72127
9.56273
9.25587
9.20585
9.25504
9.37715
9.50988
9.60523
9.6807
9.75271
9.82467
9.89514
9.96278
10.0272
10.0879
10.1447
10.1968
10.2441
10.2865
10.3245
10.3579
10.3865
10.4116
10.4287
10.4484
1
1
1
1
1
1
1
1
1
1
0.999998
0.999998
0.999983
0.999984
0.999988
0.99957
0.999017
0.999881
0.991623
1.01261
1.03843
0.940588
2.31438
2.953
7.84695
9.62143
9.4936
9.21761
9.15652
9.2022
9.31908
9.45045
9.54369
9.61569
9.68355
9.75094
9.81653
9.87909
9.938
9.99315
10.0438
10.0894
10.1297
10.1645
10.1941
10.2192
10.2395
10.2572
10.2686
10.2863
1
1
1
1
1
1
1
1
1
1
1
1.00001
1
1.00003
1.0001
0.998932
0.997605
0.998176
0.988978
1.00654
1.02546
0.925993
2.25407
2.70759
7.43454
9.49088
9.40133
9.17114
9.10603
9.14791
9.25796
9.38556
9.47557
9.54361
9.60684
9.66894
9.72863
9.78477
9.83687
9.88473
9.92767
9.96464
9.99537
10.0196
10.0375
10.0495
10.0557
10.0597
10.0597
10.0722
1
1
1
1
1
1
1
1
1
1
1
1
0.999999
1
1.00001
1.00008
1.00019
1.00196
0.996733
0.998258
1.00889
0.930504
2.21364
2.21052
7.09005
9.35343
9.29707
9.11146
9.05172
9.09135
9.19664
9.31737
9.40226
9.46529
9.52311
9.57886
9.63149
9.68006
9.72392
9.76266
9.79543
9.82118
9.83907
9.8486
9.84835
9.84149
9.82418
9.80215
9.77716
9.77463
1
1
1
1
1
1
1
1
1
1
1
1.00002
1.00002
1.0001
1.00009
1.00056
1.00095
1.00306
1.00254
1.011
1.00119
0.997524
1.98097
2.27405
6.31454
9.18652
9.20173
9.07251
9.00515
9.04
9.13563
9.24887
9.32695
9.38395
9.43465
9.48274
9.52677
9.5661
9.59969
9.62702
9.647
9.65823
9.65836
9.64946
9.62531
9.58458
9.5277
9.45796
9.37702
9.32488
1
1
1
1
1
1
1
1
1
1.00001
1.00001
1.00005
1.00005
1.0003
1.00032
1.00178
1.00286
1.0103
1.00797
1.03381
1.06566
1.0203
1.80567
1.95547
5.49587
9.03992
9.20228
9.07009
8.97596
9.00173
9.07951
9.18076
9.25045
9.29972
9.34213
9.38118
9.41572
9.44398
9.4653
9.47895
9.48236
9.47663
9.45701
9.417
9.35617
9.26984
9.14912
8.98874
8.77869
8.55097
1
1
1
1
1
1
1
1
1
1
1.00001
1.00001
1.00006
1.00007
1.00031
1.00041
1.00165
1.00287
1.01086
1.01448
1.07333
1.07388
1.57516
1.56911
4.58899
8.53596
9.18374
9.0855
8.9711
8.97529
9.01616
9.10015
9.16204
9.20229
9.23336
9.25986
9.28083
9.29422
9.29883
9.29501
9.28002
9.24662
9.19198
9.11292
9.00101
8.84092
8.60702
8.24398
7.62278
6.27627
1
1
1
1
1
1
1
1
1
1
1.00001
1.00001
1.00006
1.00006
1.0003
1.00031
1.00164
1.0018
1.00881
1.01343
1.05004
1.08342
1.38105
1.47668
3.68912
7.21887
9.08804
9.13564
9.03746
8.94808
8.95432
8.98798
9.04251
9.07946
9.10133
9.11504
9.12167
9.11972
9.10954
9.08381
9.03687
8.97071
8.87981
8.75535
8.5833
8.34168
7.99254
7.47491
6.70945
5.45275
1
1
1
1
1
1
1
1
1
1
1.00001
1.00001
1.00004
1.00004
1.00019
1.00021
1.00108
1.00119
1.00582
1.00615
1.0327
1.05331
1.23694
1.25204
2.74056
4.88637
8.84758
9.34229
9.20527
8.95538
8.88344
8.89067
8.91456
8.94306
8.9579
8.95909
8.95504
8.94062
8.90767
8.85424
8.78314
8.68911
8.5645
8.39977
8.18005
7.88651
7.49062
6.95854
6.28841
5.43085
1
1
1
1
1
1
1
1
1
1
1
1.00001
1.00001
1.00003
1.00003
1.00011
1.00004
0.99976
1.00517
1.01269
1.00488
1.03546
1.08007
0.985602
2.45334
3.37115
8.1703
9.27839
9.15156
8.89104
8.74556
8.73431
8.74679
8.77452
8.78987
8.78806
8.77726
8.74925
8.6941
8.62201
8.53219
8.41652
8.26786
8.0774
7.83515
7.52707
7.14387
6.66466
6.11146
5.45797
1
1
1
1
1
1
1
1
1
1
1
1
1
1.00001
1
1.00005
1.00016
0.998402
0.995998
0.996506
0.977575
0.989392
0.996289
0.888089
2.23424
2.34102
6.98778
8.94903
8.89723
8.70993
8.53488
8.51981
8.53849
8.57942
8.60159
8.59933
8.58506
8.5474
8.47745
8.39274
8.28958
8.16027
7.99874
7.79918
7.55503
7.25966
6.90818
6.49795
6.03652
5.51016
1
1
1
1
1
1
1
1
1
1
1
1
1.00001
1.00001
1.00006
1.00006
1.00036
1.00039
1.00196
1.00279
1.00981
1.0156
1.07447
1.05926
1.77217
1.8543
5.33217
8.48546
8.7504
8.61218
8.41044
8.36584
8.3785
8.40959
8.4252
8.4203
8.39904
8.34775
8.26715
8.17365
8.06194
7.92572
7.76007
7.5613
7.3259
7.0506
6.73403
6.37574
5.98657
5.55022
1
1
1
1
1
1
1
1
1
1
1
1
1.00001
1.00001
1.00004
1.00005
1.00023
1.00032
1.00112
1.00173
1.00751
0.998948
1.02464
1.05762
0.974252
2.31718
2.99713
7.46172
8.66237
8.58558
8.40864
8.28586
8.27012
8.2783
8.28178
8.27123
8.23648
8.16283
8.07333
7.97338
7.8567
7.71823
7.55387
7.36101
7.13798
6.8832
6.59682
6.27881
5.93612
5.55503
1
1
1
1
1
1
1
1
1
1
1
1
1.00001
1.00001
1.00001
1.00014
1.00037
1.00041
1.00243
1.0035
1.01298
1.01081
1.04196
1.08138
1.03858
1.86268
2.03798
5.58012
8.2785
8.49204
8.37412
8.19692
8.14163
8.1411
8.13692
8.11766
8.07053
7.99131
7.89809
7.79316
7.6739
7.53563
7.37561
7.19122
6.98104
6.74509
6.48464
6.20038
5.89584
5.56018
1
1
1
1
1
1
1
1
1
1
1
1
1
1.00001
1.00001
1.00006
1.00006
1.0003
1.00037
1.0017
1.00234
1.00887
1.01416
1.06074
1.04748
1.48903
1.42083
4.0015
7.22065
8.29243
8.28173
8.19024
8.07704
8.03325
8.01001
7.97265
7.91331
7.83573
7.74464
7.64222
7.52381
7.38564
7.22732
7.04858
6.85163
6.63451
6.396
6.13686
5.86256
5.56202
1
1
1
1
1
1
1
1
1
1
1
1
1
1.00001
1.00001
1.00004
1.00004
1.00023
1.00027
1.00122
1.00131
1.00648
1.00822
1.03327
1.05421
1.24688
1.23978
2.79091
4.9725
7.72456
8.25451
8.20563
8.07989
7.97481
7.91017
7.85211
7.78412
7.70293
7.61019
7.50569
7.38768
7.25432
7.10508
6.93554
6.74672
6.54114
6.32207
6.0878
5.84028
5.56794
1
1
1
1
1
1
1
1
1
1
1
1
1
1
1.00001
1.00002
1.00008
1.00008
1.00042
1.00051
1.00223
1.00342
1.01306
1.0068
1.03251
1.06696
0.990672
2.20049
2.64933
6.45648
8.0555
8.15497
8.0698
7.90219
7.7908
7.71734
7.64878
7.57175
7.48397
7.38375
7.26997
7.1418
6.99853
6.84064
6.66888
6.4781
6.26854
6.04601
5.81659
5.57013
1
1
1
1
1
1
1
1
1
1
1
1
1
1
1
1.00002
1.00002
1.00008
1.00008
1.00039
1.00039
1.00219
1.00272
1.01325
1.01716
1.07671
1.1204
1.59251
1.78485
4.14616
7.36906
8.03456
7.99019
7.84798
7.68432
7.58492
7.51844
7.45234
7.37317
7.28007
7.17218
7.04977
6.913
6.7619
6.59694
6.41798
6.22852
6.02586
5.81109
5.57523
1
1
1
1
1
1
1
1
1
1
1
1
1
1
1
1.00001
1.00001
1.00005
1.00006
1.00029
1.00031
1.00159
1.00227
1.00891
1.00475
1.02363
1.04029
0.975825
2.0894
2.02591
5.91819
7.66596
7.82174
7.74087
7.57395
7.46094
7.39727
7.3429
7.27757
7.19378
7.09334
6.9774
6.84664
6.70163
6.54328
6.37264
6.19088
5.99851
5.79817
5.58141
1
1
1
1
1
1
1
1
1
1
1
1
1
1
1
1
1.00001
1.00001
1.00006
1.00008
1.0003
1.00044
1.0016
1.00221
1.00983
1.01454
1.06094
1.09005
1.44574
1.56256
3.56044
6.50532
7.52616
7.60304
7.55091
7.4444
7.3568
7.28635
7.21575
7.13209
7.03348
6.91921
6.79101
6.65144
6.4996
6.33627
6.16233
5.97855
5.78733
5.58048
1
1
1
1
1
1
1
1
1
1
1
1
1
1
1
1
1.00001
1.00001
1.00003
1.00003
1.00017
1.00022
1.00091
1.00098
1.00338
1.00674
1.00098
1.08287
1.19126
1.19643
2.34614
3.7886
6.68069
7.49121
7.54127
7.49202
7.3854
7.29212
7.20112
7.10884
7.00614
6.8865
6.75198
6.60812
6.4555
6.29672
6.1312
5.95706
5.77651
5.58025
1
1
1
1
1
1
1
1
1
1
1
1
1
1
1
1
1
1.00001
1.00001
1.00004
1.00005
1.00023
1.00025
1.00133
1.00135
1.00699
1.00847
1.03829
1.06211
1.26109
1.23075
2.6915
4.45454
6.8555
7.45737
7.47174
7.42411
7.31658
7.19542
7.08337
6.96711
6.84214
6.71119
6.57238
6.42373
6.26592
6.10125
5.93164
5.75985
5.57842
1
1
1
1
1
1
1
1
1
1
1
1
1
1
1
1
1
1
1.00001
1.00001
1.00005
1.00006
1.00029
1.0003
1.00159
1.00147
1.00899
1.01233
1.04838
1.05932
1.3551
1.36383
2.9691
5.11562
6.9222
7.36677
7.36357
7.2985
7.17528
7.03821
6.90875
6.78087
6.64984
6.51341
6.37141
6.22547
6.07606
5.92001
5.7582
5.58186
1
1
1
1
1
1
1
1
1
1
1
1
1
1
1
1
1
0.999999
0.999997
0.999997
0.999981
0.999972
0.99987
0.99993
0.999703
0.999119
1.00801
1.01918
1.0145
1.04792
1.08977
1.02211
2.12394
2.50955
5.57111
6.97326
7.22399
7.20215
7.12783
6.96956
6.82707
6.70189
6.58088
6.45645
6.32671
6.19127
6.05099
5.9076
5.75956
5.59601
1
1
1
1
1
1
1
1
1
1
1
1
1
1
1
1
1
1
1
1
1.00001
1.00001
1.00007
1.00007
1.00039
1.0004
1.00208
1.00299
1.01049
1.01678
1.06776
1.05046
1.54872
1.51338
3.44372
5.77996
6.83954
7.04392
7.01156
6.91587
6.77277
6.64332
6.52627
6.413
6.29733
6.17695
6.05119
5.91448
5.77371
5.62786
1
1
1
1
1
1
1
1
1
1
1
1
1
1
1
1
1
1
1
1
1
1.00001
1.00002
1.00004
1.00015
1.0002
1.00087
1.00103
1.005
1.00524
1.0264
1.03944
1.17751
1.12826
2.23118
3.08069
5.87405
6.75205
6.9077
6.87554
6.78887
6.65594
6.53208
6.41633
6.30074
6.18296
6.06228
5.93781
5.81355
5.69429
1
1
1
1
1
1
1
1
1
1
1
1
1
1
1
1
1
1
1
1
1
1.00001
1.00001
1.00003
1.00004
1.00018
1.00019
1.00099
1.001
1.00584
1.00566
1.03063
1.04775
1.19744
1.16833
2.23852
3.1952
5.77533
6.65177
6.80784
6.78116
6.70602
6.56555
6.44231
6.32602
6.21297
6.10253
5.99849
5.90453
5.83121
1
1
1
1
1
1
1
1
1
1
1
1
1
1
1
1
1
1
1
1
1
1
1.00001
1.00001
1.00004
1.00005
1.00021
1.00023
1.00106
1.00135
1.00601
1.00777
1.03472
1.04928
1.21065
1.20116
2.19992
3.31132
5.68737
6.5604
6.728
6.70487
6.63798
6.50939
6.38732
6.28304
6.19656
6.13093
6.10062
6.11176
1
1
1
1
1
1
1
1
1
1
1
1
1
1
1
1
1
1
1
1
1
1
1
1
1.00001
1.00002
1.00002
1.00007
1.00002
0.999817
1.00286
1.00663
1.00288
1.01502
1.02471
0.975605
1.69138
1.67259
3.61244
5.71327
6.49075
6.6451
6.63059
6.58005
6.48481
6.42352
6.39599
6.40616
6.44975
6.54922
1
1
1
1
1
1
1
1
1
1
1
1
1
1
1
1
1
1
1
1
1
1
1
1
1
1.00001
1.00003
1.00003
1.00014
1.00017
1.00001
1.00206
1.00184
1.01195
1.03218
1.04048
1.03608
1.65563
1.69966
3.57322
5.67531
6.42203
6.61087
6.67346
6.69154
6.73179
6.80771
6.95036
7.15772
7.43208
1
1
1
1
1
1
1
1
1
1
1
1
1
1
1
1
1
1
1
1
1
1
1
1
1
1.00001
1.00001
1.00004
1.00004
1.00021
1.00021
1.00125
1.00126
1.00649
1.00641
1.03441
1.04302
1.22396
1.20946
2.19753
3.39322
5.53054
6.47215
6.89491
7.17427
7.41986
7.69129
8.047
8.40892
8.68625
1
1
1
1
1
1
1
1
1
1
1
1
1
1
1
1
1
1
1
1
1
1
1
1
1
1
1
1.00001
1.00002
1.00002
1.00005
0.999975
0.999772
1.00301
1.00748
1.00346
1.01597
1.02665
0.975111
1.69675
1.67003
3.66088
5.89711
7.38051
8.27179
8.88365
9.34014
9.60046
9.62891
9.58726
1
1
1
1
1
1
1
1
1
1
1
1
1
1
1
1
1
1
1
1
1
1
1
1
1
1
1
1.00001
1.00001
1.00004
1.00005
1.00023
1.00026
1.00116
1.00174
1.00586
1.00737
1.03048
1.04222
1.00087
1.81393
1.85194
4.69629
8.29718
10.5144
10.9277
10.8328
10.5761
10.1502
9.78472
1
1
1
1
1
1
1
1
1
1
1
1
1
1
1
1
1
1
1
1
1
1
1
1
1
1
1
1
1.00001
1.00001
1.00003
1.00004
1.00001
1.00053
1.001
1.00151
1.00375
0.994166
1.02358
1.06982
0.974244
2.63093
3.74095
9.88139
11.5376
11.294
10.7629
10.3187
9.95485
9.64816
1
1
1
1
1
1
1
1
1
1
1
1
1
1
1
1
1
1
1
1
1
1
1
1
1
1
1
1
1
1.00001
1.00001
1.00003
1.00005
1.00012
0.999093
0.997527
0.997904
0.978371
1.00259
1.04148
0.936874
2.67469
3.93536
10.5818
11.128
10.6888
10.1262
9.7718
9.57184
9.42509
1
1
1
1
1
1
1
1
1
1
1
1
1
1
1
1
1
1
1
1
1
1
1
1
1
1
1
1
1
1.00002
1.00002
1.0001
1.00012
1.00044
1.0007
1.0015
1.00753
1.00945
1.04919
1.09098
1.40803
1.65856
4.55914
9.48753
10.999
10.6397
10.0105
9.67733
9.53676
9.44052
1
1
1
1
1
1
1
1
1
1
1
1
1
1
1
1
1
1
1
1
1
1
1
1
1
1
1
1
1
1.00001
1.00001
1.00003
1.00002
0.999926
0.999819
0.998224
0.997931
0.981356
0.989848
1.01927
0.918846
2.59098
3.58133
10.1694
10.9221
10.4299
9.84123
9.57233
9.48581
9.43287
1
1
1
1
1
1
1
1
1
1
1
1
1
1
1
1
1
1
1
1
1
1
1
1
1
1
1
1
1
1.00001
1.00002
1.00006
1.00007
1.00021
1.00046
1.0003
1.00137
0.991964
0.998295
1.02141
0.917061
2.5656
3.18797
9.87195
10.875
10.3926
9.8063
9.54076
9.46008
9.41877
1
1
1
1
1
1
1
1
1
1
1
1
1
1
1
1
1
1
1
1
1
1
1
1
1
1
1
1
1
1.00001
1.00001
1.00004
1.00003
1.00022
1.00033
1.00009
0.99917
0.989557
0.999693
0.981093
0.938344
2.38103
2.88167
9.5177
10.8916
10.4152
9.81121
9.53378
9.45225
9.4184
1
1
1
1
1
1
1
1
1
1
1
1
1
1
1
1
1
1
1
1
1
1
1
1
1
1
1
1
1
1.00001
1.00002
1.00006
1.00009
1.00031
1.00058
1.00104
1.00517
1.00195
1.01085
0.983136
0.859506
2.39819
2.60466
9.15359
10.9957
10.4713
9.81979
9.52716
9.44822
9.4284
1
1
1
1
1
1
1
1
1
1
1
1
1
1
1
1
1
1
1
1
1
1
1
1
1
1
1
1
1
1
1.00003
1.00011
1.00013
1.00078
1.00086
1.00488
1.00686
1.02522
1.0337
1.03051
1.32382
1.23546
3.62703
7.09357
11.2341
10.8451
10.0437
9.64288
9.51545
9.48611
1
1
1
1
1
1
1
1
1
1
1
1
1
1
1
1
1
1
1
1
1
1
1
1
1
1
1
1
1
1
1.00003
1.00007
1.0001
1.00056
1.00062
1.00388
1.00566
1.02728
1.01508
1.0715
1.18156
1.12419
3.16137
5.89041
11.4345
10.9895
10.0915
9.64529
9.50755
9.48529
1
1
1
1
1
1
1
1
1
1
1
1
1
1
1
1
1
1
1
1
1
1
1
1
1
1
1
1
1
1.00001
1.00001
1.00009
1.00009
1.00064
1.00069
1.00423
1.00627
1.02853
1.01799
1.07909
1.19258
1.15202
3.14047
5.90586
11.2715
10.9028
10.0974
9.68508
9.55135
9.52286
1
1
1
1
1
1
1
1
1
1
1
1
1
1
1
1
1
1
1
1
1
1
1
1
1
1
1
1
1
1.00001
1.00001
1.00007
1.00007
1.00035
1.00042
1.00231
1.00302
1.01412
1.02101
1.08623
1.06132
1.97268
2.08248
7.44398
10.7951
10.4302
9.82969
9.55728
9.46897
9.45231
1
1
1
1
1
1
1
1
1
1
1
1
1
1
1
1
1
1
1
1
1
1
1
1
1
1
1
1
1
1.00001
1.00001
1.00005
1.00005
1.00024
1.00039
1.00175
1.00155
1.01241
1.01524
1.08008
1.03492
1.91742
2.02841
6.86077
10.8114
10.5274
9.91979
9.58976
9.46161
9.43477
1
1
1
1
1
1
1
1
1
1
1
1
1
1
1
1
1
1
1
1
1
1
1
1
1
1
1
1
1
1.00001
1.00001
1.00007
1.00007
1.0004
1.00041
1.00218
1.00235
1.01254
1.01972
1.08193
1.04442
1.91773
2.00263
6.911
10.9676
10.6379
9.95061
9.57143
9.41661
9.38925
2.53918
2.5453
3.57048
3.30891
3.0207
2.88431
2.81706
2.74453
2.67603
2.62834
2.59532
2.56628
2.53645
2.50729
2.4906
2.48347
2.48149
2.48372
2.50396
2.5504
2.63213
2.75165
2.9039
3.07756
3.26052
3.4428
3.61222
3.76201
3.89204
4.00434
4.10268
4.18705
4.25806
4.31697
4.36573
4.40501
4.44068
4.46846
4.48466
4.49392
4.4963
4.49493
4.48922
4.47696
4.45864
4.43771
4.41346
4.38685
4.35711
4.32513
4.29072
4.25438
4.21594
4.1761
4.13439
4.09157
4.04716
4.00187
3.95552
3.90848
3.86071
3.81254
3.76394
3.7152
3.66622
3.61721
3.56817
3.51926
3.47053
3.42208
3.37396
3.32629
3.27912
3.2325
3.18649
3.14114
3.09648
3.05251
3.00926
2.96667
2.92478
2.88349
2.84286
2.80279
2.76335
2.72442
2.68613
2.6484
2.61126
2.57459
2.53854
2.50298
2.46813
2.43388
2.40055
2.3682
2.33744
2.30904
2.28446
2.26833
3.34693
3.35205
3.54117
3.29834
3.00056
2.92285
2.85743
2.77084
2.67204
2.61405
2.58286
2.56006
2.53519
2.51031
2.49256
2.48458
2.48243
2.48538
2.50318
2.54474
2.62199
2.73919
2.89083
3.06365
3.24271
3.4226
3.59057
3.74188
3.87389
3.98512
4.08773
4.17333
4.24511
4.30439
4.3535
4.39404
4.42927
4.45669
4.47437
4.48421
4.48722
4.48618
4.48162
4.47053
4.45113
4.42955
4.40561
4.37917
4.3498
4.31801
4.28391
4.24786
4.20988
4.1704
4.12924
4.08671
4.04275
3.99771
3.95173
3.90496
3.85758
3.80957
3.76123
3.71273
3.66392
3.61508
3.5662
3.51744
3.46885
3.42051
3.37251
3.32495
3.27784
3.23129
3.18533
3.14001
3.09537
3.05141
3.00816
2.96557
2.92367
2.88239
2.84175
2.80174
2.76238
2.72357
2.68535
2.64758
2.61044
2.57379
2.53781
2.50231
2.46753
2.43333
2.40005
2.3677
2.33689
2.30834
2.28336
2.26669
4.22737
3.84016
3.63696
3.32726
3.02932
2.89149
2.80887
2.73911
2.66412
2.61717
2.59328
2.57051
2.54043
2.51504
2.49574
2.48227
2.47749
2.47711
2.49061
2.52908
2.60202
2.71351
2.85971
3.02971
3.20579
3.3978
3.56851
3.72198
3.85434
3.96842
4.06903
4.15536
4.22833
4.28925
4.33967
4.3812
4.41577
4.44285
4.46128
4.47171
4.47509
4.47424
4.47054
4.46117
4.44228
4.41954
4.39518
4.36895
4.34017
4.30878
4.27507
4.2393
4.20167
4.16236
4.12132
4.0792
4.03581
3.99101
3.94553
3.89922
3.85242
3.80455
3.75656
3.70883
3.66012
3.61178
3.56312
3.51459
3.46625
3.41806
3.37029
3.32281
3.27587
3.22938
3.18351
3.13823
3.09368
3.04974
3.00657
2.96394
2.9221
2.88086
2.84036
2.80036
2.76104
2.72223
2.68407
2.64636
2.60932
2.57275
2.53687
2.50149
2.46683
2.43278
2.3996
2.36738
2.33657
2.30796
2.28258
2.26515
4.61717
4.10547
3.78437
3.42648
3.11823
2.93465
2.83306
2.74955
2.67305
2.61953
2.58812
2.56432
2.53793
2.51487
2.49725
2.4852
2.48007
2.48228
2.49859
2.52962
2.5909
2.69933
2.84487
3.00603
3.17904
3.35705
3.52555
3.6784
3.81266
3.92912
4.03093
4.11931
4.19496
4.2588
4.31184
4.35547
4.39099
4.41874
4.43831
4.44996
4.45426
4.45368
4.45089
4.44333
4.42714
4.4033
4.37811
4.35163
4.32319
4.29242
4.25939
4.2243
4.18739
4.1488
4.10867
4.0673
4.02451
3.98066
3.93582
3.89017
3.84386
3.7969
3.74948
3.7019
3.65387
3.60582
3.55763
3.50942
3.4615
3.41347
3.36619
3.31863
3.27223
3.22581
3.1801
3.13491
3.09049
3.04658
3.00352
2.96107
2.91934
2.87815
2.83767
2.79774
2.75846
2.71974
2.68164
2.6441
2.60716
2.5708
2.53505
2.49993
2.46544
2.4317
2.39871
2.36681
2.33612
2.30764
2.28197
2.26389
4.82695
4.31165
3.93626
3.59131
3.2762
3.04154
2.89394
2.78774
2.70473
2.64459
2.60757
2.57627
2.54723
2.5227
2.5062
2.49769
2.49805
2.5041
2.5245
2.5708
2.64308
2.7368
2.85556
2.99514
3.14006
3.2937
3.45383
3.60901
3.75032
3.87499
3.98341
4.07656
4.15592
4.22313
4.27915
4.32525
4.36252
4.39156
4.41245
4.4254
4.43072
4.43032
4.42819
4.42224
4.40911
4.38591
4.36018
4.33331
4.30499
4.27467
4.24222
4.20772
4.17138
4.13334
4.09384
4.05302
4.01095
3.96777
3.9237
3.87877
3.83313
3.78692
3.74029
3.69325
3.64595
3.59846
3.55083
3.50303
3.4556
3.408
3.36085
3.31384
3.26741
3.22131
3.17584
3.13086
3.08659
3.04297
2.99998
2.95763
2.91595
2.87489
2.83446
2.79467
2.75547
2.71693
2.67896
2.64167
2.60491
2.56886
2.53335
2.49861
2.46444
2.43115
2.39856
2.36714
2.33678
2.30858
2.28285
2.26469
4.97056
4.48246
4.09209
3.74827
3.43553
3.18274
2.99958
2.86654
2.76842
2.69455
2.64153
2.60083
2.56827
2.54413
2.53243
2.53305
2.53882
2.55779
2.60363
2.69671
2.78848
2.86371
2.93943
3.02497
3.1241
3.21692
3.33768
3.48441
3.63573
3.78129
3.90883
4.01535
4.10304
4.1758
4.23569
4.28474
4.32468
4.35599
4.37896
4.39377
4.40069
4.40052
4.39902
4.39452
4.38432
4.36387
4.33843
4.31121
4.2828
4.25282
4.22101
4.18727
4.15172
4.11447
4.07576
4.03573
3.99448
3.95211
3.90886
3.86476
3.81995
3.77456
3.72869
3.68238
3.6358
3.58889
3.54194
3.49462
3.44778
3.4006
3.35388
3.30727
3.26117
3.21536
3.17018
3.12556
3.08153
3.03805
2.99519
2.95294
2.91131
2.87037
2.83002
2.7904
2.75132
2.71303
2.67524
2.63827
2.6018
2.56616
2.53106
2.49683
2.4632
2.43056
2.39866
2.36789
2.33814
2.31054
2.28509
2.26753
5.06112
4.6227
4.23903
3.89622
3.58902
3.32515
3.11714
2.96285
2.84506
2.75662
2.69051
2.64165
2.60565
2.58429
2.58338
2.58814
2.60612
2.6528
2.75544
2.92467
3.03793
3.08181
3.10556
3.12318
3.14125
3.18195
3.23423
3.31776
3.45243
3.62122
3.78217
3.91946
4.0297
4.11584
4.18347
4.23638
4.27935
4.3131
4.33865
4.35586
4.3652
4.36623
4.36526
4.36196
4.35412
4.33791
4.314
4.28707
4.25858
4.22869
4.19729
4.1642
4.12941
4.09296
4.05505
4.01578
3.97537
3.93389
3.89151
3.8483
3.80441
3.75996
3.71492
3.66943
3.62378
3.57745
3.53133
3.48471
3.43826
3.39174
3.34553
3.29939
3.25375
3.20853
3.16374
3.11943
3.07565
3.0324
2.9897
2.94765
2.90617
2.86544
2.82526
2.78591
2.74708
2.70912
2.67168
2.63513
2.59914
2.56405
2.52957
2.49606
2.46325
2.43142
2.40029
2.37036
2.34152
2.31498
2.29022
2.27416
5.12708
4.7329
4.36968
4.03603
3.73344
3.46774
3.24597
3.06935
2.93383
2.83178
2.75264
2.69529
2.65602
2.64598
2.65007
2.66638
2.71018
2.81036
3.02111
3.26772
3.36963
3.36512
3.34415
3.29272
3.20889
3.18175
3.19395
3.22764
3.29785
3.42209
3.59112
3.76185
3.91082
4.02817
4.11566
4.1801
4.22856
4.2654
4.29287
4.31233
4.32421
4.32772
4.3271
4.32476
4.319
4.30685
4.28589
4.26025
4.23208
4.2023
4.17115
4.13863
4.1046
4.06902
4.03201
3.99364
3.95414
3.91357
3.87211
3.82986
3.7869
3.74337
3.69927
3.65452
3.60982
3.56423
3.51877
3.47293
3.42711
3.38124
3.33563
3.29037
3.24529
3.20055
3.15617
3.11219
3.06864
3.02563
2.98312
2.9413
2.90001
2.85954
2.81961
2.78059
2.74211
2.70459
2.66764
2.63168
2.59635
2.56205
2.52849
2.49602
2.46425
2.43344
2.4035
2.37487
2.34744
2.32258
2.29904
2.28588
5.17738
4.82393
4.4868
4.16505
3.86988
3.60517
3.3766
3.18793
3.03441
2.91602
2.82608
2.76107
2.72657
2.72867
2.74124
2.77899
2.86923
3.06185
3.4398
3.69616
3.72503
3.69951
3.62544
3.47209
3.31878
3.21909
3.19296
3.20361
3.23623
3.30201
3.40695
3.55555
3.72716
3.88352
4.00768
4.09926
4.16418
4.20964
4.24154
4.26366
4.27768
4.28407
4.28386
4.28251
4.27868
4.27023
4.25327
4.22989
4.20285
4.17366
4.14287
4.11085
4.07752
4.0428
4.00669
3.9693
3.93075
3.89113
3.85064
3.80943
3.7674
3.72463
3.68175
3.63774
3.5939
3.54923
3.50445
3.45944
3.41444
3.36957
3.32479
3.28012
3.23567
3.19144
3.14748
3.1039
3.06069
3.01805
2.97585
2.9344
2.89344
2.85338
2.81386
2.77533
2.7374
2.70051
2.66432
2.6292
2.59487
2.5617
2.52936
2.49794
2.46738
2.438
2.40981
2.38314
2.35782
2.33556
2.31402
2.30549
5.21379
4.89201
4.58482
4.28234
3.99566
3.7343
3.50336
3.30611
3.14246
3.01134
2.9119
2.84184
2.82914
2.83751
2.86879
2.94912
3.12821
3.49962
3.95416
4.10758
4.0887
4.02052
3.86705
3.64318
3.45574
3.32199
3.24287
3.22369
3.23147
3.25957
3.31835
3.40203
3.52152
3.68225
3.83656
3.96687
4.0651
4.13354
4.17895
4.20802
4.22604
4.23535
4.2364
4.23565
4.23313
4.22719
4.21487
4.19478
4.17018
4.1425
4.11257
4.08112
4.0485
4.01457
3.97936
3.94293
3.90542
3.86683
3.82734
3.78694
3.7461
3.70423
3.66213
3.61915
3.5759
3.53217
3.48824
3.44423
3.40024
3.35627
3.31232
3.2684
3.22458
3.18093
3.13749
3.09441
3.05166
3.00947
2.96775
2.92676
2.88633
2.84679
2.80792
2.77005
2.73294
2.69695
2.66183
2.62795
2.59506
2.5632
2.53214
2.50229
2.4736
2.44635
2.4206
2.39666
2.3745
2.35586
2.33814
2.33592
5.24904
4.9485
4.65786
4.37565
4.10609
3.85286
3.62344
3.42259
3.25261
3.1158
3.01268
2.96001
2.9649
2.98951
3.05941
3.22099
3.5613
4.13297
4.4516
4.44635
4.40126
4.28352
4.04363
3.80638
3.61225
3.46381
3.35968
3.29601
3.27254
3.27624
3.29436
3.33687
3.39708
3.49196
3.62839
3.77689
3.9102
4.01498
4.08926
4.13734
4.16635
4.18195
4.18664
4.18612
4.18425
4.17984
4.17069
4.15455
4.13341
4.10833
4.08016
4.04972
4.01783
3.98467
3.95032
3.91484
3.87831
3.84052
3.80233
3.76289
3.72286
3.68198
3.64058
3.59856
3.55609
3.51339
3.4706
3.42769
3.3847
3.34163
3.29849
3.25534
3.21222
3.16924
3.12645
3.08399
3.04189
3.00031
2.95926
2.91892
2.87926
2.84049
2.80256
2.76568
2.72979
2.69513
2.66165
2.62931
2.5978
2.56752
2.5385
2.51098
2.4851
2.46091
2.43869
2.4186
2.4012
2.38691
2.37812
2.3793
5.27131
4.99377
4.72442
4.45493
4.19386
3.95108
3.73168
3.53586
3.36748
3.2346
3.14165
3.13718
3.15476
3.21626
3.36556
3.68192
4.27768
4.69479
4.76739
4.73371
4.63308
4.42571
4.18458
3.96902
3.78833
3.6401
3.52026
3.42762
3.36325
3.32443
3.31952
3.32651
3.3499
3.3953
3.46483
3.57421
3.7087
3.84016
3.95008
4.0311
4.08456
4.11572
4.13075
4.13235
4.13137
4.12844
4.12208
4.10956
4.09215
4.07043
4.04467
4.01608
3.98535
3.95303
3.91956
3.88477
3.84933
3.81262
3.77517
3.73678
3.69765
3.65772
3.61695
3.5759
3.53455
3.493
3.45127
3.40943
3.3674
3.32527
3.283
3.24072
3.19844
3.15629
3.11432
3.07268
3.03142
2.99069
2.95056
2.91117
2.8726
2.83498
2.79842
2.76303
2.72897
2.69615
2.66428
2.63355
2.60428
2.57649
2.55054
2.52638
2.50432
2.4844
2.46698
2.45231
2.44118
2.43344
2.43398
2.43711
5.29831
5.02899
4.77337
4.5205
4.27485
4.04314
3.82948
3.64216
3.49006
3.37906
3.34809
3.36386
3.42248
3.56704
3.87437
4.45436
4.8973
5.00968
4.98728
4.90981
4.74503
4.53096
4.325
4.13959
3.97486
3.82844
3.69914
3.58773
3.4953
3.42312
3.37523
3.3482
3.34974
3.36103
3.38742
3.43864
3.52022
3.63922
3.76251
3.8744
3.96211
4.02227
4.05766
4.07397
4.0749
4.07365
4.06974
4.06125
4.04725
4.02824
4.00527
3.97904
3.95005
3.91901
3.88665
3.85287
3.81821
3.78252
3.746
3.70858
3.67025
3.63113
3.59159
3.5516
3.51133
3.47092
3.43024
3.38946
3.34845
3.30735
3.2661
3.22486
3.1836
3.1425
3.10158
3.06102
3.02088
2.98131
2.94245
2.90441
2.86739
2.83146
2.79692
2.76368
2.73152
2.70037
2.67086
2.64286
2.61686
2.59281
2.571
2.55143
2.53445
2.52015
2.50876
2.50122
2.49696
2.49763
2.50041
2.5084
5.31063
5.0612
4.81934
4.57469
4.34311
4.1274
3.93223
3.76827
3.6447
3.60126
3.61681
3.67732
3.82651
4.14179
4.68564
5.09756
5.19926
5.18171
5.11985
4.98809
4.81247
4.63729
4.47188
4.31468
4.16425
4.02054
3.88502
3.76022
3.64816
3.55121
3.47162
3.4123
3.37376
3.36004
3.36393
3.37805
3.41048
3.47151
3.56544
3.67901
3.78976
3.88245
3.9498
3.99123
4.01132
4.01355
4.01216
4.00779
3.99831
3.98195
3.96173
3.9379
3.9112
3.88204
3.85105
3.81852
3.78486
3.75015
3.71451
3.67789
3.64042
3.60243
3.56401
3.5253
3.48623
3.447
3.40748
3.36786
3.328
3.2881
3.24806
3.20807
3.16807
3.12828
3.08872
3.04955
3.01091
2.97293
2.93585
2.89974
2.86497
2.83153
2.79927
2.76787
2.73817
2.71004
2.68402
2.66012
2.63861
2.6195
2.60304
2.58927
2.57856
2.571
2.56614
2.56614
2.567
2.56977
2.57586
2.58939
5.3235
5.08348
4.85529
4.63217
4.4153
4.21868
4.05268
3.93095
3.8911
3.90877
3.97653
4.14128
4.48183
4.95537
5.28762
5.35648
5.33985
5.28568
5.17252
5.03378
4.8957
4.76164
4.62738
4.48974
4.34872
4.20692
4.06699
3.93245
3.80608
3.69168
3.5905
3.50516
3.43763
3.38968
3.36058
3.36085
3.36474
3.38101
3.41954
3.49381
3.59226
3.69819
3.7934
3.86759
3.91654
3.94165
3.94765
3.94635
3.94189