/*--------------------------------*- C++ -*----------------------------------*\
| =========                 |                                                 |
| \\      /  F ield         | OpenFOAM: The Open Source CFD Toolbox           |
|  \\    /   O peration     | Version:  2412                                  |
|   \\  /    A nd           | Website:  www.openfoam.com                      |
|    \\/     M anipulation  |                                                 |
\*---------------------------------------------------------------------------*/
FoamFile
{
    version     2.0;
    format      ascii;
    arch        "LSB;label=32;scalar=64";
    class       surfaceScalarField;
    location    "4";
    object      phi;
}
// * * * * * * * * * * * * * * * * * * * * * * * * * * * * * * * * * * * * * //

dimensions      [1 0 -1 0 0 0 0];

oriented        oriented;

internalField   nonuniform List<scalar> 
13790
(
0.00290515
-1.75727e-14
0.00290515
1.07337e-12
0.00290515
2.1398e-12
0.00290515
8.62901e-12
0.00290515
1.51066e-11
0.00290515
5.38875e-11
0.00290515
9.25022e-11
0.00290515
3.23862e-10
0.00290515
5.61614e-10
0.00290515
1.95152e-09
0.00290515
3.19312e-09
0.00290514
1.16248e-08
0.00290512
1.58893e-08
0.00290505
6.73132e-08
0.00290494
1.15126e-07
0.00290447
5.01368e-07
0.00290355
3.25162e-07
0.00290756
3.19819e-07
0.002903
1.81146e-07
0.00290319
2.68092e-07
0.0029028
5.19452e-07
0.002902
8.0634e-07
0.00289729
4.83306e-06
0.00288238
1.47984e-05
0.00281961
6.25782e-05
0.00275012
6.84876e-05
0.00268104
6.86108e-05
0.00261074
6.99356e-05
0.00253815
7.2285e-05
0.00246247
7.52261e-05
0.002383
7.86978e-05
0.00229832
8.30368e-05
0.00220899
8.7769e-05
0.00211527
9.24163e-05
0.00201645
9.6875e-05
0.00191312
0.000101298
0.00180536
0.000105875
0.0016926
0.000110556
0.00157539
0.000115309
0.00145361
0.000120179
0.00132698
0.000125053
0.0011964
0.000129926
0.001062
0.000134874
0.000923305
0.000139735
0.000780447
0.000144377
0.000632402
0.000148563
0.000480014
0.000152153
0.00032359
0.000154803
0.000162682
0.0001589
0.000161512
0.00301309
-5.90736e-14
0.00301309
1.93206e-12
0.00301309
3.8935e-12
0.00301309
1.57232e-11
0.00301309
2.74498e-11
0.00301309
9.9049e-11
0.00301309
1.65112e-10
0.00301309
6.07079e-10
0.00301309
1.02958e-09
0.00301309
3.86652e-09
0.00301309
5.19682e-09
0.00301308
2.09813e-08
0.00301305
3.6504e-08
0.00301296
1.41825e-07
0.00301276
3.48319e-07
0.00301137
1.97572e-06
0.00301121
-2.70527e-07
0.00301566
4.1159e-07
0.00301118
1.63799e-07
0.00301135
5.58215e-07
0.00301087
1.12995e-06
0.00300989
1.81737e-06
0.00300474
1.00566e-05
0.00298863
3.08283e-05
0.00292238
0.000128666
0.00285095
0.000139002
0.00278045
0.000138775
0.00270858
0.00014148
0.0026335
0.000147077
0.00255485
0.000153408
0.00247201
0.000160748
0.00238384
0.000169586
0.00229109
0.000178971
0.00219393
0.000188294
0.00209147
0.000197369
0.0019843
0.000206408
0.00187251
0.000215749
0.00175551
0.000225296
0.00163385
0.000235005
0.00150739
0.000244973
0.00137582
0.000254966
0.00124008
0.000264962
0.00110032
0.000275086
0.000956105
0.000285002
0.000807573
0.000294465
0.000653678
0.00030298
0.000495265
0.000310308
0.000332367
0.000316016
0.000166513
0.000322695
0.00032683
0.00312505
-1.86051e-13
0.00312505
2.37604e-12
0.00312505
4.84259e-12
0.00312505
1.90624e-11
0.00312505
3.29887e-11
0.00312505
1.18621e-10
0.00312505
2.16709e-10
0.00312505
6.76417e-10
0.00312504
1.25643e-09
0.00312504
6.8385e-09
0.00312503
5.82599e-09
0.00312504
2.64051e-08
0.00312497
4.91072e-08
0.00312498
1.78844e-07
0.00312499
3.3062e-07
0.00312628
7.67212e-07
0.00312465
6.49171e-07
0.00312904
5.2105e-07
0.00312447
7.43303e-07
0.00312387
1.24217e-06
0.00312298
2.08059e-06
0.00312174
3.08147e-06
0.00311618
1.56797e-05
0.0030987
4.82522e-05
0.00303069
0.0001966
0.00295682
0.00021213
0.00288409
0.000211358
0.00281015
0.000215227
0.00273256
0.000224465
0.00265113
0.000234463
0.00256491
0.000246257
0.00247322
0.000259716
0.002377
0.000273717
0.00227637
0.00028771
0.00217031
0.000301494
0.0020594
0.000315302
0.00194367
0.000329577
0.00182251
0.000344177
0.00169644
0.000359065
0.00156529
0.00037438
0.00142872
0.000389763
0.00128772
0.000405166
0.00114247
0.000420749
0.000992509
0.000435991
0.000838014
0.000450523
0.00067792
0.000463587
0.000513137
0.000474817
0.000343763
0.000483643
0.000171959
0.000492393
0.000497584
0.00324116
-9.23345e-15
0.00324116
2.42293e-12
0.00324116
4.80935e-12
0.00324116
1.8795e-11
0.00324116
3.4144e-11
0.00324116
1.18223e-10
0.00324116
1.53518e-10
0.00324116
7.58884e-10
0.00324116
1.00042e-09
0.00324116
2.05257e-09
0.00324116
1.09845e-08
0.00324116
2.80073e-08
0.00324115
4.8173e-08
0.00324123
1.06094e-07
0.00324138
1.83148e-07
0.00324179
2.81836e-07
0.00324267
4.5585e-07
0.00323777
8.49777e-07
0.00324154
9.1989e-07
0.00324072
2.11773e-06
0.00323959
3.18233e-06
0.00323818
4.49369e-06
0.00323258
2.13462e-05
0.00321272
6.80998e-05
0.00314515
0.000264235
0.00306971
0.000287487
0.00299366
0.000287279
0.00291652
0.000292191
0.00283602
0.000304733
0.00275168
0.000318478
0.00266227
0.000335131
0.00256725
0.000353437
0.00246763
0.00037207
0.00236345
0.000390747
0.00225367
0.000409324
0.00213893
0.000428032
0.0020193
0.000447413
0.00189397
0.000467269
0.00176344
0.00048755
0.00162754
0.000508473
0.00148586
0.000529539
0.00133943
0.000550652
0.00118848
0.00057202
0.00103254
0.000592905
0.000871832
0.000612813
0.000705226
0.000630692
0.000533698
0.00064604
0.000357362
0.000658189
0.000178785
0.000668814
0.000675167
0.00336158
2.084e-15
0.00336158
1.24608e-12
0.00336158
2.50637e-12
0.00336158
8.84528e-12
0.00336158
1.5702e-11
0.00336158
4.58747e-11
0.00336158
1.31393e-10
0.00336158
2.80646e-10
0.00336158
6.99417e-10
0.00336158
2.16526e-09
0.00336159
5.05289e-09
0.00336161
1.18306e-08
0.00336162
3.06741e-08
0.00336168
4.58374e-08
0.0033618
6.55387e-08
0.00336209
7.09666e-08
0.00336148
3.41528e-07
0.00336648
6.37812e-07
0.00336203
1.3229e-06
0.00336132
2.70437e-06
0.00336038
4.12647e-06
0.00335905
5.84426e-06
0.00335309
2.74096e-05
0.00333836
8.29029e-05
0.00326655
0.000336379
0.00318763
0.000366755
0.00310808
0.000366913
0.0030278
0.000372284
0.0029445
0.000387868
0.0028574
0.000405719
0.0027647
0.000427494
0.00266599
0.000450764
0.00256273
0.000474032
0.00245505
0.00049742
0.00234175
0.000520895
0.00222335
0.000544676
0.00209981
0.000569339
0.00197031
0.000594644
0.00183524
0.00062058
0.00169434
0.000647389
0.00154737
0.000674433
0.00139538
0.000701608
0.00123852
0.000729109
0.00107626
0.000756057
0.000908817
0.000781701
0.000735207
0.000804743
0.000556443
0.000824483
0.000372625
0.000840158
0.000186487
0.000852749
0.000860471
0.00348648
-1.53896e-14
0.00348648
7.46907e-13
0.00348648
1.10264e-12
0.00348648
5.40937e-12
0.00348648
1.05505e-11
0.00348648
3.32033e-11
0.00348648
7.83897e-11
0.00348648
1.42098e-10
0.00348648
5.06216e-10
0.00348648
2.92505e-10
0.00348649
8.12438e-10
0.0034865
1.02425e-09
0.0034865
2.46975e-09
0.00348657
1.28551e-09
0.00348665
-6.93095e-09
0.00348667
-4.18321e-08
0.00348763
2.49791e-07
0.00348229
7.56709e-07
0.00348638
1.39074e-06
0.00348612
3.23336e-06
0.00348528
4.9623e-06
0.00348405
7.03969e-06
0.00347892
3.27215e-05
0.00346245
9.9546e-05
0.00339007
0.000409424
0.00330958
0.000447819
0.00322784
0.000449175
0.00314542
0.000455047
0.00305929
0.000474142
0.00296893
0.000496043
0.00287238
0.000523341
0.00276997
0.000551667
0.00266327
0.000579655
0.0025523
0.000607885
0.00243547
0.000636338
0.00231332
0.000665252
0.0021858
0.000695376
0.00205191
0.000726381
0.00191219
0.000758187
0.00176644
0.00079119
0.00161399
0.000824644
0.00145596
0.000858215
0.00129277
0.000892236
0.00112394
0.000925575
0.000949628
0.000957514
0.000768475
0.000986318
0.00058169
0.00101091
0.000389687
0.00103025
0.00019511
0.00104517
0.00105445
0.00361602
3.46969e-15
0.00361602
-2.56591e-13
0.00361602
-3.05913e-13
0.00361602
-1.85971e-12
0.00361602
-4.25228e-12
0.00361602
-8.34355e-12
0.00361602
-3.35587e-11
0.00361602
-6.89042e-11
0.00361602
-2.51653e-10
0.00361602
-6.66203e-10
0.00361603
-2.22673e-09
0.00361603
-5.20773e-09
0.0036161
-1.98669e-08
0.00361609
-2.45671e-08
0.00361614
-4.80917e-08
0.00361609
-1.046e-07
0.00361708
2.42757e-07
0.00361128
9.1481e-07
0.00361518
1.68458e-06
0.00361511
3.80583e-06
0.00361439
5.74127e-06
0.0036133
8.08199e-06
0.00360931
3.7013e-05
0.00359126
0.000117927
0.00351701
0.000484751
0.00343585
0.000530179
0.00335237
0.000533688
0.00326754
0.000540314
0.00317853
0.000563157
0.00308448
0.000589599
0.00298514
0.000622136
0.00288017
0.000655915
0.00277037
0.000688899
0.00265573
0.000721973
0.0025351
0.000755507
0.002409
0.000789717
0.00227755
0.000825444
0.00213951
0.000862444
0.00199495
0.000900519
0.00184384
0.000940032
0.00168582
0.000980173
0.00152192
0.00102072
0.00135224
0.00106188
0.0011762
0.00110231
0.000994232
0.00114088
0.000805066
0.00117582
0.000609748
0.00120578
0.000408494
0.00122963
0.000204513
0.00124683
0.00125789
0.00375038
4.56233e-14
0.00375038
-7.98568e-13
0.00375038
-1.4947e-12
0.00375038
-6.09165e-12
0.00375038
-1.02242e-11
0.00375038
-4.19482e-11
0.00375038
-7.89491e-11
0.00375038
-2.75952e-10
0.00375038
-5.38029e-10
0.00375038
-1.84076e-09
0.00375038
-4.43102e-09
0.00375039
-1.11233e-08
0.00375039
-2.0323e-08
0.0037504
-3.52953e-08
0.00375042
-6.68738e-08
0.00375034
-1.37527e-07
0.00375127
3.71066e-07
0.00374466
1.56174e-06
0.00374854
1.9996e-06
0.00374902
4.07586e-06
0.00374849
6.34857e-06
0.00374767
8.79035e-06
0.00374286
4.2208e-05
0.00372967
0.000131638
0.00365301
0.000563199
0.00356693
0.000617792
0.00348144
0.00062039
0.00339467
0.000627813
0.00330318
0.000654884
0.00320657
0.000686113
0.00310451
0.000724122
0.00299657
0.000763263
0.00288373
0.000801249
0.00276578
0.000839365
0.0026414
0.000878136
0.00251134
0.000917897
0.00237569
0.000959597
0.00223333
0.0010028
0.00208439
0.00104737
0.00192833
0.0010939
0.00176461
0.00114129
0.00159433
0.00118918
0.00141778
0.00123793
0.00123435
0.00128601
0.00104407
0.00133229
0.000845875
0.0013742
0.000641031
0.00141012
0.000429722
0.00143884
0.000215365
0.00145898
0.00147226
0.00388972
1.51968e-14
0.00388972
-7.12034e-13
0.00388972
-1.45983e-12
0.00388972
-5.92623e-12
0.00388972
-1.00666e-11
0.00388972
-3.67288e-11
0.00388972
-7.49098e-11
0.00388972
-2.27337e-10
0.00388972
-4.04708e-10
0.00388972
-1.60135e-09
0.00388972
-2.97375e-09
0.00388972
-8.7749e-09
0.00388971
-1.5656e-08
0.00388972
-4.29259e-08
0.00388976
-8.42872e-08
0.0038896
-1.68307e-07
0.00389113
2.7297e-07
0.00388309
1.14586e-06
0.00388983
2.11271e-06
0.00388972
4.67165e-06
0.00388901
7.02502e-06
0.00388806
9.58142e-06
0.00388287
4.78847e-05
0.00387413
0.000141262
0.00379873
0.000640753
0.00370817
0.000709842
0.00361969
0.00071033
0.00353012
0.000718224
0.00343584
0.000749324
0.00333628
0.000785344
0.00323113
0.000828812
0.00311993
0.000873406
0.00300333
0.000916481
0.00288163
0.000959744
0.00275375
0.001004
0.00262039
0.00104952
0.0024812
0.0010975
0.00233442
0.00114742
0.0021804
0.00119895
0.00201905
0.00125282
0.00184957
0.00130795
0.0016729
0.00136379
0.00148928
0.00142081
0.001298
0.00147729
0.00109945
0.00153178
0.000891669
0.001582
0.000676097
0.00162509
0.000453878
0.00165899
0.000227208
0.00168333
0.00169854
0.00403424
8.72257e-15
0.00403424
-5.09669e-13
0.00403424
-1.00437e-12
0.00403424
-4.13552e-12
0.00403424
-6.43172e-12
0.00403424
-2.79682e-11
0.00403424
-3.4083e-11
0.00403424
-1.59899e-10
0.00403424
-2.68796e-10
0.00403424
-6.52321e-10
0.00403424
-1.04714e-09
0.00403424
-4.28443e-09
0.00403423
-9.22076e-09
0.00403422
-3.36982e-08
0.00403423
-7.05145e-08
0.00403405
-1.61263e-07
0.00403531
3.22438e-07
0.00402629
1.39615e-06
0.00403262
2.24001e-06
0.00403357
4.87729e-06
0.00403325
7.4342e-06
0.00403269
9.97686e-06
0.00402891
5.22276e-05
0.00401985
0.000151597
0.0039489
0.000714486
0.0038564
0.000803829
0.00376412
0.000804099
0.00367119
0.000811787
0.00357394
0.00084637
0.00347158
0.000886978
0.00336345
0.000935925
0.00324919
0.000986029
0.00312967
0.00103432
0.00300505
0.00108302
0.00287372
0.00113312
0.00273649
0.00118473
0.00259377
0.00123915
0.00244361
0.00129602
0.00228549
0.00135495
0.00211913
0.00141669
0.00194381
0.00148027
0.0017605
0.00154498
0.00156945
0.00161123
0.00136966
0.00167721
0.00116155
0.00174109
0.000943627
0.00180004
0.000716518
0.0018514
0.000480762
0.00189267
0.000241441
0.0019202
0.00193906
0.00418414
-1.1316e-14
0.00418414
4.83306e-14
0.00418414
1.42355e-13
0.00418414
5.56335e-13
0.00418414
1.24969e-13
0.00418414
3.13336e-12
0.00418414
1.26622e-12
0.00418414
7.36741e-12
0.00418414
3.8691e-11
0.00418414
2.91311e-11
0.00418413
5.14325e-10
0.00418413
3.35298e-10
0.00418408
6.79412e-10
0.00418409
-3.8981e-09
0.00418406
-4.74118e-08
0.00418407
-1.46541e-07
0.00418311
4.0713e-07
0.00418393
1.86107e-06
0.00418226
2.2442e-06
0.0041831
4.90144e-06
0.00418328
7.65325e-06
0.00418346
1.00164e-05
0.00418029
5.58026e-05
0.00417384
0.000159721
0.00410885
0.000783029
0.00401412
0.000899882
0.00391777
0.000902031
0.00382104
0.000909142
0.00372057
0.000946454
0.00361532
0.000991222
0.00350443
0.00104557
0.00338708
0.00110127
0.00326409
0.00115496
0.00313645
0.00120905
0.00300268
0.00126503
0.00286262
0.00132306
0.00271599
0.00138427
0.0025612
0.00144836
0.00239839
0.00151491
0.00222739
0.00158495
0.00204702
0.00165751
0.00185766
0.0017318
0.00165929
0.00180832
0.00145101
0.0018849
0.00123265
0.0019599
0.0010026
0.00202958
0.000762547
0.00209054
0.00051325
0.0021398
0.000257088
0.00217387
0.00219527
0.0043396
-2.29836e-14
0.0043396
5.15142e-13
0.0043396
1.1024e-12
0.0043396
4.41995e-12
0.0043396
7.6859e-12
0.0043396
2.39485e-11
0.0043396
4.58975e-11
0.0043396
1.33993e-10
0.0043396
2.13888e-10
0.0043396
7.92651e-10
0.0043396
1.12603e-09
0.00433959
4.37306e-09
0.00433958
6.98449e-09
0.00433956
1.50157e-08
0.00433952
-2.08383e-09
0.00433957
-1.93949e-07
0.0043395
4.47599e-07
0.0043401
1.23702e-06
0.00433999
2.32989e-06
0.00434011
4.99669e-06
0.00434004
7.77697e-06
0.00433997
9.98284e-06
0.0043381
5.83762e-05
0.00433401
0.000166014
0.00427696
0.000844725
0.00418149
0.000997029
0.0040804
0.00100424
0.00397921
0.00101068
0.00387518
0.00104981
0.00376717
0.00109813
0.00365357
0.00115764
0.00353342
0.00121912
0.00340743
0.00127843
0.00327615
0.00133821
0.00313873
0.00140017
0.0029953
0.00146439
0.00284589
0.00153242
0.00268826
0.00160409
0.00252171
0.00167897
0.00234594
0.00175802
0.00215993
0.00184009
0.00196432
0.00192458
0.00175873
0.00201229
0.00154168
0.00210088
0.00131351
0.00218816
0.0010718
0.00227081
0.00081686
0.00234416
0.000550048
0.00240437
0.000276893
0.00244453
0.00247138
0.00450084
-1.28927e-14
0.00450084
5.17657e-13
0.00450084
1.02988e-12
0.00450084
3.54715e-12
0.00450084
6.58415e-12
0.00450084
2.30042e-11
0.00450084
3.36796e-11
0.00450084
1.38899e-10
0.00450084
2.07547e-10
0.00450084
7.56146e-10
0.00450084
1.4815e-09
0.00450084
4.04352e-09
0.00450085
6.18492e-09
0.00450081
2.37768e-08
0.00450076
5.5604e-08
0.0045005
6.66814e-08
0.00450052
4.12392e-07
0.00450048
1.27978e-06
0.00450058
2.15798e-06
0.00450107
4.76292e-06
0.0045013
7.5906e-06
0.00450163
9.46888e-06
0.0045008
6.00207e-05
0.00450009
0.000169548
0.00445099
0.000899707
0.00435486
0.00109477
0.00424918
0.00111061
0.00414347
0.00111644
0.00403644
0.00115606
0.00392592
0.00120755
0.00381051
0.00127193
0.00368827
0.00133935
0.00356
0.00140392
0.00342692
0.00146948
0.00328693
0.0015377
0.00314041
0.00160846
0.00298739
0.00168361
0.00282634
0.00176297
0.00265671
0.00184617
0.00247735
0.00193491
0.00228681
0.00202779
0.00208535
0.00212368
0.00187261
0.00222356
0.00164697
0.00232552
0.00140746
0.00242784
0.00115181
0.00252552
0.0008813
0.00261323
0.000596358
0.00268698
0.000299494
0.00273873
0.00277001
0.00466806
-1.71968e-14
0.00466806
7.56515e-13
0.00466806
1.42105e-12
0.00466806
5.58375e-12
0.00466806
9.29864e-12
0.00466806
3.46996e-11
0.00466806
6.19366e-11
0.00466806
2.23787e-10
0.00466806
3.81467e-10
0.00466806
1.40956e-09
0.00466806
2.64538e-09
0.00466806
8.82769e-09
0.00466802
1.54605e-08
0.00466802
5.65831e-08
0.00466795
1.22437e-07
0.00466766
3.44547e-07
0.00466738
6.68044e-07
0.00466736
1.29074e-06
0.00466741
1.99726e-06
0.00466813
4.38368e-06
0.00466861
7.14544e-06
0.00466928
8.49639e-06
0.00466974
6.04397e-05
0.00467243
0.000170436
0.00463345
0.000945974
0.00453655
0.00119279
0.00442325
0.00122392
0.00431399
0.00122503
0.00420407
0.00126481
0.00409109
0.00131903
0.00397338
0.00138873
0.00384888
0.00146174
0.00371782
0.00153205
0.00358226
0.00160276
0.00344073
0.00167702
0.0032926
0.00175423
0.00313862
0.001836
0.00297552
0.00192349
0.00280342
0.00201507
0.00262194
0.00211353
0.00242804
0.00221839
0.00222149
0.00232736
0.00200215
0.0024415
0.0017676
0.0025591
0.00151804
0.00267716
0.00124916
0.00279385
0.000959402
0.00290154
0.000651283
0.0029927
0.000329772
0.00305724
0.00309876
0.00484151
-2.29366e-15
0.00484151
1.2574e-13
0.00484151
2.30338e-13
0.00484151
7.6145e-13
0.00484151
1.07151e-12
0.00484151
4.46151e-12
0.00484151
9.34937e-12
0.00484151
3.20367e-11
0.00484151
8.98688e-11
0.00484151
2.62199e-10
0.00484151
7.47412e-10
0.00484151
1.39662e-09
0.00484152
6.46391e-09
0.00484155
1.3886e-08
0.00484164
1.70559e-08
0.00484171
2.44772e-07
0.00484175
5.91458e-07
0.00484182
1.1882e-06
0.00484189
1.74278e-06
0.00484276
3.91508e-06
0.00484314
6.7194e-06
0.0048436
7.59004e-06
0.0048445
6.03187e-05
0.00485028
0.000169033
0.0048242
0.000980813
0.00472591
0.00129063
0.00460164
0.00134666
0.00448806
0.00133644
0.00437459
0.00137678
0.00426022
0.00143223
0.00414229
0.00150641
0.00401901
0.00158463
0.00388805
0.00166112
0.00375069
0.00173793
0.00360679
0.00181817
0.00345592
0.00190194
0.00329921
0.00199059
0.00313516
0.00208525
0.0029616
0.0021861
0.00277897
0.0022936
0.00258465
0.00240967
0.00237624
0.00253258
0.00215244
0.00266302
0.00191111
0.00279841
0.00164947
0.00293824
0.00136607
0.00307638
0.0010581
0.00320738
0.000723963
0.00332386
0.000367056
0.00341086
0.00346501
0.00502139
9.70098e-15
0.00502139
-5.26736e-13
0.00502139
-8.9552e-13
0.00502139
-3.7027e-12
0.00502139
-5.99312e-12
0.00502139
-2.30242e-11
0.00502139
-3.93734e-11
0.00502139
-1.40434e-10
0.00502139
-2.82479e-10
0.00502139
-8.43979e-10
0.0050214
-1.81091e-09
0.0050214
-4.78899e-09
0.00502142
-7.6861e-09
0.00502146
-1.60397e-08
0.00502153
-3.81545e-08
0.00502158
1.50825e-07
0.00502167
4.17236e-07
0.00502202
7.13951e-07
0.00502272
6.48318e-07
0.00502445
2.52374e-06
0.00502411
6.71647e-06
0.00502325
8.63032e-06
0.00503287
5.07638e-05
0.00503176
0.000176154
0.0050342
0.000991114
0.00493313
0.00138952
0.00479992
0.00147498
0.00466395
0.00146699
0.00453895
0.00149793
0.00441892
0.00154964
0.00430048
0.0016243
0.00417876
0.00170647
0.00405097
0.00178749
0.00391728
0.0018698
0.00377698
0.00195636
0.0036294
0.00204687
0.00347454
0.00214324
0.00331102
0.00224687
0.00313766
0.00235711
0.00295336
0.00247622
0.0027572
0.00260305
0.00254828
0.00273881
0.00232267
0.00288628
0.00207715
0.00304163
0.00181017
0.00320378
0.00151279
0.0033726
0.00118237
0.00353537
0.000818346
0.0036852
0.000421573
0.00380385
0.00388518
0.00520796
-6.52194e-15
0.00520796
3.42688e-14
0.00520796
-9.27559e-14
0.00520796
1.27294e-13
0.00520796
-4.26133e-13
0.00520796
1.97531e-12
0.00520796
-3.35718e-13
0.00520796
1.79254e-11
0.00520796
4.92932e-12
0.00520796
1.0222e-10
0.00520796
1.75064e-10
0.00520796
1.08583e-09
0.00520795
-1.51805e-09
0.00520795
-2.24346e-09
0.00520795
7.98359e-09
0.00520824
-3.46241e-07
0.00520953
-9.18927e-07
0.00521061
-1.63312e-06
0.00521562
-4.02097e-06
0.0052223
-2.56036e-06
0.00522533
3.78948e-06
0.00525718
-4.27783e-06
0.00525145
3.79574e-05
0.00521477
0.000222718
0.00525633
0.000964844
0.0051234
0.00151377
0.00496399
0.00162466
0.00481229
0.00161439
0.0046791
0.00162893
0.00455534
0.00167137
0.00443713
0.0017408
0.00431803
0.00182471
0.00419479
0.00190887
0.00406806
0.00199493
0.00393497
0.00208686
0.00379426
0.00218405
0.00364767
0.00228797
0.00349261
0.00240013
0.00332709
0.00252037
0.0031496
0.00265187
0.00295608
0.002794
0.00274802
0.00294445
0.00252338
0.00310863
0.00227704
0.00328554
0.00200366
0.00347602
0.00169908
0.00367543
0.00135177
0.00387989
0.00095157
0.0040821
0.000497003
0.00425475
0.00438042
0.00540147
3.21107e-14
0.00540147
-6.8454e-13
0.00540147
-1.2842e-12
0.00540147
-5.48348e-12
0.00540147
-9.06777e-12
0.00540147
-3.49021e-11
0.00540147
-5.70903e-11
0.00540147
-2.16804e-10
0.00540147
-3.53818e-10
0.00540147
-1.35231e-09
0.00540147
-2.2237e-09
0.00540148
-7.86756e-09
0.00540148
-1.37913e-08
0.00540152
-4.89684e-08
0.00540151
-7.78339e-08
0.00540123
-3.18184e-07
0.00540098
-7.62481e-07
0.00539353
-1.77508e-06
0.00541902
-3.95805e-06
0.00537546
-7.61708e-06
0.00542952
-6.79433e-06
0.00569715
-2.44134e-05
0.00548888
5.75329e-05
0.00567505
7.33574e-05
0.00543218
0.00117758
0.00520398
0.00171486
0.00502161
0.00178157
0.00487722
0.00174624
0.00474999
0.00175373
0.00463555
0.00178651
0.00452698
0.00185019
0.00442053
0.00193337
0.00431008
0.0020208
0.00419539
0.00210932
0.00407738
0.00220518
0.00395145
0.00230855
0.00381624
0.00241972
0.0036713
0.00254092
0.00351675
0.00267111
0.0033515
0.00281431
0.0031715
0.0029709
0.00297278
0.00314065
0.00275512
0.00332404
0.00251728
0.00352053
0.00225365
0.00373746
0.00194359
0.00398356
0.00158003
0.00424071
0.00114991
0.00450797
0.000628493
0.00477114
0.00500642
0.00560216
-8.18293e-14
0.00560216
-9.76693e-13
0.00560216
-1.97658e-12
0.00560216
-7.26281e-12
0.00560216
-1.33601e-11
0.00560216
-4.7368e-11
0.00560216
-7.89109e-11
0.00560216
-3.02899e-10
0.00560216
-5.10727e-10
0.00560216
-1.88687e-09
0.00560216
-3.09221e-09
0.00560216
-1.17559e-08
0.00560217
-1.87192e-08
0.00560217
-7.32522e-08
0.0056023
-1.19735e-07
0.00560226
-4.34709e-07
0.00560233
-8.49812e-07
0.00560292
-2.56033e-06
0.00560026
-3.52972e-06
0.00564681
-9.317e-06
0.00560139
-2.39672e-05
0.00528523
-3.15111e-05
0.00568154
6.5454e-05
0.00485996
0.000126541
0.00545152
0.00128794
0.00529042
0.00193932
0.00511663
0.0019451
0.00495922
0.0018936
0.00483083
0.0018794
0.00472438
0.00189312
0.00462719
0.00195115
0.00453049
0.00203484
0.00442841
0.00212381
0.00432162
0.00221464
0.00421151
0.00231236
0.00409774
0.0024189
0.00398024
0.00253558
0.0038547
0.00266483
0.00371771
0.00280574
0.00356966
0.00295929
0.00340753
0.00313039
0.00323021
0.00331499
0.0030349
0.00351768
0.0028076
0.003746
0.00255121
0.00399182
0.00226381
0.00426899
0.00191031
0.00459104
0.00146019
0.00495355
0.000867674
0.00535965
0.00587098
0.00581031
-4.63644e-13
0.00581031
5.46638e-13
0.00581031
-7.1658e-13
0.00581031
4.05457e-12
0.00581031
-2.4048e-12
0.00581031
2.5708e-11
0.00581031
-1.3565e-11
0.0058103
1.57233e-10
0.00581031
-6.74387e-11
0.0058103
9.54462e-10
0.0058103
-4.65172e-10
0.00581028
5.33944e-09
0.00581028
-2.72421e-09
0.00581015
3.22388e-08
0.00580995
-9.15767e-09
0.00580956
1.87249e-07
0.00580841
1.22761e-07
0.00580446
1.12543e-06
0.00580217
-4.85532e-07
0.00579288
2.30125e-06
0.00575932
-4.43578e-06
0.00575767
-2.14415e-05
0.00577088
6.98803e-05
0.00567131
0.000150284
0.0060058
0.00104742
0.00570606
0.00221938
0.00541624
0.0022192
0.00520509
0.00209627
0.0050465
0.00203602
0.00491922
0.00201925
0.00480283
0.00206721
0.00469514
0.00214314
0.00458823
0.00222783
0.0044819
0.00231695
0.00437526
0.00241522
0.00426783
0.00252355
0.00415901
0.00264232
0.0040477
0.0027747
0.00392866
0.00292219
0.00380316
0.00308148
0.00367162
0.00325827
0.00352203
0.00346089
0.00335047
0.00368565
0.00315822
0.0039353
0.0029378
0.00420987
0.00268566
0.00452076
0.00238203
0.00489158
0.00197859
0.00535165
0.00138289
0.00594902
0.00724919
0.00840003
-3.08644e-14
0.00840003
2.40501e-13
0.00840003
4.78067e-13
0.00840003
2.01028e-12
0.00840003
3.63532e-12
0.00840003
1.31518e-11
0.00840003
2.31166e-11
0.00840003
7.86746e-11
0.00840003
1.68433e-10
0.00840003
4.37004e-10
0.00840002
8.8497e-10
0.00840005
2.83839e-09
0.00840002
5.74445e-09
0.00840013
1.72801e-08
0.0084003
2.9462e-08
0.00839985
1.05926e-07
0.00839929
1.91624e-07
0.00840064
6.95173e-07
0.00838894
1.29192e-06
0.0084232
2.4001e-06
0.0083533
7.75832e-06
0.008278
3.94175e-06
0.00831291
5.79502e-05
0.00871239
9.68406e-05
0.00890609
0.000729796
0.00862346
0.00237154
0.00817956
0.00263438
0.00782006
0.00245001
0.00761516
0.0022433
0.0073852
0.00225063
0.00719616
0.00225664
0.00701222
0.00232862
0.00683806
0.00240189
0.00667244
0.00248248
0.00651454
0.00257357
0.00635713
0.00267821
0.00620387
0.00279339
0.00605703
0.00292111
0.00591694
0.00306196
0.00577461
0.00322327
0.00562319
0.0034068
0.00547019
0.00360855
0.00531585
0.00383306
0.00516109
0.00408289
0.00499627
0.00436732
0.00483252
0.00468164
0.00469261
0.00502825
0.00463985
0.00539698
0.00492573
0.0056548
0.00535403
0.00681045
0.00840003
1.92141e-13
0.00840003
3.22016e-13
0.00840003
1.39015e-12
0.00840003
2.21144e-12
0.00840003
8.20153e-12
0.00840003
1.37724e-11
0.00840003
4.87055e-11
0.00840003
6.79542e-11
0.00840003
3.7026e-10
0.00840003
1.97741e-10
0.00840003
1.25118e-09
0.00840003
1.74792e-09
0.00840002
6.43422e-09
0.00840006
1.0471e-08
0.00839998
3.64756e-08
0.00840035
6.15938e-08
0.00839955
1.99343e-07
0.00840318
3.54823e-07
0.00840162
1.05904e-06
0.00837432
1.78499e-06
0.0084587
6.76546e-06
0.00806599
9.21316e-06
0.00837454
5.28041e-05
0.00766597
0.000103216
0.00868546
0.000630512
0.00880764
0.00210241
0.00857726
0.00285516
0.00839447
0.00264316
0.00812171
0.00252503
0.00789307
0.00248186
0.00766241
0.00248846
0.00746801
0.00252172
0.00727557
0.00259295
0.00709129
0.00266695
0.00691638
0.00274858
0.00675058
0.00284319
0.00659099
0.00295028
0.00643981
0.00306661
0.00629485
0.00320642
0.00615668
0.00336368
0.00603232
0.00353348
0.0059237
0.00371987
0.00583164
0.00392538
0.00576346
0.00414764
0.00574011
0.00438491
0.00577606
0.00463682
0.0059238
0.00487437
0.00623986
0.0050737
0.00672481
0.00515895
0.0047849
0.00727947
0.00840003
2.12934e-13
0.00840003
1.30328e-13
0.00840003
1.12455e-12
0.00840003
1.03754e-12
0.00840003
6.34941e-12
0.00840003
5.82438e-12
0.00840003
3.49113e-11
0.00840003
4.3827e-11
0.00840003
1.03323e-10
0.00840003
4.42421e-10
0.00840003
1.4489e-09
0.00840003
1.56638e-09
0.00840003
8.17668e-09
0.00840002
9.13349e-09
0.00839998
4.90491e-08
0.00840007
6.30295e-08
0.00839956
2.87004e-07
0.00840163
5.74028e-07
0.00840071
9.50172e-07
0.00840955
1.04574e-06
0.00839442
8.5382e-06
0.00836995
1.2156e-05
0.00836139
5.01566e-05
0.00817961
0.000105451
0.00860425
0.000304232
0.00983177
0.00100354
0.00985207
0.00287306
0.00952565
0.00298551
0.00914985
0.00291345
0.00881226
0.0028227
0.00853549
0.00276265
0.00826207
0.00279349
0.00800912
0.00284369
0.0077723
0.00290428
0.00755322
0.00296967
0.00735345
0.00304219
0.00716845
0.00313122
0.00699461
0.00323456
0.00683913
0.00335578
0.00670534
0.00349357
0.00659286
0.00364718
0.00650513
0.00381178
0.00644619
0.00398944
0.00642647
0.00417088
0.00645925
0.00435286
0.00657447
0.00451861
0.00678486
0.00465775
0.00713067
0.00472116
0.00753127
0.00474591
0.00446328
0.00783546
0.00840003
1.4736e-14
0.00840003
1.48579e-13
0.00840003
2.59854e-13
0.00840003
1.02748e-12
0.00840003
1.74186e-12
0.00840003
6.46381e-12
0.00840003
9.5028e-12
0.00840003
4.19253e-11
0.00840003
4.50354e-11
0.00840003
2.47335e-10
0.00840003
4.34201e-10
0.00840003
1.53465e-09
0.00840003
3.17532e-09
0.00840004
7.22574e-09
0.00840007
1.40368e-08
0.0084001
3.29407e-08
0.00840031
4.11566e-08
0.00840074
3.19949e-07
0.00839816
1.75699e-06
0.00840648
3.74375e-06
0.00840009
7.15782e-06
0.00839644
1.51594e-05
0.00842125
2.60987e-05
0.00847685
4.21679e-05
0.00862344
0.00016522
0.00915231
0.00047933
0.00978458
0.00225415
0.00968193
0.00309325
0.00943647
0.00316395
0.00923283
0.00302666
0.00901594
0.00297961
0.00879174
0.00301742
0.00856975
0.00306716
0.00835174
0.00312417
0.00813991
0.00318284
0.00793686
0.00324574
0.00774675
0.00331757
0.00757385
0.00340066
0.00742315
0.0034975
0.00729964
0.00360905
0.00720254
0.00373833
0.00713632
0.00387434
0.00710573
0.00401953
0.0071161
0.00416256
0.00717442
0.00429724
0.00728722
0.00440728
0.00746441
0.00447909
0.00769785
0.00448267
0.00800322
0.00442984
0.00424026
0.00821156
0.00840003
-7.39229e-14
0.00840003
6.85971e-15
0.00840003
-2.47649e-13
0.00840003
7.78517e-14
0.00840003
-1.26085e-12
0.00840003
-1.62214e-13
0.00840003
-7.36596e-12
0.00840003
-4.62776e-12
0.00840003
-4.39246e-11
0.00840003
-2.34902e-11
0.00840003
-2.84816e-10
0.00840003
-1.35518e-10
0.00840003
-1.54732e-09
0.0084
-3.91947e-12
0.0084
-1.0612e-08
0.00839999
-6.5503e-09
0.00840006
-4.40338e-08
0.00839985
-3.65072e-07
0.00840413
-8.30761e-07
0.00840058
-5.83092e-07
0.00841807
-4.90487e-06
0.00843618
-4.26825e-06
0.00846755
-9.22512e-06
0.00854023
-3.53092e-05
0.00856804
0.00014349
0.00880809
0.000225836
0.00909769
0.0019771
0.00911499
0.00307463
0.00909299
0.00318832
0.00899521
0.00313279
0.00888857
0.00309242
0.00878562
0.00312482
0.00868233
0.00317668
0.00856487
0.00324712
0.0084323
0.00331705
0.00829637
0.00338238
0.00815824
0.00345252
0.00802463
0.00352647
0.00790503
0.00360803
0.0078069
0.00369744
0.0077384
0.00379709
0.00769847
0.00390535
0.00769505
0.00401441
0.00772928
0.00412242
0.00780514
0.0042185
0.00791583
0.00429484
0.00806037
0.00433196
0.00822403
0.00431877
0.00840338
0.00424509
0.00406534
0.00856496
0.00840003
-6.58592e-15
0.00840003
1.98967e-15
0.00840003
-1.03312e-14
0.00840003
4.10516e-14
0.00840003
-2.4214e-14
0.00840003
6.48316e-14
0.00840003
-3.13243e-13
0.00840003
-1.43409e-12
0.00840003
-3.83636e-12
0.00840003
-9.20636e-12
0.00840003
-2.94452e-11
0.00840003
-9.09197e-11
0.00840003
-1.78954e-10
0.00840003
-5.03339e-10
0.0084
4.1077e-10
0.00840007
-4.31341e-09
0.00839989
-1.66047e-09
0.00839998
-8.4627e-08
0.00839931
-2.55064e-07
0.00839635
-5.39132e-07
0.00840599
-1.74191e-06
0.00837135
-1.2445e-06
0.00836828
1.50154e-06
0.00842558
-1.02206e-05
0.0083923
0.000194001
0.00839582
6.79759e-05
0.00934906
0.001132
0.00926755
0.00310727
0.00912332
0.0032779
0.00895763
0.00327113
0.00885551
0.00319167
0.0087808
0.00320666
0.00870443
0.00326024
0.00862993
0.00332849
0.00855288
0.0033955
0.00847524
0.00345961
0.00839687
0.00352676
0.00831446
0.00359914
0.00824383
0.00366908
0.00818509
0.00374583
0.0081477
0.00382277
0.00813711
0.00390619
0.00815331
0.00398602
0.00820427
0.0040595