/*--------------------------------*- C++ -*----------------------------------*\
| =========                 |                                                 |
| \\      /  F ield         | OpenFOAM: The Open Source CFD Toolbox           |
|  \\    /   O peration     | Version:  2412                                  |
|   \\  /    A nd           | Website:  www.openfoam.com                      |
|    \\/     M anipulation  |                                                 |
\*---------------------------------------------------------------------------*/
FoamFile
{
    version     2.0;
    format      ascii;
    arch        "LSB;label=32;scalar=64";
    class       volVectorField;
    location    "4";
    object      U;
}
// * * * * * * * * * * * * * * * * * * * * * * * * * * * * * * * * * * * * * //

dimensions      [0 1 -1 0 0 0 0];

internalField   nonuniform List<vector> 
7000
(
(3 -5.50882e-12 0)
(3 3.21113e-10 0)
(3 6.52984e-10 0)
(3 2.60997e-09 0)
(3 4.6198e-09 0)
(3 1.63082e-08 0)
(3 2.8271e-08 0)
(3 9.80069e-08 0)
(3 1.70957e-07 0)
(3 5.88095e-07 0)
(2.99999 9.82195e-07 0)
(2.99998 3.56784e-06 0)
(2.99992 4.92436e-06 0)
(2.99985 1.96981e-05 0)
(2.99954 3.12106e-05 0)
(2.99906 7.38109e-05 0)
(2.99712 9.90602e-05 0)
(2.9966 0.000102325 0)
(2.99238 9.91532e-05 0)
(2.97835 0.000128776 0)
(2.98728 0.000216803 0)
(2.74898 0.000312054 0)
(2.21755 0.00109751 0)
(1.39759 0.0024938 0)
(0.586692 0.00493723 0)
(0.641971 0.00536995 0)
(0.714078 0.00560356 0)
(0.752108 0.00589719 0)
(0.746563 0.00615399 0)
(0.720817 0.00640934 0)
(0.682444 0.00666131 0)
(0.646518 0.00698335 0)
(0.616898 0.00736452 0)
(0.58918 0.00775432 0)
(0.560348 0.00813384 0)
(0.52993 0.00851262 0)
(0.498416 0.00890292 0)
(0.466132 0.00930888 0)
(0.433064 0.00973058 0)
(0.399196 0.0101678 0)
(0.364511 0.010621 0)
(0.328943 0.0110904 0)
(0.292578 0.0115744 0)
(0.25548 0.0120668 0)
(0.217838 0.0125568 0)
(0.179723 0.0130383 0)
(0.141193 0.0135114 0)
(0.102943 0.0139651 0)
(0.061156 0.0147388 0)
(0.0248337 0.015344 0)
(3 -1.95676e-11 0)
(3 9.08786e-10 0)
(3 1.85615e-09 0)
(3 7.40381e-09 0)
(3 1.31141e-08 0)
(3 4.65986e-08 0)
(3 7.95468e-08 0)
(3 2.83513e-07 0)
(3 4.92422e-07 0)
(3 1.71659e-06 0)
(2.99999 2.45244e-06 0)
(2.99998 9.81392e-06 0)
(2.99993 1.58851e-05 0)
(2.99987 6.31709e-05 0)
(2.99957 0.00014073 0)
(2.9991 0.000789505 0)
(2.99714 1.15507e-05 0)
(2.9966 0.000229935 0)
(2.99239 7.50158e-05 0)
(2.97843 0.000165896 0)
(2.98738 0.000463593 0)
(2.74944 0.000806129 0)
(2.21927 0.00324137 0)
(1.40004 0.00758682 0)
(0.588103 0.0148867 0)
(0.642228 0.0159457 0)
(0.714237 0.0164365 0)
(0.752268 0.0171624 0)
(0.746684 0.0178355 0)
(0.720922 0.0185069 0)
(0.682568 0.0191499 0)
(0.646686 0.0199609 0)
(0.617067 0.0209032 0)
(0.589311 0.0218506 0)
(0.560445 0.0227569 0)
(0.530011 0.0236459 0)
(0.498493 0.024545 0)
(0.466203 0.0254606 0)
(0.433118 0.0263878 0)
(0.399219 0.0273193 0)
(0.364488 0.0282487 0)
(0.328859 0.0291683 0)
(0.292421 0.0300631 0)
(0.255239 0.03091 0)
(0.217506 0.0316789 0)
(0.179292 0.032353 0)
(0.140612 0.032928 0)
(0.102204 0.0333626 0)
(0.060273 0.0341139 0)
(0.0243832 0.0344772 0)
(3 -7.62973e-11 0)
(3 1.27938e-09 0)
(3 2.645e-09 0)
(3 1.05006e-08 0)
(3 1.84751e-08 0)
(3 6.57644e-08 0)
(3 1.172e-07 0)
(3 3.91539e-07 0)
(3 6.98987e-07 0)
(3 3.47829e-06 0)
(2.99999 3.49472e-06 0)
(2.99998 1.42535e-05 0)
(2.99995 2.58594e-05 0)
(2.99993 9.89955e-05 0)
(2.99998 0.000216871 0)
(2.99898 0.000907343 0)
(2.99678 0.00010696 0)
(2.99664 0.000296745 0)
(2.99234 0.000254608 0)
(2.97862 0.000397362 0)
(2.98767 0.000934066 0)
(2.75045 0.00155477 0)
(2.22299 0.00565535 0)
(1.40541 0.0132617 0)
(0.591134 0.0254545 0)
(0.642788 0.0270549 0)
(0.714571 0.0278422 0)
(0.752685 0.0290507 0)
(0.747078 0.0303298 0)
(0.721285 0.0315847 0)
(0.682963 0.0328077 0)
(0.647168 0.0342433 0)
(0.617577 0.03585 0)
(0.589798 0.0374711 0)
(0.560919 0.0390486 0)
(0.530508 0.0406123 0)
(0.499036 0.0421986 0)
(0.46679 0.0438169 0)
(0.433735 0.0454621 0)
(0.399846 0.0471237 0)
(0.3651 0.0487912 0)
(0.329434 0.0504485 0)
(0.292935 0.052066 0)
(0.255665 0.0536033 0)
(0.217821 0.0550107 0)
(0.179474 0.0562597 0)
(0.140612 0.0573464 0)
(0.102055 0.0582371 0)
(0.0599761 0.0594272 0)
(0.0241819 0.0599991 0)
(3 -6.08173e-11 0)
(3 1.44598e-09 0)
(3 3.00461e-09 0)
(3 1.16883e-08 0)
(3 2.1292e-08 0)
(3 7.40067e-08 0)
(3 1.17933e-07 0)
(3 4.49407e-07 0)
(3 7.17588e-07 0)
(3 2.6367e-06 0)
(2.99999 5.22592e-06 0)
(2.99999 1.69357e-05 0)
(2.99998 3.08613e-05 0)
(2.99999 8.85637e-05 0)
(3.00007 0.000160712 0)
(2.99904 0.000268993 0)
(2.99676 0.000320349 0)
(2.99669 0.000417309 0)
(2.99246 0.000549208 0)
(2.97891 0.000918231 0)
(2.9881 0.00168036 0)
(2.75199 0.00256136 0)
(2.229 0.00819619 0)
(1.41423 0.0197209 0)
(0.59592 0.0364062 0)
(0.643776 0.0386091 0)
(0.715192 0.0396432 0)
(0.75347 0.0413023 0)
(0.747881 0.0432012 0)
(0.722044 0.0450338 0)
(0.683768 0.0468663 0)
(0.648081 0.0489089 0)
(0.618537 0.0511321 0)
(0.590746 0.0533851 0)
(0.561863 0.0556079 0)
(0.531487 0.0578297 0)
(0.500077 0.0600891 0)
(0.467895 0.0624001 0)
(0.434889 0.0647598 0)
(0.401024 0.0671546 0)
(0.366275 0.0695693 0)
(0.330579 0.0719805 0)
(0.294017 0.0743429 0)
(0.256653 0.076595 0)
(0.218683 0.0786665 0)
(0.180181 0.0805157 0)
(0.141107 0.0821427 0)
(0.102369 0.0835227 0)
(0.0600862 0.0851427 0)
(0.0241621 0.0859491 0)
(3 1.01837e-11 0)
(3 1.11252e-09 0)
(3 2.23996e-09 0)
(3 8.30327e-09 0)
(3 1.49147e-08 0)
(3 4.82238e-08 0)
(3 8.42506e-08 0)
(3 3.06314e-07 0)
(3 5.08663e-07 0)
(3 1.02096e-06 0)
(3 4.86742e-06 0)
(3 1.23904e-05 0)
(3 2.48183e-05 0)
(3.00001 4.67842e-05 0)
(3.0001 7.11198e-05 0)
(2.99909 9.38649e-05 0)
(2.99688 0.000219275 0)
(2.99679 0.00042525 0)
(2.99266 0.000685082 0)
(2.97939 0.00124538 0)
(2.98869 0.0022771 0)
(2.75405 0.00346421 0)
(2.23787 0.0107946 0)
(1.42688 0.0257771 0)
(0.602909 0.0476055 0)
(0.645267 0.0505072 0)
(0.716082 0.051898 0)
(0.75464 0.0541126 0)
(0.749107 0.0565852 0)
(0.723238 0.0590217 0)
(0.685029 0.0615171 0)
(0.64945 0.0641984 0)
(0.619956 0.0670511 0)
(0.592168 0.0699466 0)
(0.563302 0.0728306 0)
(0.532985 0.0757315 0)
(0.501659 0.0786853 0)
(0.469558 0.0817099 0)
(0.436611 0.0848082 0)
(0.402774 0.087965 0)
(0.36802 0.0911565 0)
(0.332286 0.0943453 0)
(0.295648 0.097468 0)
(0.258162 0.10045 0)
(0.220025 0.103197 0)
(0.181319 0.105652 0)
(0.141982 0.107805 0)
(0.103002 0.109638 0)
(0.0604406 0.111623 0)
(0.0242375 0.112619 0)
(3 -6.90957e-13 0)
(3 5.86373e-10 0)
(3 1.03435e-09 0)
(3 4.08141e-09 0)
(3 7.43633e-09 0)
(3 2.17007e-08 0)
(3 6.13623e-08 0)
(3 1.16673e-07 0)
(3 3.59536e-07 0)
(3 7.74443e-07 0)
(3 1.77797e-06 0)
(3.00001 3.41248e-06 0)
(3 8.5544e-06 0)
(3.00002 1.25958e-05 0)
(3.0001 1.34773e-05 0)
(2.99914 1.1486e-06 0)
(2.99699 0.000164963 0)
(2.99701 0.000395877 0)
(2.99301 0.000831803 0)
(2.98001 0.00151741 0)
(2.98954 0.00283252 0)
(2.7568 0.00432659 0)
(2.24882 0.0134194 0)
(1.44307 0.0314723 0)
(0.6115 0.0592908 0)
(0.646943 0.0628517 0)
(0.717391 0.0648098 0)
(0.756221 0.0674985 0)
(0.750716 0.0705368 0)
(0.72486 0.0735819 0)
(0.686736 0.0767883 0)
(0.651261 0.0801288 0)
(0.621837 0.0836106 0)
(0.594085 0.0871485 0)
(0.565273 0.0906979 0)
(0.535045 0.0942903 0)
(0.503824 0.0979638 0)
(0.471822 0.101738 0)
(0.438951 0.105617 0)
(0.405153 0.109582 0)
(0.370396 0.113604 0)
(0.334611 0.117633 0)
(0.297874 0.121584 0)
(0.260238 0.125355 0)
(0.221894 0.128833 0)
(0.182932 0.131942 0)
(0.143254 0.134665 0)
(0.103937 0.136974 0)
(0.0609975 0.139327 0)
(0.0243859 0.140508 0)
(3 -1.08185e-11 0)
(3 1.33794e-10 0)
(3 2.30594e-10 0)
(3 1.05048e-09 0)
(3 1.97666e-09 0)
(3 8.5023e-09 0)
(3 1.47415e-08 0)
(3 2.65294e-08 0)
(3 8.74868e-08 0)
(3 -1.77194e-07 0)
(3 -5.49991e-07 0)
(3.00001 -1.5542e-06 0)
(3 -6.38798e-06 0)
(3.00001 -9.38089e-06 0)
(3.00009 -1.97683e-05 0)
(2.99919 -4.82206e-05 0)
(2.99715 0.000138272 0)
(2.99725 0.000464557 0)
(2.99343 0.000881 0)
(2.98084 0.00176544 0)
(2.99059 0.00331175 0)
(2.7602 0.00506392 0)
(2.26258 0.0155381 0)
(1.46357 0.0379227 0)
(0.622111 0.0716527 0)
(0.648784 0.075717 0)
(0.718743 0.0781814 0)
(0.757861 0.0813011 0)
(0.752522 0.0849705 0)
(0.726768 0.0886893 0)
(0.688803 0.0926254 0)
(0.653461 0.0966433 0)
(0.624164 0.10077 0)
(0.59651 0.104964 0)
(0.567797 0.1092 0)
(0.537694 0.113511 0)
(0.506609 0.117935 0)
(0.474733 0.122499 0)
(0.441958 0.127209 0)
(0.408212 0.13204 0)
(0.373461 0.136954 0)
(0.337631 0.141892 0)
(0.300784 0.146746 0)
(0.262961 0.151387 0)
(0.224351 0.155673 0)
(0.185059 0.159507 0)
(0.144961 0.16286 0)
(0.105203 0.165705 0)
(0.0617551 0.168467 0)
(0.0245988 0.169879 0)
(3 1.68044e-11 0)
(3 -3.40016e-10 0)
(3 -6.23922e-10 0)
(3 -2.67038e-09 0)
(3 -5.24693e-09 0)
(3 -1.72211e-08 0)
(3 -4.09062e-08 0)
(3 -1.1832e-07 0)
(3 -2.86043e-07 0)
(3 -8.25276e-07 0)
(3 -2.15171e-06 0)
(3 -5.26397e-06 0)
(3 -1.2937e-05 0)
(3.00001 -1.94801e-05 0)
(3.00007 -3.58398e-05 0)
(2.99925 -7.36028e-05 0)
(2.99736 0.000184658 0)
(2.99754 0.000746557 0)
(2.99393 0.0011816 0)
(2.98182 0.00207363 0)
(2.99184 0.00378654 0)
(2.76418 0.00567598 0)
(2.28007 0.0176755 0)
(1.48934 0.0441771 0)
(0.634955 0.0846109 0)
(0.650768 0.0892504 0)
(0.720292 0.0919135 0)
(0.759815 0.0955043 0)
(0.754731 0.0998794 0)
(0.729138 0.10435 0)
(0.69137 0.109009 0)
(0.656186 0.113711 0)
(0.627039 0.118501 0)
(0.59952 0.123373 0)
(0.570946 0.128326 0)
(0.541 0.133396 0)
(0.51008 0.138619 0)
(0.478358 0.144018 0)
(0.445708 0.149605 0)
(0.412043 0.155359 0)
(0.377315 0.161233 0)
(0.341442 0.167152 0)
(0.30447 0.172987 0)
(0.266431 0.17859 0)
(0.227505 0.183789 0)
(0.187802 0.18846 0)
(0.147179 0.192538 0)
(0.106856 0.195995 0)
(0.0627715 0.199232 0)
(0.0249176 0.200906 0)
(3 1.93544e-11 0)
(3 -4.61383e-10 0)
(3 -9.35825e-10 0)
(3 -3.74217e-09 0)
(3 -6.42886e-09 0)
(3 -2.46987e-08 0)
(3 -4.87249e-08 0)
(3 -1.58753e-07 0)
(3 -2.99139e-07 0)
(3 -1.08129e-06 0)
(3 -2.38984e-06 0)
(3 -6.39753e-06 0)
(2.99999 -1.15763e-05 0)
(3 -2.41632e-05 0)
(3.00005 -4.64451e-05 0)
(2.99935 -9.32485e-05 0)
(2.99777 0.000191261 0)
(2.998 0.000806043 0)
(2.99441 0.00129888 0)
(2.98285 0.00229312 0)
(2.99319 0.00419154 0)
(2.76902 0.00619484 0)
(2.30103 0.0203428 0)
(1.52096 0.0493319 0)
(0.651238 0.0979394 0)
(0.653299 0.103523 0)
(0.722061 0.106107 0)
(0.762205 0.110144 0)
(0.757514 0.115277 0)
(0.732088 0.120519 0)
(0.694514 0.125917 0)
(0.659487 0.131318 0)
(0.630502 0.136797 0)
(0.603145 0.142383 0)
(0.57475 0.148089 0)
(0.545004 0.153956 0)
(0.514289 0.16002 0)
(0.482756 0.166313 0)
(0.450261 0.17285 0)
(0.416702 0.179604 0)
(0.382021 0.186523 0)
(0.346119 0.19352 0)
(0.309023 0.200444 0)
(0.270746 0.207118 0)
(0.231456 0.213338 0)
(0.19127 0.218957 0)
(0.150014 0.223885 0)
(0.108976 0.228045 0)
(0.0640754 0.231841 0)
(0.0253319 0.233826 0)
(3 4.0847e-12 0)
(3 -3.76051e-10 0)
(3 -7.71984e-10 0)
(3 -3.12385e-09 0)
(3 -5.2397e-09 0)
(3 -2.00717e-08 0)
(3 -3.41886e-08 0)
(3 -1.18635e-07 0)
(3 -2.09336e-07 0)
(3 -6.78262e-07 0)
(3 -1.1839e-06 0)
(2.99999 -3.84677e-06 0)
(2.99998 -7.46661e-06 0)
(2.99998 -2.36012e-05 0)
(3.00002 -4.91365e-05 0)
(2.99943 -0.00010158 0)
(2.99805 0.000169773 0)
(2.9984 0.000716929 0)
(2.99507 0.00124939 0)
(2.98414 0.00242944 0)
(2.99478 0.00450428 0)
(2.77486 0.00659889 0)
(2.32452 0.0228475 0)
(1.55769 0.0541609 0)
(0.671197 0.11167 0)
(0.656227 0.118297 0)
(0.723902 0.120878 0)
(0.765045 0.125377 0)
(0.760875 0.13122 0)
(0.735632 0.137216 0)
(0.698254 0.143359 0)
(0.663394 0.149472 0)
(0.634606 0.155665 0)
(0.607457 0.162001 0)
(0.579283 0.168502 0)
(0.549778 0.17521 0)
(0.51931 0.182164 0)
(0.488018 0.189401 0)
(0.455735 0.196948 0)
(0.422332 0.204785 0)
(0.387735 0.212853 0)
(0.351831 0.221049 0)
(0.314617 0.229197 0)
(0.276081 0.237093 0)
(0.23637 0.244493 0)
(0.19561 0.251207 0)
(0.153591 0.25712 0)
(0.111675 0.262127 0)
(0.0657548 0.266592 0)
(0.0259079 0.268939 0)
(3 2.31496e-12 0)
(3 -1.37284e-10 0)
(3 -2.73944e-10 0)
(3 -1.1408e-09 0)
(3 -2.22584e-09 0)
(3 -7.92229e-09 0)
(3 -1.11534e-08 0)
(3 -4.76778e-08 0)
(3 -7.25788e-08 0)
(3 -1.97451e-07 0)
(3 -1.31662e-07 0)
(2.99999 -1.10064e-06 0)
(2.99998 -2.48724e-06 0)
(2.99996 -1.07955e-05 0)
(2.99999 -3.60695e-05 0)
(2.99953 -9.25552e-05 0)
(2.99842 0.000222911 0)
(2.99886 0.000985075 0)
(2.99577 0.00144084 0)
(2.98554 0.00260686 0)
(2.99646 0.00476275 0)
(2.7816 0.00678234 0)
(2.35155 0.024835 0)
(1.60075 0.0589368 0)
(0.695612 0.125588 0)
(0.660123 0.133413 0)
(0.72627 0.136319 0)
(0.768528 0.141246 0)
(0.764967 0.147709 0)
(0.739926 0.154412 0)
(0.702743 0.161294 0)
(0.668045 0.168141 0)
(0.63947 0.175081 0)
(0.612559 0.182198 0)
(0.584645 0.189528 0)
(0.55542 0.197123 0)
(0.525237 0.205027 0)
(0.494218 0.213283 0)
(0.462191 0.221925 0)
(0.429002 0.230932 0)
(0.394555 0.240246 0)
(0.358704 0.249757 0)
(0.321409 0.259276 0)
(0.282617 0.268566 0)
(0.242447 0.277355 0)
(0.201017 0.2854 0)
(0.158091 0.29253 0)
(0.115105 0.298568 0)
(0.0679083 0.303858 0)
(0.0266413 0.306655 0)
(3 -1.37271e-11 0)
(3 1.7924e-10 0)
(3 4.25637e-10 0)
(3 1.73009e-09 0)
(3 2.83949e-09 0)
(3 9.95958e-09 0)
(3 1.82071e-08 0)
(3 5.27593e-08 0)
(3 1.03803e-07 0)
(3 2.92868e-07 0)
(3 5.84676e-07 0)
(2.99999 1.67067e-06 0)
(2.99998 3.04169e-06 0)
(2.99995 5.48787e-06 0)
(2.99995 -1.26125e-05 0)
(2.99965 -0.000109412 0)
(2.99895 0.000247088 0)
(2.99941 0.000920623 0)
(2.9964 0.00144318 0)
(2.98698 0.00262929 0)
(2.99819 0.00487624 0)
(2.78932 0.00680694 0)
(2.38228 0.0265466 0)
(1.6507 0.0633919 0)
(0.724767 0.139534 0)
(0.665179 0.148934 0)
(0.729206 0.152518 0)
(0.772552 0.157899 0)
(0.769666 0.164888 0)
(0.744869 0.172223 0)
(0.70791 0.17981 0)
(0.673401 0.187398 0)
(0.645073 0.195111 0)
(0.618441 0.203045 0)
(0.590827 0.211241 0)
(0.561932 0.219757 0)
(0.532097 0.228656 0)
(0.501432 0.237996 0)
(0.469743 0.24782 0)
(0.436847 0.258109 0)
(0.402624 0.268801 0)
(0.366897 0.279786 0)
(0.329578 0.29086 0)
(0.290568 0.301766 0)
(0.249933 0.312177 0)
(0.207782 0.321809 0)
(0.1638 0.330437 0)
(0.119477 0.337791 0)
(0.070684 0.344113 0)
(0.027661 0.347492 0)
(3 -9.53085e-12 0)
(3 3.12423e-10 0)
(3 6.50026e-10 0)
(3 2.39801e-09 0)
(3 4.34414e-09 0)
(3 1.40225e-08 0)
(3 2.35559e-08 0)
(3 8.0212e-08 0)
(3 1.20941e-07 0)
(3 4.42547e-07 0)
(3 7.25497e-07 0)
(2.99999 2.27921e-06 0)
(2.99998 3.42289e-06 0)
(2.99995 9.73898e-06 0)
(2.99989 1.19096e-05 0)
(2.99975 -5.38749e-05 0)
(2.99931 0.000220832 0)
(2.9999 0.000692129 0)
(2.99722 0.00130436 0)
(2.98859 0.00253827 0)
(3.00003 0.00482741 0)
(2.79791 0.00660546 0)
(2.41654 0.027796 0)
(1.70741 0.0672424 0)
(0.758119 0.153345 0)
(0.670955 0.164662 0)
(0.732329 0.169295 0)
(0.776649 0.175129 0)
(0.774524 0.182563 0)
(0.750094 0.190486 0)
(0.713471 0.198784 0)
(0.67925 0.207142 0)
(0.651268 0.21566 0)
(0.625015 0.224453 0)
(0.597799 0.233561 0)
(0.569326 0.243055 0)
(0.539936 0.253011 0)
(0.509727 0.263502 0)
(0.478492 0.274588 0)
(0.446017 0.286274 0)
(0.412151 0.2985 0)
(0.376672 0.311151 0)
(0.339436 0.324011 0)
(0.300269 0.336804 0)
(0.259174 0.349185 0)
(0.216231 0.360768 0)
(0.171054 0.371273 0)
(0.125139 0.38032 0)
(0.0743122 0.388021 0)
(0.0289908 0.392174 0)
(3 -6.13917e-12 0)
(3 4.00747e-10 0)
(3 7.87627e-10 0)
(3 2.85922e-09 0)
(3 5.04922e-09 0)
(3 1.8025e-08 0)
(3 3.03486e-08 0)
(3 1.14427e-07 0)
(3 1.88347e-07 0)
(3 6.86799e-07 0)
(3 1.32935e-06 0)
(3 4.10578e-06 0)
(2.99998 6.91247e-06 0)
(2.99996 2.6007e-05 0)
(2.9999 6.14756e-05 0)
(2.99983 0.000143738 0)
(2.99961 0.000351947 0)
(3.00038 0.000791553 0)
(2.99803 0.00130714 0)
(2.99022 0.00247916 0)
(3.00181 0.00472329 0)
(2.80735 0.00621369 0)
(2.45437 0.0288161 0)
(1.77142 0.0706864 0)
(0.796223 0.167519 0)
(0.67773 0.181197 0)
(0.735602 0.187448 0)
(0.780556 0.193285 0)
(0.779283 0.201019 0)
(0.755392 0.20943 0)
(0.719248 0.218431 0)
(0.685414 0.227531 0)
(0.657885 0.236838 0)
(0.632129 0.246474 0)
(0.605431 0.256504 0)
(0.577516 0.266999 0)
(0.548713 0.278047 0)
(0.519114 0.289744 0)
(0.4885 0.302172 0)
(0.456623 0.315368 0)
(0.423292 0.329287 0)
(0.388243 0.343822 0)
(0.351256 0.358757 0)
(0.312102 0.373793 0)
(0.270646 0.388548 0)
(0.226909 0.402599 0)
(0.180405 0.415561 0)
(0.132545 0.426889 0)
(0.0791557 0.436487 0)
(0.0308768 0.441743 0)
(3 -7.74938e-12 0)
(3 2.94754e-10 0)
(3 6.08355e-10 0)
(3 2.29819e-09 0)
(3 4.04873e-09 0)
(3 1.44918e-08 0)
(3 2.77856e-08 0)
(3 9.49172e-08 0)
(3 1.88594e-07 0)
(3 6.25443e-07 0)
(3 1.33552e-06 0)
(3 3.90019e-06 0)
(3 8.47171e-06 0)
(3 2.56541e-05 0)
(3 5.08242e-05 0)
(3.00002 0.000194641 0)
(2.99991 0.000400074 0)
(3.00078 0.000747682 0)
(2.99877 0.00111981 0)
(2.99185 0.00213448 0)
(3.00351 0.00418244 0)
(2.81777 0.00517831 0)
(2.4961 0.0287345 0)
(1.84344 0.0726922 0)
(0.839324 0.180614 0)
(0.685692 0.197643 0)
(0.738528 0.206702 0)
(0.783341 0.211791 0)
(0.783384 0.219692 0)
(0.760318 0.228577 0)
(0.724864 0.238383 0)
(0.691556 0.248284 0)
(0.664661 0.258433 0)
(0.639606 0.268978 0)
(0.613624 0.279985 0)
(0.586434 0.291531 0)
(0.558392 0.303726 0)
(0.529592 0.316691 0)
(0.49982 0.330557 0)
(0.468791 0.345371 0)
(0.436257 0.361141 0)
(0.401912 0.377776 0)
(0.365455 0.395092 0)
(0.326537 0.412788 0)
(0.284932 0.430493 0)
(0.240517 0.447691 0)
(0.192619 0.463888 0)
(0.142518 0.478381 0)
(0.0858201 0.490768 0)
(0.0334958 0.497736 0)
(3 4.89219e-12 0)
(3 -1.97018e-10 0)
(3 -4.04386e-10 0)
(3 -1.64387e-09 0)
(3 -3.10698e-09 0)
(3 -1.08098e-08 0)
(3 -2.02467e-08 0)
(3 -6.74993e-08 0)
(3 -1.31105e-07 0)
(3 -3.97335e-07 0)
(3 -8.21871e-07 0)
(3 -2.44797e-06 0)
(3 -3.14436e-06 0)
(3 -7.18374e-06 0)
(3.00006 -2.39879e-05 0)
(3.00017 0.000126164 0)
(3.00014 0.000381334 0)
(3.00107 0.00075345 0)
(2.99935 0.00122653 0)
(2.99325 0.00242399 0)
(3.0048 0.00487389 0)
(2.82863 0.00671561 0)
(2.54075 0.02847 0)
(1.92325 0.0771718 0)
(0.887922 0.19194 0)
(0.69633 0.21442 0)
(0.740935 0.227461 0)
(0.783361 0.232194 0)
(0.785294 0.239633 0)
(0.763311 0.248488 0)
(0.728736 0.258782 0)
(0.696148 0.269404 0)
(0.670274 0.28039 0)
(0.646367 0.291854 0)
(0.621542 0.303828 0)
(0.595508 0.316423 0)
(0.568626 0.329799 0)
(0.541004 0.344115 0)
(0.512419 0.359535 0)
(0.482583 0.376136 0)
(0.451211 0.393953 0)
(0.417943 0.412966 0)
(0.38242 0.433025 0)
(0.344207 0.453877 0)
(0.302858 0.475182 0)
(0.258057 0.49642 0)
(0.208868 0.517044 0)
(0.156228 0.536111 0)
(0.0954061 0.552732 0)
(0.0375326 0.562612 0)
(3 -2.02724e-12 0)
(3 -1.13865e-10 0)
(3 -2.39592e-10 0)
(3 -7.51232e-10 0)
(3 -1.36752e-09 0)
(3 -3.95466e-09 0)
(3 -7.70634e-09 0)
(3 -2.10556e-08 0)
(3 -5.94973e-08 0)
(3 -1.31812e-07 0)
(3 -3.30364e-07 0)
(3 -5.11586e-07 0)
(2.99999 -1.97508e-06 0)
(2.99998 -2.6657e-06 0)
(3.00013 -1.25132e-06 0)
(3.00043 -5.3076e-05 0)
(3.00054 -0.000153075 0)
(3.00163 -0.00029123 0)
(3.00043 -0.00102164 0)
(2.9956 -0.000148061 0)
(3.00781 0.00372297 0)
(2.83931 0.00196854 0)
(2.59111 0.0212678 0)
(2.01407 0.0973874 0)
(0.936113 0.199279 0)
(0.707677 0.230542 0)
(0.740367 0.249062 0)
(0.777317 0.255128 0)
(0.78038 0.261446 0)
(0.759854 0.269377 0)
(0.726806 0.27935 0)
(0.695705 0.290437 0)
(0.671713 0.302194 0)
(0.649873 0.31456 0)
(0.627133 0.327521 0)
(0.603152 0.341228 0)
(0.578263 0.35586 0)
(0.552564 0.371611 0)
(0.52584 0.388683 0)
(0.4978 0.407229 0)
(0.468203 0.427334 0)
(0.436656 0.449053 0)
(0.402704 0.472295 0)
(0.365839 0.496901 0)
(0.32546 0.522707 0)
(0.280961 0.549049 0)
(0.231022 0.575721 0)
(0.175866 0.601655 0)
(0.109865 0.625327 0)
(0.043949 0.640575 0)
(3 6.34987e-12 0)
(3 -8.19953e-11 0)
(3 -1.61271e-10 0)
(3 -6.08805e-10 0)
(3 -9.34292e-10 0)
(3 -3.20924e-09 0)
(3 -4.27466e-09 0)
(3 -1.66091e-08 0)
(3 -1.75729e-08 0)
(3 -9.94442e-08 0)
(3 -3.7818e-08 0)
(3 -3.09253e-07 0)
(3 -1.65909e-06 0)
(3 -7.86307e-06 0)
(3 -3.56466e-06 0)
(3 -0.000201916 0)
(2.99988 -0.000560238 0)
(3.00014 -0.00111986 0)
(2.99947 -0.00264576 0)
(2.99836 -0.00320488 0)
(3.00735 -0.000223575 0)
(2.85275 -0.00770825 0)
(2.69026 0.0238342 0)
(2.14789 0.0752609 0)
(0.954614 0.227233 0)
(0.700967 0.256072 0)
(0.723372 0.273306 0)
(0.756162 0.278158 0)
(0.761943 0.283247 0)
(0.745115 0.289911 0)
(0.715635 0.299074 0)
(0.687727 0.310208 0)
(0.666869 0.322569 0)
(0.64824 0.335789 0)
(0.628713 0.349852 0)
(0.607897 0.364845 0)
(0.586045 0.380952 0)
(0.563242 0.39837 0)
(0.539309 0.417337 0)
(0.513983 0.438065 0)
(0.48703 0.460733 0)
(0.458098 0.485469 0)
(0.4267 0.512395 0)
(0.392356 0.54127 0)
(0.354079 0.572405 0)
(0.31118 0.60562 0)
(0.261963 0.640752 0)
(0.205177 0.677006 0)
(0.133369 0.712843 0)
(0.055468 0.73987 0)
(3 1.66152e-11 0)
(3 -5.83188e-10 0)
(3 -1.20942e-09 0)
(3 -4.90113e-09 0)
(3 -8.85716e-09 0)
(3 -3.21916e-08 0)
(3 -5.52813e-08 0)
(3 -2.0469e-07 0)
(3 -3.56569e-07 0)
(3 -1.28275e-06 0)
(3 -2.21014e-06 0)
(3 -7.82187e-06 0)
(2.99999 -1.3413e-05 0)
(2.99998 -4.78478e-05 0)
(2.99992 -8.11581e-05 0)
(2.99984 -0.000278649 0)
(2.99956 -0.00056582 0)
(2.99941 -0.00156313 0)
(2.99819 -0.00262438 0)
(2.99825 -0.00571972 0)
(3.00355 -0.0116816 0)
(2.8716 -0.0191596 0)
(2.72565 0.0310617 0)
(2.19058 0.0526826 0)
(1.00857 0.287316 0)
(0.692979 0.302179 0)
(0.70574 0.301976 0)
(0.734911 0.299377 0)
(0.743143 0.30186 0)
(0.728715 0.30679 0)
(0.702161 0.315497 0)
(0.677165 0.326942 0)
(0.659194 0.340047 0)
(0.643657 0.354289 0)
(0.627524 0.369658 0)
(0.610267 0.386195 0)
(0.592064 0.404041 0)
(0.572926 0.423413 0)
(0.552659 0.444573 0)
(0.530995 0.467774 0)
(0.507706 0.493372 0)
(0.482541 0.521344 0)
(0.454845 0.552126 0)
(0.424397 0.586283 0)
(0.39058 0.624039 0)
(0.351856 0.665875 0)
(0.306003 0.712366 0)
(0.25073 0.7642 0)
(0.17504 0.821649 0)
(0.079018 0.877393 0)
(3 -1.7341e-10 0)
(3 -8.12837e-11 0)
(3 -8.02131e-10 0)
(3 -5.02894e-10 0)
(3 -4.42104e-09 0)
(3 -3.40178e-09 0)
(3 -2.53791e-08 0)
(3 -2.35585e-08 0)
(3 -1.53193e-07 0)
(3 -1.52259e-07 0)
(2.99999 -9.4556e-07 0)
(2.99999 -1.18311e-06 0)
(2.99996 -5.827e-06 0)
(2.99993 -7.83496e-06 0)
(2.99974 -3.35793e-05 0)
(2.99946 -4.88103e-05 0)
(2.99844 -0.000164662 0)
(2.99783 -0.000288729 0)
(2.9948 -0.00113584 0)
(2.98794 -0.00164667 0)
(2.99236 -0.00895556 0)
(2.89357 -0.0181509 0)
(2.77284 0.0360757 0)
(2.34664 0.076792 0)
(1.17176 0.312103 0)
(0.736238 0.355724 0)
(0.719302 0.342702 0)
(0.742596 0.330048 0)
(0.747824 0.324968 0)
(0.730827 0.32492 0)
(0.703283 0.331761 0)
(0.677034 0.342651 0)
(0.658297 0.35556 0)
(0.643158 0.370084 0)
(0.628591 0.386261 0)
(0.613776 0.404109 0)
(0.598665 0.423663 0)
(0.583107 0.445091 0)
(0.56676 0.468626 0)
(0.549423 0.4944 0)
(0.530554 0.522769 0)
(0.509989 0.554291 0)
(0.488023 0.589499 0)
(0.463971 0.629296 0)
(0.436904 0.674248 0)
(0.406086 0.72575 0)
(0.369419 0.786321 0)
(0.324081 0.861088 0)
(0.256441 0.960361 0)
(0.134549 1.11338 0)
(3 -1.63533e-10 0)
(3 3.0832e-10 0)
(3 4.83378e-11 0)
(3 2.70828e-09 0)
(3 1.63115e-09 0)
(3 1.77388e-08 0)
(3 1.14844e-08 0)
(3 1.10355e-07 0)
(3 8.98268e-08 0)
(3 6.77647e-07 0)
(3 5.25718e-07 0)
(2.99999 4.13063e-06 0)
(2.99998 3.37334e-06 0)
(2.99995 2.54907e-05 0)
(2.99991 2.38695e-05 0)
(2.99975 0.000153422 0)
(2.9995 0.000237026 0)
(2.99843 0.000958533 0)
(2.99712 0.000823721 0)
(2.98953 0.00291559 0)
(2.98349 0.00348973 0)
(2.92053 -0.00184393 0)
(2.8576 0.0358771 0)
(2.50327 0.0706278 0)
(1.37869 0.26964 0)
(0.830181 0.393634 0)
(0.747686 0.389386 0)
(0.76676 0.373046 0)
(0.773666 0.359355 0)
(0.759429 0.355806 0)
(0.733444 0.359307 0)
(0.704332 0.368998 0)
(0.681327 0.380438 0)
(0.663096 0.393431 0)
(0.647065 0.408645 0)
(0.632215 0.426357 0)
(0.618376 0.446632 0)
(0.605361 0.469462 0)
(0.592563 0.49483 0)
(0.579668 0.523181 0)
(0.567137 0.55508 0)
(0.554851 0.591129 0)
(0.542233 0.631761 0)
(0.529233 0.677602 0)
(0.516446 0.730192 0)
(0.505121 0.792074 0)
(0.498044 0.867308 0)
(0.503337 0.963371 0)
(0.550666 1.09187 0)
(0.61838 1.2788 0)
(3 7.44334e-11 0)
(3 1.37005e-10 0)
(3 5.58072e-10 0)
(3 9.86083e-10 0)
(3 3.31476e-09 0)
(3 6.14293e-09 0)
(3 1.97597e-08 0)
(3 3.08273e-08 0)
(3 1.56404e-07 0)
(3 1.0523e-07 0)
(3 5.08733e-07 0)
(2.99999 8.52149e-07 0)
(2.99999 2.84904e-06 0)
(2.99996 5.01526e-06 0)
(2.99992 1.4843e-05 0)
(2.99976 2.90325e-05 0)
(2.99959 7.33695e-05 0)
(2.9987 0.000166721 0)
(2.99764 0.000504098 0)
(2.99217 0.00100603 0)
(2.98637 0.00395465 0)
(2.94397 0.00504507 0)
(2.90283 0.0313557 0)
(2.60756 0.0562324 0)
(1.67254 0.237479 0)
(1.02748 0.460337 0)
(0.789393 0.460969 0)
(0.789732 0.428009 0)
(0.804568 0.400882 0)
(0.803164 0.392566 0)
(0.784086 0.393069 0)
(0.757131 0.399721 0)
(0.729854 0.409605 0)
(0.707462 0.420968 0)
(0.688505 0.434454 0)
(0.671585 0.450822 0)
(0.656382 0.470009 0)
(0.642682 0.492181 0)
(0.630861 0.517865 0)
(0.621538 0.547637 0)
(0.614174 0.581673 0)
(0.608302 0.620098 0)
(0.604337 0.663465 0)
(0.603161 0.712685 0)
(0.606471 0.769148 0)
(0.617558 0.834763 0)
(0.642196 0.912389 0)
(0.689553 1.00546 0)
(0.794124 1.11467 0)
(0.937322 1.23043 0)
(3 1.28384e-10 0)
(3 1.51263e-10 0)
(3 8.10639e-10 0)
(3 1.08637e-09 0)
(3 4.70633e-09 0)
(3 6.48749e-09 0)
(3 2.70472e-08 0)
(3 3.76436e-08 0)
(3 1.50896e-07 0)
(3 2.12337e-07 0)
(3 8.65661e-07 0)
(2.99999 1.10952e-06 0)
(2.99999 4.60258e-06 0)
(2.99997 6.41057e-06 0)
(2.99995 2.70727e-05 0)
(2.99984 4.14419e-05 0)
(2.99973 0.000161013 0)
(2.99914 0.000308955 0)
(2.99852 0.000559944 0)
(2.99526 0.000443399 0)
(2.99021 0.00406728 0)
(2.96557 0.00560628 0)
(2.94708 0.0290112 0)
(2.74306 0.0623546 0)
(2.15181 0.18739 0)
(1.40929 0.443431 0)
(0.918148 0.486935 0)
(0.864118 0.47015 0)
(0.884641 0.450408 0)
(0.895946 0.440853 0)
(0.878236 0.441018 0)
(0.849211 0.444776 0)
(0.817459 0.452106 0)
(0.787688 0.460971 0)
(0.76213 0.471568 0)
(0.739406 0.484792 0)
(0.719013 0.500884 0)
(0.702221 0.52051 0)
(0.689476 0.544753 0)
(0.680189 0.573487 0)
(0.674161 0.606425 0)
(0.67199 0.644012 0)
(0.674488 0.68682 0)
(0.682985 0.735542 0)
(0.699553 0.790876 0)
(0.727635 0.85348 0)
(0.772669 0.923342 0)
(0.839048 0.999921 0)
(0.945505 1.07792 0)
(1.07845 1.1377 0)
(3 6.68502e-11 0)
(3 8.23054e-11 0)
(3 4.10901e-10 0)
(3 5.91431e-10 0)
(3 2.37753e-09 0)
(3 3.49327e-09 0)
(3 1.29984e-08 0)
(3 2.64883e-08 0)
(3 3.30948e-08 0)
(3 2.06594e-07 0)
(3 5.98781e-07 0)
(3 1.05903e-06 0)
(3 3.68678e-06 0)
(2.99999 5.70066e-06 0)
(2.99998 2.07527e-05 0)
(2.99998 3.28864e-05 0)
(3.00003 0.000101289 0)
(2.99937 0.000312865 0)
(2.99786 0.00100378 0)
(2.99798 0.00169938 0)
(2.99496 0.00569903 0)
(2.98535 0.00976198 0)
(2.99442 0.0261803 0)
(2.80391 0.052658 0)
(2.44394 0.104968 0)
(1.77927 0.292813 0)
(0.96106 0.446507 0)
(0.866087 0.473643 0)
(0.898676 0.482395 0)
(0.931677 0.483685 0)
(0.93369 0.490046 0)
(0.915207 0.497211 0)
(0.889614 0.504876 0)
(0.861899 0.512411 0)
(0.836302 0.520583 0)
(0.81265 0.530439 0)
(0.79118 0.542724 0)
(0.773958 0.558538 0)
(0.760856 0.578897 0)
(0.750886 0.603499 0)
(0.744949 0.632397 0)
(0.744393 0.665937 0)
(0.750361 0.704464 0)
(0.764302 0.748271 0)
(0.788197 0.797371 0)
(0.824445 0.851392 0)
(0.877114 0.908879 0)
(0.947948 0.967074 0)
(1.04523 1.02182 0)
(1.15611 1.05988 0)
(3 -3.05554e-11 0)
(3 3.08223e-11 0)
(3 -4.83636e-11 0)
(3 2.57823e-10 0)
(3 -1.26312e-10 0)
(3 1.45948e-09 0)
(3 -8.38513e-10 0)
(3 7.78986e-09 0)
(3 -3.00339e-09 0)
(3 4.56083e-08 0)
(3 -2.47984e-08 0)
(3 2.68814e-07 0)
(3 4.47025e-08 0)
(3 1.36908e-06 0)
(3 -1.44633e-06 0)
(2.99998 2.5312e-06 0)
(3.00019 -2.16247e-05 0)
(3.00064 -6.85912e-05 0)
(3.00084 0.000185931 0)
(3.0031 0.000899114 0)
(3.00363 0.000415563 0)
(3.0007 0.00201671 0)
(3.01509 0.00251963 0)
(2.84551 -0.00374541 0)
(2.65102 0.0624678 0)
(2.11319 0.159874 0)
(1.01303 0.442556 0)
(0.826281 0.493009 0)
(0.860215 0.508916 0)
(0.908686 0.514532 0)
(0.932619 0.523324 0)
(0.929989 0.53403 0)
(0.916312 0.544436 0)
(0.898181 0.554307 0)
(0.880982 0.564027 0)
(0.864324 0.574077 0)
(0.848795 0.585385 0)
(0.836945 0.599246 0)
(0.828043 0.616306 0)
(0.820958 0.636693 0)
(0.817292 0.660742 0)
(0.818831 0.688725 0)
(0.82697 0.720852 0)
(0.843203 0.757141 0)
(0.869242 0.797287 0)
(0.906928 0.84045 0)
(0.958596 0.885163 0)
(1.0254 0.928378 0)
(1.11182 0.967144 0)
(1.20609 0.993992 0)
(3 -2.43305e-11 0)
(3 -7.37446e-12 0)
(3 -1.02712e-10 0)
(3 -5.42358e-11 0)
(3 -5.69741e-10 0)
(3 -6.34647e-10 0)
(3 -3.42593e-09 0)
(3 -6.37692e-09 0)
(3 -2.23225e-08 0)
(3 -3.4955e-08 0)
(3 -1.41362e-07 0)
(3 -2.37779e-07 0)
(3 -8.62997e-07 0)
(2.99999 -1.02886e-06 0)
(2.99999 -5.11173e-06 0)
(2.99995 -6.34222e-06 0)
(2.99991 -1.37987e-05 0)
(2.99971 -0.000163787 0)
(2.99948 -0.000508767 0)
(2.99836 -0.000883854 0)
(2.99678 -0.00303159 0)
(2.98888 -0.00355003 0)
(2.98587 -0.00540096 0)
(2.89578 -0.0196413 0)
(2.79898 0.0875675 0)
(2.39157 0.0738623 0)
(1.2597 0.482124 0)
(0.869215 0.550601 0)
(0.848573 0.552016 0)
(0.891853 0.547508 0)
(0.924694 0.546753 0)
(0.931068 0.554693 0)
(0.925244 0.565413 0)
(0.915357 0.577677 0)
(0.905675 0.590231 0)
(0.896375 0.602569 0)
(0.888881 0.615739 0)
(0.88478 0.630957 0)
(0.882455 0.647662 0)
(0.881054 0.666186 0)
(0.882192 0.687018 0)
(0.887506 0.71043 0)
(0.89842 0.736607 0)
(0.916275 0.765554 0)
(0.942544 0.796943 0)
(0.978656 0.830055 0)
(1.02617 0.863651 0)
(1.08554 0.89571 0)
(1.15968 0.923866 0)
(1.24002 0.943876 0)
(3 5.33773e-12 0)
(3 1.0581e-11 0)
(3 4.12614e-11 0)
(3 7.65243e-11 0)
(3 2.71877e-10 0)
(3 4.66732e-10 0)
(3 1.53943e-09 0)
(3 3.03292e-09 0)
(3 8.79718e-09 0)
(3 1.30783e-08 0)
(3 4.90369e-08 0)
(3 7.98523e-08 0)
(3 3.11943e-07 0)
(2.99999 2.71475e-07 0)
(2.99999 4.09857e-06 0)
(2.99996 -2.46247e-06 0)
(2.99993 -2.00262e-06 0)
(2.99982 -2.99703e-06 0)
(2.99964 -3.97467e-05 0)
(2.9989 -0.000111406 0)
(2.99921 -0.00024569 0)
(2.99682 0.00011757 0)
(2.98929 0.00258146 0)
(2.99817 -2.81266e-05 0)
(2.82415 0.062748 0)
(2.53614 0.0505502 0)
(1.8961 0.302284 0)
(1.03272 0.52726 0)
(0.905379 0.557181 0)
(0.919268 0.561388 0)
(0.94546 0.560655 0)
(0.95463 0.568161 0)
(0.948754 0.579677 0)
(0.939332 0.592699 0)
(0.930678 0.606347 0)
(0.924527 0.620368 0)
(0.922972 0.635507 0)
(0.924876 0.652025 0)
(0.927507 0.669291 0)
(0.931186 0.687542 0)
(0.93723 0.706972 0)
(0.946774 0.727678 0)
(0.960937 0.749724 0)
(0.980745 0.773119 0)
(1.0073 0.797673 0)
(1.04169 0.82288 0)
(1.08504 0.847884 0)
(1.1377 0.87135 0)
(1.20183 0.891958 0)
(1.26982 0.907102 0)
(3 2.43593e-11 0)
(3 1.30863e-11 0)
(3 1.12912e-10 0)
(3 8.34779e-11 0)
(3 6.32805e-10 0)