/*--------------------------------*- C++ -*----------------------------------*\
| =========                 |                                                 |
| \\      /  F ield         | OpenFOAM: The Open Source CFD Toolbox           |
|  \\    /   O peration     | Version:  2412                                  |
|   \\  /    A nd           | Website:  www.openfoam.com                      |
|    \\/     M anipulation  |                                                 |
\*---------------------------------------------------------------------------*/
FoamFile
{
    version     2.0;
    format      ascii;
    arch        "LSB;label=32;scalar=64";
    class       volScalarField;
    location    "22";
    object      Ma;
}
// * * * * * * * * * * * * * * * * * * * * * * * * * * * * * * * * * * * * * //

dimensions      [0 0 0 0 0 0 0];

internalField   nonuniform List<scalar> 
7000
(
2.25602
0.994237
0.300569
0.338439
0.401064
0.442394
0.450602
0.446132
0.439777
0.434868
0.432022
0.42975
0.42715
0.424063
0.420591
0.416816
0.41275
0.408371
0.40366
0.3986
0.393178
0.387381
0.381195
0.374602
0.367589
0.360136
0.352227
0.343841
0.33496
0.325562
0.315628
0.305136
0.294066
0.282397
0.27011
0.257187
0.243613
0.229375
0.214467
0.198885
0.182635
0.165729
0.148191
0.130055
0.11137
0.0921937
0.0725917
0.0528478
0.0319235
0.0155247
2.25607
0.994298
0.300366
0.338274
0.400909
0.442246
0.450454
0.445988
0.439639
0.434736
0.431895
0.429626
0.42703
0.423947
0.42048
0.41671
0.412649
0.408276
0.403572
0.398518
0.393104
0.387314
0.381137
0.374555
0.367552
0.360111
0.352214
0.343842
0.334976
0.325595
0.315679
0.305207
0.294159
0.282514
0.270254
0.25736
0.243819
0.229616
0.214748
0.19921
0.183012
0.166166
0.148703
0.130662
0.112104
0.0931184
0.07382
0.0546565
0.0351577
0.0220576
2.2562
0.994495
0.300499
0.338308
0.400939
0.442279
0.450488
0.446028
0.439697
0.434805
0.431977
0.429713
0.427128
0.42405
0.420598
0.416835
0.41279
0.408427
0.40374
0.398698
0.393304
0.38753
0.381376
0.374813
0.367838
0.360421
0.352558
0.344216
0.33539
0.326047
0.31618
0.305756
0.294766
0.283181
0.270992
0.258174
0.24472
0.230617
0.21586
0.200453
0.184405
0.167743
0.150501
0.132746
0.114566
0.0961177
0.0776347
0.0598405
0.0430414
0.0335727
2.25637
0.994801
0.30077
0.338386
0.40102
0.442378
0.450591
0.446145
0.439827
0.434963
0.432146
0.429901
0.427323
0.424268
0.420826
0.41709
0.413057
0.408723
0.404051
0.399044
0.393669
0.387935
0.381806
0.375289
0.368345
0.360984
0.353159
0.344883
0.336107
0.326842
0.317037
0.306706
0.295797
0.284324
0.272237
0.259556
0.246235
0.232298
0.217719
0.202525
0.186721
0.170348
0.153464
0.136149
0.118556
0.100897
0.0835515
0.0674583
0.0533034
0.046181
2.25662
0.995232
0.301119
0.338455
0.401105
0.442499
0.450721
0.446295
0.43999
0.435167
0.432361
0.430148
0.427579
0.424559
0.421131
0.417433
0.41342
0.409127
0.404481
0.39952
0.394179
0.388496
0.382411
0.375953
0.369067
0.361772
0.35402
0.345821
0.337136
0.327962
0.318272
0.308049
0.297282
0.285941
0.274031
0.261513
0.248411
0.234685
0.220381
0.205467
0.190018
0.174039
0.157641
0.140923
0.124074
0.10741
0.0913728
0.0770301
0.065109
0.059495
2.25695
0.995804
0.301563
0.338527
0.401201
0.442644
0.45089
0.446466
0.440219
0.435402
0.432656
0.430441
0.42793
0.424909
0.421545
0.417853
0.413909
0.409628
0.405059
0.400115
0.394861
0.389206
0.383219
0.376801
0.370025
0.362787
0.355161
0.347041
0.338498
0.32943
0.319902
0.309821
0.29924
0.288084
0.276392
0.264113
0.251272
0.237854
0.223872
0.209362
0.194334
0.178895
0.16309
0.147118
0.131167
0.115613
0.100985
0.0882982
0.0781885
0.0736205
2.25737
0.99653
0.302106
0.338602
0.401308
0.442822
0.451094
0.446698
0.440481
0.435714
0.432996
0.430826
0.428338
0.425368
0.422033
0.4184
0.41449
0.410278
0.405748
0.400887
0.395679
0.390122
0.384191
0.377892
0.371185
0.364089
0.35655
0.348599
0.340167
0.331301
0.321915
0.312072
0.301676
0.290799
0.279349
0.267398
0.254875
0.241847
0.228283
0.214248
0.199774
0.184941
0.169889
0.154753
0.139835
0.12548
0.112235
0.101079
0.0924454
0.0886259
2.25788
0.997422
0.302758
0.338683
0.401428
0.443033
0.451341
0.446978
0.4408
0.436089
0.43341
0.431289
0.42884
0.425923
0.422635
0.419061
0.415208
0.411063
0.406602
0.401818
0.396695
0.391228
0.385402
0.379207
0.372631
0.365657
0.358279
0.350473
0.342241
0.333547
0.324409
0.314776
0.304684
0.294068
0.282989
0.27137
0.259293
0.246694
0.233667
0.220193
0.206377
0.192285
0.178051
0.163897
0.150055
0.136959
0.125075
0.115264
0.107844
0.104624
2.2585
0.998492
0.303528
0.338771
0.401564
0.443278
0.451638
0.447308
0.44119
0.43653
0.43391
0.431834
0.429445
0.426579
0.423358
0.419846
0.416069
0.411997
0.407625
0.402928
0.39791
0.39255
0.386847
0.380783
0.374353
0.367541
0.360338
0.352732
0.344709
0.336263
0.327374
0.318047
0.308253
0.298018
0.287299
0.276152
0.264521
0.252504
0.240043
0.227278
0.21419
0.200958
0.187672
0.174548
0.161897
0.150029
0.139453
0.13089
0.124493
0.121716
2.25922
0.999751
0.304424
0.338869
0.401718
0.443567
0.451986
0.447709
0.441642
0.437061
0.43449
0.432488
0.430149
0.427363
0.424203
0.420781
0.417076
0.413106
0.408822
0.404243
0.399333
0.394111
0.388541
0.382641
0.376376
0.369759
0.362758
0.355385
0.347612
0.339447
0.330866
0.321878
0.312466
0.302639
0.292395
0.281739
0.270698
0.259277
0.247547
0.235514
0.223323
0.211002
0.198787
0.186795
0.175339
0.164785
0.15544
0.147992
0.142491
0.140146
2.26006
1.00121
0.305457
0.338977
0.401894
0.443899
0.452397
0.448164
0.442191
0.437668
0.435186
0.433237
0.430988
0.428264
0.425204
0.421856
0.418265
0.414384
0.410229
0.40576
0.401
0.395915
0.390522
0.38479
0.378733
0.372324
0.365573
0.358457
0.350983
0.343134
0.334914
0.326316
0.317342
0.307995
0.29828
0.288218
0.277819
0.267129
0.256174
0.24504
0.233782
0.222547
0.21144
0.200705
0.190519
0.181224
0.173166
0.166808
0.162135
0.1601
2.26102
1.00289
0.306635
0.339101
0.402094
0.444287
0.452873
0.448717
0.442813
0.438397
0.435975
0.434127
0.431942
0.429328
0.426344
0.423119
0.419618
0.415878
0.411833
0.407527
0.402903
0.398007
0.392782
0.387274
0.381427
0.375284
0.368791
0.361992
0.354837
0.347369
0.339544
0.331404
0.322917
0.314123
0.30501
0.295616
0.285959
0.276075
0.266029
0.25586
0.245699
0.2356
0.225773
0.216329
0.207541
0.199609
0.192764
0.18749
0.183632
0.182025
2.26211
1.00478
0.307965
0.339244
0.402324
0.444727
0.453426
0.449342
0.443556
0.439224
0.436907
0.435136
0.433061
0.430534
0.427673
0.424549
0.421189
0.417568
0.413687
0.409524
0.405093
0.400372
0.395377
0.390084
0.384509
0.37863
0.372464
0.365989
0.359228
0.352158
0.344807
0.337156
0.329243
0.321051
0.312633
0.303978
0.29516
0.286183
0.277143
0.268078
0.259098
0.250317
0.241832
0.233866
0.226516
0.220067
0.214646
0.210546
0.207569
0.206267
2.26332
1.0069
0.309449
0.339398
0.402597
0.445224
0.454061
0.450072
0.444405
0.440188
0.437967
0.436303
0.434329
0.431923
0.429177
0.42619
0.422961
0.4195
0.415774
0.411801
0.407555
0.403062
0.398291
0.39327
0.387968
0.382416
0.376582
0.370503
0.364148
0.357554
0.350702
0.343627
0.336325
0.328832
0.321163
0.313355
0.305451
0.2975
0.289567
0.281733
0.274079
0.266731
0.259806
0.253423
0.247781
0.242931
0.239024
0.236289
0.234367
0.233714
2.26465
1.00924
0.311087
0.339558
0.402922
0.445783
0.454789
0.450915
0.445382
0.441298
0.439181
0.437636
0.435775
0.4335
0.430883
0.428044
0.424966
0.421675
0.418129
0.414356
0.410329
0.406071
0.401567
0.396827
0.39185
0.386635
0.381198
0.375523
0.369651
0.36355
0.357283
0.35081
0.344218
0.337465
0.330652
0.323758
0.316887
0.310057
0.303366
0.296887
0.290719
0.284971
0.279766
0.275238
0.27148
0.268669
0.266696
0.265724
0.265192
0.265158
2.26611
1.01181
0.312891
0.339755
0.403287
0.446428
0.455634
0.451886
0.446531
0.442568
0.440587
0.43915
0.437433
0.435281
0.432826
0.430127
0.427235
0.424108
0.420779
0.417205
0.413435
0.40942
0.40522
0.400779
0.396163
0.391316
0.386308
0.381089
0.375727
0.370188
0.364533
0.358754
0.352897
0.346997
0.341078
0.335226
0.32945
0.323883
0.318546
0.313587
0.309077
0.305155
0.301928
0.299524
0.298083
0.297583
0.29808
0.299509
0.301154
0.302679
2.26769
1.01461
0.314852
0.339983
0.403706
0.447181
0.456616
0.453021
0.447867
0.444038
0.442199
0.440882
0.439315
0.437301
0.435014
0.432475
0.429772
0.426838
0.423729
0.42039
0.416878
0.413151
0.409255
0.405165
0.400914
0.396494
0.391925
0.387224
0.382396
0.377482
0.372481
0.367456
0.362406
0.357412
0.352495
0.347734
0.343201
0.33896
0.335152
0.331833
0.329181
0.327316
0.326394
0.326518
0.327919
0.330659
0.334524
0.33963
0.344729
0.348728
2.26938
1.0176
0.316955
0.340249
0.404195
0.448067
0.457766
0.454366
0.449412
0.445761
0.444041
0.44288
0.441443
0.439606
0.437466
0.435127
0.432596
0.429894
0.426993
0.423928
0.420671
0.417268
0.413688
0.409982
0.406119
0.402155
0.398065
0.393905
0.389667
0.385401
0.381125
0.376881
0.372722
0.36868
0.364852
0.361272
0.358067
0.355311
0.353125
0.351689
0.351065
0.351511
0.353203
0.356414
0.361332
0.368072
0.376903
0.387636
0.399372
0.409976
2.27114
1.02076
0.319179
0.340564
0.404775
0.449112
0.459123
0.455943
0.451221
0.447745
0.446157
0.445145
0.443859
0.442194
0.440232
0.438085
0.435763
0.433284
0.430636
0.427834
0.424883
0.421793
0.418583
0.415253
0.411837
0.408327
0.404775
0.401166
0.397574
0.393983
0.390482
0.387068
0.383839
0.380826
0.378125
0.375823
0.374001
0.372847
0.372426
0.372927
0.374591
0.377709
0.382631
0.389499
0.398926
0.411254
0.426951
0.447111
0.470993
0.498601
2.27296
1.024
0.321459
0.340944
0.405485
0.450373
0.460768
0.457831
0.453396
0.450064
0.448623
0.447728
0.446614
0.445096
0.443331
0.441356
0.439263
0.436998
0.434622
0.432087
0.429459
0.4267
0.423874
0.420951
0.41799
0.414978
0.411967
0.408967
0.406021
0.40317
0.400448
0.397934
0.395655
0.393736
0.392209
0.391247
0.390888
0.391317
0.392702
0.395388
0.399594
0.40569
0.413896
0.425057
0.439624
0.459162
0.485087
0.5206
0.571933
0.664911
2.27504
1.02773
0.323988
0.341215
0.406283
0.45197
0.462919
0.460355
0.456268
0.453164
0.451882
0.451209
0.45031
0.449067
0.447549
0.445888
0.444082
0.442183
0.440154
0.438052
0.435844
0.4336
0.431281
0.428968
0.426622
0.424334
0.422069
0.419928
0.417888
0.416059
0.414441
0.413148
0.41222
0.411777
0.41192
0.412692
0.414254
0.41702
0.42121
0.426902
0.434593
0.444564
0.457836
0.474822
0.497609
0.527616
0.569599
0.631154
0.729833
0.881489
2.27725
1.0317
0.326998
0.342166
0.408013
0.454839
0.466509
0.464324
0.460556
0.457509
0.45627
0.455687
0.454948
0.453883
0.452583
0.451148
0.449624
0.448021
0.446353
0.444626
0.442866
0.441081
0.439308
0.437551
0.43586
0.434241
0.432758
0.431419
0.430311
0.429443
0.428936
0.428805
0.429169
0.430051
0.431688
0.434277
0.43799
0.442908
0.449473
0.457797
0.468597
0.48231
0.499817
0.522628
0.551799
0.591362
0.643919
0.718043
0.82899
0.967153
2.27853
1.03402
0.328871
0.343226
0.410176
0.458585
0.471234
0.469547
0.466107
0.463081
0.461877
0.461412
0.460839
0.459952
0.458841
0.457613
0.456323
0.454986
0.453617
0.452227
0.450842
0.449479
0.448169
0.446934
0.445811
0.44483
0.444039
0.443478
0.443208
0.443296
0.443755
0.444658
0.446244
0.448649
0.451871
0.456159
0.461594
0.468584
0.477199
0.488167
0.501501
0.518499
0.539217
0.565775
0.599051
0.64172
0.697379
0.767764
0.864181
0.967499
2.27969
1.03613
0.332185
0.346924
0.41504
0.465
0.478244
0.476429
0.472639
0.469265
0.467986
0.467626
0.467215
0.466504
0.465599
0.464601
0.463596
0.462569
0.461557
0.460546
0.459582
0.458663
0.45784
0.457117
0.456551
0.456162
0.456017
0.45613
0.456547
0.457357
0.458731
0.460712
0.463362
0.466851
0.471244
0.476846
0.483685
0.492274
0.502624
0.51541
0.530892
0.549723
0.572845
0.600707
0.63533
0.677105
0.728935
0.79096
0.868882
0.949932
2.27613
1.02974
0.334327
0.356828
0.427464
0.479827
0.49333
0.490532
0.48553
0.481282
0.479624
0.479069
0.478496
0.477627
0.476567
0.475473
0.47441
0.473386
0.47241
0.471498
0.470672
0.469963
0.469384
0.468985
0.46879
0.468828
0.469099
0.469768
0.470847
0.47245
0.474544
0.477332
0.48078
0.485176
0.490487
0.497082
0.504983
0.514562
0.52609
0.539796
0.556361
0.575918
0.599487
0.627373
0.660598
0.700062
0.746344
0.800715
0.86422
0.928803
2.28206
1.02259
0.35878
0.382365
0.448484
0.498379
0.510292
0.50654
0.500798
0.496415
0.494714
0.494024
0.493325
0.492376
0.49131
0.490233
0.489201
0.488205
0.487267
0.486387
0.48561
0.484936
0.484423
0.484039
0.48391
0.484065
0.48461
0.485476
0.486866
0.488713
0.491264
0.494409
0.498494
0.503358
0.509469
0.516595
0.525364
0.535467
0.547715
0.561832
0.578651
0.598183
0.621065
0.647795
0.678654
0.7146
0.755571
0.802446
0.855641
0.909202
1.87634
0.772035
0.273297
0.344121
0.417745
0.441223
0.441133
0.437153
0.433509
0.433415
0.43559
0.438478
0.441479
0.444522
0.447661
0.450909
0.454228
0.457571
0.46091
0.464226
0.467501
0.47068
0.473824
0.476964
0.480157
0.483338
0.486629
0.489949
0.493572
0.497381
0.501684
0.506375
0.511809
0.517907
0.525029
0.533165
0.542615
0.553554
0.566092
0.580733
0.597308
0.616698
0.638466
0.663795
0.692072
0.724546
0.760534
0.801009
0.845818
0.890564
1.86891
0.771423
0.282198
0.355353
0.428328
0.447789
0.44332
0.435961
0.430303
0.428408
0.428319
0.428722
0.429323
0.430227
0.431575
0.433356
0.435614
0.438221
0.441298
0.444724
0.448609
0.452677
0.457154
0.461799
0.466832
0.471987
0.477526
0.483255
0.489347
0.495672
0.502405
0.509477
0.517036
0.525173
0.53397
0.543719
0.55432
0.566343
0.579534
0.594606
0.611253
0.630234
0.651275
0.675033
0.701371
0.73068
0.762993
0.798119
0.836522
0.8742
1.86795
0.77011
0.284332
0.365067
0.443614
0.463692
0.45751
0.448136
0.441129
0.438396
0.437496
0.436898
0.43631
0.435908
0.43582
0.436091
0.43672
0.437724
0.439257
0.44124
0.443728
0.446645
0.450164
0.454168
0.458799
0.463944
0.469671
0.475924
0.482715
0.490086
0.497961
0.506551
0.515639
0.525593
0.536012
0.547457
0.559514
0.572787
0.586955
0.602631
0.619557
0.638291
0.658707
0.681208
0.705743
0.732553
0.761595
0.792798
0.826413
0.858943
1.86943
0.773392
0.290125
0.367282
0.443685
0.464289
0.459071
0.450553
0.443974
0.441609
0.441134
0.440955
0.440738
0.440627
0.440712
0.441018
0.441606
0.442513
0.443702
0.445184
0.446987
0.449222
0.451862
0.455074
0.458759
0.46314
0.468052
0.473772
0.480046
0.487243
0.494988
0.503749
0.513054
0.523426
0.534437
0.546571
0.559481
0.573581
0.588577
0.604833
0.622195
0.640935
0.66102
0.68267
0.705853
0.730701
0.75715
0.785245
0.815035
0.843685
1.87254
0.780071
0.297807
0.36124
0.429061
0.450302
0.44802
0.441955
0.436346
0.434471
0.434508
0.435038
0.435626
0.43634
0.437232
0.438404
0.439864
0.441549
0.44342
0.445527
0.447871
0.450534
0.453492
0.456862
0.460599
0.464876
0.469592
0.475002
0.480928
0.4877
0.495079
0.503403
0.512441
0.522486
0.533355
0.545268
0.558092
0.57201
0.586948
0.60305
0.620276
0.638761
0.658405
0.679349
0.70147
0.724944
0.749554
0.775279
0.802295
0.828134
1.88112
0.786651
0.300058
0.349028
0.41219
0.441238
0.444211
0.439525
0.434373
0.43209
0.431845
0.432368
0.433086
0.434006
0.435103
0.436435
0.438031
0.439887
0.442001
0.444397
0.447072
0.450079
0.453389
0.457089
0.461126
0.465644
0.47055
0.47605
0.482011
0.488685
0.49593
0.503988
0.512755
0.522412
0.532899
0.544365
0.556741
0.570161
0.584555
0.600047
0.616562
0.63421
0.65291
0.672761
0.693662
0.715647
0.738571
0.762396
0.787214
0.810864
2.26311
1.10606
0.407233
0.399192
0.459372
0.508068
0.51936
0.514469
0.507546
0.501497
0.497981
0.495509
0.493397
0.491378
0.48935
0.487378
0.485654
0.484164
0.483016
0.482169
0.48174
0.481691
0.482145
0.483078
0.484558
0.486623
0.489307
0.492668
0.496708
0.501518
0.507076
0.51349
0.520733
0.528927
0.538021
0.548148
0.559237
0.571406
0.58458
0.598864
0.614155
0.63055
0.647926
0.666336
0.685691
0.705982
0.727108
0.748988
0.771701
0.79331
2.27253
1.12795
0.391709
0.377137
0.450001
0.510719
0.529119
0.528237
0.524015
0.520211
0.518769
0.518393
0.518377
0.518338
0.517923
0.517294
0.516621
0.515992
0.515424
0.514949
0.514582
0.514387
0.514385
0.514657
0.51524
0.516211
0.517607
0.519539
0.522002
0.525153
0.52894
0.533555
0.538913
0.545197
0.552337
0.560467
0.569562
0.579716
0.590914
0.603186
0.616559
0.630981
0.646478
0.662956
0.680386
0.698698
0.7178
0.737596
0.758154
0.77772
2.29746
1.17667
0.434289
0.384003
0.447097
0.503391
0.52187
0.522899
0.521074
0.519889
0.520308
0.52154
0.523335
0.525136
0.526544
0.527744
0.528868
0.530015
0.531164
0.532344
0.533531
0.534775
0.536068
0.53747
0.538984
0.540681
0.542579
0.544751
0.547243
0.550121
0.553454
0.557292
0.561732
0.566806
0.572634
0.579224
0.586695
0.595034
0.60434
0.614586
0.625819
0.638009
0.651185
0.66533
0.680417
0.696418
0.713232
0.730706
0.748928
0.766312
1.90075
0.805041
0.305828
0.316889
0.374004
0.41489
0.429171
0.432999
0.435823
0.439475
0.444407
0.450154
0.456593
0.463088
0.469266
0.475263
0.481229
0.487192
0.493137
0.499023
0.504846
0.510585
0.516259
0.521847
0.527384
0.532846
0.538302
0.543722
0.5492
0.554724
0.560368
0.566176
0.572212
0.578543
0.585222
0.592347
0.599945
0.608136
0.616909
0.626399
0.636562
0.647536
0.659232
0.671755
0.684992
0.698959
0.713593
0.728918
0.744933
0.760249
2.30596
1.19381
0.449633
0.386649
0.44067
0.492243
0.509244
0.509305
0.506159
0.503682
0.502424
0.502239
0.502694
0.50309
0.503414
0.503918
0.504743
0.506019
0.507715
0.509873
0.512447
0.515488
0.51895
0.522877
0.527191
0.531949
0.537034
0.542537
0.548298
0.554434
0.560819
0.56756
0.574539
0.581879
0.589471
0.597454
0.605744
0.614471
0.623576
0.633174
0.643232
0.653834
0.664963
0.676654
0.688914
0.701727
0.715099
0.728942
0.743344
0.757064
2.3112
1.20379
0.432933
0.369739
0.438379
0.500639
0.522094
0.523507
0.521288
0.519817
0.519945
0.521076
0.522806
0.52431
0.525335
0.526182
0.527016
0.527965
0.529039
0.530328
0.531837
0.533651
0.535759
0.538243
0.541091
0.544367
0.548062
0.552216
0.556829
0.561913
0.567469
0.573483
0.579963
0.586882
0.594274
0.602079
0.610349
0.619007
0.628134
0.637634
0.647611
0.657956
0.668792
0.679995
0.691686
0.70374
0.716253
0.729086
0.742368
0.75497
2.31393
1.20961
0.437109
0.37178
0.441506
0.505362
0.52774
0.529422
0.527258
0.52591
0.526382
0.527899
0.53017
0.532363
0.534082
0.535611
0.537138
0.538769
0.540501
0.542363
0.54435
0.546497
0.548819
0.551347
0.554116
0.557149
0.56049
0.564152
0.568188
0.572597
0.577436
0.582692
0.588423
0.594596
0.601265
0.608391
0.616017
0.6241
0.632669
0.641687
0.651166
0.661081
0.671423
0.682179
0.693311
0.704832
0.716673
0.728849
0.741352
0.753243
2.31691
1.21733
0.463481
0.38784
0.447105
0.506233
0.528794
0.532025
0.531147
0.530777
0.531669
0.533598
0.536136
0.538434
0.540461
0.542365
0.544322
0.546364
0.548541
0.550823
0.553253
0.555804
0.55853
0.561401
0.564479
0.567738
0.57124
0.574967
0.57898
0.583265
0.587882
0.592828
0.598148
0.603846
0.60995
0.616468
0.623413
0.630805
0.638634
0.646923
0.655641
0.664816
0.6744
0.684417
0.694805
0.705581
0.716674
0.728082
0.739826
0.751003
1.90563
0.813592
0.324729
0.323678
0.376478
0.414371
0.427259
0.430302
0.432593
0.435933
0.440705
0.446616
0.453343
0.460162
0.466871
0.473532
0.480267
0.487062
0.493927
0.500806
0.507704
0.514583
0.52146
0.528309
0.535153
0.541982
0.548821
0.555668
0.562546
0.569467
0.576449
0.583521
0.590695
0.598014
0.605481
0.613151
0.621019
0.62914
0.637504
0.646152
0.655076
0.664303
0.673817
0.683641
0.693751
0.704157
0.714832
0.725769
0.737015
0.747691
2.31201
1.20864
0.464998
0.403512
0.466213
0.527399
0.549328
0.550256
0.546112
0.542279
0.540073
0.5387
0.538106
0.537709
0.536975
0.536253
0.535687
0.535534
0.535722
0.53641
0.537523
0.539136
0.541217
0.543806
0.546865
0.550422
0.554435
0.558931
0.563851
0.56922
0.574982
0.581142
0.587651
0.594518
0.601702
0.609212
0.617016
0.625119
0.633499
0.642164
0.651101
0.660315
0.669796
0.679543
0.68954
0.699775
0.710237
0.720901
0.731829
0.742192
2.29405
1.16962
0.460099
0.422704
0.48581
0.546207
0.566094
0.566133
0.562413
0.559176
0.558419
0.558822
0.559909
0.561172
0.562045
0.562683
0.563274
0.563932
0.564668
0.565491
0.566412
0.567475
0.568727
0.570211
0.57196
0.574017
0.576401
0.579144
0.582262
0.585777
0.589693
0.594031
0.598794
0.603993
0.609623
0.615681
0.622159
0.629048
0.636335
0.644004
0.652038
0.660417
0.669121
0.678133
0.687449
0.697036
0.706892
0.716979
0.727349
0.737203
1.88784
0.805078
0.340794
0.355369
0.406344
0.443123
0.452858
0.452687
0.451752
0.452604
0.455917
0.460541
0.466082
0.472147
0.478237
0.484359
0.490576
0.496897
0.503273
0.509661
0.516023
0.522349
0.528626
0.534856
0.541032
0.547167
0.553267
0.559359
0.56546
0.571604
0.577816
0.584115
0.590536
0.597096
0.603826
0.61074
0.617863
0.625204
0.632783
0.640599
0.648675
0.657001
0.665594
0.67443
0.683511
0.692825
0.702358
0.712097
0.722085
0.731579
1.87402
0.79633
0.339536
0.356664
0.398325
0.426965
0.43488
0.434833
0.433826
0.433314
0.434047
0.435681
0.438238
0.441446
0.444938
0.44877
0.453026
0.457745
0.462906
0.468489
0.474453
0.480776
0.487414
0.494343
0.501519
0.508917
0.516495
0.524234
0.532099
0.540076
0.54814
0.556301
0.564531
0.572852
0.58124
0.589726
0.598293
0.606971
0.615756
0.624654
0.633661
0.642797
0.652062
0.661469
0.671013
0.680707
0.690543
0.700518
0.71067
0.720282
1.88891
0.806053
0.345039
0.373655
0.430943
0.466898
0.473627
0.469574
0.464492
0.461389
0.460437
0.460407
0.460998
0.461963
0.463002
0.464175
0.465607
0.467368
0.469494
0.471996
0.474899
0.47821
0.48196
0.486142
0.490774
0.495839
0.501349
0.507271
0.513609
0.520325
0.527421
0.534852
0.542615
0.550668
0.559
0.567569
0.57637
0.585362
0.594537
0.603884
0.613398
0.623056
0.632856
0.642773
0.652812
0.662952
0.673199
0.683531
0.694015
0.703909
2.34074
1.12432
0.469059
0.447581
0.513146
0.574888
0.595507
0.594898
0.5896
0.584296
0.581285
0.579376
0.57781
0.576439
0.574885
0.573151
0.571378
0.569665
0.568055
0.566576
0.565253
0.564121
0.563206
0.562557
0.562202
0.562191
0.562542
0.563315
0.564501
0.566139
0.56826
0.57087
0.573995
0.577615
0.581757
0.586392
0.591535
0.597149
0.603246
0.609778
0.616744
0.624101
0.631829
0.639924
0.648337
0.657057
0.666041
0.675278
0.684775
0.693833
1.88937
0.807242
0.346174
0.363477
0.415825
0.456085
0.468557
0.469562
0.469013
0.468992
0.471279
0.474797
0.479004
0.483739
0.488563
0.493375
0.498215
0.503144
0.508119
0.513131
0.518121
0.523097
0.528022
0.532921
0.537763
0.542587
0.547366
0.552144
0.556921
0.561729
0.566573
0.571488
0.576473
0.58158
0.586808
0.59221
0.597774
0.603556
0.609537
0.615773
0.622234
0.628971
0.635957
0.643202
0.650695
0.658447
0.666439
0.674668
0.683151
0.691256
1.8891
0.80739
0.347485
0.364544
0.416098
0.454589
0.465038
0.463974
0.461099
0.45854
0.458073
0.458914
0.4605
0.462707
0.465126
0.467716
0.470584
0.473813
0.477406
0.481349
0.485615
0.490187
0.495043
0.500165
0.505531
0.511117
0.516901
0.522861
0.528977
0.535249
0.541652
0.548186
0.554837
0.561598
0.568464
0.575429
0.582496
0.589666
0.596943
0.604327
0.611828
0.619442
0.627181
0.635041
0.643037
0.651161
0.659427
0.667818
0.676384
0.684518
2.34276
1.128
0.472742
0.449647
0.5164
0.58064
0.603091
0.603193
0.598114
0.593045
0.590262
0.588706
0.587579
0.586727
0.585725
0.584559
0.583334
0.582209
0.581172
0.580314
0.579574
0.579064
0.578719
0.578659
0.578816
0.579297
0.580062
0.58115
0.582577
0.584351
0.586481
0.588965
0.591805
0.594998
0.598543
0.60244
0.606681
0.61126
0.616166
0.621393
0.626925
0.632755
0.638865
0.645251
0.651891
0.658782
0.665903
0.673246
0.680816
0.688057
1.88982
0.808784
0.353445
0.38142
0.439689
0.479638
0.489598
0.487917
0.484872
0.483486
0.484912
0.487588
0.490936
0.49477
0.49867
0.502621
0.506684
0.510912
0.515275
0.519757
0.524319
0.528952
0.533635
0.538366
0.543136
0.54794
0.552781
0.557658
0.562583
0.567557
0.57259
0.577697
0.582877
0.588153
0.593524
0.599011
0.60461
0.610341
0.616201
0.622203
0.628352
0.634658
0.641122
0.647748
0.654537
0.661492
0.668611
0.675883
0.683338
0.690437
1.87525
0.799752
0.35117
0.378108
0.427536
0.459448
0.467097
0.465967
0.464286
0.463572
0.464099
0.465297
0.467197
0.469482
0.471833
0.474315
0.477022
0.480006
0.483274
0.486824
0.490645
0.494732
0.499074
0.503666
0.508497
0.513555
0.518827
0.524302
0.529966
0.535805
0.541808
0.547958
0.55426
0.560692
0.567262
0.573948
0.580763
0.587689
0.594739
0.601894
0.609165
0.616535
0.624017
0.631596
0.639286
0.647071
0.654964
0.662953
0.671085
0.678786
1.87423
0.799385
0.351692
0.375355
0.422433
0.454101
0.462315
0.461854
0.460737
0.460117
0.460387
0.461212
0.462694
0.46453
0.466378
0.46828
0.470336
0.472592
0.475065
0.477755
0.480671
0.483819
0.487206
0.490834
0.494711
0.498832
0.503205
0.507823
0.51269
0.517798
0.52315
0.528737
0.534556
0.540596
0.546853
0.553314
0.559974
0.566817
0.573843
0.581039
0.588404
0.595925
0.603603
0.61142
0.619372
0.627447
0.635655
0.643985
0.652471
0.660529
1.88906
0.809119
0.354873
0.362665
0.413299
0.452097
0.463039
0.462626
0.460837
0.459591
0.459627
0.460437
0.461976
0.463879
0.465706
0.467513
0.469431
0.471523
0.473808
0.476282
0.478949
0.481807
0.484863
0.488118
0.491578
0.495244
0.49912
0.503206
0.507507
0.512023
0.516757
0.521708
0.526878
0.532266
0.537871
0.54369
0.549723
0.555965
0.562414
0.569064
0.57591
0.582944
0.59016
0.597555
0.605127
0.61287
0.620772
0.628826
0.63705
0.644873
2.31233
1.20469
0.485444
0.431486
0.492581
0.556812
0.582803
0.586297
0.583632
0.580901
0.579613
0.579297
0.579786
0.580616
0.581154
0.581445
0.581677
0.58196
0.582336
0.582804
0.583369
0.584033
0.58481
0.585705
0.586735
0.587903
0.589226
0.590707
0.592362
0.594193
0.596216
0.598432
0.600856
0.603488
0.606342
0.609416
0.612725
0.616262
0.620042
0.624057
0.628318
0.632816
0.637561
0.642542
0.647768
0.653222
0.658907
0.6648
0.670931
0.676825
2.32255
1.22879
0.466125
0.405375
0.481449
0.557511
0.588679
0.593359
0.590726
0.587863
0.586875
0.587328
0.588618
0.590433
0.592115
0.593512
0.594843
0.596256
0.597809
0.599489
0.601292
0.603203
0.605232
0.607371
0.609633
0.612011
0.614514
0.617136
0.619887
0.622763
0.625773
0.628911
0.632191
0.635604
0.639165
0.642866
0.64672
0.65072
0.65488
0.659192
0.663668
0.668302
0.673106
0.678073
0.683212
0.688511
0.693978
0.699599
0.705398
0.710937
2.31273
1.20619
0.486683
0.432549
0.494357
0.559817
0.58688
0.59103
0.588979
0.586867
0.586297
0.586954
0.588462
0.590452
0.592251
0.593844
0.595418
0.597101
0.598929
0.600904
0.603013
0.605258
0.607635
0.610153
0.612809
0.61561
0.618553
0.621643
0.624877
0.628261
0.63179
0.63547
0.639296
0.643275
0.6474
0.651679
0.656104
0.660683
0.665408
0.670287
0.675311
0.680489
0.685811
0.691286
0.696901
0.702669
0.708573
0.714624
0.720832
0.726771
1.88896
0.809181
0.356075
0.36431
0.416389
0.457007
0.469106
0.469124
0.467538
0.466524
0.467168
0.468795
0.471277
0.474233
0.477167
0.480133
0.483241
0.48657
0.490113
0.493874
0.497829
0.501983
0.506318
0.510845
0.515544
0.520426
0.52547
0.530688
0.536058
0.541593
0.547272
0.553106
0.559075
0.565191
0.571435
0.577818
0.584321
0.590957
0.597705
0.604581
0.611564
0.61867
0.625876
0.633198
0.640614
0.648143
0.655764
0.663499
0.671361
0.678848
1.87421
0.800019
0.355304
0.380478
0.428587
0.460133
0.467653
0.466486
0.464745
0.463862
0.464079
0.464931
0.466473
0.468354
0.470186
0.472037
0.474001
0.47614
0.478451
0.480945
0.48361
0.48646
0.489488
0.492707
0.496111
0.499712
0.503501
0.507491
0.511672
0.516055
0.520629
0.525406
0.530373
0.53554
0.540894
0.546445
0.552178
0.558103
0.564205
0.570492
0.576949
0.583584
0.590379
0.597343
0.604459
0.611733
0.61915
0.626717
0.634443
0.641805
1.87704
0.803107
0.359382
0.395149
0.451559
0.484562
0.490484
0.486953
0.482768
0.480822
0.48081
0.481606
0.483017
0.484681
0.486279
0.487901
0.489645
0.491557
0.493632
0.495869
0.498261
0.500815
0.503527
0.506406
0.509449
0.512664
0.516045
0.519603
0.52333
0.527237
0.531316
0.535576
0.54001
0.544626
0.549417
0.554389
0.559536
0.564864
0.570363
0.576042
0.58189
0.587913
0.594101
0.600459
0.606977
0.613658
0.620492
0.627479
0.634624
0.641436
1.19158
1.04896
0.497639
0.190572
0.0106928
0.108704
0.16014
0.208496
0.230106
0.234482
0.222811
0.211357
0.201042
0.191507
0.179471
0.165017
0.147685
0.127753
0.105931
0.0827887
0.0589663
0.0352554
0.0158641
0.0232633
0.0470012
0.0712916
0.0954451
0.119148
0.142471
0.165373
0.187878
0.209954
0.231593
0.252735
0.272749
0.291851
0.311392
0.331766
0.351733
0.370901
0.389417
0.407414
0.424936
0.441988
0.458565
0.474662
0.490273
0.505395
0.52002
0.534144
0.547756
0.560848
0.573403
0.585409
0.596844
0.607691
0.617922
0.627513
0.636433
0.644655
0.652143
0.658868
0.664794
0.669898
0.674147
0.67753
0.680037
0.681682
0.682477
0.682663
0.682496
0.681955
0.680652
0.678176
0.674819
0.671224
0.667563
0.663856
0.660182
0.656611
0.653256
0.650178
0.647458
0.64512
0.643205
0.641704
0.640627
0.63994
0.639629
0.639614
0.639785
0.640135
0.640784
0.641889
0.643287
0.644813
0.646369
0.648046
0.649689
0.654463
1.12195
1.03607
0.806227
0.549293
0.50234
0.431319
0.381358
0.340595
0.310295
0.291735
0.260412
0.230167
0.210597
0.208859
0.215995
0.22655
0.23901
0.25293
0.268062
0.283922
0.300303
0.316779
0.333106
0.349284
0.36602
0.383008
0.400174
0.417277
0.434377
0.45131
0.468166
0.484797
0.501298
0.517533
0.533194
0.548111
0.563113
0.578833
0.594702
0.609927
0.62465
0.639022
0.653107
0.666883
0.680343
0.693461
0.706236
0.718651
0.730704
0.742377
0.753666
0.76455
0.77502
0.785051
0.794631
0.803729
0.812331
0.820401
0.82792
0.834849
0.841167
0.846834
0.851828
0.856113
0.859672
0.86248
0.864537
0.865835
0.866415
0.86644
0.866155
0.865506
0.864182
0.861829
0.858633
0.855174
0.851637
0.848084
0.844579
0.841198
0.838026
0.835138
0.832591
0.830423
0.828656
0.827294
0.826331
0.825743
0.825526
0.825564
0.825751
0.826097
0.826676
0.827655
0.828875
0.830226
0.831555
0.832976
0.83417
0.837971
1.07466
1.07553
1.00811
0.899719
0.831211
0.78097
0.74504
0.714944
0.690125
0.672036
0.656953
0.642631
0.632631
0.627508
0.625993
0.626257
0.627772
0.630189
0.633581
0.637857
0.642978
0.648757
0.655122
0.661958
0.669514
0.677676
0.686445
0.6956
0.70517
0.714973
0.725083
0.735331
0.745819
0.756365
0.766749
0.776691
0.786762
0.797543
0.808907
0.820001
0.830809
0.841427
0.851943
0.86234
0.872617
0.882727
0.892671
0.902408
0.911945
0.921241
0.930302
0.939087
0.947596
0.955786
0.963656
0.971158
0.978288
0.984996
0.991275
0.997071
1.00238
1.00714
1.01134
1.01495
1.01794
1.02029
1.02198
1.02301
1.02338
1.02327
1.02293
1.02226
1.02097
1.01879
1.01585
1.01262
1.00929
1.00596
1.00269
0.99956
0.996637