/*--------------------------------*- C++ -*----------------------------------*\
| =========                 |                                                 |
| \\      /  F ield         | OpenFOAM: The Open Source CFD Toolbox           |
|  \\    /   O peration     | Version:  2412                                  |
|   \\  /    A nd           | Website:  www.openfoam.com                      |
|    \\/     M anipulation  |                                                 |
\*---------------------------------------------------------------------------*/
FoamFile
{
    version     2.0;
    format      ascii;
    arch        "LSB;label=32;scalar=64";
    class       volScalarField;
    location    "22";
    object      p;
}
// * * * * * * * * * * * * * * * * * * * * * * * * * * * * * * * * * * * * * //

dimensions      [1 -1 -2 0 0 0 0];

internalField   nonuniform List<scalar> 
7000
(
1.63882
3.75661
11.4553
11.5281
11.0976
10.6881
10.5693
10.5839
10.6249
10.6647
10.6865
10.7003
10.7148
10.7325
10.7529
10.7751
10.7989
10.8243
10.8515
10.8805
10.9114
10.944
10.9785
11.0149
11.0531
11.0932
11.1351
11.1787
11.2241
11.2712
11.3198
11.3699
11.4213
11.4739
11.5274
11.5816
11.6362
11.6908
11.7451
11.7985
11.8505
11.9005
11.948
11.9921
12.0324
12.068
12.0983
12.1228
12.1404
12.1534
1.63913
3.75532
11.4548
11.5275
11.0972
10.6877
10.569
10.5836
10.6246
10.6643
10.686
10.6998
10.7143
10.732
10.7523
10.7745
10.7983
10.8237
10.8509
10.8799
10.9107
10.9433
10.9778
11.0141
11.0523
11.0923
11.1342
11.1778
11.2231
11.2701
11.3187
11.3688
11.4202
11.4728
11.5263
11.5805
11.6351
11.6897
11.7439
11.7973
11.8494
11.8995
11.947
11.9913
12.0317
12.0674
12.0978
12.1224
12.1401
12.1531
1.63902
3.75439
11.4529
11.5266
11.0965
10.687
10.5683
10.5829
10.6238
10.6634
10.6851
10.6988
10.7132
10.7309
10.7511
10.7733
10.797
10.8223
10.8494
10.8783
10.9091
10.9416
10.976
11.0122
11.0503
11.0902
11.1319
11.1754
11.2207
11.2675
11.316
11.3659
11.4172
11.4696
11.5229
11.577
11.6314
11.6859
11.7401
11.7934
11.8454
11.8954
11.9429
11.9872
12.0275
12.0633
12.0937
12.1184
12.1359
12.1489
1.63889
3.7531
11.4496
11.5255
11.0955
10.6859
10.5671
10.5817
10.6225
10.6619
10.6835
10.6971
10.7115
10.7291
10.7493
10.7713
10.7949
10.8202
10.8471
10.8759
10.9065
10.9389
10.9732
11.0093
11.0472
11.0869
11.1284
11.1717
11.2167
11.2634
11.3116
11.3613
11.4123
11.4645
11.5176
11.5714
11.6256
11.6799
11.7338
11.7869
11.8387
11.8886
11.936
11.9802
12.0205
12.0563
12.0867
12.1113
12.1288
12.1417
1.63872
3.75123
11.4448
11.5241
11.0942
10.6843
10.5654
10.5799
10.6206
10.6599
10.6813
10.6948
10.7091
10.7266
10.7466
10.7685
10.792
10.8171
10.8439
10.8725
10.9029
10.9351
10.9692
11.005
11.0427
11.0822
11.1234
11.1664
11.2111
11.2575
11.3054
11.3547
11.4054
11.4572
11.5099
11.5633
11.6172
11.6711
11.7247
11.7775
11.8291
11.8788
11.926
11.9701
12.0103
12.046
12.0764
12.101
12.1184
12.1314
1.6385
3.7487
11.4385
11.5223
11.0926
10.6822
10.5631
10.5776
10.6181
10.6572
10.6784
10.6918
10.7059
10.7232
10.7431
10.7648
10.7881
10.813
10.8396
10.868
10.8982
10.9301
10.9639
10.9994
11.0368
11.0759
11.1168
11.1594
11.2037
11.2496
11.297
11.3459
11.3961
11.4474
11.4996
11.5525
11.6059
11.6593
11.7124
11.7648
11.816
11.8654
11.9123
11.9562
11.9963
12.0319
12.0623
12.0869
12.1043
12.1174
1.63823
3.74547
11.4306
11.5201
11.0905
10.6795
10.5602
10.5746
10.615
10.6538
10.6748
10.688
10.7019
10.719
10.7387
10.7602
10.7832
10.8078
10.8342
10.8623
10.8921
10.9237
10.9571
10.9923
11.0292
11.0679
11.1083
11.1504
11.1942
11.2396
11.2864
11.3347
11.3842
11.4348
11.4864
11.5387
11.5913
11.6441
11.6966
11.7484
11.799
11.8479
11.8945
11.938
11.9779
12.0134
12.0437
12.0684
12.0858
12.0991
1.63792
3.74148
11.421
11.5174
11.088
10.6763
10.5567
10.5709
10.6111
10.6496
10.6703
10.6832
10.697
10.7138
10.7332
10.7544
10.7771
10.8015
10.8275
10.8552
10.8846
10.9159
10.9488
10.9835
11.0199
11.0581
11.0979
11.1394
11.1825
11.2271
11.2733
11.3208
11.3695
11.4193
11.47
11.5214
11.5732
11.6252
11.6768
11.7278
11.7777
11.826
11.872
11.9151
11.9546
11.9899
12.0201
12.0448
12.0622
12.0757
1.63755
3.73667
11.4094
11.5141
11.085
10.6725
10.5523
10.5665
10.6063
10.6445
10.6649
10.6776
10.691
10.7075
10.7266
10.7475
10.7698
10.7938
10.8194
10.8467
10.8757
10.9064
10.9388
10.9729
11.0087
11.0462
11.0853
11.126
11.1684
11.2122
11.2574
11.3039
11.3517
11.4005
11.4501
11.5004
11.5511
11.602
11.6526
11.7026
11.7515
11.7988
11.844
11.8865
11.9255
11.9604
11.9905
12.0151
12.0326
12.0464
1.63712
3.731
11.3958
11.5102
11.0815
10.668
10.5472
10.5612
10.6007
10.6385
10.6585
10.6708
10.6839
10.7001
10.7188
10.7392
10.7612
10.7847
10.8098
10.8366
10.865
10.8951
10.9269
10.9603
10.9954
11.0321
11.0704
11.1102
11.1516
11.1943
11.2385
11.2839
11.3304
11.378
11.4263
11.4753
11.5247
11.5741
11.6233
11.672
11.7196
11.7658
11.8099
11.8514
11.8897
11.9241
11.9537
11.9783
11.9958
12.0099
1.63663
3.72442
11.3801
11.5057
11.0774
10.6627
10.5412
10.555
10.594
10.6314
10.651
10.6629
10.6756
10.6913
10.7096
10.7296
10.7511
10.774
10.7986
10.8248
10.8526
10.882
10.913
10.9456
10.9798
11.0156
11.0529
11.0917
11.1319
11.1735
11.2163
11.2603
11.3055
11.3515
11.3983
11.4456
11.4933
11.541
11.5885
11.6354
11.6814
11.7259
11.7686
11.8088
11.8459
11.8794
11.9085
11.9328
11.9501
11.9648
1.63608
3.71688
11.3621
11.5006
11.0727
10.6567
10.5343
10.5478
10.5863
10.6231
10.6423
10.6537
10.6659
10.6812
10.699
10.7184
10.7393
10.7617
10.7856
10.8111
10.8381
10.8668
10.8969
10.9286
10.9618
10.9965
11.0327
11.0702
11.1091
11.1492
11.1906
11.233
11.2764
11.3206
11.3655
11.4109
11.4565
11.5021
11.5474
11.5921
11.6359
11.6783
11.7189
11.7572
11.7927
11.8248
11.8529
11.8767
11.8938
11.9088
1.63546
3.70835
11.3417
11.4947
11.0673
10.6498
10.5263
10.5395
10.5774
10.6136
10.6323
10.6432
10.6548
10.6696
10.6868
10.7056
10.7259
10.7475
10.7707
10.7954
10.8216
10.8493
10.8785
10.9092
10.9412
10.9747
11.0095
11.0456
11.0829
11.1214
11.161
11.2016
11.2429
11.285
11.3276
11.3706
11.4137
11.4567
11.4993
11.5412
11.5821
11.6217
11.6595
11.6951
11.7281
11.7581
11.7844
11.807
11.8236
11.8393
1.63479
3.69879
11.3191
11.4879
11.0611
10.642
10.5172
10.53
10.5672
10.6027
10.6208
10.6311
10.6422
10.6563
10.6728
10.691
10.7105
10.7314
10.7538
10.7776
10.8029
10.8295
10.8576
10.887
10.9178
10.9498
10.9831
11.0176
11.0532
11.0898
11.1273
11.1657
11.2047
11.2443
11.2842
11.3243
11.3644
11.4041
11.4434
11.4817
11.519
11.5547
11.5886
11.6204
11.6497
11.6764
11.6999
11.7205
11.7357
11.7516
1.63406
3.68816
11.2941
11.4803
11.0542
10.6334
10.507
10.5193
10.5556
10.5903
10.6077
10.6174
10.6278
10.6412
10.6571
10.6745
10.6932
10.7132
10.7347
10.7575
10.7817
10.8072
10.834
10.8621
10.8914
10.9218
10.9534
10.986
11.0196
11.054
11.0892
11.125
11.1613
11.198
11.2347
11.2714
11.3079
11.3437
11.3787
11.4126
11.4451
11.4758
11.5044
11.5307
11.5545
11.5757
11.5943
11.611
11.6238
11.64
1.63327
3.67655
11.2666
11.472
11.0465
10.6237
10.4954
10.5072
10.5424
10.5763
10.5929
10.6019
10.6116
10.6242
10.6393
10.6558
10.6737
10.6928
10.7132
10.7349
10.7579
10.7821
10.8076
10.8341
10.8618
10.8905
10.9201
10.9506
10.9819
11.0139
11.0464
11.0793
11.1125
11.1458
11.1788
11.2115
11.2436
11.2747
11.3045
11.3328
11.3591
11.3831
11.4046
11.4232
11.4388
11.4516
11.4621
11.4715
11.4788
11.4936
1.63241
3.66401
11.2368
11.4629
11.0381
10.6129
10.4824
10.4935
10.5274
10.5603
10.5762
10.5845
10.5934
10.6052
10.6193
10.635
10.6519
10.6699
10.6892
10.7097
10.7314
10.7542
10.7781
10.803
10.8288
10.8555
10.883
10.9112
10.94
10.9692
10.9987
11.0283
11.0579
11.0873
11.1161
11.1441
11.171
11.1964
11.22
11.2412
11.2598
11.275
11.2867
11.2944
11.2975
11.2968
11.2934
11.2891
11.2851
11.2958
1.63151
3.65063
11.205
11.453
11.029
10.601
10.4678
10.4781
10.5105
10.5423
10.5574
10.5648
10.5729
10.5838
10.597
10.6117
10.6276
10.6445
10.6626
10.6818
10.702
10.7233
10.7455
10.7685
10.7924
10.8169
10.842
10.8676
10.8935
10.9197
10.9458
10.9718
10.9974
11.0223
11.0462
11.0688
11.0896
11.1083
11.1243
11.1369
11.1457
11.1496
11.148
11.141
11.1261
11.1042
11.0763
11.0456
11.0154
11.0117
1.63058
3.63661
11.1716
11.4426
11.0191
10.5877
10.4514
10.4608
10.4914
10.5222
10.5364
10.543
10.5502
10.5602
10.5724
10.586
10.6007
10.6165
10.6332
10.651
10.6697
10.6893
10.7096
10.7307
10.7523
10.7745
10.797
10.8197
10.8426
10.8653
10.8877
10.9096
10.9307
10.9506
10.969
10.9854
10.9993
11.0101
11.0172
11.0192
11.0163
11.0068
10.9874
10.9583
10.9175
10.8632
10.794
10.712
10.6215
10.5661
1.62962
3.62221
11.1374
11.4314
11.0083
10.5729
10.4327
10.4409
10.4695
10.499
10.5125
10.5183
10.5246
10.5336
10.5448
10.5574
10.5709
10.5854
10.6008
10.6171
10.6341
10.6519
10.6702
10.6891
10.7084
10.7279
10.7476
10.7673
10.7867
10.8058
10.8241
10.8415
10.8576
10.8719
10.8841
10.8936
10.8998
10.9012
10.8985
10.8895
10.871
10.8427
10.8019
10.7456
10.6688
10.5657
10.4278
10.2468
10.013
9.75859
1.62882
3.6039
11.0967
11.4183
10.9946
10.5536
10.4079
10.4145
10.4403
10.4685
10.4812
10.4861
10.4913
10.499
10.5089
10.5201
10.5321
10.545
10.5586
10.5729
10.5878
10.6033
10.6191
10.6353
10.6515
10.6678
10.6839
10.6997
10.7148
10.7291
10.7423
10.7539
10.7636
10.7709
10.7751
10.775
10.7721
10.7633
10.7453
10.7185
10.6807
10.6286
10.5579
10.4618
10.3309
10.1485
9.88544
9.48023
8.78187
7.25965
1.62803
3.58442
11.0536
11.401
10.9755
10.5253
10.3717
10.3763
10.3989
10.4263
10.4388
10.4432
10.4474
10.454
10.4626
10.4724
10.4829
10.4939
10.5055
10.5176
10.5301
10.5428
10.5557
10.5685
10.5812
10.5936
10.6054
10.6165
10.6265
10.6351
10.6421
10.6469
10.6487
10.6477
10.6435
10.6336
10.6166
10.5922
10.5584
10.5127
10.4522
10.372
10.2655
10.1232
9.93014
9.66246
9.27862
8.70968
7.86738
6.48108
1.62757
3.57315
11.0287
11.3894
10.96
10.4969
10.3326
10.3347
10.3535
10.3807
10.3933
10.397
10.4001
10.4054
10.4126
10.4208
10.4297
10.4388
10.4484
10.4581
10.4681
10.478
10.4878
10.4973
10.5063
10.5146
10.522
10.5282
10.533
10.5358
10.536
10.5345
10.5297
10.5195
10.504
10.4826
10.4537
10.4155
10.3659
10.3019
10.2194
10.1136
9.97627
9.79759
9.56224
9.24904
8.82878
8.26123
7.52937
6.55639
1.62694
3.56394
11.0054
11.368
10.932
10.4515
10.2776
10.2798
10.3001
10.3307
10.3447
10.3482
10.3504
10.3547
10.3609
10.368
10.3753
10.3827
10.3901
10.3976
10.4049
10.412
10.4187
10.4248
10.4301
10.4344
10.4374
10.4388
10.4384
10.4362
10.431
10.4215
10.4081
10.3898
10.3656
10.3344
10.2944
10.244
10.1806
10.1012
10.0017
9.8772
9.72072
9.52352
9.27444
8.95967
8.56461
8.07353
7.49317
6.76411
1.62765
3.59832
11.0669
11.3654
10.9045
10.3859
10.2006
10.2059
10.2341
10.2719
10.2884
10.2919
10.2936
10.2973
10.3029
10.309
10.3151
10.321
10.3267
10.3322
10.3372
10.3418
10.3456
10.3487
10.3506
10.3511
10.3504
10.3481
10.343
10.3348
10.3234
10.3081
10.2882
10.263
10.2311
10.1915
10.1424
10.0821
10.0082
9.91794
9.8077
9.67314
9.50894
9.30879
9.06541
8.77105
8.41847
8.00049
7.51955
6.96851
1.58994
3.70879
11.0717
11.2742
10.8237
10.3044
10.1315
10.1415
10.1781
10.218
10.2345
10.2383
10.2403
10.2439
10.2488
10.2537
10.2582
10.2622
10.2658
10.2689
10.2714
10.2731
10.2739
10.2737
10.2726
10.2697
10.2644
10.2572
10.2474
10.2345
10.218
10.1974
10.1718
10.1404
10.1021
10.0557
9.99966
9.93224
9.85143
9.75471
9.63921
9.50148
9.33768
9.14347
8.91441
8.64604
8.33503
7.97871
7.57906
7.1314
1.55508
4.81606
11.2229
10.9531
10.3121
10.0551
10.0507
10.0773
10.1247
10.1512
10.1609
10.1651
10.1694
10.1744
10.1796
10.1841
10.188
10.1911
10.1935
10.1951
10.1957
10.1955
10.1945
10.192
10.1875
10.1815
10.1738
10.1637
10.1506
10.1341
10.1136
10.0886
10.0584
10.0222
9.97894
9.92755
9.86675
9.79496
9.71039
9.611
9.49451
9.35835
9.19978
9.01592
8.80405
8.56174
8.28753
7.98141
7.64472
7.27023
1.55598
4.82304
11.1727
10.884
10.2395
10.0001
10.0103
10.0528
10.1012
10.1229
10.129
10.1315
10.1345
10.1377
10.1403
10.1419
10.1426
10.1425
10.1418
10.14
10.1369
10.133
10.1281
10.1218
10.1138
10.1039
10.0917
10.077
10.0595
10.0387
10.0143
9.98566
9.95193
9.91206
9.86511
9.81023
9.74622
9.67183
9.58565
9.48606
9.3713
9.23949
9.0887
8.91699
8.72275
8.50455
8.26169
7.99366
7.70676
7.39072
1.56613
4.84215
11.2352
10.9039
10.1832
9.92269
9.93778
9.9925
10.0498
10.0743
10.0806
10.0833
10.0867
10.0901
10.0924
10.0934
10.0933
10.0923
10.0899
10.0857
10.0806
10.0743
10.0666
10.0573
10.0461
10.0328
10.0173
9.99915
9.97818
9.95392
9.92571
9.89291
9.85496
9.81147
9.76168
9.70457
9.63919
9.56413
9.47818
9.38009
9.26869
9.14251
9.00036
8.84091
8.6632
8.46654
8.25125
8.01712
7.76801
7.49757
1.55645
4.82034
11.1593
10.8521
10.1592
9.89791
9.90997
9.95923
10.0154
10.0397
10.0453
10.0468
10.0487
10.0506
10.0513
10.0509
10.0493
10.0459
10.0411
10.0352
10.0281
10.0196
10.0095
9.99767
9.98385
9.96785
9.9494
9.92831
9.90418
9.87669
9.84531
9.80962
9.76915
9.72318
9.67108
9.61194
9.54504
9.46957
9.38473
9.28942
9.18273
9.06339
8.93041
8.78298
8.6208
8.4438
8.25219
8.04535
7.82695
7.59221
1.52727
4.76273
10.9518
10.7275
10.1506
9.9025
9.90341
9.93281
9.98147
10.0048
10.0105
10.0112
10.0119
10.0121
10.0117
10.01
10.0063
10.0012
9.99499
9.9876
9.97877
9.96838
9.95623
9.94223
9.92612
9.90783
9.887
9.86349
9.83687
9.80689
9.77317
9.73527
9.69273
9.64496
9.59148
9.53162
9.46473
9.3901
9.30701
9.21463
9.11216
8.99904
8.87476
8.73886
8.59082
8.43036
8.25758
8.07462
7.88191
7.67592
1.5112
4.71723
10.8686
10.7325
10.2338
9.94109
9.8893
9.90763
9.94707
9.97117
9.97789
9.97761
9.97644
9.97414
9.97124
9.96741
9.96232
9.95596
9.94831
9.93933
9.92884
9.91675
9.90287
9.88714
9.86929
9.84922
9.82658
9.80125
9.77285
9.74113
9.70576
9.66634
9.62255
9.57388
9.51983
9.45991
9.39364
9.32045
9.23976
9.15095
9.05349
8.94688
8.83073
8.70472
8.56873
8.42284
8.2674
8.10307
7.9311
7.7485
1.66807
3.2926
10.5069
11.0128
10.5969
10.0771
9.88895
9.89291
9.91818
9.95123
9.96194
9.96078
9.95682
9.95046
9.94462
9.93869
9.93178
9.92353
9.91387
9.9028
9.89024
9.87602
9.86
9.8422
9.82231
9.80017
9.7755
9.74817
9.71783
9.68431
9.64726
9.60636
9.56125
9.51154
9.45686
9.39686
9.33118
9.25939
9.18104
9.09571
9.0029
8.90231
8.79369
8.67678
8.55159
8.41824
8.27705
8.12851
7.97379
7.8104
1.67599
3.16898
10.4411
11.1646
10.7158
10.112
9.86718
9.85433
9.87208
9.90425
9.91469
9.91282
9.90681
9.89746
9.88983
9.88329
9.87634
9.86814
9.85847
9.84732
9.83464
9.8203
9.80414
9.78599
9.76572
9.74314
9.71798
9.6901
9.6592
9.62514
9.58758
9.54634
9.50115
9.45173
9.39784
9.33906
9.27498
9.20525
9.12959
9.04756
8.95894
8.86358
8.76143
8.65262
8.53699
8.4146
8.28566
8.15061
8.01042
7.86297
1.64116
3.05446
9.91234
11.0085
10.6485
10.1096
9.88645
9.86559
9.87656
9.89488
9.89654
9.89259
9.88243
9.86907
9.85789
9.84819
9.83839
9.82763
9.81566
9.80242
9.78785
9.77182
9.75414
9.73466
9.71318
9.68955
9.66355
9.63494
9.60346
9.56894
9.53118
9.48996
9.44503
9.39611
9.34294
9.28521
9.22266
9.15502
9.08206
9.00366
8.91972
8.83003
8.73438
8.63262
8.52466
8.41088
8.29209
8.16861
8.04093
7.90707
1.436
4.54901
10.3363
10.512
10.2195
9.92494
9.81696
9.81434
9.82261
9.83312
9.83303
9.8295
9.82045
9.80848
9.79823
9.7891
9.77961
9.76899
9.75709
9.74389
9.72934
9.71328
9.69556
9.67601
9.65449
9.63081
9.60483
9.57628
9.545
9.51088
9.47369
9.43316
9.3891
9.3413
9.28952
9.23355
9.17316
9.10817
9.03842
8.96376
8.88408
8.79925
8.70921
8.61397
8.51394
8.40919
8.29963
8.18547
8.06771
7.94492
1.6335
3.003
9.72726
10.8963
10.5814
10.0812
9.86167
9.8274
9.83275
9.83923
9.83647
9.82732
9.81064
9.79483
9.78123
9.76867
9.75584
9.742
9.72697
9.71088
9.69369
9.67521
9.65523
9.63362
9.61018
9.58481
9.55732
9.52767
9.4957
9.46108
9.42362
9.38311
9.3394
9.29234
9.2417
9.18725
9.12883
9.06626
8.99941
8.92815
8.85241
8.77214
8.68735
8.59808
8.50447
8.40664
8.30474
8.19917
8.09051
7.97752
1.64236
2.93488
9.72864
11.0212
10.6399
10.0489
9.79166
9.75815
9.7683
9.78395
9.78286
9.77572
9.75976
9.74266
9.72882
9.71669
9.70444
9.69135
9.67723
9.66185
9.64508
9.62687
9.60712
9.58571
9.56252
9.53738
9.51016
9.48071
9.4489
9.41453
9.37748
9.33761
9.29473
9.24862
9.19916
9.14622
9.08969
9.02944
8.96537
8.8974
8.82546
8.7495
8.66951
8.58557
8.49773
8.40615
8.31103
8.21282
8.11195
8.00716
1.64067
2.91558
9.67415
10.9996
10.6148
10.0088
9.7422
9.70708
9.71822
9.73655
9.73605
9.72981
9.71483
9.69723
9.6831
9.67104
9.65895
9.64588
9.63161
9.61606
9.59918
9.58088
9.56108
9.53964
9.51645
9.49137
9.46427
9.43503
9.40352
9.3696
9.33315
9.29402
9.25207
9.20716
9.15915
9.10794
9.05344
8.99559
8.93428
8.86946
8.80107
8.72908
8.65351
8.57442
8.49192
8.40617
8.31721
8.22542
8.13123
8.03352
1.6263
2.92414
9.50606
10.8591
10.5492
9.9982
9.7426
9.69471
9.69942
9.70771
9.70539
9.69684
9.67962
9.6629
9.64858
9.63549
9.62227
9.60822
9.59311
9.57686
9.55941
9.54064
9.52044
9.49869
9.47526
9.45005
9.42293
9.39378
9.36249
9.32894
9.29298
9.25451
9.2134
9.16958
9.12296
9.07347
9.02098
8.96541
8.90667
8.84477
8.77965
8.71131
8.63976
8.56506
8.48731
8.40662
8.32325
8.23727
8.149
8.05741
1.39424
4.48167
10.0354
10.3043
10.0237
9.73606
9.6282
9.61905
9.62445
9.63103
9.62996
9.62474
9.61341
9.6007
9.58924
9.57839
9.56703
9.55458
9.54085
9.5258
9.50939
9.49155
9.47222
9.45131
9.42872
9.40433
9.37805
9.34977
9.31942
9.2869
9.2521
9.21492
9.17528
9.13308
9.08826
9.04073
8.9904
8.9372
8.88113
8.82214
8.76025
8.69547
8.62779
8.55725
8.48389
8.4078
8.32921
8.24816
8.16502
8.07883
1.63153
2.94783
9.59335
10.8424
10.4984
9.90959
9.63609
9.59373
9.60403
9.62447
9.62605
9.62138
9.60899
9.59167
9.57674
9.56362
9.55039
9.53614
9.52057
9.50367
9.48554
9.46602
9.44513
9.42287
9.39917
9.3739
9.34691
9.3181
9.28737
9.2546
9.21979
9.1829
9.14387
9.10257
9.05893
9.01285
8.96427
8.91315
8.85941
8.803
8.74389
8.68208
8.61761
8.55054
8.48096
8.40897
8.33471
8.25824
8.17979
8.09845
1.64178
3.0773
9.86621
10.7744
10.3919
9.78005
9.51813
9.49798
9.5153
9.5481
9.55757
9.5549
9.54654
9.5323
9.51982
9.50894
9.49787
9.48557
9.47181
9.45668
9.44033
9.4227
9.40357
9.38282
9.36035
9.33614
9.31019
9.28244
9.25282
9.22132
9.18784
9.15231
9.11465
9.07477
9.03263
8.98816
8.94133
8.8921
8.84043
8.78631
8.72975
8.6708
8.60947
8.54571
8.47961
8.41124
8.3407
8.2681
8.19365
8.11648
1.40438
4.54557
10.1041
10.1592
9.8535
9.54615
9.44659
9.4519
9.47127
9.49126
9.49699
9.49547
9.49043
9.48097
9.47163
9.46257
9.4528
9.44169
9.42911
9.41509
9.39964
9.38272
9.36426
9.34417
9.32244
9.29902
9.2739
9.24702
9.21832
9.18773
9.15526
9.12086
9.08446
9.046
9.00543
8.9627
8.91778
8.87061
8.8212
8.76953
8.71557
8.65932
8.60083
8.54019
8.4774
8.41253
8.34563
8.27677
8.2061
8.13284
1.38833
4.5553
10.0004
10.0254
9.78359
9.55137
9.46899
9.46635
9.47251
9.48193
9.48361
9.48154
9.47559
9.46555
9.45525
9.44483
9.43363
9.42123
9.40755
9.39258
9.37631
9.35873
9.33978
9.31939
9.29751
9.2741
9.24909
9.22244
9.19414
9.16411
9.13228
9.09858
9.06296
9.02537
8.98578
8.94416
8.90045
8.8546
8.80671
8.75684
8.70495
8.65096
8.59489
8.53676
8.4766
8.41444
8.35036
8.28447
8.21694
8.147
1.42148
4.56874
10.2123
10.1822
9.7983
9.4629
9.36973
9.38169
9.4129
9.43737
9.44429
9.44292
9.43831
9.4297
9.42075
9.41163
9.40167
9.39038
9.37763
9.36343
9.3478
9.33069
9.31212
9.29207
9.27052
9.24743
9.22277
9.19651
9.16864
9.13911
9.10786
9.07485
9.04002
9.00339
8.96494
8.92465
8.88252
8.83855
8.79263
8.74469
8.69475
8.64286
8.58905
8.53333
8.47573
8.41627
8.35503
8.29205
8.22744
8.16038
1.53227
3.3521
9.88857
10.7067
10.3189
9.67674
9.39286
9.36703
9.38467
9.42054
9.43469
9.43366
9.42901
9.41923
9.40877
9.39877
9.38833
9.37668
9.3636
9.34908
9.33317
9.3159
9.29724
9.27713
9.25554
9.23243
9.2077
9.18134
9.15348
9.12399
9.09282
9.05994
9.0254
8.98916
8.95121
8.91153
8.8701
8.82691
8.78192
8.73514
8.68657
8.63627
8.58411
8.53015
8.47448
8.41715
8.35822
8.29771
8.23574
8.17161
1.3967
4.53407
10.066
10.095
9.79197
9.4669
9.34491
9.34335
9.35476
9.37622
9.38504
9.38435
9.38083
9.37317
9.36422
9.35546
9.34627
9.33591
9.32411
9.31086
9.2962
9.28013
9.26263
9.24366
9.22318
9.20117
9.1776
9.15246
9.12578
9.09754
9.06771
9.0363
9.00327
8.96854
8.93209
8.89391
8.85399
8.81235
8.76896
8.72383
8.67695
8.62831
8.57804
8.52615
8.47264
8.41754
8.36087
8.30272
8.24319
8.18176
1.39409
4.53118
10.0485
10.0821
9.77538
9.44753
9.32732
9.32762
9.34019
9.36295
9.37234
9.37145
9.36739
9.35881
9.34914
9.33965
9.3297
9.31858
9.30608
9.29219
9.27698
9.26048
9.24266
9.22351
9.20299
9.18108
9.15779
9.1331
9.10689
9.07913
9.04978
9.01883
8.98631
8.95222
8.91657
8.87933
8.84048
8.79999
8.75787
8.71412
8.66873
8.62173
8.57314
8.52297
8.47124
8.41798
8.36322
8.307
8.2494
8.18996
1.53044
3.3401
9.84914
10.6876
10.3014
9.63693
9.33311
9.29738
9.31393
9.34872
9.36393
9.36304
9.35847
9.34863
9.33781
9.32785
9.31779
9.30674
9.29432
9.28054
9.26544
9.24903
9.23129
9.21221
9.19173
9.16978
9.14652
9.1218
9.0956
9.0679
9.03869
9.00796
8.97574
8.94203
8.90681
8.87007
8.83179
8.79199
8.75063
8.70774
8.66332
8.61738
8.56993
8.52099
8.47058
8.41875
8.36551
8.31091
8.25507
8.19755
1.4081
4.54762
10.1183
10.0921
9.70666
9.3538
9.24363
9.25289
9.28217
9.31115
9.32075
9.31983
9.31594
9.30788
9.29923
9.29075
9.28171
9.2715
9.25993
9.24701
9.23278
9.21727
9.20046
9.18232
9.16283
9.14196
9.11973
9.09609
9.07102
9.0445
9.01651
8.98709
8.95622
8.92387
8.89003
8.8547
8.81785
8.77951
8.73969
8.69835
8.65548
8.61109
8.56519
8.51783
8.46902
8.41878
8.36712
8.31413
8.25991
8.20404
1.39305
4.55541
10.0074
9.98165
9.66865
9.3883
9.29982
9.30283
9.315
9.32581
9.32635
9.32386
9.31725
9.30716
9.29713
9.28721
9.27669
9.26514
9.25245
9.23858
9.22355
9.20736
9.19
9.17143
9.15163
9.13058
9.10824
9.08462
9.05967
9.0334
9.0058
8.9768
8.94638
8.91452
8.88121
8.84644
8.81021
8.7725
8.73334
8.69274
8.65072
8.60729
8.56242
8.51614
8.46846
8.41939
8.36898
8.31722
8.26416
8.20933
1.38509
4.54769
9.95875
9.94739
9.65876
9.38704
9.29478
9.29409
9.30025
9.30795
9.30801
9.30576
9.29961
9.2897
9.27977
9.26997
9.25962
9.24832
9.23593
9.22245
9.20787
9.19214
9.17524
9.15713
9.1378
9.11722
9.09536
9.07222
9.04776
9.02198
8.99485
8.96636
8.93648
8.90521
8.87255
8.83849
8.80305
8.7662
8.72793
8.68824
8.64713
8.60461
8.56067
8.51535
8.46867
8.4207
8.37139
8.32071
8.2687
8.21489
1.37717
4.5092
9.91919
10.0314
9.73105
9.40318
9.28194
9.27792
9.28652
9.29887
9.30097
9.29862
9.29193
9.28088
9.27017
9.26002
9.24954
9.23814
9.22561
9.21197
9.19722
9.18134
9.16433
9.14615
9.12678
9.1062
9.08439
9.06134
9.03703
9.01143
8.98454
8.95634
8.92681
8.89595
8.86374
8.83017
8.79524
8.75894
8.72127
8.68223
8.64182
8.60006
8.55696
8.51255
8.4668
8.41968
8.37125
8.32154
8.27061
8.21808
1.62612
2.96895
9.52151
10.6174
10.273
9.64727
9.3378
9.27198
9.27954
9.29775
9.30519
9.30293
9.29539
9.28102
9.26782
9.25651
9.24564
9.2341
9.22146
9.20768
9.19282
9.17688
9.15985
9.14169
9.12238
9.10188
9.08018
9.05724
9.03306
9.00762
8.9809
8.95288
8.92355
8.89291
8.86093
8.82762
8.79297
8.75698
8.71964
8.68096
8.64094
8.59959
8.55693
8.51296
8.46769
8.42115
8.3734
8.3245
8.2745
8.22311
1.63544
2.85368
9.48386
10.8211
10.4147
9.67659
9.30946
9.2315
9.24205
9.26801
9.28266
9.28144
9.27531
9.26193
9.2478
9.23623
9.22579
9.21487
9.2028
9.18949
9.17506
9.15954
9.14295
9.12524
9.10638
9.08636
9.06514
9.04271
9.01906
8.99416
8.96801
8.94058
8.91186
8.88185
8.85053
8.81789
8.78394
8.74866
8.71205
8.67412
8.63487
8.59431
8.55243
8.50924
8.46476
8.41902
8.37207
8.32394
8.27472
8.22415
1.62649
2.96206
9.50614
10.608
10.2635
9.63117
9.31362
9.24599
9.25437
9.27498
9.28515
9.28327
9.27622
9.26181
9.24795
9.23624
9.22528
9.21378
9.20121
9.18752
9.17277
9.15701
9.14021
9.12234
9.10338
9.08328
9.06204
9.03963
9.01602
8.99121
8.96516
8.93788
8.90933
8.87952
8.84843
8.81605
8.78237
8.74738
8.7111
8.67351
8.63461
8.59442
8.55293
8.51016
8.46612
8.42083
8.3743
8.32656
8.27768
8.22724
1.37415
4.50583
9.89978
10.0117
9.70725
9.36515
9.23647
9.23203
9.24155
9.2561
9.25922
9.257
9.2505
9.23952
9.22892
9.21898
9.2088
9.19774
9.18562
9.17244
9.15823
9.14298
9.1267
9.10934
9.09088
9.0713
9.05058
9.02869
9.00562
8.98134
8.95585
8.92912
8.90115
8.87191
8.8414
8.80961
8.77653
8.74215
8.70648
8.66949
8.63121
8.59162
8.55073
8.50855
8.4651
8.42039
8.37442
8.32719
8.27869
8.22844
1.37992
4.54108
9.9243
9.90685
9.60703
9.32998
9.2421
9.2444
9.2551
9.26507
9.26531
9.26272
9.25577
9.24494
9.23433
9.22406
9.21335
9.20176
9.18917
9.17557
9.16099
9.1454
9.1288
9.11114
9.0924
9.07257
9.05162
9.02952
9.00627
8.98184
8.95621
8.92937
8.90131
8.872
8.84145
8.80963
8.77655
8.74219
8.70655
8.66963
8.63143
8.59195
8.55119
8.50916
8.46588
8.42135
8.3756
8.32862
8.28045
8.23075
1.40411
4.56233
10.0547
9.98734
9.59205
9.276
9.19319
9.20479
9.23451
9.25492
9.25748
9.25483
9.2478
9.23742
9.22747
9.21779
9.20752
9.19625
9.18392
9.17056
9.1562
9.14083
9.12442
9.10697
9.08843
9.06879
9.04803
9.02614
9.00308
8.97884
8.95341
8.92677
8.8989
8.86979
8.83943
8.80781
8.77493
8.74076
8.70532
8.66859
8.63059
8.5913
8.55073
8.5089
8.46581
8.42148
8.37592
8.32917
8.28127
8.23199
3.04409
2.45875
3.00399
4.1807
4.12675
4.10998
4.04912
4.01144
3.99854
4.00128
4.0289
4.07251
4.10961
4.14031
4.17429
4.217
4.26866
4.32673
4.38837
4.45127
4.51368
4.57442
4.63296
4.6899
4.74087
4.78621
4.82588
4.8603
4.88942
4.91345
4.93241
4.94649
4.9558
4.96057
4.96097
4.95935
4.95402
4.94273
4.92729
4.90953
4.88951
4.86718
4.84266
4.81621
4.78812
4.75864
4.72803
4.69652
4.66437
4.63178
4.59897
4.56615
4.53353
4.50131
4.46969
4.43886
4.40904
4.3804
4.35316
4.32751
4.30363
4.28173
4.26197
4.24454
4.22957
4.21721
4.20752
4.20056
4.19629
4.19476
4.19497
4.19603
4.199
4.2056
4.2173
4.2303
4.24364
4.25717
4.27074
4.28406
4.29677
4.30856
4.31915
4.32838
4.33613
4.34234
4.34703
4.35022
4.35203
4.35263
4.35255
4.35217
4.35111
4.34879
4.34483
4.34045
4.33593
4.33123
4.3262
4.3218
4.09655
3.55451
3.75707
4.23522
4.15246
4.09582
4.03652
3.99612
3.98445
3.99666
4.03779
4.08822
4.12
4.14192
4.17095
4.21187
4.26314
4.32116
4.38268
4.44547
4.5078
4.56867
4.6275
4.68417
4.73522
4.78057
4.82036
4.8549
4.88416
4.90832
4.92739
4.94158
4.95096
4.95576
4.95598
4.9548
4.95054
4.94054
4.92358
4.90519
4.88533
4.86333
4.83907
4.81279
4.78481
4.75544
4.72494
4.69355
4.6615
4.62901
4.59629
4.56356
4.53102
4.49887
4.46731
4.43654
4.40676
4.37816
4.35096
4.32533
4.30148
4.2796
4.25986
4.24245
4.22751
4.21519
4.20556
4.1987
4.19465
4.19362
4.1939
4.19504
4.19803
4.20452
4.21628
4.22958
4.24328
4.2571
4.27088
4.28435
4.29721
4.30911
4.3198
4.32909
4.33687
4.34309
4.34775
4.35091
4.35267
4.35317
4.35308
4.35269
4.35165
4.34936
4.34529
4.34077
4.33618
4.33156
4.32676
4.32398
5.22601
4.46498
4.2368
4.26856
4.2493
4.19679
4.11471
4.0617
4.04164
4.04411
4.05662
4.08587
4.12115
4.15256
4.18565
4.2263
4.27527
4.33083
4.39021
4.45114
4.5119
4.57135
4.62866
4.68318
4.73337
4.77822
4.81759
4.85165
4.88048
4.90423
4.92294
4.93677
4.9458
4.95017
4.95009
4.949
4.94536
4.93673
4.91946
4.90008
4.87962
4.85751
4.83336
4.80724
4.77939
4.75013
4.71973
4.68845
4.65651
4.62414
4.59154
4.55893
4.52649
4.49444
4.46298
4.4323
4.40261
4.3741
4.34697
4.32142
4.29765
4.27584
4.25618
4.23885
4.22401
4.21181
4.20236
4.19577
4.19216
4.19178
4.19213
4.19339
4.19652
4.20319
4.2149
4.22846
4.24266
4.25701
4.27124
4.28508
4.29821
4.31033
4.32118
4.33058
4.33841
4.34463
4.34924
4.3523
4.35396
4.35425
4.35413
4.35368
4.35255
4.35013
4.34596
4.3413
4.33658
4.33203
4.32743
4.32639
5.82946
5.0964
4.6639
4.46729
4.4285
4.36266
4.27039
4.18999
4.13814
4.11783
4.12014
4.13121
4.1574
4.19439
4.22791
4.26278
4.30365
4.35139
4.40445
4.46053
4.51758
4.57411
4.62889
4.6812
4.72963
4.77338
4.81197
4.84528
4.87342
4.89655
4.91471
4.92802
4.93658
4.94037
4.9402
4.93907
4.9357
4.92792
4.91204
4.89194
4.8706
4.84805
4.82389
4.79797
4.77039
4.74139
4.71126
4.68023
4.64855
4.61643
4.58408
4.5517
4.5195
4.48767
4.45643
4.42596
4.39647
4.36816
4.34122
4.31586
4.29227
4.27064
4.25116
4.23402
4.21939
4.20742
4.19825
4.19209
4.18914
4.1892
4.18972
4.19126
4.19479
4.20208
4.21353
4.22714
4.24182
4.25683
4.27169
4.28603
4.29954
4.31192
4.32296
4.33246
4.34033
4.34653
4.35106
4.35403
4.35552
4.35554
4.35537
4.35481
4.35348
4.35073
4.34654
4.34184
4.33702
4.3325
4.32815
4.32823
6.23245
5.59748
5.123
4.83384
4.68503
4.57211
4.46072
4.3592
4.28171
4.23422
4.21443
4.21538
4.22169
4.23813
4.27064
4.30342
4.33969
4.38099
4.42713
4.47689
4.5287
4.581
4.63234
4.68159
4.7277
4.76971
4.80703
4.83919
4.86634
4.88864
4.90601
4.91858
4.92649
4.92952
4.92926
4.92801
4.92465
4.91721
4.90216
4.88242
4.86063
4.83752
4.81307
4.78715
4.75978
4.73107
4.70125
4.67054
4.63917
4.60736
4.57531
4.54323
4.51133
4.4798
4.44885
4.41868
4.38948
4.36146
4.33482
4.30974
4.28644
4.2651
4.24593
4.22909
4.21478
4.20317
4.19448
4.18881
4.18662
4.18679
4.18754
4.18947
4.19362
4.2018
4.21299
4.22649
4.24144
4.25698
4.27244
4.28729
4.30118
4.31382
4.325
4.33458
4.34246
4.34861
4.35305
4.3559
4.35708
4.35702
4.35672
4.35593
4.35424
4.35111
4.34697
4.34227
4.3374
4.3329
4.3289
4.3292
6.5395
6.00444
5.54984
5.20611
4.97314
4.80675
4.66967
4.55042
4.45234
4.38024
4.33497
4.3131
4.31299
4.31617
4.32685
4.35002
4.38238
4.41837
4.45714
4.49906
4.54371
4.58997
4.63638
4.68165
4.72464
4.76434
4.79991
4.83083
4.85692
4.87827
4.89472
4.90653
4.91378
4.91601
4.91568
4.91433
4.91088
4.90348
4.88887
4.86995
4.84829
4.82486
4.80008
4.77406
4.74683
4.71843
4.689
4.65871
4.62776
4.59636
4.56473
4.53306
4.50157
4.47046
4.43993
4.41018
4.38142
4.35383
4.32762
4.30298
4.28012
4.25923
4.2405
4.22409
4.21028
4.19921
4.19107
4.18595
4.18458
4.18484
4.18581
4.18817
4.19311
4.20187
4.21319
4.22664
4.24164
4.25741
4.27322
4.28844
4.30262
4.31546
4.32675
4.33635
4.3442
4.35029
4.35467
4.35737
4.3582
4.35809
4.35767
4.35666
4.35455
4.3512
4.34701
4.34231
4.33743
4.33296
4.32924
4.32965
6.78372
6.33322
5.91565
5.55658
5.27602
5.06429
4.89657
4.75661
4.63952
4.54604
4.47738
4.43266
4.40919
4.40342
4.40506
4.41177
4.42756
4.45601
4.4878
4.52305
4.56106
4.60092
4.64161
4.68216
4.72143
4.75831
4.7918
4.8212
4.84613
4.86646
4.88214
4.89319
4.8997
4.90116
4.90076
4.89929
4.89567
4.88804
4.8739
4.85566
4.83439
4.81098
4.78606
4.75997
4.73284
4.70472
4.67568
4.64585
4.61538
4.58448
4.55334
4.52217
4.49119
4.4606
4.4306
4.40139
4.37317
4.34614
4.32049
4.29643
4.27415
4.25385
4.23572
4.21999
4.20676
4.19628
4.18874
4.18423
4.18367
4.18402
4.18521
4.18799
4.19374
4.20303
4.21459
4.22801
4.24287
4.25857
4.27438
4.28967
4.30395
4.31686
4.32817
4.33777
4.34559
4.35162
4.35587
4.35841
4.35893
4.35878