/*--------------------------------*- C++ -*----------------------------------*\
| =========                 |                                                 |
| \\      /  F ield         | OpenFOAM: The Open Source CFD Toolbox           |
|  \\    /   O peration     | Version:  2412                                  |
|   \\  /    A nd           | Website:  www.openfoam.com                      |
|    \\/     M anipulation  |                                                 |
\*---------------------------------------------------------------------------*/
FoamFile
{
    version     2.0;
    format      ascii;
    arch        "LSB;label=32;scalar=64";
    class       surfaceScalarField;
    location    "22";
    object      phi;
}
// * * * * * * * * * * * * * * * * * * * * * * * * * * * * * * * * * * * * * //

dimensions      [1 0 -1 0 0 0 0];

oriented        oriented;

internalField   nonuniform List<scalar> 
13790
(
0.00292374
-1.97115e-07
0.00274462
9.30886e-07
0.002804
3.2538e-06
0.00280525
5.58904e-06
0.00279922
6.47586e-06
0.00279209
7.16766e-06
0.00278413
7.96036e-06
0.00277522
8.9104e-06
0.00276522
9.99806e-06
0.00275398
1.12425e-05
0.0027414
1.25745e-05
0.00272745
1.39558e-05
0.00271206
1.53885e-05
0.00269517
1.68896e-05
0.0026767
1.84718e-05
0.00265656
2.01408e-05
0.00263466
2.18998e-05
0.0026109
2.37533e-05
0.00258519
2.57073e-05
0.00255742
2.77694e-05
0.00252748
2.99476e-05
0.00249523
3.22506e-05
0.00246054
3.46876e-05
0.00242327
3.72686e-05
0.00238327
4.00039e-05
0.00234036
4.29043e-05
0.00229438
4.59807e-05
0.00224514
4.92442e-05
0.00219243
5.27056e-05
0.00213606
5.63746e-05
0.00207579
6.02606e-05
0.00201142
6.437e-05
0.00194272
6.87081e-05
0.00186944
7.32748e-05
0.00179137
7.8068e-05
0.0017083
8.30757e-05
0.00162001
8.82837e-05
0.00152635
9.36615e-05
0.00142718
9.91763e-05
0.0013224
0.000104772
0.00121201
0.000110391
0.00109607
0.000115946
0.000974711
0.000121356
0.000848211
0.0001265
0.000716918
0.000131293
0.00058131
0.000135608
0.000441836
0.000139474
0.000299161
0.000142674
0.000152277
0.000146884
0.000152277
0.00303216
2.04301e-08
0.00284629
8.42569e-07
0.00290647
8.61696e-06
0.0029078
1.12911e-05
0.00290193
1.28135e-05
0.00289475
1.43805e-05
0.00288656
1.61535e-05
0.00287731
1.81561e-05
0.00286691
2.03958e-05
0.00285524
2.29116e-05
0.00284221
2.56038e-05
0.00282776
2.84089e-05
0.00281182
3.13275e-05
0.00279432
3.43878e-05
0.00277518
3.76112e-05
0.00275431
4.10105e-05
0.00273162
4.4592e-05
0.00270701
4.83667e-05
0.00268037
5.23455e-05
0.00265159
5.6545e-05
0.00262056
6.09802e-05
0.00258714
6.56703e-05
0.0025512
7.06326e-05
0.00251257
7.58889e-05
0.00247112
8.14588e-05
0.00242666
8.73659e-05
0.00237901
9.36313e-05
0.00232797
0.000100279
0.00227335
0.000107329
0.00221492
0.000114803
0.00215246
0.000122721
0.00208573
0.000131094
0.00201451
0.000139937
0.00193853
0.000149246
0.00185758
0.000159022
0.00177142
0.000169236
0.00167984
0.000179866
0.00158265
0.000190846
0.00147972
0.000202115
0.00137093
0.000213555
0.00125627
0.000225056
0.00113578
0.000236433
0.00100961
0.000247528
0.000878011
0.000258097
0.000741359
0.000267945
0.000600112
0.000276855
0.000454842
0.000284744
0.000306088
0.000291428
0.0001542
0.000298772
0.000306477
0.00314487
9.21503e-08
0.00295181
1.21248e-06
0.00301442
1.38902e-05
0.0030157
1.7279e-05
0.00300971
1.92991e-05
0.0030024
2.17268e-05
0.00299398
2.45769e-05
0.00298442
2.77082e-05
0.00297366
3.1161e-05
0.00296158
3.49942e-05
0.00294809
3.90861e-05
0.00293315
4.33566e-05
0.00291666
4.78162e-05
0.00289855
5.24905e-05
0.00287875
5.74181e-05
0.00285715
6.26058e-05
0.00283366
6.80782e-05
0.00280819
7.38372e-05
0.00278062
7.99166e-05
0.00275084
8.63233e-05
0.00271872
9.30998e-05
0.00268414
0.000100254
0.00264694
0.000107836
0.00260697
0.000115854
0.00256407
0.000124365
0.00251806
0.000133375
0.00246874
0.00014295
0.00241592
0.000153091
0.00235938
0.000163869
0.00229891
0.000175275
0.00223425
0.000187381
0.00216518
0.000200166
0.00209143
0.000213692
0.00201276
0.000227915
0.0019289
0.000242878
0.00183963
0.000258502
0.00174472
0.000274784
0.00164396
0.000291606
0.00153719
0.000308883
0.00142429
0.000326449
0.00130525
0.000344102
0.00118005
0.000361633
0.00104889
0.000378681
0.000911945
0.000395045
0.000769666
0.000410224
0.000622492
0.000424029
0.000471053
0.000436183
0.000316165
0.000446315
0.000158592
0.000456344
0.000465069
0.0032618
1.16187e-07
0.00306156
1.66996e-06
0.00312674
1.90928e-05
0.00312806
2.34713e-05
0.00312189
2.5992e-05
0.0031144
2.92443e-05
0.00310578
3.32081e-05
0.00309594
3.75429e-05
0.00308482
4.22792e-05
0.00307234
4.74779e-05
0.00305842
5.3005e-05
0.00304299
5.87906e-05
0.00302596
6.48387e-05
0.00300726
7.11898e-05
0.00298681
7.78748e-05
0.00296449
8.49202e-05
0.00294023
9.23391e-05
0.00291391
0.000100159
0.00288543
0.000108399
0.00285465
0.000117099
0.00282147
0.000126281
0.00278573
0.000135997
0.00274729
0.000146268
0.00270599
0.000157158
0.00266167
0.000168685
0.00261412
0.000180928
0.00256317
0.000193894
0.00250859
0.000207678
0.00245018
0.000222273
0.00238767
0.000237786
0.00232087
0.000254183
0.00224945
0.000271584
0.00217323
0.000289912
0.00209185
0.000309292
0.00200515
0.000329581
0.00191275
0.000350898
0.00181453
0.000373008
0.00171014
0.000395994
0.00159951
0.00041951
0.00148241
0.00044355
0.00135884
0.000467673
0.0012288
0.000491674
0.00109236
0.000515119
0.000949928
0.000537481
0.000801616
0.000558536
0.000648238
0.000577406
0.000490305
0.000594116
0.000328669
0.000607951
0.00016476
0.000620253
0.000629829
0.00338304
1.39612e-07
0.00317539
2.15939e-06
0.00324315
2.43222e-05
0.0032446
2.97956e-05
0.00323827
3.28588e-05
0.00323061
3.69415e-05
0.0032218
4.20193e-05
0.0032117
4.76486e-05
0.00320025
5.37284e-05
0.00318739
6.03369e-05
0.00317306
6.73384e-05
0.00315716
7.46894e-05
0.00313962
8.23744e-05
0.00312035
9.04624e-05
0.00309926
9.89597e-05
0.00307626
0.000107928
0.00305124
0.000117352
0.0030241
0.000127303
0.00299473
0.000137768
0.00296299
0.000148836
0.00292878
0.000160498
0.00289192
0.000172854
0.00285228
0.000185901
0.00280969
0.000199748
0.00276398
0.000214395
0.00271495
0.000229957
0.00266241
0.000246442
0.00260612
0.000263961
0.00254587
0.00028253
0.00248141
0.000302244
0.00241246
0.00032313
0.0023388
0.000345244
0.00226009
0.000368625
0.00217612
0.000393259
0.00208651
0.000419194
0.0019911
0.000446303
0.00188947
0.000474644
0.00178156
0.000503901
0.00166692
0.000534151
0.00154565
0.000564817
0.00141736
0.000595963
0.00128231
0.000626727
0.0011404
0.000657032
0.000991917
0.000685959
0.000837464
0.000712989
0.000677147
0.000737722
0.00051223
0.000759033
0.000343477
0.000776704
0.000172035
0.000791695
0.000801864
0.0035088
1.63333e-07
0.00329346
2.65523e-06
0.0033639
2.95957e-05
0.00336551
3.62228e-05
0.00335906
3.98861e-05
0.00335124
4.48013e-05
0.00334219
5.10713e-05
0.00333188
5.7955e-05
0.00332016
6.54472e-05
0.00330697
7.35262e-05
0.00329224
8.20747e-05
0.0032759
9.10212e-05
0.00325786
0.000100415
0.00323805
0.000110273
0.00321635
0.000120666
0.00319269
0.000131588
0.00316693
0.000143111
0.00313901
0.000155222
0.00310876
0.000168016
0.00307611
0.00018148
0.00304088
0.000195737
0.00300297
0.000210764
0.00296215
0.000226714
0.00291835
0.00024355
0.00287129
0.000261458
0.00282086
0.000280382
0.00276677
0.00030054
0.00270887
0.000321854
0.00264684
0.000344566
0.00258051
0.000368571
0.00250952
0.000394123
0.00243367
0.000421089
0.00235259
0.000449705
0.00226604
0.000479807
0.00217367
0.000511568
0.00207517
0.000544795
0.00197029
0.000579526
0.00185865
0.000615541
0.00174017
0.000652636
0.00161439
0.00069059
0.00148154
0.000728811
0.00134108
0.000767188
0.00119357
0.000804544
0.00103875
0.000840776
0.000877304
0.00087444
0.000709977
0.000905049
0.000537036
0.000931974
0.000360124
0.000953616
0.000180623
0.000971195
0.000982487
0.00363924
1.87395e-07
0.00341591
3.15287e-06
0.00348916
3.49084e-05
0.00349097
4.27275e-05
0.00348444
4.70243e-05
0.00347648
5.2801e-05
0.00346728
6.02703e-05
0.00345675
6.84852e-05
0.00344478
7.74225e-05
0.00343127
8.70343e-05
0.00341618
9.71656e-05
0.00339942
0.000107777
0.00338092
0.000118913
0.00336058
0.000130618
0.0033383
0.00014294
0.00331399
0.000155904
0.00328755
0.000169553
0.00325884
0.000183924
0.00322779
0.000199068
0.00319423
0.000215044
0.00315805
0.000231908
0.00311908
0.00024974
0.0030772
0.000268596
0.00303216
0.000288582
0.00298388
0.000309742
0.00293204
0.000332218
0.00287655
0.000356031
0.00281704
0.000381362
0.00275342
0.000408193
0.00268523
0.000436752
0.0026124
0.000466957
0.00253441
0.000499079
0.00245116
0.000532952
0.00236211
0.000568864
0.00226713
0.000606549
0.00216567
0.000646252
0.00205759
0.000687609
0.0019424
0.000730728
0.0018199
0.000775136
0.00168981
0.000820675
0.00155184
0.000866782
0.00140622
0.000912817
0.00125242
0.000958341
0.00109119
0.001002
0.000922296
0.00104334
0.000746702
0.00108064
0.00056554
0.00111314
0.000379441
0.00113971
0.000190151
0.00116048
0.00117264
0.00377454
2.11609e-07
0.00354291
3.6496e-06
0.00361911
4.02434e-05
0.00362115
4.92807e-05
0.00361458
5.42342e-05
0.00360652
6.09016e-05
0.00359721
6.9589e-05
0.0035865
7.91843e-05
0.00357431
8.96204e-05
0.00356053
0.00010081
0.00354512
0.000112578
0.00352799
0.000124902
0.00350907
0.000137838
0.00348825
0.00015144
0.00346543
0.000165752
0.00344053
0.000180808
0.00341343
0.00019665
0.00338403
0.000213328
0.0033522
0.000230898
0.00331781
0.000249428
0.00328073
0.00026899
0.00324081
0.000289664
0.00319787
0.000311537
0.00315175
0.000334697
0.00310224
0.000359251
0.00304917
0.000385289
0.00299227
0.000412938
0.00293135
0.000442278
0.00286608
0.000473464
0.00279629
0.000506543
0.00272154
0.000541701
0.0026417
0.000578919
0.00255622
0.000618431
0.002465
0.000660087
0.00236738
0.000704171
0.00226328
0.00075035
0.00215201
0.000798884
0.00203348
0.000849251
0.00190706
0.000901559
0.00177263
0.000955104
0.00162979
0.00100963
0.00147828
0.00106432
0.00131843
0.0011182
0.00114975
0.00117067
0.000973231
0.00121986
0.000788854
0.00126502
0.000597624
0.00130437
0.000401354
0.00133598
0.000201559
0.00136028
0.0013742
0.00391488
2.3584e-07
0.00367461
4.14216e-06
0.00375393
4.55706e-05
0.00375625
5.58444e-05
0.00374968
6.14778e-05
0.00374157
6.90559e-05
0.00373215
7.90107e-05
0.00372135
8.99901e-05
0.00370899
0.000101977
0.003695
0.000114803
0.00367931
0.000128265
0.00366186
0.000142354
0.00364255
0.000157143
0.0036213
0.000172694
0.003598
0.000189051
0.00357256
0.000206252
0.00354486
0.000224344
0.00351481
0.000243382
0.00348227
0.000263434
0.00344713
0.000284575
0.00340923
0.00030689
0.00336842
0.000330469
0.00332455
0.000355411
0.00327742
0.000381823
0.00322685
0.000409817
0.00317262
0.000439517
0.00311452
0.000471042
0.00305227
0.00050453
0.00298563
0.000540097
0.00291428
0.000577895
0.00283796
0.000618019
0.00275625
0.000660631
0.00266892
0.000705759
0.00257542
0.000753593
0.00247558
0.000804008
0.00236869
0.00085724
0.00225467
0.000912902
0.00213267
0.000971257
0.00200268
0.00103154
0.00186383
0.00109396
0.00171615
0.0011573
0.00155903
0.00122144
0.00139232
0.00128491
0.00121645
0.00134655
0.00103081
0.00140549
0.000836923
0.00145891
0.000635285
0.001506
0.000427026
0.00154424
0.000214246
0.00157306
0.00158844
0.00406045
2.59736e-07
0.00381121
4.62655e-06
0.00389382
5.08433e-05
0.00389647
6.23674e-05
0.00388998
6.86943e-05
0.00388187
7.72122e-05
0.00387246
8.84292e-05
0.00386157
0.000100875
0.0038491
0.000114452
0.00383494
0.00012896
0.00381904
0.000144165
0.00380132
0.000160076
0.00378169
0.000176768
0.00376006
0.000194324
0.00373634
0.000212775
0.00371041
0.000232176
0.00368219
0.000252563
0.00365156
0.000274017
0.00361839
0.000296595
0.00358257
0.000320403
0.00354394
0.000345514
0.00350235
0.000372054
0.00345765
0.000400112
0.00340964
0.000429834
0.00335814
0.000461323
0.00330291
0.000494745
0.00324374
0.000530214
0.00318036
0.00056791
0.0031125
0.000607955
0.00303986
0.000650537
0.00296211
0.000695769
0.0028789
0.000743835
0.00278984
0.000794823
0.00269456
0.000848877
0.00259252
0.00090604
0.00248341
0.000966351
0.00236653
0.00102979
0.00224164
0.00109615
0.00210784
0.00116534
0.00196507
0.00123672
0.00181227
0.00131011
0.00164959
0.00138411
0.00147609
0.00145841
0.00129191
0.00153073
0.00109757
0.00159983
0.000892409
0.00166407
0.000678315
0.0017201
0.000456721
0.00176584
0.000229856
0.00179992
0.0018183
0.00421145
2.83077e-07
0.00395287
5.0968e-06
0.00403898
5.59994e-05
0.00404205
6.87854e-05
0.00403567
7.58393e-05
0.00402764
8.52979e-05
0.00401823
9.78424e-05
0.00400738
0.00011172
0.00399489
0.000126942
0.00398065
0.0001432
0.0039646
0.000160216
0.00394668
0.000177996
0.0039268
0.000196653
0.00390487
0.000216255
0.00388078
0.000236859
0.00385446
0.000258497
0.00382579
0.000281237
0.00379467
0.000305138
0.00376096
0.000330298
0.00372457
0.0003568
0.00368532
0.000384762
0.00364308
0.000414289
0.00359768
0.000445517
0.00354894
0.000478574
0.00349665
0.000513614
0.0034406
0.000550788
0.00338055
0.000590262
0.00331625
0.00063221
0.00324741
0.000676801
0.00317371
0.000724231
0.00309483
0.000774656
0.00301038
0.000828286
0.00291996
0.000885239
0.00282312
0.000945715
0.00271941
0.00100976
0.00260824
0.00107751
0.00248914
0.00114889
0.00236139
0.0012239
0.00222451
0.00130222
0.00207761
0.00138361
0.00192037
0.00146735
0.00175169
0.00155279
0.00157159
0.00163851
0.00137894
0.00172338
0.00117402
0.00180475
0.000957736
0.00188035
0.000729836
0.001948
0.000492305
0.00200337
0.00024751
0.00204472
0.00206581
0.00436808
3.04176e-07
0.0040998
5.54753e-06
0.00418966
6.094e-05
0.00419321
7.50202e-05
0.00418704
8.28345e-05
0.00417917
9.32207e-05
0.00416995
0.000107073
0.00415917
0.000122487
0.00414672
0.000139399
0.00413246
0.000157457
0.00411635
0.000176328
0.0040983
0.000196047
0.00407825
0.000216706
0.00405608
0.00023842
0.00403174
0.000261205
0.00400509
0.000285142
0.00397607
0.000310253
0.00394455
0.00033666
0.00391044
0.000364412
0.00387357
0.000393664
0.00383385
0.00042448
0.00379109
0.000457048
0.00374517
0.000491444
0.00369585
0.000527891
0.00364299
0.000566476
0.00358632
0.000607458
0.00352565
0.000650934
0.00346066
0.000697192
0.00339113
0.000746339
0.00331667
0.000798687
0.00323698
0.000854342
0.00315164
0.000913624
0.00306025
0.000976634
0.00296231
0.00104365
0.00285729
0.00111477
0.00274465
0.00119015
0.00262368
0.00126986
0.00249378
0.0013538
0.00235401
0.00144199
0.00220382
0.00153381
0.00204199
0.00162918
0.00186808
0.0017267
0.00168079
0.0018258
0.00147993
0.00192424
0.00126437
0.0020203
0.00103402
0.0021107
0.000790449
0.00219157
0.000534731
0.00225908
0.000270106
0.00230934
0.00233591
0.00453055
3.17674e-07
0.00425218
5.98256e-06
0.00434608
6.55174e-05
0.00435021
8.09982e-05
0.00434429
8.96382e-05
0.00433674
0.00010083
0.00432773
0.000116081
0.00431719
0.000133024
0.00430491
0.000151688
0.00429074
0.000171619
0.00427465
0.000192426
0.00425657
0.000214125
0.00423642
0.000236854
0.00421413
0.000260707
0.0041896
0.000285737
0.00416275
0.000311987
0.00413348
0.000339527
0.0041017
0.000368441
0.00406727
0.000398837
0.00403011
0.000430827
0.00399004
0.000464546
0.00394696
0.00050013
0.00390066
0.000537741
0.00385101
0.000577541
0.00379777
0.00061972
0.00374076
0.000664464
0.0036797
0.000711993
0.00361438
0.000762513
0.00354445
0.000816275
0.00346964
0.000873496
0.00338952
0.00093446
0.00330377
0.000999374
0.00321185
0.00106855
0.00311335
0.00114215
0.0030076
0.00122052
0.00289407
0.00130369
0.00277193
0.001392
0.00264046
0.00148527
0.00249872
0.00158372
0.00234564
0.0016869
0.00218032
0.0017945
0.00200114
0.00190588
0.00180748
0.00201946
0.00159749
0.00213423
0.00137095
0.00224685
0.00112699
0.00235466
0.0008652
0.00245336
0.000587464
0.00253682
0.000296633
0.00260017
0.00263255
0.00469909
3.27138e-07
0.0044102
6.38662e-06
0.00450836
6.96952e-05
0.00451323
8.65608e-05
0.00450778
9.60252e-05
0.00450067
0.000108011
0.00449206
0.000124692
0.00448185
0.000143234
0.00446983
0.00016371
0.00445585
0.000185597
0.00443989
0.000208393
0.00442187
0.000232142
0.00440174
0.000256979
0.00437942
0.000283033
0.00435483
0.000310326
0.00432787
0.00033894
0.00429849
0.00036891
0.00426656
0.000400373
0.004232
0.000433396
0.00419467
0.000468159
0.00415447
0.000504746
0.00411122
0.000543376
0.00406481
0.000584151
0.00401502
0.000627329
0.0039617
0.000673036
0.0039046
0.000721563
0.00384353
0.000773067
0.00377817
0.000827867
0.00370829
0.000886162
0.00363351
0.000948277
0.00355349
0.00101447
0.00346781
0.00108505
0.00337601
0.00116036
0.00327754
0.00124062
0.00317182
0.00132625
0.00305812
0.00141738
0.00293569
0.00151443
0.00280354
0.00161742
0.00266071
0.00172654
0.00250588
0.00184173
0.00233778
0.00196261
0.00215487
0.00208878
0.00195515
0.00221919
0.00173735
0.00235202
0.00149874
0.00248546
0.00123861
0.00261479
0.000956593
0.00273538
0.000653277
0.00284013
0.000332523
0.00292093
0.00296507
0.00487393
3.46436e-07
0.00457409
6.70999e-06
0.00467664
7.35545e-05
0.00468249
9.14462e-05
0.00467792
0.000101621
0.00467135
0.000114656
0.0046633
0.000132736
0.00465358
0.000152954
0.00464192
0.000175375
0.00462824
0.00019927
0.00461251
0.000224122
0.00459468
0.000249978
0.00457468
0.000276981
0.00455244
0.000305268
0.0045279
0.000334867
0.00450099
0.000365853
0.00447161
0.000398282
0.00443971
0.000432279
0.00440515
0.000467949
0.00436787
0.000505445
0.0043277
0.000544915
0.00428455
0.000586523
0.00423823
0.000630474
0.00418863
0.000676933
0.00413548
0.000726177
0.00407869
0.00077836
0.0040179
0.00083385
0.00395299
0.000892776
0.00388355
0.000955611
0.00380937
0.00102245
0.00372996
0.00109388
0.00364505
0.00116997
0.00355401
0.00125139
0.00345643
0.0013382
0.00335158
0.0014311
0.00323875
0.00153021
0.00311709
0.00163609
0.00298552
0.00174899
0.0028429
0.00186917
0.00268774
0.00199689
0.00251833
0.00213202
0.00233276
0.00227435
0.00212881
0.00242313
0.00190366
0.00257717
0.00165515
0.00273397
0.00137939
0.00289055
0.00107443
0.00304034
0.000739554
0.00317501
0.000377701
0.00328278
0.00334277
0.00505528
3.61196e-07
0.00474407
6.97188e-06
0.00485155
7.67067e-05
0.00485854
9.55064e-05
0.00485492
0.00010635
0.00484919
0.000120466
0.00484187
0.000140057
0.0048328
0.000162019
0.0048217
0.000186476
0.00480849
0.000212483
0.00479311
0.000239498
0.00477558
0.000267511
0.00475581
0.000296747
0.00473379
0.000327288
0.00470942
0.000359237
0.00468269
0.000392587
0.00465347
0.000427499
0.00462175
0.000463997
0.00458739
0.000502315
0.00455034
0.000542493
0.00451043
0.00058482
0.00446762
0.000629342
0.00442168
0.00067641
0.00437253
0.00072608
0.00431995
0.000778762
0.00426377
0.000834533
0.00420377
0.000893855
0.00413969
0.00095685
0.00407129
0.00102401
0.0039982
0.00109554
0.00392016
0.00117193
0.00383662
0.00125351
0.00374729
0.00134072
0.00365139
0.0014341
0.00354853
0.00153396
0.00343769
0.00164105
0.00331819
0.00175559
0.00318875
0.00187842
0.00304813
0.00200979
0.00289471
0.00215032
0.00272641
0.00230031
0.00254076
0.00246001
0.00233473
0.00262916
0.00210497
0.00280694
0.00184635
0.00299258
0.00155518
0.00318173
0.00122623
0.00336928
0.000855752
0.00354549
0.000444114
0.00369442
0.00378689
0.00524338
3.694e-07
0.0049204
7.14526e-06
0.00503328
7.88502e-05
0.00504173
9.84161e-05
0.00503936
0.000109931
0.00503476
0.00012516
0.00502839
0.000146424
0.00502017
0.000170234
0.00500982
0.000196836
0.00499719
0.000225111
0.0049823
0.000254386
0.00496517
0.000284643
0.00494577
0.000316147
0.00492407
0.000348982
0.00490003
0.000383277
0.0048736
0.00041902
0.00484473
0.000456368
0.00481335
0.000495378
0.0047794
0.00053626
0.00474278
0.000579114
0.00470342
0.000624177
0.00466117
0.000671594
0.00461596
0.000721619
0.00456758
0.000774461
0.00451596
0.000830383
0.00446082
0.000889674
0.00440207
0.000952599
0.00433938
0.00101955
0.0042726
0.00109078
0.00420133
0.00116681
0.00412534
0.00124792
0.00404415
0.0013347
0.00395735
0.00142752
0.00386443
0.00152702
0.00376464
0.00163375
0.0036574
0.00174829
0.00354151
0.00187148
0.00341615
0.00200379
0.00327961
0.00214633
0.00313029
0.00229964
0.00296608
0.00246452
0.0027839
0.00264219
0.00258004
0.00283301
0.00235069
0.00303629
0.00208923
0.00325403
0.00178648
0.00348448
0.00143337
0.00372239
0.00101965
0.00395922
0.000538154
0.00417591
0.00432504
0.00543846
3.70397e-07
0.0051033
7.19879e-06
0.00522214
7.96177e-05
0.00523251
9.97216e-05
0.00523184
0.000111922
0.00522873
0.000128372
0.00522368
0.00015147
0.00521654
0.000177373
0.00520705
0.000206323
0.00519513
0.000237033
0.00518086
0.000268661
0.00516424
0.000301254
0.00514534
0.000335052
0.00512408
0.000370241
0.00510049
0.000406864
0.0050745
0.000445012
0.00504613
0.000484744
0.00501526
0.000526239
0.00498192
0.000569603
0.00494597
0.000615068
0.00490738
0.000662764
0.00486601
0.000712964
0.0048218
0.000765828
0.00477459
0.000821674
0.00472427
0.000880703
0.00467066
0.000943276
0.00461361
0.00100966
0.00455292
0.00108024
0.00448832
0.00115538
0.00441965
0.00123549
0.00434647
0.00132109
0.0042686
0.00141258
0.00418545
0.00151067
0.00409669
0.00161578
0.00400162
0.00172882
0.00389955
0.00185035
0.00378967
0.00198136
0.00367062
0.00212284
0.00354143
0.00227551
0.00339943
0.00244164
0.0032435
0.00262045
0.00307143
0.00281426
0.00287665
0.00302779
0.00265179
0.00326115
0.00239139
0.00351444
0.00208591
0.00378996
0.00171799
0.0040903
0.00126609
0.00441112
0.000701244
0.00474075
0.00502628
0.00564081
3.50332e-07
0.00529303
7.1045e-06
0.00541858
7.84485e-05
0.00543148
9.88129e-05
0.00543306
0.000111785
0.00543186
0.000129674
0.00542843
0.000154902
0.00542262
0.000183173
0.00541413
0.000214816
0.00540303
0.000248133
0.00538945
0.000282239
0.0053735
0.000317208
0.00535519
0.000353358
0.00533454
0.000390888
0.00531154
0.000429864
0.00528621
0.000470344
0.0052585
0.000512456
0.00522842
0.000556316
0.00519589
0.000602131
0.00516092
0.000650044
0.00512337
0.000700312
0.00508324
0.000753087
0.00504038
0.000808691
0.00499477
0.000867288
0.00494619
0.000929275
0.00489464
0.000994831
0.00483985
0.00106444
0.00478177
0.00113832
0.00472012
0.00121703
0.00465474
0.00130086
0.00458536
0.00139047
0.00451168
0.00148626
0.00443341
0.00158894
0.00435
0.00169918
0.00426116
0.00181766
0.00416599
0.00194552
0.00406416
0.00208319
0.00395409
0.00223292
0.00383573
0.00239388
0.00370882
0.00256855
0.00356681
0.00276246
0.00340584
0.00297523
0.00322581
0.00320782
0.00302107
0.00346589
0.00278111
0.0037544
0.00249013
0.00408095
0.00212836
0.00445207
0.00165432
0.00488515
0.00099929
0.00539579
0.00602557
0.00585083
2.01422e-07
0.00548957
7.14859e-06
0.00562299
7.45062e-05
0.00563948
9.46064e-05
0.00564401
0.000108823
0.0056454
0.000128392
0.005644
0.000156308
0.00563972
0.000187444
0.00563238
0.00022216
0.00562214
0.000258365
0.0056093
0.000295088
0.005594
0.0003325
0.00557631
0.000371048
0.0055563
0.000410905
0.00553395
0.000452212
0.00550932
0.000494974
0.0054824
0.000539374
0.00545321
0.000585506
0.00542171
0.000633627
0.00538789
0.000683864
0.0053517
0.000736504
0.00531308
0.000791705
0.00527199
0.000849784
0.00522832
0.000910951
0.00518205
0.000975549
0.00513301
0.00104387
0.00508119
0.00111626
0.00502636
0.00119315
0.00496851
0.00127488
0.00490734
0.00136203
0.00484285
0.00145497
0.00477462
0.00155449
0.0047026
0.00166096
0.00462632
0.00177546
0.00454552
0.00189846
0.00445932
0.00203173
0.0043686
0.00217391
0.00427378
0.00232774
0.00416939
0.00249826
0.00405336
0.00268458
0.00392866
0.00288716
0.00379288
0.00311101
0.00364123
0.00335948
0.00346868
0.00363843
0.0032685
0.00395458
0.00302852
0.00432092
0.00272151
0.00475908
0.00229837
0.00530829
0.0016458
0.00604836
0.00767138
0.00846013
1.38519e-07
0.00793536
6.23095e-06
0.00813428
6.48139e-05
0.00816375
8.30717e-05
0.0081764
9.84784e-05
0.00818337
0.000121586
0.0081856
0.00015408
0.00818291
0.00019012
0.00817531
0.000229769
0.00816331
0.000270363
0.00814755
0.000310853
0.00812834
0.000351711
0.00810587
0.00039351
0.00808021
0.00043657
0.00805149
0.000480933
0.00801974
0.000526724
0.00798508
0.000574028
0.00794749
0.000623094
0.00790706
0.00067406
0.00786371
0.000727216
0.00781751
0.000782703
0.00776836
0.000840854
0.00771632
0.000901824
0.00766127
0.000966001
0.00760325
0.00103356
0.00754215
0.00110497
0.00747799
0.00118043
0.00741066
0.00126048
0.00734013
0.00134541
0.00726636
0.0014358
0.00718921
0.00153211
0.00710875
0.00163496
0.00702461
0.0017451
0.00693731
0.00186275
0.00684746
0.00198831
0.00675542
0.00212377
0.00665654
0.00227279
0.00655061
0.00243366
0.00644175
0.00260712
0.00633065
0.00279568
0.00621377
0.00300404
0.00609259
0.00323219
0.00596541
0.00348666
0.00583398
0.00376987
0.00570038
0.00408817
0.00557208
0.00444922
0.0054824
0.00484876
0.00550625
0.00528444
0.00591275
0.00564186
0.00547759
0.00810653
0.00846192
1.06677e-07
0.00793478
3.86527e-06
0.00814842
4.23522e-05
0.0081887
6.09147e-05
0.00821067
7.88467e-05
0.00822464
0.000107788
0.00823093
0.000147786
0.0082305
0.00019054
0.00822381
0.000236461
0.00821268
0.000281496
0.0081981
0.00032543
0.0081804
0.000369415
0.00815967
0.000414239
0.00813608
0.000460156
0.00810978
0.000507236
0.00808093
0.000555574
0.0080496
0.000605356
0.0080159
0.000656798
0.00797982
0.000710135
0.00794146
0.000765577
0.00790078
0.000823379
0.00785788
0.000883754
0.00781271
0.000947
0.00776537
0.00101334
0.0077158
0.00108313
0.00766416
0.00115661
0.00761035
0.00123423
0.00755459
0.00131624
0.0074968
0.0014032
0.0074372
0.0014954
0.00737561
0.0015937
0.00731322
0.00169735
0.00725067
0.00180765
0.00718641
0.00192701
0.00711891
0.00205581
0.00704926
0.00219342
0.00698157
0.00234047
0.00691583
0.00249941
0.00685175
0.00267119
0.00679014
0.00285729
0.00673544
0.00305875
0.00668814
0.00327948
0.00665835
0.00351645
0.00664931
0.00377891
0.00668182
0.00405566
0.00677864
0.0043524
0.00698569
0.00464171
0.00738562
0.00488451
0.00800259
0.00502489
0.00467583
0.00880435
0.00846265
1.52699e-07
0.00793447
7.48302e-07
0.00816343
5.50472e-06
0.0082221
2.04612e-05
0.00825922
4.40792e-05
0.00828286
8.43218e-05
0.00829421
0.000136427
0.00829475
0.00019
0.00828896
0.000242255
0.00827926
0.00029119
0.00826633
0.000338367
0.00825023
0.000385508
0.00823117
0.000433301
0.00820941
0.000481918
0.00818521
0.000531438
0.00815878
0.000581999
0.00813025
0.00063389
0.00809972
0.000687327
0.00806727
0.000742584
0.008033
0.000799847
0.00799698
0.000859401
0.0079593
0.000921434
0.00792004
0.000986256
0.00787931
0.00105406
0.00783725
0.0011252
0.00779397
0.00119989
0.00774966
0.00127854
0.00770443
0.00136147
0.00765873
0.0014489
0.00761341
0.00154072
0.00756915
0.00163796
0.00752365
0.00174284
0.00747698
0.00185433
0.00743185
0.00197214
0.00739034
0.00209731
0.00735197
0.00223179
0.00731773
0.00237471
0.00728823
0.00252891
0.00726698
0.00269244
0.00725478
0.00286949
0.00725685
0.00305668
0.00727792
0.00325841
0.00732467
0.0034697
0.00741266
0.00369092
0.00755116
0.00391716
0.00777063
0.00413293
0.0080836
0.00432874
0.00851
0.00445811
0.00902999
0.0045049
0.00424757
0.00945825
0.00846125
1.29686e-06
0.00794074
-9.8435e-06
0.00821696
-7.85075e-05
0.00830512
-4.95062e-05
0.00835091
6.56565e-07
0.00837142
6.39882e-05
0.00837573
0.000132116
0.00837148
0.000194247
0.00836378
0.000249956
0.00835439
0.000300586
0.00834244
0.000350314
0.00832759
0.000400355
0.00831019
0.000450698
0.00829056
0.000501551
0.0082691
0.000552897
0.00824594
0.000605157
0.00822115
0.000658685
0.00819479
0.000713683
0.00816695
0.000770428
0.00813769
0.000829102
0.00810709
0.000889997
0.00807524
0.000953286
0.00804225
0.00101925
0.00800825
0.00108806
0.00797343
0.00116001
0.0079379
0.00123542
0.00790232
0.00131413
0.0078673
0.00139649
0.00783266
0.00148354
0.00779723
0.00157615
0.0077618
0.0016734
0.0077292
0.00177544
0.00770024
0.00188328
0.00767459
0.00199779
0.00765357
0.00211834
0.0076385
0.00224685
0.0076312
0.00238202
0.00763392
0.0025262
0.0076484
0.00267796
0.00767958
0.0028383
0.00772903
0.00300723
0.00780563
0.00318181
0.00791199
0.00336334
0.00806015
0.00354276
0.00825813
0.00371918
0.00851401
0.00387705
0.0088383
0.00400445
0.00921587
0.00408053
0.0096698
0.00405097
0.00392821
0.00998916
0.00845143
9.92769e-06
0.00798013
-6.57265e-05
0.00836221
-0.000271048
0.00854389
-0.000213058
0.00858692
-4.00752e-05
0.00857781
7.32742e-05
0.00856112
0.000148805
0.00854537
0.000209996
0.00853275
0.000262579
0.00851973
0.000313599
0.00850363
0.000366417
0.00848463
0.000419352
0.00846354
0.000471787
0.00844121
0.000523884
0.00841756
0.000576546
0.00839269
0.000630025
0.00836677
0.000684603
0.00833993
0.000740521
0.00831232
0.000798041
0.00828404
0.000857378
0.00825524
0.000918796
0.00822601
0.000982515
0.00819651
0.00104874
0.00816701
0.00111757
0.00813803
0.00118899
0.00810997
0.00126348
0.00808187
0.00134223
0.00805365
0.00142471
0.00802648
0.00151071
0.00800204
0.00160059
0.00798026
0.00169517
0.00796133
0.00179437
0.00794594
0.00189867
0.00793569
0.00200804
0.00793094
0.00212308
0.00793442
0.00224337
0.00794643
0.00237
0.00797138
0.00250125
0.00800982
0.00263952
0.00806727
0.00278086
0.00814636
0.00292813
0.00825235
0.00307583
0.00839133
0.00322435
0.00856629
0.00336781
0.00878571
0.00349976
0.00904815
0.00361461
0.00935675
0.00369585
0.00970203
0.00373526
0.010049
0.00370402
0.00359521
0.010382
0.0085192
1.56329e-05
0.00824796
-0.000394637
0.00879255
-0.000604561
0.00889071
-0.000291176
0.00887208
-1.84679e-05
0.00880411
0.000141467
0.00877214
0.000180774
0.00875223
0.000229898
0.00874253
0.000272284
0.008728
0.000328128
0.00870904
0.000385379
0.00868798
0.000440403
0.00866597
0.0004938
0.00864296
0.000546892
0.00861898
0.000600525
0.00859393
0.000655073
0.0085678
0.00071074
0.00854065
0.000767665
0.00851262
0.000826076
0.00848385
0.000886145
0.00845441
0.000948233
0.00842467
0.00101226
0.00839512
0.00107829
0.00836601
0.00114669
0.00833654
0.00121846
0.00830739
0.00129262
0.00828034
0.00136928
0.00825629
0.00144877
0.00823484
0.00153215
0.0082169
0.00161853
0.0082027
0.00170937
0.0081936
0.00180348
0.00818967
0.0019026
0.00819272
0.00200499
0.00820301
0.00211279
0.00822263
0.00222375
0.00825258
0.00234005
0.00829487
0.00245897
0.00835251
0.00258187
0.00842675
0.00270662
0.00852308
0.0028318
0.00864209
0.00295682
0.00879072
0.00307572
0.00896916
0.00318937
0.00918237
0.00328654
0.00942921
0.00336776
0.00970739
0.00341767
0.0100122
0.00343046
0.0103155
0.0034007
0.00330267
0.010608
0.00816076