/*--------------------------------*- C++ -*----------------------------------*\
| =========                 |                                                 |
| \\      /  F ield         | OpenFOAM: The Open Source CFD Toolbox           |
|  \\    /   O peration     | Version:  2412                                  |
|   \\  /    A nd           | Website:  www.openfoam.com                      |
|    \\/     M anipulation  |                                                 |
\*---------------------------------------------------------------------------*/
FoamFile
{
    version     2.0;
    format      ascii;
    arch        "LSB;label=32;scalar=64";
    class       volScalarField;
    location    "22";
    object      T;
}
// * * * * * * * * * * * * * * * * * * * * * * * * * * * * * * * * * * * * * //

dimensions      [0 0 0 1 0 0 0];

internalField   nonuniform List<scalar> 
7000
(
1.31911
2.65684
2.71977
2.66984
2.66466
2.64798
2.64456
2.6473
2.64935
2.65155
2.6528
2.65381
2.65495
2.6563
2.6578
2.65943
2.66116
2.66301
2.66498
2.66708
2.6693
2.67165
2.67411
2.67671
2.67941
2.68225
2.68519
2.68826
2.69143
2.6947
2.69806
2.70152
2.70503
2.70862
2.71223
2.71589
2.71953
2.72316
2.72672
2.73021
2.73356
2.73677
2.73976
2.74253
2.74497
2.74714
2.74888
2.75028
2.75123
2.75177
1.31917
2.65706
2.72002
2.66994
2.66479
2.6481
2.64468
2.64742
2.64947
2.65166
2.65292
2.65392
2.65506
2.65641
2.65791
2.65953
2.66126
2.66311
2.66508
2.66718
2.66939
2.67174
2.6742
2.67679
2.67949
2.68233
2.68527
2.68833
2.69149
2.69476
2.69811
2.70156
2.70507
2.70865
2.71225
2.7159
2.71953
2.72315
2.7267
2.73018
2.73351
2.73671
2.73968
2.74243
2.74487
2.74698
2.74874
2.75004
2.75097
2.75132
1.31915
2.65697
2.71991
2.66992
2.66475
2.64804
2.64462
2.64738
2.64938
2.65161
2.65282
2.65387
2.65495
2.65634
2.65779
2.65946
2.66114
2.66303
2.66495
2.66709
2.66925
2.67164
2.67404
2.67668
2.67933
2.6822
2.68509
2.68819
2.69129
2.6946
2.6979
2.70138
2.70485
2.70845
2.71203
2.71569
2.71931
2.72293
2.72649
2.72996
2.73332
2.73648
2.73949
2.74217
2.74465
2.74674
2.74849
2.74984
2.75067
2.75109
1.31913
2.65679
2.71973
2.66991
2.6647
2.64794
2.64452
2.64723
2.6493
2.65145
2.65273
2.65369
2.65486
2.65615
2.65769
2.65925
2.66102
2.66281
2.66482
2.66684
2.66912
2.67137
2.6739
2.67639
2.67917
2.68188
2.68491
2.68783
2.6911
2.69421
2.69768
2.70095
2.7046
2.70798
2.71173
2.71519
2.71896
2.72241
2.72607
2.72944
2.73284
2.73603
2.73897
2.74182
2.7441
2.74633
2.748
2.74926
2.75027
2.75045
1.31909
2.65657
2.7195
2.66994
2.66465
2.6478
2.64441
2.64702
2.64924
2.65122
2.65264
2.65344
2.65474
2.65589
2.65755
2.65897
2.66086
2.66251
2.66463
2.66653
2.66888
2.67104
2.67362
2.67604
2.67884
2.68152
2.68452
2.68746
2.69064
2.69383
2.69716
2.70058
2.704
2.70762
2.71106
2.71482
2.7182
2.72201
2.72523
2.72895
2.73196
2.73537
2.7382
2.74099
2.7436
2.7454
2.74738
2.74864
2.7493
2.74987
1.31905
2.65628
2.71921
2.66998
2.6646
2.64768
2.64422
2.64702
2.64888
2.6512
2.65225
2.6534
2.65433
2.65584
2.65711
2.6589
2.66038
2.66242
2.66411
2.66641
2.66831
2.67088
2.673
2.67583
2.67816
2.68125
2.68379
2.68711
2.68986
2.69338
2.69634
2.70001
2.70317
2.70691
2.71026
2.71397
2.71747
2.72103
2.72462
2.72786
2.73142
2.73412
2.73746
2.7398
2.74248
2.74473
2.74608
2.74767
2.7486
2.74858
1.319
2.65592
2.71885
2.67003
2.66454
2.64748
2.64402
2.64675
2.6487
2.6509
2.65205
2.65307
2.65412
2.65547
2.65689
2.65849
2.66015
2.66196
2.66387
2.66589
2.66807
2.6703
2.67275
2.67517
2.6779
2.68049
2.6835
2.68625
2.68953
2.6924
2.69593
2.6989
2.70263
2.70569
2.70954
2.7127
2.71653
2.71977
2.72344
2.72672
2.73004
2.73334
2.73591
2.73891
2.74089
2.74326
2.74516
2.74614
2.74685
2.7476
1.31894
2.65549
2.71841
2.6701
2.66446
2.64723
2.64377
2.64644
2.64846
2.65055
2.65177
2.65269
2.65379
2.65506
2.65651
2.65804
2.65972
2.66148
2.66338
2.66537
2.66751
2.66974
2.6721
2.67458
2.67716
2.67989
2.68265
2.68564
2.68856
2.6918
2.69483
2.6983
2.70137
2.70504
2.70809
2.7119
2.71494
2.71873
2.72177
2.72534
2.72841
2.73153
2.73471
2.73701
2.73973
2.74143
2.74308
2.74486
2.7457
2.74546
1.31887
2.65497
2.71789
2.67019
2.66437
2.64696
2.64346
2.64616
2.64808
2.65023
2.65134
2.65232
2.65333
2.65464
2.65601
2.65758
2.65917
2.66095
2.66277
2.66478
2.66684
2.66908
2.67137
2.67382
2.67635
2.67901
2.68177
2.68462
2.6876
2.69061
2.6938
2.69692
2.70033
2.70348
2.7071
2.71015
2.71392
2.7168
2.72059
2.72328
2.72687
2.72949
2.73247
2.73539
2.73715
2.73985
2.74127
2.74219
2.74291
2.74391
1.31879
2.65436
2.71728
2.67029
2.66427
2.64661
2.6431
2.64569
2.64776
2.64971
2.65097
2.65176
2.6529
2.65403
2.65552
2.65692
2.65862
2.66023
2.66216
2.664
2.66614
2.66821
2.67058
2.67287
2.67545
2.67796
2.68074
2.68346
2.68642
2.68933
2.69245
2.69552
2.69875
2.70197
2.70525
2.70859
2.7118
2.71523
2.71821
2.7217
2.72427
2.7277
2.72984
2.73283
2.73526
2.7365
2.73875
2.74031
2.7411
2.74058
1.31869
2.65366
2.71657
2.6704
2.66415
2.64625
2.64266
2.64536
2.64717
2.64931
2.65033
2.6513
2.65221
2.65351
2.65477
2.65633
2.6578
2.65957
2.66126
2.66325
2.66517
2.66737
2.6695
2.67191
2.67427
2.67686
2.67944
2.68221
2.68498
2.6879
2.69085
2.69389
2.69698
2.7001
2.7033
2.70644
2.70969
2.71276
2.716
2.71889
2.72202
2.72455
2.72746
2.72942
2.73207
2.73435
2.73507
2.73611
2.73679
2.73819
1.31858
2.65285
2.71577
2.67054
2.66401
2.64578
2.64218
2.64472
2.64674
2.6486
2.64983
2.65052
2.65164
2.65267
2.65414
2.65541
2.65709
2.65857
2.66047
2.66215
2.66427
2.66616
2.66849
2.67058
2.67311
2.67539
2.67812
2.68058
2.68347
2.68609
2.68912
2.69189
2.695
2.6979
2.70103
2.70403
2.70708
2.71016
2.713
2.71613
2.71862
2.72168
2.72377
2.72635
2.72791
2.72981
2.73211
2.73328
2.73395
2.73305
1.31846
2.65194
2.71485
2.67069
2.66384
2.64529
2.6416
2.6442
2.64602
2.648
2.64903
2.64986
2.65077
2.65193
2.65317
2.6546
2.65604
2.65766
2.6593
2.66114
2.66298
2.66503
2.66706
2.66931
2.67152
2.67397
2.67634
2.67896
2.68148
2.68426
2.6869
2.68981
2.69252
2.69553
2.69826
2.70132
2.70401
2.70704
2.70965
2.71247
2.71507
2.71736
2.72007
2.72173
2.72416
2.72539
2.72599
2.72687
2.72739
2.72925
1.31833
2.65094
2.71377
2.67106
2.66345
2.64473
2.64095
2.64349
2.64531
2.6472
2.64824
2.64896
2.6499
2.65094
2.65223
2.6535
2.655
2.65646
2.65816
2.6598
2.66172
2.66354
2.66566
2.66765
2.66996
2.67211
2.67458
2.67688
2.67949
2.68193
2.68463
2.68719
2.68993
2.69259
2.69531
2.69801
2.70067
2.70331
2.7059
2.70832
2.71077
2.71288
2.71478
2.71681
2.71785
2.72
2.72155
2.72238
2.72271
2.72109
1.3182
2.64986
2.7125
2.67177
2.66275
2.64409
2.64022
2.64266
2.64451
2.64625
2.64734
2.64793
2.6489
2.64982
2.65112
2.65229
2.65376
2.65514
2.65679
2.65837
2.66018
2.66197
2.66392
2.66593
2.66799
2.6702
2.67236
2.67476
2.67697
2.67955
2.68177
2.68449
2.68671
2.68948
2.6917
2.69439
2.69662
2.69909
2.70132
2.70349
2.70557
2.70751
2.70925
2.71058
2.71192
2.71184
2.71224
2.71239
2.71296
2.71468
1.31805
2.64865
2.71115
2.67235
2.6621
2.64339
2.63936
2.64185
2.64347
2.64532
2.64619
2.64691
2.64764
2.6487
2.64973
2.65105
2.65225
2.65377
2.65513
2.65686
2.65836
2.66028
2.66192
2.66402
2.66578
2.66803
2.66992
2.67227
2.67429
2.67668
2.67882
2.68117
2.68345
2.68565
2.68804
2.69003
2.6924
2.69417
2.69629
2.69787
2.69949
2.70079
2.70201
2.70302
2.70356
2.70491
2.70453
2.70451
2.70319
2.70083
1.31788
2.64731
2.70969
2.67291
2.66142
2.6426
2.6384
2.64093
2.64231
2.64425
2.64492
2.64572
2.64627
2.64739
2.64825
2.6496
2.65065
2.65216
2.65339
2.65505
2.65647
2.65824
2.65985
2.66171
2.66349
2.66542
2.66737
2.66931
2.6714
2.67333
2.6755
2.67741
2.67957
2.68145
2.68347
2.68535
2.68706
2.68891
2.6902
2.69179
2.69274
2.69353
2.69383
2.69393
2.69327
2.69145
2.69075
2.6886
2.68794
2.68783
1.3177
2.64586
2.70813
2.67348
2.66068
2.64168
2.63734
2.63972
2.64119
2.64286
2.64368
2.64421
2.64492
2.64574
2.64678
2.64781
2.64904
2.65021
2.65162
2.65292
2.6545
2.65591
2.65764
2.65916
2.66099
2.66261
2.66451
2.66621
2.66812
2.6699
2.67173
2.67355
2.67523
2.67702
2.67846
2.68009
2.68129
2.68245
2.6835
2.68388
2.68468
2.6846
2.68422
2.68326
2.68205
2.68041
2.67612
2.67254
2.66671
2.66069
1.31751
2.64431
2.70649
2.67406
2.65987
2.64066
2.63615
2.6384
2.63985
2.64137
2.64221
2.64261
2.64331
2.64402
2.64501
2.64595
2.64708
2.64819
2.64944
2.65072
2.65207
2.65349
2.65491
2.65647
2.65793
2.6596
2.66106
2.66281
2.66425
2.66601
2.66741
2.66909
2.67042
2.67187
2.67313
2.67416
2.67525
2.67561
2.67624
2.67608
2.67522
2.67446
2.67203
2.66992
2.66527
2.65992
2.65476
2.64501
2.63537
2.62273
1.3173
2.64272
2.7048
2.67463
2.65893
2.63955
2.63476
2.63707
2.63818
2.63986
2.64043
2.641
2.64142
2.6423
2.64298
2.64409
2.64493
2.64617
2.64713
2.64848
2.64955
2.65099
2.65216
2.65364
2.65489
2.65636
2.65767
2.65907
2.6604
2.66166
2.66297
2.664
2.66522
2.66594
2.66694
2.66724
2.6679
2.66778
2.66742
2.66656
2.66549
2.66282
2.6606
2.6553
2.65065
2.64067
2.62784
2.61094
2.58207
2.51103
1.31729
2.6418
2.70042
2.67515
2.65753
2.6378
2.63269
2.63479
2.63592
2.63731
2.63802
2.63829
2.63885
2.63937
2.64023
2.64094
2.64196
2.64277
2.64391
2.6448
2.64604
2.64699
2.6483
2.64927
2.65062
2.65156
2.65289
2.65378
2.655
2.65578
2.6568
2.6574
2.65805
2.65835
2.65856
2.65824
2.65765
2.65675
2.65486
2.65281
2.6487
2.64511
2.63747
2.63139
2.61843
2.6062
2.58347
2.54735
2.4896
2.36403
1.31727
2.64082
2.6957
2.67533
2.65562
2.63543
2.62982
2.63189
2.63277
2.6342
2.63481
2.63511
2.6355
2.63604
2.63669
2.63741
2.63817
2.63899
2.63981
2.6407
2.64156
2.64251
2.64336
2.64433
2.64513
2.64607
2.64676
2.64763
2.64814
2.64885
2.64908
2.64958
2.64954
2.64936
2.64888
2.64831
2.64678
2.64551
2.64239
2.63996
2.63488
2.62894
2.62128
2.60787
2.59491
2.56852
2.54179
2.49172
2.41721
2.31798
1.31724
2.64015
2.69323
2.67517
2.65404
2.63314
2.6269
2.62874
2.62951
2.63094
2.63152
2.63176
2.63205
2.63249
2.63305
2.63367
2.63433
2.63502
2.63573
2.63648
2.63721
2.63798
2.63869
2.63943
2.64008
2.64071
2.64122
2.64165
2.64192
2.64207
2.64191
2.64152
2.64098
2.63979
2.63855
2.63621
2.63412
2.6302
2.62709
2.62079
2.61616
2.60614
2.59867
2.58344
2.56678
2.54292
2.50651
2.46402
2.39207
2.31849
1.31712
2.63901
2.69242
2.67397
2.6521
2.63034
2.62364
2.62559
2.62643
2.62794
2.62846
2.62853
2.62863
2.6289
2.62915
2.6296
2.62991
2.63039
2.63074
2.63126
2.63163
2.63217
2.63255
2.63307
2.63345
2.63391
2.63422
2.63462
2.63473
2.63481
2.63469
2.63435
2.63376
2.63248
2.63121
2.62842
2.62609
2.62117
2.6168
2.60952
2.60133
2.59131
2.57734
2.56328
2.54111
2.51829
2.48442
2.44398
2.39091
2.32895
1.31689
2.6402
2.70395
2.67061
2.65209
2.62871
2.6215
2.62423
2.6252
2.62704
2.62752
2.62746
2.62743
2.62746
2.62755
2.62765
2.62771
2.62774
2.62773
2.62769
2.62761
2.62744
2.62728
2.62694
2.62666
2.62619
2.62582
2.62501
2.62453
2.62344
2.62279
2.62132
2.62045
2.61842
2.61712
2.6143
2.61177
2.60794
2.60278
2.59715
2.58813
2.57879
2.5647
2.54879
2.52839
2.50256
2.47341
2.43469
2.39201
2.3448
1.30178
2.58659
2.69851
2.67707
2.65965
2.63614
2.62924
2.63214
2.6332
2.63473
2.63459
2.63416
2.63348
2.63294
2.63236
2.63183
2.63119
2.63063
2.62997
2.62942
2.62874
2.62822
2.62749
2.627
2.62611
2.62557
2.62433
2.62342
2.62156
2.62024
2.61758
2.61577
2.61225
2.61001
2.60553
2.60275
2.59707
2.59353
2.58641
2.58089
2.57196
2.56264
2.55065
2.53535
2.518
2.49461
2.46887
2.43589
2.39828
2.3581
1.7205
2.46898
2.72873
2.70691
2.68434
2.67404
2.67458
2.67612
2.67752
2.67779
2.6766
2.67514
2.67352
2.67174
2.66977
2.66757
2.66516
2.66254
2.65972
2.65675
2.65354
2.65029
2.64674
2.64328
2.6393
2.63538
2.63095
2.62785
2.624
2.62144
2.61778
2.61507
2.61079
2.60712
2.60192
2.59687
2.59073
2.58375
2.57682
2.56742
2.55925
2.54691
2.53638
2.52031
2.50554
2.4845
2.46325
2.43568
2.40596
2.37319
1.7324
2.46206
2.72323
2.70217
2.6774
2.66843
2.67232
2.67402
2.6767
2.67753
2.67772
2.67758
2.67732
2.67703
2.67635
2.67574
2.67442
2.67345
2.67142
2.67011
2.66737
2.66566
2.66224
2.65995
2.65603
2.6534
2.649
2.64485
2.63923
2.63381
2.62722
2.62104
2.61487
2.60886
2.60317
2.59612
2.59012
2.58135
2.57386
2.56304
2.55339
2.5403
2.52775
2.5121
2.49578
2.47694
2.45608
2.43319
2.40777
2.3817
1.72915
2.46761
2.72521
2.70247
2.67384
2.66436
2.66919
2.67163
2.6748
2.67592
2.67626
2.6764
2.67657
2.67655
2.67645
2.67619
2.6756
2.6752
2.67429
2.67357
2.67199
2.67092
2.6687
2.66698
2.66413
2.66147
2.65807
2.65441
2.65029
2.64535
2.64066
2.63411
2.62807
2.61906
2.61181
2.60169
2.59374
2.58347
2.57489
2.56367
2.55332
2.54049
2.52746
2.51225
2.49615
2.47787
2.45809
2.43631
2.4128
2.38986
1.73185
2.4609
2.72067
2.69697
2.67076
2.66112
2.66567
2.66793
2.67109
2.67235
2.67275
2.67303
2.67337
2.67367
2.67393
2.67397
2.67389
2.67364
2.6732
2.67251
2.67182
2.67052
2.66954
2.66754
2.66622
2.66351
2.66171
2.65801
2.65562
2.6507
2.6476
2.64135
2.63707
2.62955
2.62342
2.61423
2.60568
2.59432
2.5835
2.5707
2.55814
2.5444
2.53048
2.51519
2.49909
2.48149
2.46332
2.44328
2.42223
2.40153
1.74102
2.44274
2.70914
2.68462
2.66704
2.65766
2.66061
2.66232
2.66541
2.66646
2.66712
2.66721
2.66743
2.66755
2.66768
2.66768
2.66763
2.66745
2.66727
2.6668
2.66646
2.66566
2.66509
2.66382
2.66288
2.66083
2.65945
2.65648
2.65454
2.65052
2.64762
2.64267
2.63858
2.6326
2.62692
2.61962
2.6122
2.60316
2.59349
2.58226
2.57011
2.55617
2.54154
2.52546
2.50913
2.49138
2.47316
2.45386
2.43385
2.41435
1.73597
2.43631
2.70579
2.67709
2.66924
2.656
2.65612
2.65812
2.66112
2.66223
2.6633
2.6634
2.66368
2.66387
2.66404
2.66411
2.66409
2.66399
2.66383
2.66348
2.66319
2.66251
2.662
2.66089
2.66011
2.65839
2.65721
2.65471
2.65296
2.64966
2.64694
2.64276
2.63876
2.63363
2.62844
2.62205
2.61541
2.60752
2.59923
2.58961
2.57938
2.56765
2.55511
2.54096
2.52588
2.50941
2.49217
2.47382
2.45471
2.43608
1.35698
2.4674
2.67922
2.66853
2.64651
2.62387
2.61683
2.62087
2.62284
2.62572
2.62715
2.62818
2.62898
2.62999
2.6307
2.63179
2.63245
2.63343
2.63393
2.63476
2.63508
2.63582
2.63594
2.63613
2.63613
2.63603
2.6358
2.63521
2.63463
2.63343
2.63226
2.63036
2.62837
2.62538
2.62215
2.61756
2.61253
2.60614
2.59923
2.59096
2.58227
2.57217
2.56154
2.54968
2.53695
2.52305
2.50822
2.49235
2.47556
2.45909
1.3604
2.47697
2.68634
2.6771
2.65248
2.62351
2.61388
2.6147
2.61669
2.61865
2.61946
2.61956
2.61976
2.61979
2.62005
2.62039
2.62076
2.62108
2.62142
2.62165
2.62192
2.62201
2.62218
2.62209
2.62193
2.62154
2.62115
2.62028
2.61958
2.6181
2.61695
2.61474
2.61282
2.60987
2.60704
2.60351
2.59985
2.59539
2.59044
2.58479
2.57807
2.57049
2.56149
2.55158
2.54074
2.52907
2.5167
2.50349
2.48939
2.47559
1.34961
2.41265
2.6694
2.66957
2.65015
2.62376
2.61399
2.61405
2.61475
2.61531
2.61498
2.61411
2.61336
2.61232
2.61166
2.61096
2.61046
2.60981
2.60933
2.60869
2.60821
2.60757
2.60708
2.60641
2.60585
2.60507
2.60436
2.60352
2.60263
2.60155
2.60017
2.59863
2.59661
2.59445
2.59164
2.58869
2.585
2.58113
2.57648
2.57141
2.56567
2.55959
2.5529
2.5456
2.53753
2.52817
2.51764
2.50656
2.49477
2.4834
1.74168
2.39661
2.67498
2.6613
2.65251
2.6386
2.63344
2.63369
2.63344
2.63316
2.63236
2.63113
2.62972
2.62806
2.62645
2.62487
2.6232
2.62148
2.61962
2.61776
2.61576
2.6138
2.61166
2.60959
2.60731
2.60519
2.6028
2.6007
2.59822
2.5958
2.59323
2.5906
2.58779
2.58475
2.58156
2.57793
2.57418
2.56979
2.56532
2.56003
2.55465
2.54834
2.54197
2.53464
2.52705
2.51904
2.51092
2.50189
2.49217
2.48258
1.34701
2.39561
2.66019
2.66582
2.64948
2.6242
2.6156
2.61425
2.61552
2.61578
2.61551
2.61516
2.61427
2.61335
2.61271
2.61185
2.61113
2.61007
2.60912
2.60779
2.60666
2.60528
2.60412
2.60262
2.60135
2.59949
2.5979
2.5954
2.59339
2.59067
2.58831
2.58523
2.58244
2.57887
2.57565
2.57172
2.568
2.56361
2.55927
2.55428
2.54913
2.54334
2.53722
2.53058
2.52339
2.51581
2.50768
2.49926
2.4903
2.48168
1.34833
2.4065
2.66738
2.67128
2.65097
2.62224
2.61098
2.61079
2.61176
2.61247
2.61234
2.61165
2.61089
2.6099
2.6093
2.60856
2.60796
2.60707
2.60626
2.60513
2.60398
2.60232
2.60064
2.59848
2.59631
2.59381
2.59128
2.58849
2.58557
2.58247
2.57917
2.57578
2.57221
2.56866
2.5647
2.56078
2.55638
2.55209
2.54722
2.54253
2.53718
2.53206
2.52618
2.52048
2.51402
2.50763
2.50044
2.49315
2.48533
2.47799
1.34775
2.40215
2.66461
2.66932
2.64837
2.61895
2.60694
2.6068
2.6076
2.60851
2.60823
2.60738
2.60656
2.60545
2.60474
2.60398
2.60336
2.60256
2.60179
2.60086
2.59989
2.59874
2.59746
2.59598
2.59427
2.59236
2.59015
2.58777
2.58502
2.58214
2.57884
2.57545
2.57162
2.56775
2.56345
2.55907
2.55423
2.54928
2.54392
2.5384
2.53259
2.52656
2.52031
2.51379
2.50712
2.50012
2.49309
2.4856
2.47805
2.47068
1.34491
2.37914
2.64744
2.66155
2.6424
2.61457
2.60275
2.60132
2.60162
2.60186
2.6012
2.60043
2.59909
2.598
2.59692
2.59605
2.595
2.59408
2.59293
2.59189
2.59063
2.5895
2.58813
2.58689
2.58537
2.58395
2.58221
2.5805
2.57843
2.57633
2.57387
2.57126
2.56828
2.56503
2.56141
2.55749
2.55328
2.54871
2.54387
2.53858
2.5331
2.52715
2.52103
2.51444
2.50772
2.50056
2.49331
2.4858
2.47818
2.47084
1.7513
2.3731
2.64565
2.64172
2.62826
2.61417
2.60929
2.60953
2.60951
2.6094
2.60882
2.60816
2.60693
2.60579
2.60451
2.60339
2.60202
2.60071
2.59913
2.59758
2.5958
2.59403
2.59204
2.59006
2.58787
2.58566
2.58327
2.58081
2.57818
2.57545
2.57265
2.56968
2.56662
2.56329
2.55986
2.55606
2.55215
2.54781
2.54327
2.53831
2.53309
2.52749
2.5217
2.51556
2.50925
2.5026
2.49573
2.48856
2.48107
2.47392
1.34701
2.38877
2.65259
2.65981
2.63927
2.60893
2.59759
2.59624
2.59786
2.59918
2.59903
2.59852
2.59794
2.59667
2.596
2.59478
2.59405
2.59257
2.59161
2.58989
2.58835
2.5865
2.58468
2.58255
2.58048
2.57824
2.57617
2.57387
2.57172
2.56927
2.56673
2.56384
2.56088
2.55761
2.55426
2.55063
2.54689
2.5429
2.53881
2.53448
2.52996
2.52516
2.52006
2.51462
2.50887
2.50281
2.49648
2.48995
2.4831
2.47654
1.35071
2.41202
2.65481
2.64885
2.62691
2.59634
2.58558
2.58585
2.58764
2.58956
2.5899
2.58966
2.58919
2.58842
2.58791
2.58739
2.58693
2.58631
2.58565
2.58485
2.58396
2.58294
2.5818
2.58048
2.57899
2.57715
2.57507
2.57267
2.57004
2.56716
2.56416
2.56097
2.55765
2.55413
2.55046
2.54661
2.54258
2.53839
2.53401
2.52946
2.52473
2.51983
2.51482
2.50971
2.50436
2.49887
2.4931
2.48714
2.48089
2.47493
1.7712
2.37216
2.63844
2.61751
2.61118
2.59588
2.59315
2.5939
2.59502
2.59629
2.59603
2.59555
2.5952
2.59453
2.59396
2.59339
2.5928
2.59213
2.5914
2.59058
2.5897
2.5887
2.58762
2.58639
2.58505
2.58354
2.58187
2.57999
2.57791
2.57551
2.57277
2.56974
2.5664
2.56281
2.55894
2.55484
2.55048
2.54594
2.54116
2.53623
2.53104
2.52568
2.52002
2.51421
2.50821
2.50208
2.49587
2.48956
2.48313
2.477
1.79773
2.35513
2.62643
2.60584
2.60266
2.59274
2.58935
2.58958
2.58982
2.59038
2.59012
2.5895
2.58886
2.58784
2.58681
2.58569
2.58451
2.58317
2.58178
2.58024
2.57866
2.57695
2.57525
2.57347
2.57171
2.56987
2.56805
2.56614
2.56422
2.56226
2.56038
2.55834
2.55636
2.55416
2.55194
2.54944
2.54685
2.5439
2.54058
2.53689
2.53299
2.52882
2.52441
2.51971
2.51477
2.50953
2.504
2.49817
2.49207
2.48616
1.76255
2.38162
2.65005
2.61926
2.61347
2.59932
2.59616
2.59827
2.59974
2.60057
2.60031
2.59982
2.59877
2.59757
2.59629
2.59497
2.59354
2.59203
2.59038
2.58869
2.58688
2.58504
2.58295
2.58075
2.5783
2.57578
2.573
2.57019
2.56713
2.56407
2.56077
2.55752
2.55407
2.55056
2.54685
2.54312
2.53918
2.53528
2.53138
2.52746
2.52338
2.5192
2.51483
2.51041
2.50582
2.50115
2.49627
2.4913
2.48607
2.48114
1.28618
2.49453
2.6447
2.64201
2.61674
2.58403
2.57197
2.57241
2.57505
2.57744
2.57869
2.57892
2.57915
2.57912
2.57906
2.57898
2.57882
2.57852
2.57805
2.5774
2.57657
2.57553
2.57437
2.57302
2.57155
2.56986
2.56813
2.56599
2.56375
2.56135
2.55873
2.55595
2.55285
2.54965
2.54615
2.54258
2.53872
2.5348
2.53062
2.52641
2.52197
2.51751
2.51301
2.50828
2.50342
2.49834
2.49316
2.48776
2.48226
2.47699
1.77182
2.36719
2.63948
2.61691
2.61061
2.5952
2.59026
2.59117
2.59159
2.59318
2.5928
2.59223
2.59178
2.59099
2.59024
2.58938
2.58861
2.58764
2.58671
2.58556
2.58445
2.58311
2.5818
2.58024
2.57871
2.57689
2.5751
2.57299
2.57068
2.56807
2.56528
2.5622
2.55911
2.5558
2.55247
2.54886
2.54523
2.54127
2.53731
2.53298
2.52866
2.52396
2.51909
2.51403
2.50887
2.50352
2.49808
2.49246
2.48673
2.48125
1.77322
2.36538
2.63739
2.61499
2.60875
2.59346
2.5885
2.5896
2.59066
2.59175
2.59229
2.59179
2.59136
2.59056
2.5897
2.58877
2.58778
2.58664
2.5854
2.58401
2.58254
2.58094
2.57925
2.57747
2.57558
2.57361
2.57152
2.56941
2.56734
2.56519
2.56301
2.56068
2.55818
2.55547
2.55257
2.54952
2.54629
2.54292
2.53936
2.53566
2.53175
2.52772
2.52348
2.51911
2.51452
2.50981
2.50489
2.49986
2.4946
2.48951
1.28558
2.49092
2.64201
2.63934
2.6136
2.57895
2.56602
2.56552
2.56805
2.57011
2.57106
2.571
2.57086
2.57047
2.57017
2.5697
2.5694
2.56878
2.56834
2.56744
2.5668
2.56564
2.56476
2.56332
2.56221
2.56058
2.55894
2.55717
2.55527
2.55326
2.55113
2.54892
2.5466
2.54418
2.54165
2.53899
2.53618
2.53323
2.53013
2.52686
2.52344
2.51984
2.5161
2.51217
2.50812
2.50387
2.49951
2.49496
2.49029
2.48575
1.76675
2.37284
2.64058
2.60984
2.60343
2.58746
2.5844
2.58657
2.58747
2.58959
2.58935
2.58881
2.58835
2.58751
2.58672
2.58583
2.58497
2.58393
2.58287
2.58165
2.58039
2.579
2.57754
2.57597
2.5743
2.57254
2.57064
2.56865
2.56652
2.56429
2.5619
2.55929
2.55654
2.55357
2.55048
2.54718
2.54378
2.54018
2.53649
2.53269
2.5288
2.52477
2.52063
2.51635
2.51195
2.50742
2.50276
2.49798
2.49304
2.48831
1.79464
2.35595
2.62399
2.59589
2.59187
2.58017
2.5769
2.57809
2.5784
2.57912
2.57894
2.57853
2.57807
2.57733
2.57661
2.57586
2.57505
2.57415
2.57316
2.57207
2.5709
2.56963
2.56828
2.56683
2.56529
2.56366
2.56193
2.56012
2.55821
2.55621
2.55412
2.55206
2.54989
2.54772
2.54541
2.54309
2.54058
2.53799
2.53516
2.5322
2.529
2.52571
2.52221
2.51862
2.51483
2.51094
2.50685
2.50267
2.49825
2.49408
1.79925
2.35071
2.61897
2.59271
2.58907
2.57781
2.574
2.57468
2.57485
2.57525
2.57511
2.5747
2.5742
2.57344
2.57266
2.57189
2.57102
2.57009
2.56904
2.56792
2.56668
2.56537
2.56392
2.5624
2.56074
2.559
2.55712
2.55515
2.55305
2.55086
2.54852
2.5461
2.54354
2.5409
2.53813
2.53527
2.53228
2.52927
2.52616
2.523
2.51974
2.51639
2.5129
2.50933
2.50562
2.50181
2.49786
2.49381
2.4896
2.4856
1.7798
2.35594
2.61653
2.60297
2.59361
2.57716
2.57213
2.57261
2.57322
2.57384
2.57382
2.57335
2.57283
2.572
2.57119
2.57041
2.56956
2.56865
2.56763
2.56654
2.56534
2.56406
2.56267
2.5612
2.55961
2.55793
2.55613
2.55423
2.5522
2.55007
2.54781
2.54544
2.54294
2.54032
2.53757
2.5347
2.5317
2.52858
2.52533
2.52196
2.51846
2.51485
2.51113
2.50728
2.50332
2.49924
2.49504
2.49073
2.48628
2.48204
1.34476
2.37984
2.63798
2.63736
2.61517
2.58171
2.5675
2.56512
2.56643
2.56755
2.5675
2.56724
2.56655
2.56555
2.56464
2.56385
2.56302
2.56214
2.56115
2.56008
2.55889
2.55764
2.55625
2.55479
2.5532
2.55152
2.5497
2.5478
2.54575
2.54361
2.54131
2.53893
2.53638
2.53375
2.53094
2.52805
2.52499
2.52184
2.51851
2.51509
2.5115
2.50782
2.50396
2.50002
2.4959
2.49171
2.48734
2.48292
2.47832
2.47393
1.34601
2.38744
2.65286
2.65699
2.63095
2.59244
2.57491
2.57256
2.5742
2.57548
2.57593
2.57558
2.57476
2.57375
2.5727
2.57183
2.57095
2.57004
2.56901
2.56792
2.56671
2.56546
2.56408
2.56266
2.56111
2.5595
2.55777
2.55597
2.55404
2.55204
2.5499
2.5477
2.54534
2.54292
2.54034
2.53768
2.53486
2.53196
2.5289
2.52575
2.52244
2.51903
2.51546
2.5118
2.50796
2.50403
2.49995
2.49576
2.49142
2.48725
1.34511
2.37931
2.63632
2.63632
2.61342
2.58008
2.56492
2.56293
2.56429
2.5652
2.56561
2.56519
2.56448
2.56345
2.56251
2.56168
2.56088
2.56
2.55906
2.55801
2.5569
2.5557
2.55444
2.55308
2.55165
2.55011
2.54851
2.54679
2.54501
2.5431
2.54112
2.53901
2.53683
2.53451
2.53212
2.52959
2.52699
2.52424
2.52141
2.51843
2.51537
2.51216
2.50887
2.50541
2.50188
2.49819
2.49442
2.49049
2.48646
2.48254
1.78107
2.35422
2.61401
2.59968
2.59001
2.57213
2.56705
2.56741
2.568
2.56904
2.56888
2.56834
2.56785
2.56697
2.56621
2.5654
2.56462
2.56369
2.56276
2.56167
2.56058
2.55933
2.55808
2.55667
2.55524
2.55365
2.55205
2.55027
2.54848
2.54652
2.54453
2.54237
2.54018
2.53781
2.53541
2.53283
2.53022
2.52741
2.52458
2.52155
2.51849
2.51523
2.51194
2.50845
2.50491
2.50119
2.49742
2.49344
2.4894
2.48546
1.80131
2.34719
2.61458
2.58736
2.58382
2.57255
2.56906
2.57014
2.57043
2.57087
2.57073
2.57021
2.56966
2.56876
2.56794
2.56705
2.56617
2.56514
2.56409
2.5629
2.56169
2.56032
2.55893
2.55739
2.55581
2.55407
2.5523
2.55037
2.54839
2.54625
2.54407
2.54171
2.53931
2.53674
2.53411
2.53132
2.52847
2.52544
2.52236
2.51911
2.51579
2.5123
2.50874
2.50502
2.50123
2.49728
2.49325
2.48906
2.48479
2.48065
1.78827
2.36082
2.62699
2.59537
2.58875
2.57464
2.57216
2.57418
2.57568
2.5766
2.57657
2.57606
2.57552
2.57469
2.57391
2.57309
2.57224
2.57127
2.57025
2.56911
2.56792
2.56662
2.56526
2.56378
2.56224
2.56057
2.55884
2.55698
2.55505
2.55299
2.55086
2.54859
2.54625
2.54377
2.54121
2.5385
2.53571
2.53278
2.52977
2.5266
2.52335
2.51996
2.51647
2.51283
2.50911
2.50524
2.50128
2.49717
2.49297
2.48891
2.17221
2.34533
2.76276
2.86046
2.86066
2.8186
2.81688
2.81631
2.80911
2.80801
2.81109
2.81262
2.81399
2.81482
2.81663
2.81796
2.82006
2.82183
2.82343
2.82441
2.82485
2.82498
2.82373
2.82291
2.81995
2.81759
2.81362
2.80981
2.80493
2.79999
2.79428
2.78843
2.78202
2.77548
2.76874
2.76178
2.75469
2.74692
2.73883
2.73072
2.72259
2.7144
2.70617
2.69792
2.68969
2.68148
2.67334
2.66527
2.65731
2.64947
2.6418
2.63429
2.62699
2.61989
2.61307
2.6065
2.60026
2.59433
2.58879
2.58362
2.5789
2.57462
2.57085
2.56757
2.56485
2.56267
2.56107
2.56001
2.55953
2.55943
2.55955
2.5599
2.56076
2.56223
2.56428
2.56652
2.56873
2.57102
2.57322
2.57541
2.5774
2.57929
2.58089
2.58233
2.58345
2.58439
2.58502
2.58549
2.58567
2.58574
2.58563
2.58539
2.58505
2.58433
2.58358
2.58254
2.58169
2.58055
2.57964
2.57661
2.18038
2.26037
2.45046
2.62855
2.69716
2.73358
2.76067
2.7854
2.79962
2.81232
2.82029
2.83029
2.83586
2.83546
2.83158
2.82627
2.81883
2.81145
2.80224
2.7934
2.78325
2.77368
2.76319
2.75341
2.74257
2.73233
2.7212
2.71075
2.69955
2.68905
2.67789
2.6674
2.65636
2.64596
2.63532
2.62539
2.61514
2.60483
2.59411
2.58375
2.57361
2.56369
2.55388
2.54426
2.53479
2.52553
2.51644
2.5076
2.49894
2.49055
2.48238
2.47449
2.46684
2.45952
2.45248
2.4458
2.43944
2.43348
2.42789
2.42275
2.41804
2.41383
2.4101
2.40691
2.40424
2.40216
2.40062
2.39967
2.39924
2.39924
2.39951
2.40006
2.40117
2.40292
2.40538
2.40804
2.41077
2.41351
2.41621
2.41881
2.42125
2.42346
2.42541
2.42706
2.42841
2.42945
2.43017
2.43062
2.43077
2.43074
2.4306
2.43028
2.4299
2.4291
2.42832
2.42719
2.42633
2.42515
2.42437
2.42149
2.22679
2.21295
2.27125
2.35849
2.41095
2.46068
2.49438
2.52172
2.54286
2.55877
2.57066
2.57979
2.58654
2.58901
2.58829
2.58659
2.58268
2.57818
2.57269
2.56674
2.56004
2.55322
2.54589
2.53869
2.5309
2.52325
2.51503
2.50709
2.49866
2.4906
2.48208
2.47398
2.46544
2.45734
2.44903
2.44141
2.43349
2.42548
2.41688
2.40854
2.40037
2.39241
2.38448
2.3767
2.36896
2.36139
2.3539
2.34659
2.33939
2.3324
2.32553
2.31891
2.31243
2.30624
2.30023
2.29454
2.28908
2.28398
2.27916
2.27474
2.27065
2.26702
2.26377
2.26102
2.25869
2.25691
2.25558
2.25481
2.2545
2.25459
2.25489
2.2554
2.25642
2.25802
2.26029
2.26275
2.26531
2.26785
2.27036
2.27274
2.27498
2.27698
2.27877
2.28024
2.28146
2.28236
2.28301
2.28336
2.28349
2.28343
2.2833
2.28301
2.28268
2.28195
2.28127
2.28025
2.27952
2.2785
2.27801
2.2756
2.25963
2.22034
2.21598
2.241
2.27155
2.29407
2.3093
2.32112
2.33166
2.34092
2.34857
2.35468
2.35941
2.36302
2.36456
2.36481
2.36476
2.36465
2.36446
2.36418
2.36369
2.36304
2.36231
2.36102
2.35949
2.3577
2.3554
2.35289
2.34993
2.34681
2.34325
2.33958
2.33548
2.33132
2.32697
2.32287
2.31851
2.31376
2.30832
2.30279
2.29722
2.29176
2.28617
2.28062
2.27494
2.26932
2.2636
2.25799
2.25233
2.24681
2.24127
2.23591
2.23058
2.22547
2.22043
2.21566
2.21101
2.20667
2.20251
2.19871
2.19514
2.192
2.18913
2.18674
2.18467
2.18313
2.18196
2.18134
2.18113
2.18129
2.18161
2.18211
2.18311
2.18463
2.18674
2.18903
2.1915
2.19391
2.19633
2.19855
2.20069
2.20253
2.20421
2.20556
2.2067
2.2075
2.2081
2.20838
2.20849
2.20841
2.20831
2.20808
2.20778
2.20713
2.20656
2.20565
2.20504
2.20418
2.20393
2.20186
2.27508
2.24096
2.21926
2.21178
2.21883
2.22347
2.22552
2.22612
2.22713
2.22898
2.23181
2.23411
2.23617
2.238
2.24075
2.24304
2.24526
2.24771
2.25039
2.25323
2.25614
2.25892
2.26154
2.26378
2.26572
2.26708
2.26804
2.26852
2.26824
2.26769
2.26659
2.26514
2.26312
2.26086
2.25834
2.25589
2.25311
2.24983
2.2458
2.24147
2.23698
2.23247
2.22783
2.22314
2.2183
2.21344
2.20845
2.20349
2.19845
2.19348
2.18849
2.1836
2.17873
2.17403
2.16939
2.16497
2.16065
2.15661
2.15273
2.14918
2.14585
2.1429
2.14022
2.13797
2.13606
2.13463
2.13355
2.13305
2.13292
2.13312
2.13342
2.13398
2.13498
2.1365
2.13846
2.14064
2.14302
2.14538
2.14773
2.1499
2.15194
2.15372
2.1553
2.15658
2.15763
2.15838
2.15891
2.15915
2.15923
2.15914
2.15903
2.15877
2.15847
2.15779
2.1573
2.1564
2.15587
2.15504
2.15491
2.15291
2.29855
2.25473
2.23053
2.21066
2.20088
2.19401
2.18827
2.18218
2.17735
2.17356
2.17184
2.17136
2.17197
2.17234
2.17344
2.17567
2.17824
2.18142
2.18437
2.18799
2.19138
2.19523
2.19857
2.20208
2.20484
2.20755
2.20935
2.21098
2.21169
2.21225
2.21203
2.21137
2.21019
2.20868
2.20694
2.2052
2.2031
2.20049
2.19716
2.19345
2.18952
2.18547
2.1813
2.17705
2.17269
2.16824
2.16371
2.15913
2.1545
2.14987
2.14524
2.14066
2.13612
2.13168
2.12734
2.12315
2.1191
2.11526
2.11161
2.10823
2.1051
2.10229
2.09978
2.09765
2.09587
2.09452
2.09358
2.09317
2.09314
2.09331
2.09364
2.09423
2.09528
2.09678
2.09864
2.10073
2.103
2.1053
2.10757
2.10969
2.11166
2.11338
2.11488
2.11611
2.1171
2.11781
2.11829
2.11851
2.11855
2.11847
2.11835
2.11806
2.11775
2.11706
2.11661
2.11573
2.11525
2.11446
2.1144
2.11245
2.32217
2.28217
2.2485
2.2237
2.20326
2.1883
2.1759
2.16542
2.15591
2.14845
2.14258
2.13909
2.13697
2.1366
2.13665
2.13723
2.1391
2.14194
2.14517
2.14856
2.15221
2.15599
2.15977
2.16348
2.1669
2.17003
2.17262
2.17481
2.17634
2.17747
2.17792
2.17804
2.17744
2.17652
2.17545
2.17429
2.17278
2.17072
2.168
2.16486
2.16145
2.15783
2.15409
2.15022
2.14626
2.14219
2.13805
2.13381
2.12953
2.12521
2.12089
2.11657
2.11232
2.10811
2.10401
2.10003
2.0962
2.09253
2.08908
2.08585
2.08289
2.08021
2.07784
2.07581
2.07416
2.0729
2.07209
2.07176
2.07179
2.07196
2.0723
2.07294
2.07403
2.07553
2.07733
2.07935
2.08152
2.08375
2.08594
2.08801
2.08991
2.09159
2.09303
2.09422
2.09516
2.09585
2.09631
2.0965
2.09652
2.09645
2.09632
2.096
2.09569