/*--------------------------------*- C++ -*----------------------------------*\
| =========                 |                                                 |
| \\      /  F ield         | OpenFOAM: The Open Source CFD Toolbox           |
|  \\    /   O peration     | Version:  2412                                  |
|   \\  /    A nd           | Website:  www.openfoam.com                      |
|    \\/     M anipulation  |                                                 |
\*---------------------------------------------------------------------------*/
FoamFile
{
    version     2.0;
    format      ascii;
    arch        "LSB;label=32;scalar=64";
    class       volVectorField;
    location    "22";
    object      U;
}
// * * * * * * * * * * * * * * * * * * * * * * * * * * * * * * * * * * * * * //

dimensions      [0 1 -1 0 0 0 0];

internalField   nonuniform List<vector> 
7000
(
(2.59108 -7.24939e-05 0)
(1.62058 0.000178375 0)
(0.495688 0.00020895 0)
(0.552996 0.000350743 0)
(0.654687 0.000446548 0)
(0.719888 0.000524592 0)
(0.732771 0.000592435 0)
(0.725878 0.000662731 0)
(0.715816 0.000741193 0)
(0.708118 0.000831611 0)
(0.70365 0.000930256 0)
(0.700082 0.00103347 0)
(0.695996 0.00114043 0)
(0.691141 0.0012521 0)
(0.685677 0.00136949 0)
(0.67973 0.00149318 0)
(0.673317 0.00162346 0)
(0.666406 0.00176066 0)
(0.658962 0.00190521 0)
(0.650956 0.00205765 0)
(0.642368 0.00221859 0)
(0.633174 0.00238872 0)
(0.623349 0.00256871 0)
(0.612866 0.00275936 0)
(0.601695 0.00296147 0)
(0.589806 0.00317593 0)
(0.577168 0.00340365 0)
(0.563746 0.00364558 0)
(0.549505 0.00390269 0)
(0.53441 0.00417596 0)
(0.518423 0.00446638 0)
(0.501506 0.00477481 0)
(0.483622 0.00510215 0)
(0.464732 0.005449 0)
(0.444802 0.00581598 0)
(0.423796 0.00620316 0)
(0.401687 0.0066106 0)
(0.378449 0.00703747 0)
(0.354065 0.00748283 0)
(0.328527 0.00794451 0)
(0.301841 0.00842012 0)
(0.274023 0.00890556 0)
(0.245108 0.00939691 0)
(0.215151 0.00988778 0)
(0.184224 0.0103737 0)
(0.15242 0.0108475 0)
(0.119822 0.0113136 0)
(0.0868504 0.0117556 0)
(0.0514918 0.0123443 0)
(0.0221149 0.0131965 0)
(2.59121 -4.80967e-05 0)
(1.62075 0.000347459 0)
(0.495377 0.000828047 0)
(0.552735 0.00113974 0)
(0.654448 0.00137487 0)
(0.719663 0.00159691 0)
(0.732546 0.00180493 0)
(0.725658 0.00202023 0)
(0.715604 0.00225774 0)
(0.707915 0.00252753 0)
(0.703454 0.00282033 0)
(0.69989 0.00312658 0)
(0.695808 0.0034441 0)
(0.690957 0.00377516 0)
(0.685498 0.0041224 0)
(0.679557 0.0044872 0)
(0.67315 0.00487029 0)
(0.666246 0.00527237 0)
(0.658807 0.00569451 0)
(0.650809 0.00613798 0)
(0.642228 0.0066043 0)
(0.633041 0.00709494 0)
(0.623224 0.00761165 0)
(0.612749 0.00815604 0)
(0.601587 0.00873006 0)
(0.589707 0.00933539 0)
(0.577077 0.00997407 0)
(0.563665 0.0106477 0)
(0.549434 0.0113582 0)
(0.534348 0.0121068 0)
(0.51837 0.012895 0)
(0.501462 0.0137234 0)
(0.483585 0.0145925 0)
(0.464701 0.0155014 0)
(0.444774 0.0164493 0)
(0.42377 0.0174327 0)
(0.401657 0.0184483 0)
(0.378409 0.0194893 0)
(0.35401 0.0205483 0)
(0.328449 0.0216142 0)
(0.301728 0.0226744 0)
(0.273864 0.0237122 0)
(0.244888 0.0247101 0)
(0.214853 0.0256469 0)
(0.183829 0.0265019 0)
(0.151908 0.0272557 0)
(0.119165 0.0279058 0)
(0.086065 0.0284262 0)
(0.050546 0.0290769 0)
(0.0211888 0.0298269 0)
(2.59134 4.7635e-05 0)
(1.62104 0.000392351 0)
(0.495584 0.00160497 0)
(0.552787 0.00198055 0)
(0.65449 0.00230476 0)
(0.719705 0.00267039 0)
(0.732589 0.00303982 0)
(0.725711 0.00341867 0)
(0.715679 0.00382878 0)
(0.708011 0.0042867 0)
(0.703564 0.0047814 0)
(0.700009 0.00530004 0)
(0.695937 0.0058397 0)
(0.691098 0.00640325 0)
(0.685652 0.00699465 0)
(0.679724 0.00761592 0)
(0.673332 0.00826868 0)
(0.666442 0.00895402 0)
(0.659019 0.00967416 0)
(0.651037 0.010431 0)
(0.642474 0.0112275 0)
(0.633306 0.012066 0)
(0.62351 0.0129499 0)
(0.613056 0.0138817 0)
(0.601917 0.0148651 0)
(0.590062 0.0159031 0)
(0.577458 0.0169994 0)
(0.564073 0.0181567 0)
(0.54987 0.0193788 0)
(0.534814 0.0206679 0)
(0.518866 0.0220272 0)
(0.501988 0.0234576 0)
(0.48414 0.0249607 0)
(0.465285 0.0265355 0)
(0.445384 0.0281806 0)
(0.424402 0.0298916 0)
(0.402307 0.0316623 0)
(0.379071 0.0334832 0)
(0.354673 0.0353408 0)
(0.329101 0.0372187 0)
(0.302355 0.0390938 0)
(0.274448 0.0409415 0)
(0.245408 0.042729 0)
(0.215285 0.0444243 0)
(0.184145 0.0459907 0)
(0.152085 0.0473931 0)
(0.119171 0.0486191 0)
(0.0859287 0.0496294 0)
(0.0502703 0.0506818 0)
(0.0207492 0.0516747 0)
(2.59151 5.41155e-05 0)
(1.62149 0.000535831 0)
(0.496011 0.002351 0)
(0.55291 0.00281438 0)
(0.654612 0.00323707 0)
(0.719847 0.00375709 0)
(0.732736 0.00430342 0)
(0.725873 0.00485936 0)
(0.71587 0.0054521 0)
(0.708235 0.00610436 0)
(0.70381 0.00680588 0)
(0.700273 0.00754278 0)
(0.696218 0.00831127 0)
(0.691398 0.00911446 0)
(0.685974 0.00995691 0)
(0.680069 0.0108415 0)
(0.6737 0.0117704 0)
(0.666836 0.0127457 0)
(0.65944 0.0137701 0)
(0.651487 0.0148467 0)
(0.642954 0.0159794 0)
(0.633819 0.0171719 0)
(0.624057 0.0184284 0)
(0.613641 0.0197533 0)
(0.602541 0.0211512 0)
(0.590728 0.0226269 0)
(0.578169 0.0241851 0)
(0.564831 0.0258309 0)
(0.550677 0.0275684 0)
(0.535672 0.0294024 0)
(0.519776 0.0313358 0)
(0.502952 0.0333724 0)
(0.485158 0.0355124 0)
(0.466355 0.0377571 0)
(0.446504 0.0401028 0)
(0.425568 0.0425463 0)
(0.403513 0.0450767 0)
(0.380307 0.0476842 0)
(0.355928 0.0503481 0)
(0.330359 0.0530478 0)
(0.303597 0.055751 0)
(0.275649 0.0584215 0)
(0.246541 0.0610172 0)
(0.216318 0.0634867 0)
(0.185045 0.0657859 0)
(0.152818 0.0678583 0)
(0.119702 0.0696754 0)
(0.0862765 0.0711836 0)
(0.0504196 0.0726087 0)
(0.0206053 0.0737648 0)
(2.59176 6.77488e-05 0)
(1.62212 0.000716368 0)
(0.496562 0.00310375 0)
(0.55302 0.00367973 0)
(0.654739 0.00421146 0)
(0.720019 0.00488557 0)
(0.732922 0.00560897 0)
(0.726077 0.00634908 0)
(0.716111 0.00713321 0)
(0.708517 0.007986 0)
(0.704125 0.00889958 0)
(0.700614 0.00986109 0)
(0.696585 0.0108657 0)
(0.691795 0.011917 0)
(0.686402 0.0130193 0)
(0.680532 0.0141769 0)
(0.674199 0.0153918 0)
(0.667372 0.0166678 0)
(0.660016 0.0180077 0)
(0.652105 0.0194164 0)
(0.643618 0.0208979 0)
(0.634533 0.0224582 0)
(0.624823 0.0241017 0)
(0.614462 0.0258354 0)
(0.603422 0.0276641 0)
(0.591672 0.0295954 0)
(0.57918 0.0316343 0)
(0.565912 0.0337885 0)
(0.551832 0.0360628 0)
(0.536903 0.038464 0)
(0.521087 0.0409959 0)
(0.504343 0.0436635 0)
(0.486631 0.0464679 0)
(0.467908 0.0494104 0)
(0.448135 0.0524872 0)
(0.427271 0.0556931 0)
(0.405279 0.059017 0)
(0.382126 0.0624426 0)
(0.357783 0.0659487 0)
(0.332229 0.069503 0)
(0.305455 0.0730711 0)
(0.277463 0.0765994 0)
(0.248274 0.0800364 0)
(0.217928 0.0833122 0)
(0.186487 0.0863604 0)
(0.154051 0.0891156 0)
(0.120673 0.0915188 0)
(0.0869968 0.0934929 0)
(0.0508514 0.0952305 0)
(0.0206232 0.0964792 0)
(2.5921 8.00365e-05 0)
(1.62297 0.000900472 0)
(0.497261 0.00385558 0)
(0.553135 0.00455768 0)
(0.654882 0.00520471 0)
(0.72023 0.00603322 0)
(0.733159 0.00693918 0)
(0.72634 0.0078685 0)
(0.716417 0.00885265 0)
(0.708873 0.00991483 0)
(0.704523 0.0110489 0)
(0.701049 0.0122428 0)
(0.697056 0.0134921 0)
(0.692303 0.0148 0)
(0.686953 0.0161714 0)
(0.681127 0.0176108 0)
(0.674841 0.0191214 0)
(0.668064 0.0207074 0)
(0.660761 0.0223729 0)
(0.652907 0.0241234 0)
(0.64448 0.0259648 0)
(0.635459 0.0279034 0)
(0.625819 0.0299461 0)
(0.615532 0.0321001 0)
(0.604572 0.0343733 0)
(0.592906 0.0367733 0)
(0.580504 0.0393086 0)
(0.56733 0.0419867 0)
(0.553351 0.0448161 0)
(0.538527 0.0478033 0)
(0.522819 0.0509559 0)
(0.506186 0.0542777 0)
(0.488586 0.0577733 0)
(0.469975 0.0614423 0)
(0.450311 0.0652833 0)
(0.42955 0.0692882 0)
(0.40765 0.0734461 0)
(0.384575 0.0777362 0)
(0.360288 0.0821334 0)
(0.334767 0.0865984 0)
(0.307988 0.0910861 0)
(0.279953 0.0955373 0)
(0.250669 0.0998804 0)
(0.220173 0.104033 0)
(0.188522 0.107902 0)
(0.155815 0.111394 0)
(0.122104 0.114432 0)
(0.0880679 0.116903 0)
(0.0515122 0.118953 0)
(0.0207746 0.120273 0)
(2.59253 9.27003e-05 0)
(1.62404 0.00108675 0)
(0.498117 0.0046152 0)
(0.553256 0.0054512 0)
(0.655041 0.00621998 0)
(0.720481 0.00720663 0)
(0.73345 0.00830264 0)
(0.726663 0.00942574 0)
(0.716795 0.0106167 0)
(0.70931 0.0118967 0)
(0.705012 0.0132594 0)
(0.701584 0.0146933 0)
(0.697637 0.0161951 0)
(0.692934 0.0177678 0)
(0.687637 0.0194169 0)
(0.681867 0.021147 0)
(0.67564 0.0229626 0)
(0.668925 0.0248679 0)
(0.661689 0.026869 0)
(0.653907 0.0289716 0)
(0.645557 0.0311834 0)
(0.636618 0.0335116 0)
(0.627065 0.035965 0)
(0.616873 0.038552 0)
(0.606013 0.0412825 0)
(0.594455 0.0441655 0)
(0.582166 0.0472115 0)
(0.569114 0.0504299 0)
(0.555262 0.053831 0)
(0.540572 0.0574236 0)
(0.525004 0.0612164 0)
(0.508515 0.0652161 0)
(0.491061 0.0694276 0)
(0.472598 0.0738528 0)
(0.453077 0.0784898 0)
(0.432455 0.0833314 0)
(0.410682 0.0883646 0)
(0.387716 0.0935673 0)
(0.363515 0.0989094 0)
(0.338044 0.104346 0)
(0.311277 0.109823 0)
(0.283199 0.115267 0)
(0.253813 0.120594 0)
(0.223138 0.125704 0)
(0.191233 0.130477 0)
(0.158188 0.134795 0)
(0.124046 0.138537 0)
(0.089543 0.14156 0)
(0.0524193 0.143969 0)
(0.021022 0.145393 0)
(2.59306 0.00010548 0)
(1.62536 0.00127353 0)
(0.499144 0.00538062 0)
(0.553386 0.00635426 0)
(0.655217 0.0072484 0)
(0.720777 0.0083974 0)
(0.7338 0.00968604 0)
(0.727054 0.0110102 0)
(0.717252 0.0124162 0)
(0.709837 0.0139221 0)
(0.705603 0.0155209 0)
(0.702231 0.0172027 0)
(0.698341 0.0189649 0)
(0.693699 0.020811 0)
(0.688467 0.0227465 0)
(0.682766 0.0247764 0)
(0.676612 0.0269059 0)
(0.669974 0.0291404 0)
(0.66282 0.0314865 0)
(0.655125 0.0339515 0)
(0.64687 0.0365441 0)
(0.638032 0.0392732 0)
(0.628587 0.0421488 0)
(0.618511 0.0451812 0)
(0.607775 0.0483817 0)
(0.59635 0.0517618 0)
(0.584203 0.0553334 0)
(0.5713 0.0591085 0)
(0.557607 0.0630989 0)
(0.543083 0.0673162 0)
(0.527688 0.0717707 0)
(0.511379 0.0764713 0)
(0.494109 0.0814252 0)
(0.475831 0.0866354 0)
(0.456495 0.0921026 0)
(0.436049 0.0978187 0)
(0.414443 0.103772 0)
(0.391623 0.109938 0)
(0.367542 0.116284 0)
(0.342152 0.122761 0)
(0.315415 0.129305 0)
(0.287303 0.135832 0)
(0.257805 0.142238 0)
(0.226931 0.148406 0)
(0.194719 0.154186 0)
(0.161265 0.159426 0)
(0.126585 0.163977 0)
(0.091461 0.167637 0)
(0.0536162 0.170465 0)
(0.0214117 0.172027 0)
(2.5937 0.000118327 0)
(1.62694 0.00145994 0)
(0.500357 0.00614917 0)
(0.553527 0.0072628 0)
(0.655415 0.00828551 0)
(0.721125 0.00960106 0)
(0.734219 0.011088 0)
(0.727525 0.0126185 0)
(0.717801 0.0142469 0)
(0.710468 0.0159866 0)
(0.706306 0.0178296 0)
(0.703003 0.0197674 0)
(0.699183 0.0217984 0)
(0.694614 0.0239262 0)
(0.68946 0.0261566 0)
(0.683842 0.028495 0)
(0.677775 0.0309472 0)
(0.671229 0.0335196 0)
(0.664174 0.0362199 0)
(0.656584 0.0390567 0)
(0.648442 0.0420398 0)
(0.639725 0.0451797 0)
(0.630411 0.0484881 0)
(0.620475 0.0519771 0)
(0.609889 0.0556598 0)
(0.598624 0.0595496 0)
(0.586648 0.0636609 0)
(0.573928 0.0680077 0)
(0.560427 0.0726047 0)
(0.546106 0.0774653 0)
(0.530923 0.082603 0)
(0.514834 0.0880286 0)
(0.49779 0.0937525 0)
(0.479742 0.0997795 0)
(0.460635 0.106113 0)
(0.440413 0.112746 0)
(0.419018 0.119668 0)
(0.39639 0.126854 0)
(0.372469 0.13427 0)
(0.347197 0.141863 0)
(0.320519 0.149561 0)
(0.29239 0.157274 0)
(0.262783 0.164875 0)
(0.231683 0.172225 0)
(0.199116 0.17915 0)
(0.165164 0.185448 0)
(0.129835 0.190926 0)
(0.0939384 0.195333 0)
(0.0551456 0.198671 0)
(0.0219195 0.200425 0)
(2.59445 0.000131101 0)
(1.62881 0.00164471 0)
(0.501769 0.00691575 0)
(0.553684 0.0081708 0)
(0.65564 0.00932427 0)
(0.721531 0.0108099 0)
(0.734714 0.012499 0)
(0.728084 0.014242 0)
(0.718454 0.0161003 0)
(0.711214 0.018082 0)
(0.707138 0.0201777 0)
(0.703916 0.0223798 0)
(0.700178 0.0246878 0)
(0.695696 0.0271058 0)
(0.690634 0.0296396 0)
(0.685112 0.0322949 0)
(0.679148 0.0350784 0)
(0.672711 0.0379973 0)
(0.665772 0.0410605 0)
(0.658307 0.0442778 0)
(0.650298 0.0476605 0)
(0.641725 0.0512206 0)
(0.632565 0.0549715 0)
(0.622794 0.0589271 0)
(0.612386 0.0631027 0)
(0.601311 0.0675139 0)
(0.589539 0.0721775 0)
(0.577036 0.0771099 0)
(0.563765 0.0823286 0)
(0.549687 0.08785 0)
(0.53476 0.0936908 0)
(0.518938 0.099865 0)
(0.502169 0.106386 0)
(0.484402 0.113262 0)
(0.465578 0.120499 0)
(0.445635 0.128094 0)
(0.424508 0.136037 0)
(0.402125 0.144307 0)
(0.378418 0.152868 0)
(0.35331 0.161666 0)
(0.326733 0.170623 0)
(0.298615 0.17964 0)
(0.268907 0.188577 0)
(0.237572 0.197265 0)
(0.204601 0.2055 0)
(0.170064 0.213038 0)
(0.133932 0.219624 0)
(0.0970639 0.224934 0)
(0.0571067 0.228895 0)
(0.0226249 0.230901 0)
(2.59532 0.000143678 0)
(1.63098 0.00182606 0)
(0.503396 0.00767299 0)
(0.55386 0.00907082 0)
(0.655896 0.0103574 0)
(0.722002 0.0120153 0)
(0.735295 0.0139118 0)
(0.728745 0.0158719 0)
(0.719225 0.017967 0)
(0.712092 0.0201993 0)
(0.708113 0.0225565 0)
(0.704985 0.0250317 0)
(0.701344 0.0276252 0)
(0.696963 0.0303417 0)
(0.692008 0.0331871 0)
(0.686598 0.0361676 0)
(0.680753 0.0392904 0)
(0.674442 0.0425638 0)
(0.667637 0.0459979 0)
(0.660317 0.0496037 0)
(0.652463 0.0533941 0)
(0.644058 0.0573827 0)
(0.635078 0.0615847 0)
(0.625501 0.066016 0)
(0.615301 0.0706941 0)
(0.604449 0.0756371 0)
(0.592916 0.0808642 0)
(0.580668 0.0863948 0)
(0.567669 0.0922495 0)
(0.55388 0.0984479 0)
(0.539256 0.10501 0)
(0.523752 0.111955 0)
(0.507315 0.119298 0)
(0.489888 0.127055 0)
(0.471409 0.135232 0)
(0.45181 0.143835 0)
(0.431018 0.152856 0)
(0.408952 0.162278 0)
(0.385527 0.172066 0)
(0.36065 0.182171 0)
(0.334229 0.192508 0)
(0.306172 0.202972 0)
(0.276387 0.213413 0)
(0.244815 0.223636 0)
(0.211402 0.233401 0)
(0.176187 0.242403 0)
(0.139117 0.250321 0)
(0.101046 0.256752 0)
(0.0595851 0.261522 0)
(0.0235147 0.263878 0)
(2.59632 0.000155742 0)
(1.63346 0.00200198 0)
(0.50525 0.00840972 0)
(0.554061 0.00995373 0)
(0.65619 0.0113766 0)
(0.722549 0.0132056 0)
(0.735974 0.015313 0)
(0.729518 0.0174956 0)
(0.720129 0.0198358 0)
(0.713119 0.0223279 0)
(0.709252 0.024956 0)
(0.706232 0.0277131 0)
(0.702701 0.0306007 0)
(0.698437 0.033624 0)
(0.693603 0.0367889 0)
(0.688322 0.0401022 0)
(0.682612 0.0435718 0)
(0.676446 0.047207 0)
(0.669796 0.051019 0)
(0.662642 0.0550203 0)
(0.654967 0.0592253 0)
(0.646754 0.0636493 0)
(0.637982 0.0683095 0)
(0.628628 0.073224 0)
(0.618668 0.0784126 0)
(0.608076 0.0838958 0)
(0.59682 0.0896958 0)
(0.58487 0.0958353 0)
(0.572188 0.102338 0)
(0.558736 0.109228 0)
(0.544471 0.116528 0)
(0.529343 0.124263 0)
(0.5133 0.132454 0)
(0.496281 0.141121 0)
(0.478221 0.150277 0)
(0.459045 0.159934 0)
(0.438671 0.17009 0)
(0.417007 0.180736 0)
(0.393952 0.191843 0)
(0.369393 0.203364 0)
(0.343214 0.215222 0)
(0.315288 0.227302 0)
(0.285487 0.23945 0)
(0.253698 0.251445 0)
(0.219824 0.263014 0)
(0.183839 0.273804 0)
(0.145637 0.283388 0)
(0.106105 0.291244 0)
(0.062795 0.297064 0)
(0.0247287 0.299904 0)
(2.59744 0.000165059 0)
(1.63626 0.00217201 0)
(0.507345 0.00910832 0)
(0.554294 0.0108069 0)
(0.656526 0.0123739 0)
(0.723175 0.0143648 0)
(0.736763 0.016688 0)
(0.730424 0.0190994 0)
(0.721187 0.0216935 0)
(0.714316 0.0244557 0)
(0.710574 0.0273646 0)
(0.707676 0.0304129 0)
(0.704271 0.0336032 0)
(0.700138 0.0369414 0)
(0.695442 0.0404337 0)
(0.690307 0.0440871 0)
(0.684751 0.0479103 0)
(0.678749 0.0519136 0)
(0.672274 0.0561096 0)
(0.665309 0.0605123 0)
(0.657838 0.0651374 0)
(0.649844 0.0700024 0)
(0.641308 0.0751262 0)
(0.632211 0.0805294 0)
(0.622527 0.086234 0)
(0.612231 0.0922637 0)
(0.601295 0.0986433 0)
(0.589688 0.105399 0)
(0.577374 0.112559 0)
(0.564314 0.120151 0)
(0.550466 0.128204 0)
(0.535781 0.136746 0)
(0.520203 0.145806 0)
(0.503671 0.155411 0)
(0.486115 0.165581 0)
(0.467454 0.176337 0)
(0.447599 0.187687 0)
(0.426444 0.199632 0)
(0.403872 0.212154 0)
(0.379752 0.225214 0)
(0.35393 0.238747 0)
(0.326248 0.252642 0)
(0.296523 0.266741 0)
(0.264584 0.280812 0)
(0.230264 0.294538 0)
(0.193463 0.307506 0)
(0.153972 0.319196 0)
(0.112635 0.328928 0)
(0.0669419 0.336197 0)
(0.0262952 0.339744 0)
(2.5987 0.000170385 0)
(1.6394 0.00233382 0)
(0.509676 0.00975546 0)
(0.554568 0.0116122 0)
(0.656904 0.0133283 0)
(0.723883 0.0154722 0)
(0.737673 0.0180216 0)
(0.731471 0.0206683 0)
(0.722414 0.023525 0)
(0.715701 0.0265681 0)
(0.712099 0.0297682 0)
(0.709337 0.0331172 0)
(0.706073 0.036619 0)
(0.702088 0.0402801 0)
(0.697548 0.0441068 0)
(0.692575 0.0481066 0)
(0.687192 0.0522889 0)
(0.681374 0.0566654 0)
(0.675097 0.0612497 0)
(0.668345 0.0660577 0)
(0.661103 0.0711065 0)
(0.653357 0.0764158 0)
(0.64509 0.0820063 0)
(0.636282 0.0879014 0)
(0.626911 0.0941253 0)
(0.616954 0.100705 0)
(0.606383 0.107668 0)
(0.595168 0.115046 0)
(0.583276 0.122868 0)
(0.57067 0.13117 0)
(0.557306 0.139985 0)
(0.543136 0.149348 0)
(0.528105 0.159294 0)
(0.512149 0.16986 0)
(0.495196 0.181076 0)
(0.47716 0.192973 0)
(0.457944 0.205573 0)
(0.437432 0.218891 0)
(0.415489 0.232927 0)
(0.39196 0.247658 0)
(0.366663 0.263037 0)
(0.339389 0.278967 0)
(0.309904 0.295303 0)
(0.277946 0.311814 0)
(0.243251 0.328164 0)
(0.205599 0.343874 0)
(0.164653 0.358298 0)
(0.121175 0.370558 0)
(0.0725093 0.379862 0)
(0.0284951 0.384473 0)
(2.6001 0.000178125 0)
(1.64288 0.00247632 0)
(0.512244 0.0103554 0)
(0.554887 0.012351 0)
(0.65733 0.0141992 0)
(0.724683 0.0165119 0)
(0.738722 0.0192858 0)
(0.732682 0.0221782 0)
(0.723833 0.0253144 0)
(0.717298 0.0286511 0)
(0.713851 0.0321532 0)
(0.71124 0.035813 0)
(0.708132 0.0396354 0)
(0.704312 0.0436278 0)
(0.699943 0.0477963 0)
(0.695151 0.052149 0)
(0.689959 0.0566959 0)
(0.684346 0.0614501 0)
(0.67829 0.0664263 0)
(0.671775 0.0716422 0)
(0.66479 0.0771166 0)
(0.657322 0.0828713 0)
(0.649356 0.088929 0)
(0.640875 0.0953157 0)
(0.631857 0.102058 0)
(0.622282 0.109187 0)
(0.612125 0.116733 0)
(0.601356 0.124732 0)
(0.589946 0.133218 0)
(0.577858 0.142231 0)
(0.565052 0.151811 0)
(0.551479 0.162001 0)
(0.537086 0.172844 0)
(0.521809 0.184386 0)
(0.505573 0.196672 0)
(0.488292 0.209745 0)
(0.46986 0.223645 0)
(0.450154 0.238406 0)
(0.429023 0.254053 0)
(0.40629 0.270589 0)
(0.381739 0.287996 0)
(0.355114 0.306211 0)
(0.326113 0.325115 0)
(0.294382 0.3445 0)
(0.259519 0.364036 0)
(0.221131 0.383209 0)
(0.178641 0.401247 0)
(0.132609 0.417053 0)
(0.0800919 0.429393 0)
(0.0315271 0.435741 0)
(2.60163 0.000187981 0)
(1.64669 0.00259369 0)
(0.515076 0.0108866 0)
(0.555255 0.0129946 0)
(0.657828 0.014955 0)
(0.725615 0.0174537 0)
(0.739942 0.0204575 0)
(0.734105 0.0236074 0)
(0.725498 0.0270397 0)
(0.719156 0.0306842 0)
(0.715875 0.0344998 0)
(0.713429 0.0384795 0)
(0.710493 0.0426298 0)
(0.706852 0.0469591 0)
(0.70267 0.0514736 0)
(0.698076 0.056182 0)
(0.693094 0.0610954 0)
(0.687706 0.0662281 0)
(0.681891 0.0715966 0)
(0.675639 0.0772201 0)
(0.668938 0.0831193 0)
(0.661778 0.089318 0)
(0.654146 0.0958413 0)
(0.646028 0.102717 0)
(0.637404 0.109976 0)
(0.628257 0.117651 0)
(0.618564 0.125777 0)
(0.608299 0.134392 0)
(0.597433 0.143539 0)
(0.585935 0.153259 0)
(0.573764 0.163603 0)
(0.560879 0.174619 0)
(0.547224 0.186362 0)
(0.532741 0.198888 0)
(0.517354 0.212257 0)
(0.500977 0.226529 0)
(0.483502 0.241766 0)
(0.4648 0.258028 0)
(0.44471 0.275369 0)
(0.423037 0.293834 0)
(0.399534 0.313448 0)
(0.373898 0.334209 0)
(0.345753 0.356049 0)
(0.314636 0.378818 0)
(0.27998 0.402281 0)
(0.241127 0.425901 0)
(0.197197 0.448792 0)
(0.14834 0.469684 0)
(0.09101 0.486701 0)
(0.0361564 0.496111 0)
(2.60328 0.000194202 0)
(1.65082 0.00268351 0)
(0.518158 0.0112985 0)
(0.555675 0.0135026 0)
(0.658414 0.0155695 0)
(0.72671 0.0182543 0)
(0.741374 0.0215115 0)
(0.735777 0.0249355 0)
(0.727449 0.0286809 0)
(0.721317 0.0326544 0)
(0.718213 0.0368034 0)
(0.715942 0.0411198 0)
(0.713191 0.0456123 0)
(0.709743 0.0502896 0)
(0.705764 0.0551593 0)
(0.701383 0.06023 0)
(0.696629 0.0655139 0)
(0.691486 0.0710265 0)
(0.685936 0.0767862 0)
(0.679971 0.0828136 0)
(0.673582 0.0891323 0)
(0.666761 0.0957673 0)
(0.659499 0.102747 0)
(0.651782 0.110102 0)
(0.643595 0.117865 0)
(0.634923 0.126073 0)
(0.625746 0.134765 0)
(0.616043 0.143984 0)
(0.605789 0.153775 0)
(0.594954 0.16419 0)
(0.583505 0.175282 0)
(0.571402 0.187112 0)
(0.558597 0.199743 0)
(0.545034 0.213246 0)
(0.530643 0.227695 0)
(0.515339 0.243172 0)
(0.499021 0.259764 0)
(0.481558 0.277561 0)
(0.462788 0.296661 0)
(0.442503 0.31716 0)
(0.420444 0.339132 0)
(0.396266 0.362691 0)
(0.369518 0.387862 0)
(0.339677 0.414523 0)
(0.305955 0.442718 0)
(0.267305 0.472035 0)
(0.222424 0.501637 0)
(0.170704 0.530079 0)
(0.107366 0.554889 0)
(0.0434833 0.570069 0)
(2.60503 0.000196848 0)
(1.65524 0.00273449 0)
(0.521466 0.0115415 0)
(0.55616 0.0138268 0)
(0.65911 0.0159947 0)
(0.728008 0.0188679 0)
(0.743068 0.0223967 0)
(0.737754 0.0261126 0)
(0.729746 0.0301887 0)
(0.723844 0.0345044 0)
(0.720928 0.038994 0)
(0.718842 0.0436496 0)
(0.716287 0.0484841 0)
(0.713045 0.0535083 0)
(0.709281 0.0587314 0)
(0.705127 0.0641627 0)
(0.700616 0.0698156 0)
(0.695735 0.0757068 0)
(0.69047 0.0818565 0)
(0.684814 0.0882868 0)
(0.678763 0.0950229 0)
(0.672311 0.102092 0)
(0.66545 0.109524 0)
(0.658172 0.117352 0)
(0.650465 0.125612 0)
(0.642316 0.134343 0)
(0.63371 0.143588 0)
(0.624629 0.153395 0)
(0.615055 0.163813 0)
(0.604962 0.174901 0)
(0.594323 0.18672 0)
(0.583105 0.199339 0)
(0.571268 0.212833 0)
(0.558761 0.227287 0)
(0.545527 0.242792 0)
(0.531489 0.259454 0)
(0.516553 0.277387 0)
(0.500603 0.296721 0)
(0.483486 0.317592 0)
(0.464988 0.340208 0)
(0.444878 0.364635 0)
(0.422809 0.391075 0)
(0.398171 0.419907 0)
(0.370517 0.451188 0)
(0.338955 0.485056 0)
(0.301911 0.521518 0)
(0.257459 0.560243 0)
(0.203862 0.600017 0)
(0.133823 0.638298 0)
(0.0565608 0.66634 0)
(2.60687 0.000195326 0)
(1.65988 0.00273537 0)
(0.524966 0.0115417 0)
(0.556735 0.0138926 0)
(0.659952 0.0161689 0)
(0.729556 0.0192583 0)
(0.745082 0.0231082 0)
(0.740094 0.0271756 0)
(0.732442 0.0316489 0)
(0.726778 0.0363602 0)
(0.724048 0.0412308 0)
(0.72215 0.0462566 0)
(0.719799 0.0514556 0)
(0.716775 0.0568425 0)
(0.713241 0.0624262 0)
(0.709331 0.0682173 0)
(0.705081 0.0742314 0)
(0.700484 0.0804879 0)
(0.695528 0.0870094 0)
(0.690208 0.093821 0)
(0.684523 0.10095 0)
(0.678471 0.108427 0)
(0.672047 0.116284 0)
(0.665246 0.124556 0)
(0.658061 0.133283 0)
(0.650482 0.142508 0)
(0.642499 0.152275 0)
(0.634102 0.162637 0)
(0.625275 0.17365 0)
(0.616003 0.185376 0)
(0.606264 0.197884 0)
(0.596035 0.211251 0)
(0.585285 0.225565 0)
(0.57398 0.240922 0)
(0.562071 0.257437 0)
(0.549501 0.275232 0)
(0.536198 0.294441 0)
(0.522055 0.315288 0)
(0.506999 0.337858 0)
(0.490752 0.362401 0)
(0.473063 0.389348 0)
(0.453925 0.418926 0)
(0.432714 0.451619 0)
(0.408629 0.487926 0)
(0.380861 0.528299 0)
(0.347863 0.573464 0)
(0.306994 0.624243 0)
(0.255017 0.680972 0)
(0.180395 0.743016 0)
(0.0832315 0.803174 0)
(2.60876 0.00014113 0)
(1.66465 0.00273086 0)
(0.52856 0.0112075 0)
(0.557423 0.0135531 0)
(0.660999 0.0159235 0)
(0.731454 0.0192118 0)
(0.747549 0.0233848 0)
(0.742953 0.0278072 0)
(0.735701 0.0326812 0)
(0.730269 0.0377817 0)
(0.727713 0.0430206 0)
(0.725996 0.0484062 0)
(0.723846 0.053967 0)
(0.721039 0.05972 0)
(0.717734 0.0656737 0)
(0.714069 0.0718381 0)
(0.710085 0.0782287 0)
(0.705781 0.0848659 0)
(0.701147 0.0917737 0)
(0.696181 0.0989781 0)
(0.690887 0.106508 0)
(0.685263 0.114394 0)
(0.679309 0.122672 0)
(0.673024 0.131378 0)
(0.666403 0.140554 0)
(0.659444 0.150246 0)
(0.652141 0.160502 0)
(0.644489 0.171378 0)
(0.636481 0.182935 0)
(0.628109 0.195241 0)
(0.619362 0.208372 0)
(0.610228 0.222414 0)
(0.600692 0.237464 0)
(0.590734 0.253629 0)
(0.580327 0.271049 0)
(0.56942 0.289905 0)
(0.558033 0.310216 0)
(0.545999 0.332259 0)
(0.533213 0.356423 0)
(0.519851 0.382911 0)
(0.505633 0.412244 0)
(0.490264 0.444857 0)
(0.47349 0.481241 0)
(0.454819 0.522379 0)
(0.433606 0.569448 0)
(0.40868 0.624268 0)
(0.377651 0.689734 0)
(0.33661 0.77092 0)
(0.270947 0.878178 0)
(0.146441 1.0434 0)
(2.61113 8.05929e-05 0)
(1.67043 0.00260073 0)
(0.532305 0.0103826 0)
(0.557937 0.0128182 0)
(0.662137 0.0154334 0)
(0.733806 0.0191862 0)
(0.750728 0.023984 0)
(0.746684 0.0290433 0)
(0.739967 0.0345607 0)
(0.734827 0.0402285 0)
(0.732503 0.0459574 0)
(0.731056 0.0517831 0)
(0.729221 0.0577559 0)
(0.726755 0.0639029 0)
(0.723811 0.0702385 0)
(0.72053 0.0767773 0)
(0.716963 0.0835398 0)
(0.713111 0.0905519 0)
(0.708973 0.0978419 0)
(0.70455 0.10544 0)
(0.699847 0.113377 0)
(0.694871 0.121688 0)
(0.689627 0.130409 0)
(0.684117 0.13958 0)
(0.678346 0.149244 0)
(0.672318 0.159448 0)
(0.666037 0.170245 0)
(0.659508 0.181691 0)
(0.652736 0.193851 0)
(0.645726 0.206797 0)
(0.638486 0.22061 0)
(0.631021 0.23538 0)
(0.623336 0.251235 0)
(0.615456 0.268259 0)
(0.607446 0.286544 0)
(0.599076 0.306339 0)
(0.590396 0.327873 0)
(0.581885 0.351328 0)
(0.5734 0.377133 0)
(0.564719 0.40565 0)
(0.555961 0.437228 0)
(0.547213 0.472576 0)
(0.538664 0.51253 0)
(0.530542 0.558377 0)
(0.523388 0.611901 0)
(0.518377 0.675865 0)
(0.518232 0.754731 0)
(0.531156 0.855931 0)
(0.587128 0.990642 0)
(0.657204 1.18532 0)
(2.61365 5.93247e-05 0)
(1.67657 0.0019422 0)
(0.536827 0.00776311 0)
(0.559572 0.00992378 0)
(0.664781 0.0125052 0)
(0.738196 0.0166801 0)
(0.756196 0.0222107 0)
(0.752753 0.0280506 0)
(0.746496 0.0343817 0)
(0.741426 0.04077 0)
(0.739118 0.0471471 0)
(0.737772 0.0535888 0)
(0.736117 0.0601601 0)
(0.733875 0.0668876 0)
(0.731185 0.0737821 0)
(0.728193 0.0808584 0)
(0.724959 0.08814 0)
(0.721494 0.0956553 0)
(0.717796 0.103435 0)
(0.713869 0.11151 0)
(0.709724 0.119914 0)
(0.705369 0.128685 0)
(0.700813 0.137859 0)
(0.696065 0.14748 0)
(0.691136 0.157592 0)
(0.686037 0.168247 0)
(0.680781 0.179497 0)
(0.675383 0.191405 0)
(0.669862 0.204034 0)
(0.664237 0.217466 0)
(0.658527 0.231804 0)
(0.652798 0.247064 0)
(0.647028 0.263364 0)
(0.641143 0.280922 0)
(0.635381 0.299868 0)
(0.629955 0.320336 0)
(0.624756 0.342671 0)
(0.619853 0.367072 0)
(0.615474 0.393728 0)
(0.611775 0.423094 0)
(0.60903 0.455689 0)
(0.607717 0.492168 0)
(0.608501 0.533446 0)
(0.612478 0.580673 0)
(0.621468 0.635513 0)
(0.638793 0.700124 0)
(0.670461 0.777422 0)
(0.72548 0.870842 0)
(0.836633 0.98041 0)
(0.984491 1.09498 0)
(2.6151 7.01663e-05 0)
(1.68013 0.00130436 0)
(0.539683 0.00545731 0)
(0.561321 0.0079088 0)
(0.668133 0.0111014 0)
(0.74396 0.0164639 0)
(0.763406 0.0232616 0)
(0.760695 0.0301962 0)
(0.754907 0.037257 0)
(0.749831 0.0440632 0)
(0.747533 0.0507377 0)
(0.746323 0.057458 0)
(0.744873 0.064304 0)
(0.742855 0.0712963 0)
(0.740401 0.0784413 0)
(0.737671 0.0857621 0)
(0.734738 0.0932921 0)
(0.731618 0.101066 0)
(0.728313 0.109117 0)
(0.724832 0.117479 0)
(0.721187 0.126186 0)
(0.717393 0.135272 0)
(0.713466 0.144776 0)
(0.709421 0.154738 0)
(0.705276 0.165201 0)
(0.701052 0.176213 0)
(0.696771 0.187824 0)
(0.692456 0.200103 0)
(0.688146 0.213101 0)
(0.683911 0.226849 0)
(0.679657 0.241461 0)
(0.675419 0.257081 0)
(0.671532 0.273769 0)
(0.668032 0.29169 0)
(0.664838 0.311041 0)
(0.662106 0.331901 0)
(0.660011 0.354444 0)
(0.658728 0.378935 0)
(0.658538 0.405664 0)
(0.659808 0.434975 0)
(0.663004 0.467325 0)
(0.668875 0.503232 0)
(0.678482 0.543356 0)
(0.693306 0.588461 0)
(0.715734 0.639405 0)
(0.749218 0.697031 0)
(0.799349 0.761608 0)
(0.871726 0.832185 0)
(0.984657 0.903802 0)
(1.1203 0.956632 0)
(2.6163 3.76228e-05 0)
(1.6832 -0.00152893 0)
(0.545045 -0.00484888 0)
(0.567291 -0.00305185 0)
(0.675902 0.000995032 0)
(0.754096 0.00904896 0)
(0.774419 0.0185829 0)
(0.771484 0.027867 0)
(0.7651 0.0364533 0)
(0.759432 0.0442546 0)
(0.756956 0.0517465 0)
(0.755831 0.0592248 0)
(0.754548 0.066767 0)
(0.752715 0.0743927 0)
(0.750472 0.082097 0)
(0.748011 0.0899161 0)
(0.74541 0.0978952 0)
(0.742679 0.106076 0)
(0.739816 0.114495 0)
(0.736829 0.123191 0)
(0.733732 0.132202 0)
(0.73054 0.141567 0)
(0.727273 0.151327 0)
(0.72395 0.161522 0)
(0.720596 0.172199 0)
(0.717237 0.183418 0)
(0.713922 0.1952 0)
(0.710669 0.207587 0)
(0.707437 0.220682 0)
(0.704354 0.234563 0)
(0.70163 0.249281 0)
(0.699234 0.265001 0)
(0.697179 0.281813 0)
(0.695632 0.299734 0)
(0.694696 0.318917 0)
(0.694536 0.33952 0)
(0.695369 0.36171 0)
(0.697453 0.385687 0)
(0.701143 0.411678 0)
(0.706871 0.439936 0)
(0.715242 0.470744 0)
(0.727068 0.504431 0)
(0.743484 0.541278 0)
(0.765986 0.581564 0)
(0.796627 0.62537 0)
(0.8381 0.672417 0)
(0.894038 0.721649 0)
(0.967138 0.770476 0)
(1.06832 0.81468 0)
(1.18134 0.840236 0)
(2.61198 0.00228926 0)
(1.67317 -0.00676512 0)
(0.549582 -0.0137864 0)
(0.583071 -0.00801616 0)
(0.696133 -0.000388377 0)
(0.777894 0.00988722 0)
(0.798499 0.0200808 0)
(0.794078 0.0297271 0)
(0.785746 0.03824 0)
(0.778703 0.0461002 0)
(0.775588 0.0537805 0)
(0.774108 0.0614374 0)
(0.772523 0.0691054 0)
(0.770384 0.0768163 0)
(0.767849 0.084623 0)
(0.765161 0.0925782 0)
(0.762401 0.100726 0)
(0.759575 0.109105 0)
(0.75668 0.117747 0)
(0.75373 0.126686 0)
(0.750742 0.135955 0)
(0.747737 0.145585 0)
(0.744733 0.155612 0)
(0.74176 0.166066 0)
(0.738869 0.17696 0)
(0.736041 0.188351 0)
(0.733274 0.20032 0)
(0.730732 0.212884 0)
(0.728506 0.22611 0)
(0.726582 0.240105 0)
(0.72502 0.2549 0)
(0.723929 0.270522 0)
(0.723393 0.287081 0)
(0.723561 0.30467 0)
(0.724593 0.323394 0)
(0.726672 0.343384 0)
(0.730047 0.364759 0)
(0.734998 0.387671 0)
(0.741901 0.412254 0)
(0.751221 0.438658 0)
(0.763557 0.467013 0)
(0.779681 0.497423 0)
(0.800567 0.529906 0)
(0.827466 0.564349 0)
(0.861901 0.600405 0)
(0.905704 0.637314 0)
(0.961159 0.673741 0)
(1.02987 0.70735 0)
(1.11623 0.735217 0)
(1.20907 0.748966 0)
(2.60371 0.00790682 0)
(1.64297 -0.0735145 0)
(0.584888 -0.0725533 0)
(0.623939 -0.0457598 0)
(0.731384 -0.00576285 0)
(0.809006 0.0165272 0)
(0.827005 0.0266279 0)
(0.821045 0.0352864 0)
(0.81153 0.0426507 0)
(0.804171 0.0507653 0)
(0.800797 0.059295 0)
(0.798938 0.0677268 0)
(0.796957 0.0759371 0)
(0.794515 0.0840058 0)
(0.791791 0.0920699 0)
(0.78896 0.100208 0)
(0.786081 0.108469 0)
(0.783152 0.116893 0)
(0.780175 0.125523 0)
(0.777161 0.134406 0)
(0.774132 0.143591 0)
(0.771115 0.153102 0)
(0.76813 0.162955 0)
(0.765171 0.173205 0)
(0.762316 0.183916 0)
(0.759706 0.195098 0)
(0.757327 0.206807 0)
(0.75518 0.2191 0)
(0.753382 0.231999 0)
(0.752009 0.245559 0)
(0.751134 0.259852 0)
(0.75087 0.274941 0)
(0.751343 0.290888 0)
(0.752707 0.307773 0)
(0.755139 0.325655 0)
(0.758835 0.344622 0)
(0.764047 0.364742 0)
(0.771075 0.386097 0)