/*--------------------------------*- C++ -*----------------------------------*\
| =========                 |                                                 |
| \\      /  F ield         | OpenFOAM: The Open Source CFD Toolbox           |
|  \\    /   O peration     | Version:  2412                                  |
|   \\  /    A nd           | Website:  www.openfoam.com                      |
|    \\/     M anipulation  |                                                 |
\*---------------------------------------------------------------------------*/
FoamFile
{
    version     2.0;
    format      ascii;
    arch        "LSB;label=32;scalar=64";
    class       volScalarField;
    location    "19";
    object      Ma;
}
// * * * * * * * * * * * * * * * * * * * * * * * * * * * * * * * * * * * * * //

dimensions      [0 0 0 0 0 0 0];

internalField   nonuniform List<scalar> 
7000
(
2.25614
0.994448
0.300708
0.338438
0.401067
0.442411
0.450623
0.446152
0.439797
0.434884
0.432038
0.429765
0.427166
0.424077
0.420606
0.41683
0.412764
0.408384
0.403673
0.398612
0.39319
0.387392
0.381206
0.374613
0.3676
0.360147
0.352237
0.343851
0.334969
0.325571
0.315637
0.305145
0.294074
0.282405
0.270118
0.257194
0.24362
0.229382
0.214473
0.198891
0.18264
0.165734
0.148196
0.130059
0.111373
0.0921968
0.0725945
0.0528489
0.0319241
0.0155264
2.25619
0.994509
0.300505
0.338272
0.400912
0.442263
0.450475
0.446008
0.439658
0.434753
0.431911
0.429641
0.427046
0.423961
0.420495
0.416724
0.412663
0.408289
0.403584
0.39853
0.393116
0.387326
0.381148
0.374565
0.367563
0.360121
0.352224
0.343851
0.334985
0.325604
0.315688
0.305216
0.294167
0.282522
0.270262
0.257367
0.243825
0.229623
0.214754
0.199216
0.183017
0.166171
0.148707
0.130666
0.112107
0.0931212
0.0738225
0.0546574
0.0351582
0.0220591
2.25632
0.994706
0.300638
0.338307
0.400942
0.442295
0.450509
0.446048
0.439716
0.434821
0.431994
0.429728
0.427143
0.424064
0.420612
0.416849
0.412804
0.408439
0.403752
0.39871
0.393316
0.387541
0.381387
0.374823
0.367849
0.360431
0.352568
0.344226
0.335399
0.326056
0.316188
0.305764
0.294774
0.283189
0.270999
0.258182
0.244727
0.230623
0.215866
0.200459
0.18441
0.167748
0.150505
0.13275
0.11457
0.0961204
0.077637
0.0598414
0.043042
0.0335742
2.2565
0.995012
0.300909
0.338385
0.401023
0.442395
0.450612
0.446165
0.439847
0.43498
0.432162
0.429916
0.427339
0.424282
0.42084
0.417103
0.41307
0.408736
0.404064
0.399056
0.393681
0.387946
0.381817
0.3753
0.368356
0.360994
0.353169
0.344893
0.336116
0.326851
0.317046
0.306715
0.295805
0.284332
0.272245
0.259563
0.246242
0.232305
0.217725
0.202531
0.186726
0.170353
0.153468
0.136153
0.118559
0.1009
0.0835536
0.0674592
0.0533043
0.0461827
2.25674
0.995443
0.301258
0.338454
0.401108
0.442516
0.450741
0.446315
0.440009
0.435184
0.432377
0.430164
0.427595
0.424573
0.421145
0.417447
0.413433
0.40914
0.404494
0.399532
0.394191
0.388508
0.382423
0.375964
0.369077
0.361782
0.35403
0.345831
0.337146
0.327971
0.318281
0.308058
0.29729
0.285949
0.274038
0.26152
0.248418
0.234691
0.220387
0.205473
0.190023
0.174044
0.157645
0.140926
0.124077
0.107412
0.0913749
0.0770311
0.0651102
0.0594969
2.25707
0.996015
0.301701
0.338526
0.401204
0.442661
0.45091
0.446486
0.440239
0.435419
0.432672
0.430457
0.427945
0.424924
0.42156
0.417866
0.413923
0.409641
0.405072
0.400127
0.394874
0.389218
0.38323
0.376812
0.370036
0.362798
0.355171
0.34705
0.338508
0.329439
0.319911
0.309829
0.299249
0.288092
0.276399
0.26412
0.251278
0.237861
0.223878
0.209368
0.194339
0.1789
0.163094
0.147122
0.13117
0.115616
0.100987
0.0882995
0.07819
0.0736226
2.25749
0.996741
0.302245
0.338602
0.401311
0.442839
0.451115
0.446718
0.4405
0.435731
0.433012
0.430841
0.428354
0.425383
0.422048
0.418414
0.414504
0.410291
0.405761
0.400899
0.395691
0.390134
0.384203
0.377903
0.371196
0.364099
0.35656
0.348609
0.340177
0.33131
0.321924
0.31208
0.301684
0.290807
0.279356
0.267405
0.254881
0.241854
0.228289
0.214254
0.199779
0.184945
0.169893
0.154757
0.139838
0.125483
0.112238
0.10108
0.0924472
0.0886282
2.25801
0.997633
0.302896
0.338683
0.401432
0.44305
0.451362
0.446999
0.44082
0.436106
0.433427
0.431304
0.428856
0.425937
0.42265
0.419075
0.415223
0.411076
0.406616
0.40183
0.396708
0.391239
0.385414
0.379218
0.372642
0.365667
0.35829
0.350482
0.342251
0.333556
0.324418
0.314784
0.304693
0.294076
0.282996
0.271377
0.2593
0.2467
0.233674
0.220199
0.206382
0.19229
0.178055
0.163902
0.150058
0.136962
0.125078
0.115266
0.107846
0.104626
2.25862
0.998702
0.303666
0.338771
0.401567
0.443295
0.451659
0.447328
0.441209
0.436547
0.433927
0.43185
0.429461
0.426594
0.423373
0.41986
0.416084
0.412011
0.407638
0.402941
0.397922
0.392562
0.386859
0.380794
0.374364
0.367552
0.360348
0.352742
0.344718
0.336272
0.327383
0.318056
0.308262
0.298026
0.287307
0.27616
0.264528
0.252511
0.240049
0.227284
0.214195
0.200963
0.187676
0.174552
0.161901
0.150032
0.139456
0.130892
0.124496
0.121719
2.25935
0.999961
0.304563
0.338868
0.401722
0.443585
0.452007
0.44773
0.441661
0.437079
0.434507
0.432504
0.430165
0.427379
0.424218
0.420795
0.417091
0.41312
0.408835
0.404256
0.399345
0.394123
0.388553
0.382653
0.376387
0.369769
0.362769
0.355396
0.347622
0.339456
0.330875
0.321887
0.312475
0.302648
0.292402
0.281747
0.270705
0.259284
0.247553
0.235521
0.223328
0.211007
0.198792
0.186799
0.175343
0.164789
0.155443
0.147994
0.142494
0.140149
2.26018
1.00142
0.305596
0.338977
0.401898
0.443917
0.452418
0.448185
0.442211
0.437686
0.435203
0.433253
0.431005
0.428279
0.42522
0.42187
0.41828
0.414398
0.410243
0.405773
0.401013
0.395927
0.390534
0.384801
0.378745
0.372335
0.365584
0.358467
0.350993
0.343144
0.334924
0.326325
0.31735
0.308004
0.298288
0.288226
0.277826
0.267136
0.256181
0.245047
0.233788
0.222553
0.211444
0.20071
0.190523
0.181227
0.173169
0.166811
0.162138
0.160103
2.26114
1.0031
0.306773
0.339102
0.402099
0.444304
0.452894
0.448738
0.442833
0.438415
0.435992
0.434143
0.431959
0.429344
0.42636
0.423134
0.419634
0.415892
0.411847
0.40754
0.402916
0.398019
0.392795
0.387286
0.381439
0.375295
0.368802
0.362003
0.354847
0.347379
0.339553
0.331413
0.322925
0.314132
0.305018
0.295624
0.285966
0.276082
0.266036
0.255866
0.245704
0.235606
0.225778
0.216333
0.207545
0.199613
0.192768
0.187494
0.183635
0.182029
2.26223
1.00499
0.308103
0.339245
0.402329
0.444744
0.453447
0.449363
0.443577
0.439242
0.436925
0.435152
0.433078
0.43055
0.42769
0.424564
0.421204
0.417582
0.413701
0.409538
0.405106
0.400385
0.39539
0.390096
0.384521
0.378641
0.372475
0.366
0.359238
0.352168
0.344817
0.337166
0.329252
0.32106
0.312641
0.303986
0.295168
0.28619
0.27715
0.268085
0.259105
0.250323
0.241838
0.233872
0.22652
0.220071
0.214651
0.21055
0.207574
0.206271
2.26343
1.00711
0.309585
0.339398
0.402604
0.445239
0.454081
0.450093
0.444425
0.440206
0.437985
0.43632
0.434346
0.431939
0.429193
0.426205
0.422976
0.419514
0.415788
0.411815
0.407569
0.403075
0.398303
0.393282
0.38798
0.382428
0.376594
0.370514
0.364158
0.357564
0.350711
0.343637
0.336334
0.328841
0.321171
0.313363
0.305459
0.297508
0.289574
0.28174
0.274085
0.266737
0.259812
0.253429
0.247787
0.242936
0.239029
0.236294
0.234372
0.233719
2.26477
1.00945
0.311224
0.339558
0.402929
0.445798
0.45481
0.450936
0.445402
0.441316
0.439199
0.437653
0.435792
0.433516
0.430899
0.428059
0.424981
0.421689
0.418144
0.414369
0.410343
0.406084
0.40158
0.396839
0.391862
0.386646
0.381209
0.375535
0.369661
0.36356
0.357293
0.35082
0.344227
0.337474
0.330661
0.323766
0.316895
0.310064
0.303374
0.296894
0.290726
0.284978
0.279772
0.275244
0.271486
0.268675
0.266702
0.265729
0.265197
0.265163
2.26623
1.01202
0.313028
0.339757
0.403294
0.446445
0.455655
0.451908
0.446553
0.442588
0.440606
0.439168
0.437451
0.435298
0.432843
0.430143
0.42725
0.424123
0.420794
0.417219
0.413449
0.409434
0.405233
0.400792
0.396175
0.391328
0.386319
0.3811
0.375738
0.370199
0.364543
0.358764
0.352907
0.347006
0.341087
0.335233
0.329458
0.32389
0.318553
0.313594
0.309084
0.305163
0.301935
0.299531
0.29809
0.297589
0.298086
0.299515
0.30116
0.302685
2.2678
1.01481
0.314988
0.339986
0.403714
0.447198
0.456638
0.453043
0.447889
0.444059
0.442218
0.440901
0.439333
0.437319
0.435032
0.432492
0.429789
0.426854
0.423745
0.420405
0.416892
0.413164
0.409269
0.405178
0.400927
0.396506
0.391937
0.387235
0.382407
0.377493
0.372491
0.367465
0.362416
0.357421
0.352504
0.347743
0.34321
0.338969
0.335159
0.331841
0.329188
0.327323
0.326401
0.326525
0.327926
0.330666
0.334532
0.339637
0.344737
0.348736
2.26949
1.01781
0.31709
0.340252
0.404203
0.448085
0.457789
0.45439
0.449435
0.445782
0.444061
0.442899
0.441462
0.439625
0.437484
0.435144
0.432613
0.42991
0.42701
0.423943
0.420687
0.417282
0.413703
0.409995
0.406133
0.402167
0.398078
0.393917
0.389679
0.385412
0.381136
0.376891
0.372731
0.36869
0.364861
0.361281
0.358075
0.35532
0.353133
0.351698
0.351073
0.35152
0.353212
0.356422
0.36134
0.36808
0.376912
0.387645
0.399381
0.409985
2.27125
1.02095
0.319313
0.340568
0.404785
0.449131
0.459147
0.455968
0.451246
0.447768
0.446179
0.445165
0.44388
0.442214
0.440251
0.438104
0.435781
0.433302
0.430654
0.42785
0.4249
0.421809
0.418599
0.415268
0.411852
0.40834
0.404788
0.401179
0.397587
0.393995
0.390493
0.387079
0.383849
0.380837
0.378134
0.375833
0.37401
0.372856
0.372435
0.372936
0.3746
0.377717
0.38264
0.389508
0.398936
0.411264
0.426961
0.447121
0.471005
0.498614
2.27307
1.02419
0.32159
0.34095
0.405496
0.450393
0.460793
0.457857
0.453421
0.450087
0.448645
0.447749
0.446635
0.445115
0.443351
0.441375
0.439282
0.437015
0.43464
0.432103
0.429476
0.426716
0.423889
0.420965
0.418004
0.414992
0.41198
0.40898
0.406033
0.403183
0.400459
0.397946
0.395666
0.393747
0.39222
0.391258
0.390898
0.391327
0.392712
0.395398
0.399604
0.4057
0.413906
0.425067
0.439634
0.459174
0.485099
0.520613
0.571947
0.664928
2.27514
1.02791
0.324103
0.341208
0.406285
0.45198
0.462933
0.460369
0.456282
0.453176
0.451894
0.45122
0.450321
0.449078
0.447561
0.445898
0.444093
0.442194
0.440165
0.438063
0.435856
0.433611
0.431292
0.428979
0.426633
0.424345
0.42208
0.419939
0.417899
0.41607
0.414451
0.413158
0.41223
0.411788
0.41193
0.412702
0.414264
0.41703
0.42122
0.426912
0.434604
0.444575
0.457847
0.474834
0.497623
0.527629
0.569616
0.631172
0.729856
0.881524
2.27735
1.03188
0.32711
0.342163
0.408017
0.45485
0.466523
0.464338
0.46057
0.457521
0.456281
0.455697
0.454958
0.453892
0.452592
0.451156
0.449632
0.448029
0.44636
0.444633
0.442873
0.441089
0.439315
0.437559
0.435868
0.434249
0.432766
0.431427
0.430319
0.429452
0.428945
0.428814
0.429179
0.430061
0.431698
0.434287
0.438
0.442918
0.449484
0.457809
0.468608
0.482324
0.49983
0.522643
0.551815
0.59138
0.64394
0.718069
0.829023
0.967205
2.27863
1.0342
0.328982
0.343224
0.410181
0.458597
0.471249
0.469563
0.466122
0.463095
0.461889
0.461423
0.46085
0.459962
0.458851
0.457622
0.456331
0.454994
0.453624
0.452234
0.450849
0.449485
0.448175
0.446939
0.445817
0.444836
0.444044
0.443483
0.443214
0.443302
0.443761
0.444665
0.446251
0.448657
0.451878
0.456168
0.461602
0.468595
0.47721
0.488179
0.501513
0.518513
0.539233
0.56579
0.599073
0.641741
0.697407
0.767799
0.864222
0.967565
2.27979
1.03631
0.332295
0.346923
0.415047
0.465014
0.478262
0.476448
0.472657
0.469283
0.468002
0.467641
0.467229
0.466518
0.465612
0.464613
0.463607
0.46258
0.461568
0.460555
0.459591
0.458671
0.457848
0.457124
0.456559
0.456169
0.456023
0.456136
0.456554
0.457364
0.458737
0.460719
0.463369
0.466858
0.471252
0.476854
0.483694
0.492282
0.502636
0.51542
0.530906
0.549736
0.572862
0.600726
0.63535
0.677135
0.72896
0.791007
0.868925
0.95001
2.27623
1.02992
0.334451
0.356841
0.427481
0.479854
0.493362
0.490567
0.485566
0.481316
0.479657
0.4791
0.478526
0.477655
0.476594
0.475499
0.474434
0.473408
0.472431
0.471517
0.47069
0.469979
0.469399
0.468999
0.468802
0.46884
0.46911
0.469778
0.470856
0.472459
0.474553
0.477341
0.480789
0.485185
0.490497
0.49709
0.504994
0.514572
0.526103
0.53981
0.556374
0.575937
0.5995
0.627398
0.660616
0.700095
0.746372
0.800759
0.86427
0.928866
2.28215
1.02276
0.35891
0.382393
0.44851
0.498411
0.510331
0.506583
0.500843
0.496458
0.494755
0.494064
0.493364
0.492414
0.491348
0.490269
0.489236
0.488238
0.487299
0.486417
0.485639
0.484964
0.484449
0.484064
0.483932
0.484085
0.48463
0.485494
0.486883
0.488728
0.491279
0.494422
0.498507
0.50337
0.509482
0.516607
0.525375
0.53548
0.547725
0.561851
0.578663
0.598205
0.621081
0.647822
0.678677
0.714632
0.755606
0.802488
0.855695
0.909265
1.87638
0.772104
0.273406
0.344131
0.417712
0.441214
0.441141
0.437162
0.433516
0.433419
0.435593
0.43848
0.441481
0.444525
0.447665
0.450914
0.454234
0.457577
0.460917
0.464234
0.467511
0.470691
0.473835
0.476976
0.480169
0.483351
0.486642
0.489964
0.493586
0.497396
0.501697
0.50639
0.511821
0.517923
0.52504
0.533181
0.542626
0.553572
0.566104
0.580752
0.597323
0.616719
0.638487
0.66382
0.6921
0.724578
0.760572
0.801052
0.845869
0.890626
1.86893
0.771482
0.282298
0.355369
0.428303
0.447778
0.443325
0.435974
0.430311
0.428411
0.428319
0.428721
0.42932
0.430223
0.43157
0.433351
0.435609
0.438216
0.441292
0.444719
0.448605
0.452674
0.457152
0.461799
0.466831
0.471989
0.477527
0.48326
0.489349
0.49568
0.502409
0.509487
0.517043
0.525186
0.533979
0.543733
0.554332
0.566359
0.579548
0.594624
0.611271
0.630254
0.651297
0.675059
0.701399
0.730713
0.76303
0.798164
0.836573
0.87426
1.86797
0.770172
0.284431
0.365088
0.443596
0.463689
0.457523
0.448158
0.441146
0.438407
0.437504
0.436905
0.436315
0.435911
0.435822
0.436091
0.43672
0.437721
0.439252
0.441235
0.443722
0.44664
0.450155
0.454165
0.45879
0.463942
0.469663
0.475923
0.48271
0.490088
0.497959
0.506554
0.515639
0.525599
0.536016
0.547466
0.559522
0.572799
0.586967
0.602647
0.619574
0.638311
0.658729
0.681234
0.705771
0.732586
0.761632
0.792842
0.826463
0.859
1.86946
0.773449
0.290222
0.367304
0.443669
0.464286
0.459083
0.450574
0.443991
0.441621
0.441143
0.440963
0.440744
0.440632
0.440716
0.441021
0.441607
0.442513
0.4437
0.445182
0.446984
0.449218
0.451858
0.455069
0.458753
0.463134
0.468046
0.473767
0.480041
0.487239
0.494984
0.503747
0.513052
0.523427
0.534438
0.546575
0.559485
0.573588
0.588586
0.604845
0.622209
0.640952
0.66104
0.682693
0.70588
0.730732
0.757186
0.785286
0.815082
0.843739
1.87256
0.78012
0.297897
0.361256
0.429038
0.45029
0.448022
0.441965
0.436352
0.434473
0.434507
0.435037
0.435623
0.436337
0.437229
0.4384
0.439859
0.441543
0.443413
0.44552
0.447864
0.450527
0.453485
0.456854
0.460591
0.464868
0.469584
0.474994
0.480921
0.487694
0.495072
0.503399
0.512436
0.522484
0.533354
0.545269
0.558094
0.572015
0.586955
0.603059
0.620287
0.638775
0.658422
0.679369
0.701494
0.724972
0.749586
0.775316
0.802338
0.828182
1.88114
0.786702
0.30015
0.349039
0.412161
0.441225
0.444211
0.439529
0.434377
0.43209
0.431842
0.432364
0.433081
0.434
0.435095
0.436427
0.438022
0.439878
0.441991
0.444387
0.447061
0.450068
0.453378
0.457077
0.461115
0.465632
0.470538
0.47604
0.482
0.488676
0.495921
0.50398
0.512747
0.522406
0.532894
0.544362
0.55674
0.570162
0.584559
0.600053
0.616571
0.634222
0.652925
0.672779
0.693684
0.715672
0.7386
0.76243
0.787253
0.810909
2.2632
1.10624
0.407368
0.399231
0.4594
0.508105
0.519404
0.514516
0.507593
0.501541
0.498021
0.495548
0.493434
0.491413
0.489383
0.487409
0.485683
0.484191
0.483041
0.482191
0.48176
0.481709
0.482161
0.483091
0.48457
0.486633
0.489315
0.492674
0.496713
0.501522
0.507078
0.513492
0.520734
0.528928
0.538022
0.548149
0.559239
0.571408
0.584584
0.59887
0.614163
0.630561
0.64794
0.666352
0.685711
0.706005
0.727135
0.74902
0.771737
0.793351
2.27263
1.12814
0.391842
0.377165
0.450026
0.510757
0.529167
0.528289
0.524067
0.520263
0.518819
0.518443
0.518426
0.518386
0.517969
0.517339
0.516666
0.516035
0.515466
0.514989
0.51462
0.514424
0.51442
0.51469
0.515271
0.51624
0.517634
0.519564
0.522025
0.525174
0.52896
0.533572
0.53893
0.545212
0.552352
0.560481
0.569577
0.579729
0.590928
0.6032
0.616573
0.630996
0.646495
0.662975
0.680407
0.698722
0.717827
0.737627
0.758189
0.777759
2.29754
1.17686
0.434419
0.38403
0.447118
0.503421
0.521908
0.52294
0.521116
0.519932
0.520351
0.521583
0.523377
0.525179
0.526587
0.527787
0.52891
0.530058
0.531206
0.532386
0.533572
0.534816
0.536108
0.53751
0.539023
0.540719
0.542615
0.544786
0.547277
0.550154
0.553485
0.557322
0.561761
0.566834
0.572659
0.579249
0.586719
0.595059
0.604363
0.614611
0.625843
0.638035
0.651211
0.665358
0.680445
0.696448
0.713264
0.730741
0.748967
0.766353
1.90078
0.805075
0.305893
0.316881
0.373992
0.414878
0.429162
0.432993
0.435819
0.439472
0.444406
0.450154
0.456594
0.463091
0.46927
0.475269
0.481236
0.487201
0.493147
0.499035
0.504859
0.5106
0.516275
0.521865
0.527403
0.532867
0.538324
0.543745
0.549223
0.554749
0.560393
0.566202
0.572238
0.57857
0.585249
0.592374
0.599972
0.608163
0.616936
0.626426
0.63659
0.647564
0.659261
0.671786
0.685025
0.698994
0.71363
0.728957
0.744975
0.760292
2.30605
1.194
0.449765
0.386679
0.44069
0.492269
0.509277
0.509341
0.506195
0.503717
0.502459
0.502273
0.502727
0.503122
0.503445
0.503948
0.504772
0.506047
0.507741
0.509899
0.512471
0.515511
0.518973
0.522899
0.527212
0.53197
0.537055
0.542559
0.548319
0.554456
0.560842
0.567583
0.574563
0.581903
0.589497
0.59748
0.605771
0.614499
0.623605
0.633203
0.643262
0.653864
0.664996
0.676687
0.688949
0.701763
0.715137
0.728982
0.743387
0.757109
2.3113
1.20398
0.433061
0.36976
0.438398
0.50067
0.522133
0.523549
0.52133
0.519859
0.519986
0.521117
0.522847
0.524351
0.525375
0.526222
0.527056
0.528004
0.529077
0.530365
0.531873
0.533686
0.535793
0.538276
0.541123
0.544398
0.548092
0.552245
0.556857
0.56194
0.567496
0.57351
0.57999
0.586909
0.594302
0.602107
0.610378
0.619036
0.628164
0.637665
0.647643
0.657989
0.668826
0.68003
0.691722
0.703777
0.716291
0.729126
0.74241
0.755014
2.31402
1.20981
0.437235
0.371801
0.441526
0.505393
0.527781
0.529466
0.527302
0.525954
0.526426
0.527942
0.530213
0.532406
0.534125
0.535653
0.53718
0.538811
0.540542
0.542404
0.544391
0.546537
0.548858
0.551386
0.554154
0.557186
0.560527
0.564188
0.568223
0.572631
0.577471
0.582726
0.588456
0.594629
0.601299
0.608424
0.616051
0.624133
0.632703
0.641721
0.651201
0.661117
0.671459
0.682216
0.69335
0.704873
0.716715
0.728893
0.741398
0.75329
2.317
1.21752
0.463612
0.387875
0.447127
0.506262
0.52883
0.532066
0.531189
0.530819
0.531711
0.533639
0.536178
0.538476
0.540503
0.542406
0.544364
0.546405
0.548582
0.550863
0.553294
0.555844
0.55857
0.561441
0.564519
0.567777
0.57128
0.575006
0.579018
0.583303
0.58792
0.592865
0.598186
0.603883
0.609987
0.616505
0.62345
0.630841
0.638671
0.646961
0.655679
0.664855
0.674439
0.684457
0.694846
0.705624
0.716718
0.728128
0.739873
0.751052
1.90564
0.813617
0.324785
0.323677
0.376472
0.414365
0.427254
0.430297
0.432589
0.43593
0.440702
0.446614
0.453342
0.460161
0.466871
0.473533
0.480268
0.487064
0.493931
0.500811
0.507711
0.514591
0.521469
0.52832
0.535166
0.541997
0.548837
0.555685
0.562565
0.569488
0.576471
0.583544
0.59072
0.59804
0.605509
0.61318
0.621048
0.629171
0.637535
0.646185
0.655111
0.664339
0.673853
0.683678
0.69379
0.704197
0.714875
0.725812
0.73706
0.747738
2.31209
1.20882
0.465123
0.403552
0.466246
0.527441
0.549378
0.550311
0.546167
0.542335
0.540128
0.538755
0.53816
0.537762
0.537028
0.536304
0.535737
0.535582
0.535769
0.536454
0.537566
0.539177
0.541257
0.543843
0.546901
0.550456
0.554469
0.558963
0.563883
0.569251
0.575012
0.581172
0.58768
0.594547
0.601732
0.609242
0.617046
0.62515
0.633531
0.642197
0.651134
0.66035
0.669831
0.67958
0.689578
0.699815
0.710278
0.720943
0.731872
0.742238
2.29413
1.16977
0.460215
0.422753
0.485849
0.546253
0.566147
0.566189
0.562468
0.559231
0.558474
0.558877
0.559963
0.561226
0.562098
0.562737
0.563328
0.563986
0.564721
0.565544
0.566464
0.567528
0.568779
0.570262
0.572009
0.574067
0.576449
0.579192
0.582308
0.585822
0.589736
0.594074
0.598836
0.604034
0.609662
0.615721
0.622198
0.629087
0.636373
0.644043
0.652076
0.660456
0.66916
0.678174
0.68749
0.697079
0.706935
0.717023
0.727394
0.737249
1.88785
0.805097
0.340855
0.355384
0.406352
0.44313
0.452864
0.452692
0.451756
0.452607
0.45592
0.460545
0.466084
0.472151
0.478241
0.484364
0.490582
0.496904
0.503281
0.50967
0.516034
0.522362
0.52864
0.534872
0.541049
0.547186
0.553287
0.559381
0.565483
0.57163
0.577841
0.584143
0.590564
0.597126
0.603856
0.610771
0.617895
0.625238
0.632816
0.640634
0.648709
0.657038
0.66563
0.674468
0.683549
0.692865
0.702399
0.71214
0.722129
0.731624
1.87402
0.796338
0.339585
0.356678
0.398326
0.426961
0.434876
0.434832
0.433825
0.433314
0.434046
0.43568
0.438235
0.441443
0.444934
0.448766
0.453021
0.45774
0.4629
0.468483
0.474447
0.48077
0.487408
0.494338
0.501513
0.508913
0.516491
0.524232
0.532098
0.540078
0.548142
0.556306
0.564537
0.57286
0.581249
0.589738
0.598306
0.606986
0.615773
0.624673
0.633682
0.64282
0.652087
0.661495
0.671042
0.680736
0.690575
0.700551
0.710706
0.720319
1.88891
0.806073
0.345103
0.37368
0.430951
0.466914
0.473649
0.469595
0.464512
0.461407
0.460454
0.460424
0.461015
0.461979
0.463018
0.46419
0.465621
0.467381
0.469506
0.472008
0.474909
0.478219
0.481968
0.486148
0.490779
0.495843
0.501352
0.507273
0.51361
0.520325
0.527422
0.534852
0.542616
0.550668
0.559002
0.567571
0.576374
0.585367
0.594544
0.603892
0.613409
0.623068
0.63287
0.642788
0.65283
0.662971
0.673221
0.683555
0.694042
0.703937
2.34081
1.12444
0.469169
0.447638
0.513196
0.574946
0.595574
0.594969
0.589671
0.584366
0.581355
0.579444
0.577878
0.576507
0.574953
0.573219
0.571446
0.569733
0.568122
0.566643
0.565319
0.564187
0.563271
0.562621
0.562264
0.562252
0.562601
0.563372
0.564556
0.566192
0.56831
0.570918
0.57404
0.577658
0.581798
0.58643
0.591571
0.597184
0.603279
0.609809
0.616774
0.62413
0.631858
0.639951
0.648365
0.657084
0.666069
0.675306
0.684805
0.693863
1.88938
0.807261
0.34623
0.363496
0.415837
0.456098
0.468572
0.469578
0.46903
0.469008
0.471295
0.474813
0.47902
0.483755
0.488579
0.493391
0.498232
0.503162
0.508137
0.51315
0.518141
0.523119
0.528045
0.532945
0.537788
0.542613
0.547394
0.552172
0.556951
0.56176
0.566605
0.571521
0.576507
0.581615
0.586843
0.592245
0.597809
0.603591
0.609572
0.615808
0.62227
0.629006
0.635992
0.643237
0.65073
0.658482
0.666473
0.674703
0.683186
0.691291
1.88911
0.807408
0.347541
0.364563
0.416111
0.454602
0.465053
0.463991
0.461117
0.458558
0.45809
0.458931
0.460516
0.462722
0.465141
0.467731
0.470599
0.473826
0.477419
0.481361
0.485627
0.490198
0.495054
0.500175
0.505541
0.511127
0.516911
0.522871
0.528988
0.53526
0.541664
0.548198
0.554851
0.561613
0.568479
0.575446
0.582514
0.589685
0.596963
0.604348
0.611851
0.619465
0.627205
0.635066
0.643064
0.651188
0.659455
0.667847
0.676414
0.684549
2.34283
1.12812
0.472848
0.449704
0.51645
0.580698
0.603158
0.603265
0.598186
0.593117
0.590333
0.588777
0.587649
0.586797
0.585795
0.58463
0.583404
0.58228
0.581242
0.580384
0.579644
0.579133
0.578787
0.578727
0.578883
0.579364
0.580127
0.581214
0.582639
0.584413
0.586541
0.589024
0.591862
0.595053
0.598597
0.602492
0.606732
0.611309
0.616214
0.62144
0.626971
0.6328
0.638909
0.645294
0.651934
0.658824
0.665945
0.673287
0.680857
0.688098
1.88982
0.8088
0.353507
0.381447
0.439701
0.479658
0.489622
0.487943
0.484898
0.483511
0.484937
0.487611
0.490959
0.494793
0.498694
0.502644
0.506707
0.510935
0.515298
0.519782
0.524344
0.528978
0.533661
0.538392
0.543163
0.547968
0.55281
0.557689
0.562614
0.567589
0.572623
0.577731
0.582912
0.588189
0.593561
0.599048
0.604648
0.61038
0.61624
0.622243
0.628392
0.634699
0.641163
0.647789
0.654578
0.661533
0.668652
0.675925
0.68338
0.690479
1.87525
0.799758
0.351221
0.378133
0.427543
0.459459
0.467111
0.465984
0.464304
0.46359
0.464117
0.465315
0.467215
0.4695
0.471851
0.474333
0.47704
0.480023
0.48329
0.48684
0.49066
0.494747
0.499089
0.50368
0.50851
0.513568
0.51884
0.524315
0.529978
0.535818
0.541821
0.547971
0.554274
0.560706
0.567277
0.573963
0.580779
0.587706
0.594757
0.601913
0.609185
0.616556
0.624039
0.631619
0.63931
0.647096
0.654991
0.66298
0.671113
0.678815
1.87422
0.799386
0.35174
0.375377
0.422439
0.454109
0.462328
0.461869
0.460753
0.460134
0.460404
0.461229
0.462712
0.464548
0.466396
0.468298
0.470355
0.47261
0.475083
0.477773
0.480689
0.483836
0.487223
0.49085
0.494726
0.498847
0.503219
0.507836
0.512702
0.51781
0.523161
0.528747
0.534565
0.540605
0.546862
0.553322
0.559982
0.566825
0.573851
0.581048
0.588412
0.595934
0.603612
0.61143
0.619382
0.627459
0.635666
0.643998
0.652485
0.660544
1.88906
0.809136
0.354932
0.362687
0.413314
0.452113
0.463058
0.462647
0.460859
0.459613
0.45965
0.46046
0.462
0.463903
0.46573
0.467537
0.469455
0.471547
0.473831
0.476306
0.478972
0.48183
0.484885
0.48814
0.4916
0.495265
0.499139
0.503225
0.507525
0.512041
0.516774
0.521724
0.526893
0.53228
0.537884
0.543703
0.549734
0.555976
0.562424
0.569073
0.575919
0.582953
0.590169
0.597563
0.605135
0.612877
0.62078
0.628834
0.637058
0.644881
2.31239
1.20481
0.485546
0.431531
0.492621
0.556859
0.582859
0.586358
0.583695
0.580964
0.579676
0.57936
0.579849
0.580679
0.581218
0.581509
0.581741
0.582024
0.5824
0.582868
0.583434
0.584098
0.584874
0.58577
0.586799
0.587968
0.589291
0.590772
0.592427
0.594258
0.59628
0.598495
0.600918
0.60355
0.606403
0.609477
0.612784
0.616321
0.620099
0.624113
0.628373
0.63287
0.637614
0.642593
0.647818
0.653271
0.658954
0.664846
0.670976
0.676869
2.32262
1.22894
0.466231
0.405411
0.481484
0.557558
0.588738
0.593423
0.590791
0.587928
0.586939
0.587391
0.58868
0.590495
0.592177
0.593575
0.594905
0.596318
0.597871
0.599551
0.601353
0.603265
0.605293
0.607433
0.609695
0.612072
0.614575
0.617198
0.619949
0.622825
0.625835
0.628974
0.632253
0.635667
0.639228
0.642929
0.646783
0.650784
0.654943
0.659255
0.663731
0.668365
0.673169
0.678136
0.683274
0.688574
0.69404
0.699661
0.705459
0.710998
2.31279
1.20631
0.486776
0.432592
0.494394
0.55986
0.586931
0.591085
0.589035
0.586923
0.586353
0.587009
0.588517
0.590506
0.592305
0.593899
0.595472
0.597155
0.598983
0.600958
0.603067
0.605311
0.607689
0.610206
0.612862
0.615663
0.618606
0.621697
0.624931
0.628315
0.631844
0.635524
0.63935
0.643329
0.647455
0.651734
0.656159
0.660738
0.665463
0.670343
0.675367
0.680546
0.685867
0.691343
0.696958
0.702726
0.708631
0.714682
0.72089
0.726829
1.88896
0.809191
0.356131
0.364333
0.416405
0.457024
0.469126
0.469146
0.467562
0.466548
0.467193
0.468819
0.471302
0.474257
0.477192
0.480157
0.483266
0.486593
0.490136
0.493897
0.497851
0.502004
0.506339
0.510865
0.515563
0.520444
0.525488
0.530705
0.536075
0.541609
0.547287
0.553121
0.55909
0.565206
0.571449
0.577833
0.584336
0.590972
0.597721
0.604597
0.61158
0.618686
0.625893
0.633216
0.640633
0.648163
0.655785
0.66352
0.671383
0.678872
1.8742
0.800021
0.355351
0.380502
0.428597
0.460145
0.467669
0.466504
0.464765
0.463884
0.464101
0.464953
0.466495
0.468376
0.470209
0.47206
0.474025
0.476164
0.478476
0.480969
0.483635
0.486484
0.489512
0.49273
0.496134
0.499734
0.503523
0.507512
0.511692
0.516074
0.520648
0.525423
0.53039
0.535555
0.540909
0.546459
0.552192
0.558116
0.564217
0.570503
0.57696
0.583593
0.590388
0.597351
0.604467
0.611741
0.619158
0.626725
0.63445
0.641812
1.87704
0.803117
0.359437
0.395182
0.451578
0.484586
0.490513
0.486983
0.482799
0.480851
0.48084
0.481636
0.483047
0.484712
0.48631
0.487932
0.489676
0.491588
0.493664
0.495901
0.498293
0.500846
0.503559
0.506438
0.509481
0.512695
0.516077
0.519633
0.523361
0.527267
0.531346
0.535605
0.540039
0.544654
0.549445
0.554416
0.559563
0.564889
0.570389
0.576066
0.581914
0.587936
0.594123
0.600481
0.606998
0.613679
0.620512
0.627498
0.634642
0.641454
1.19168
1.04938
0.497977
0.19064
0.0102294
0.108645
0.159853
0.208258
0.229912
0.234331
0.222723
0.211302
0.201004
0.191464
0.179426
0.164968
0.147631
0.1277
0.105871
0.0827354
0.0589033
0.0352073
0.0158295
0.0233224
0.0471054
0.0713777
0.0955576
0.119262
0.142605
0.165511
0.188035
0.210116
0.231772
0.252921
0.272951
0.29206
0.311615
0.331998
0.351983
0.37116
0.389694
0.407701
0.425243
0.442308
0.458907
0.475018
0.490654
0.505793
0.520447
0.534591
0.548235
0.561351
0.573944
0.58598
0.597459
0.608343
0.618623
0.628259
0.637238
0.645513
0.653068
0.659855
0.665858
0.671031
0.675366
0.678827
0.681424
0.683151
0.684041
0.684276
0.684151
0.683679
0.682486
0.680134
0.676839
0.673316
0.669703
0.666056
0.66242
0.658899
0.655573
0.652537
0.649841
0.64754
0.645649
0.644187
0.643139
0.642492
0.642221
0.642248
0.642455
0.642842
0.643537
0.644688
0.646131
0.647692
0.649279
0.650973
0.652626
0.657393
1.12208
1.03632
0.806573
0.549619
0.5027
0.431543
0.381464
0.340646
0.310288
0.291727
0.260497
0.230314
0.21076
0.209042
0.216173
0.226739
0.2392
0.253141
0.268276
0.284159
0.300546
0.317043
0.333379
0.34958
0.366328
0.383333
0.400512
0.417633
0.434745
0.451694
0.468562
0.485207
0.501721
0.517969
0.533644
0.548572
0.563586
0.579318
0.595202
0.610441
0.625179
0.639566
0.653667
0.66746
0.680939
0.694074
0.706872
0.719306
0.731384
0.743079
0.754396
0.765306
0.775808
0.78587
0.795487
0.804622
0.813267
0.82138
0.828949
0.835929
0.842306
0.848032
0.853094
0.857445
0.86108
0.86396
0.866097
0.867471
0.868122
0.8682
0.867955
0.867368
0.866144
0.863907
0.860793
0.857402
0.853919
0.850421
0.846962
0.843628
0.840495
0.837646
0.835132
0.833002
0.831269
0.829945
0.829018
0.828472
0.828298
0.828377
0.828599
0.828988
0.829611
0.830639
0.831901
0.83329
0.83465
0.836094
0.837299
0.841104
1.07475
1.07574
1.00832
0.900062
0.831417
0.781275
0.745321
0.715221
0.690398
0.672323
0.6573
0.643015
0.63301
0.627917
0.626413
0.626698
0.628247
0.630694
0.634116
0.638417
0.64356
0.649358
0.655737
0.662586
0.670149
0.678319
0.68709
0.696249
0.705819
0.715624
0.725732
0.735981
0.746467
0.757014
0.767395
0.777339
0.787408
0.798191
0.809555
0.820654
0.831464
0.842088
0.852608
0.863014
0.873297
0.88342
0.893372
0.903125
0.912673
0.921988
0.931064
0.939871
0.9484
0.956617
0.964511
0.972046
0.979206
0.985953
0.992268
0.99811
1.00346
1.00827
1.01253
1.01619
1.01924
1.02165
1.02341
1.02451
1.02494
1.02489
1.02458
1.02396
1.02276
1.02069
1.01782
1.01466
1.01138
1.0081
1.00487
1.00179
0.998902
0.996297
0.994005
0.992083
0.990526
0.989361