/*--------------------------------*- C++ -*----------------------------------*\
| =========                 |                                                 |
| \\      /  F ield         | OpenFOAM: The Open Source CFD Toolbox           |
|  \\    /   O peration     | Version:  2412                                  |
|   \\  /    A nd           | Website:  www.openfoam.com                      |
|    \\/     M anipulation  |                                                 |
\*---------------------------------------------------------------------------*/
FoamFile
{
    version     2.0;
    format      ascii;
    arch        "LSB;label=32;scalar=64";
    class       volScalarField;
    location    "19";
    object      p;
}
// * * * * * * * * * * * * * * * * * * * * * * * * * * * * * * * * * * * * * //

dimensions      [1 -1 -2 0 0 0 0];

internalField   nonuniform List<scalar> 
7000
(
1.63876
3.75565
11.453
11.5276
11.0971
10.6875
10.5687
10.5833
10.6244
10.6641
10.6859
10.6997
10.7142
10.732
10.7523
10.7746
10.7984
10.8238
10.851
10.88
10.9109
10.9436
10.9781
11.0145
11.0527
11.0927
11.1346
11.1783
11.2237
11.2707
11.3194
11.3695
11.4209
11.4735
11.527
11.5812
11.6358
11.6905
11.7447
11.7981
11.8501
11.9001
11.9476
11.9918
12.032
12.0676
12.0979
12.1224
12.1401
12.153
1.63906
3.75436
11.4525
11.5269
11.0967
10.6872
10.5684
10.583
10.624
10.6637
10.6855
10.6992
10.7137
10.7314
10.7518
10.774
10.7978
10.8232
10.8504
10.8794
10.9102
10.9428
10.9773
11.0137
11.0519
11.0919
11.1337
11.1773
11.2227
11.2697
11.3183
11.3684
11.4198
11.4724
11.5259
11.5801
11.6347
11.6893
11.7435
11.797
11.849
11.8991
11.9467
11.991
12.0313
12.067
12.0975
12.1221
12.1398
12.1528
1.63895
3.75342
11.4506
11.5261
11.096
10.6865
10.5677
10.5823
10.6232
10.6628
10.6845
10.6982
10.7127
10.7303
10.7506
10.7728
10.7965
10.8218
10.8489
10.8779
10.9086
10.9411
10.9755
11.0118
11.0499
11.0898
11.1315
11.175
11.2202
11.2671
11.3156
11.3655
11.4168
11.4692
11.5225
11.5766
11.6311
11.6856
11.7397
11.793
11.845
11.895
11.9425
11.9868
12.0272
12.0629
12.0934
12.118
12.1356
12.1485
1.63883
3.75213
11.4473
11.525
11.095
10.6853
10.5665
10.5811
10.6219
10.6614
10.6829
10.6966
10.711
10.7285
10.7487
10.7708
10.7944
10.8197
10.8467
10.8754
10.906
10.9385
10.9727
11.0088
11.0467
11.0865
11.128
11.1713
11.2163
11.263
11.3112
11.3609
11.4119
11.4641
11.5172
11.571
11.6252
11.6795
11.7334
11.7866
11.8384
11.8883
11.9357
11.9799
12.0202
12.0559
12.0863
12.1109
12.1284
12.1413
1.63865
3.75026
11.4426
11.5236
11.0937
10.6837
10.5648
10.5793
10.62
10.6593
10.6808
10.6943
10.7086
10.726
10.7461
10.768
10.7915
10.8166
10.8434
10.872
10.9024
10.9347
10.9687
11.0046
11.0422
11.0817
11.123
11.166
11.2107
11.2571
11.305
11.3543
11.405
11.4568
11.5095
11.5629
11.6168
11.6707
11.7243
11.7772
11.8287
11.8784
11.9256
11.9697
12.0099
12.0456
12.076
12.1007
12.1181
12.131
1.63843
3.74774
11.4363
11.5218
11.0921
10.6816
10.5625
10.577
10.6176
10.6566
10.6779
10.6913
10.7054
10.7227
10.7426
10.7643
10.7876
10.8125
10.8391
10.8675
10.8977
10.9296
10.9634
10.9989
11.0363
11.0754
11.1163
11.1589
11.2033
11.2492
11.2966
11.3455
11.3957
11.447
11.4992
11.5521
11.6055
11.6589
11.7121
11.7645
11.8156
11.865
11.9119
11.9558
11.9959
12.0315
12.0619
12.0866
12.104
12.117
1.63817
3.74451
11.4284
11.5196
11.09
10.679
10.5596
10.574
10.6144
10.6532
10.6743
10.6874
10.7014
10.7185
10.7382
10.7596
10.7827
10.8073
10.8337
10.8618
10.8916
10.9232
10.9566
10.9918
11.0288
11.0675
11.1079
11.15
11.1938
11.2391
11.286
11.3343
11.3838
11.4344
11.486
11.5383
11.5909
11.6437
11.6962
11.748
11.7987
11.8476
11.8941
11.9377
11.9776
12.0131
12.0434
12.0681
12.0854
12.0987
1.63785
3.74052
11.4187
11.5168
11.0875
10.6758
10.5561
10.5703
10.6105
10.649
10.6698
10.6827
10.6964
10.7133
10.7327
10.7539
10.7766
10.801
10.827
10.8547
10.8842
10.9154
10.9483
10.983
11.0195
11.0576
11.0975
11.139
11.1821
11.2267
11.2729
11.3203
11.3691
11.4189
11.4696
11.521
11.5728
11.6248
11.6764
11.7275
11.7773
11.8256
11.8716
11.9147
11.9542
11.9895
12.0197
12.0445
12.0618
12.0754
1.63748
3.73572
11.4072
11.5135
11.0845
10.6719
10.5517
10.5659
10.6057
10.644
10.6644
10.677
10.6904
10.707
10.7261
10.747
10.7693
10.7933
10.8189
10.8462
10.8752
10.9059
10.9383
10.9724
11.0082
11.0457
11.0849
11.1256
11.1679
11.2117
11.257
11.3035
11.3513
11.4001
11.4497
11.5
11.5508
11.6016
11.6522
11.7022
11.7511
11.7984
11.8437
11.8861
11.9252
11.9601
11.9901
12.0148
12.0322
12.0461
1.63705
3.73005
11.3936
11.5097
11.081
10.6674
10.5466
10.5606
10.6001
10.6379
10.658
10.6703
10.6833
10.6995
10.7183
10.7387
10.7607
10.7842
10.8093
10.8361
10.8645
10.8947
10.9264
10.9599
10.9949
11.0316
11.0699
11.1098
11.1511
11.1939
11.2381
11.2835
11.33
11.3776
11.4259
11.4749
11.5243
11.5737
11.623
11.6716
11.7192
11.7654
11.8095
11.851
11.8893
11.9237
11.9534
11.978
11.9954
12.0096
1.63656
3.72347
11.3779
11.5052
11.0769
10.6622
10.5406
10.5544
10.5935
10.6308
10.6505
10.6624
10.675
10.6908
10.7091
10.7291
10.7506
10.7735
10.7981
10.8243
10.8521
10.8815
10.9125
10.9452
10.9794
11.0152
11.0525
11.0912
11.1315
11.173
11.2159
11.2599
11.305
11.3511
11.3979
11.4452
11.4929
11.5406
11.5881
11.6351
11.681
11.7256
11.7682
11.8084
11.8456
11.8791
11.9081
11.9324
11.9498
11.9645
1.63601
3.71594
11.3599
11.5
11.0722
10.6561
10.5337
10.5472
10.5857
10.6226
10.6417
10.6532
10.6654
10.6807
10.6985
10.7179
10.7388
10.7612
10.7851
10.8106
10.8377
10.8663
10.8965
10.9282
10.9614
10.9961
11.0322
11.0698
11.1087
11.1488
11.1902
11.2326
11.276
11.3202
11.3651
11.4105
11.4561
11.5017
11.547
11.5918
11.6355
11.6779
11.7185
11.7568
11.7923
11.8245
11.8525
11.8763
11.8934
11.9085
1.6354
3.70741
11.3396
11.4941
11.0668
10.6492
10.5257
10.5389
10.5768
10.6131
10.6317
10.6426
10.6543
10.669
10.6862
10.7051
10.7254
10.747
10.7702
10.7949
10.8212
10.8489
10.8781
10.9087
10.9408
10.9742
11.009
11.0452
11.0825
11.121
11.1606
11.2011
11.2425
11.2846
11.3272
11.3702
11.4133
11.4563
11.4989
11.5408
11.5818
11.6213
11.6591
11.6947
11.7277
11.7577
11.784
11.8067
11.8232
11.8389
1.63472
3.69785
11.3169
11.4874
11.0606
10.6415
10.5166
10.5294
10.5666
10.6022
10.6202
10.6305
10.6416
10.6558
10.6723
10.6905
10.71
10.7309
10.7533
10.7771
10.8024
10.8291
10.8571
10.8866
10.9173
10.9494
10.9827
11.0172
11.0527
11.0894
11.1269
11.1652
11.2043
11.2439
11.2838
11.3239
11.364
11.4038
11.443
11.4814
11.5186
11.5543
11.5882
11.62
11.6494
11.676
11.6995
11.7201
11.7354
11.7513
1.634
3.68723
11.2919
11.4797
11.0537
10.6328
10.5064
10.5187
10.555
10.5898
10.6071
10.6168
10.6273
10.6407
10.6565
10.6739
10.6927
10.7127
10.7342
10.757
10.7812
10.8067
10.8335
10.8616
10.8909
10.9214
10.953
10.9856
11.0191
11.0536
11.0888
11.1246
11.1609
11.1976
11.2343
11.2711
11.3075
11.3433
11.3783
11.4122
11.4447
11.4754
11.504
11.5304
11.5542
11.5754
11.594
11.6107
11.6234
11.6396
1.63321
3.67563
11.2645
11.4714
11.046
10.6232
10.4948
10.5066
10.5418
10.5757
10.5923
10.6013
10.611
10.6237
10.6387
10.6553
10.6732
10.6923
10.7127
10.7344
10.7574
10.7817
10.8071
10.8336
10.8613
10.89
10.9196
10.9502
10.9815
11.0135
11.046
11.0789
11.1121
11.1453
11.1784
11.2111
11.2432
11.2743
11.3042
11.3324
11.3587
11.3828
11.4042
11.4228
11.4384
11.4512
11.4617
11.4712
11.4784
11.4933
1.63236
3.6631
11.2347
11.4623
11.0376
10.6124
10.4818
10.4929
10.5268
10.5598
10.5756
10.5839
10.5928
10.6047
10.6188
10.6345
10.6514
10.6694
10.6887
10.7092
10.7309
10.7538
10.7776
10.8025
10.8284
10.8551
10.8826
10.9108
10.9395
10.9687
10.9983
11.0279
11.0575
11.0869
11.1157
11.1437
11.1706
11.196
11.2196
11.2409
11.2594
11.2747
11.2863
11.294
11.2971
11.2965
11.293
11.2887
11.2847
11.2954
1.63145
3.64973
11.2029
11.4525
11.0285
10.6004
10.4672
10.4775
10.5099
10.5418
10.5568
10.5643
10.5723
10.5833
10.5965
10.6112
10.627
10.644
10.6621
10.6813
10.7016
10.7228
10.745
10.7681
10.7919
10.8164
10.8416
10.8672
10.8931
10.9192
10.9454
10.9714
10.997
11.0218
11.0458
11.0684
11.0892
11.1079
11.1239
11.1365
11.1454
11.1492
11.1476
11.1407
11.1257
11.1038
11.076
11.0452
11.015
11.0113
1.63052
3.63572
11.1695
11.442
11.0186
10.5872
10.4508
10.4602
10.4908
10.5216
10.5358
10.5425
10.5496
10.5596
10.5719
10.5855
10.6002
10.616
10.6327
10.6505
10.6692
10.6888
10.7091
10.7302
10.7518
10.774
10.7965
10.8193
10.8421
10.8649
10.8873
10.9092
10.9303
10.9502
10.9686
10.985
10.9989
11.0097
11.0168
11.0188
11.0159
11.0064
10.987
10.9579
10.9171
10.8629
10.7936
10.7117
10.6211
10.5657
1.62957
3.62134
11.1353
11.4309
11.0078
10.5723
10.4321
10.4403
10.4689
10.4985
10.5119
10.5178
10.5241
10.5331
10.5443
10.5569
10.5704
10.5849
10.6003
10.6166
10.6336
10.6514
10.6697
10.6886
10.7079
10.7275
10.7472
10.7668
10.7863
10.8053
10.8237
10.8411
10.8571
10.8715
10.8837
10.8932
10.8994
10.9008
10.8981
10.8891
10.8706
10.8423
10.8016
10.7452
10.6684
10.5653
10.4274
10.2464
10.0126
9.7582
1.62879
3.60299
11.0947
11.4177
10.994
10.553
10.4073
10.4139
10.4397
10.468
10.4806
10.4855
10.4907
10.4985
10.5084
10.5195
10.5316
10.5444
10.5581
10.5724
10.5873
10.6028
10.6186
10.6348
10.6511
10.6673
10.6835
10.6992
10.7144
10.7287
10.7419
10.7535
10.7632
10.7705
10.7747
10.7746
10.7717
10.7629
10.7449
10.7181
10.6803
10.6283
10.5575
10.4614
10.3305
10.1481
9.88505
9.47984
8.78147
7.25922
1.628
3.58352
11.0517
11.4004
10.9749
10.5247
10.3711
10.3757
10.3983
10.4257
10.4382
10.4426
10.4469
10.4535
10.4621
10.4718
10.4823
10.4934
10.505
10.5171
10.5296
10.5423
10.5552
10.568
10.5807
10.5931
10.6049
10.616
10.626
10.6347
10.6416
10.6464
10.6483
10.6473
10.6431
10.6332
10.6162
10.5917
10.558
10.5123
10.4518
10.3716
10.2651
10.1228
9.92974
9.66206
9.27821
8.70925
7.86691
6.48049
1.62754
3.57227
11.0268
11.3888
10.9594
10.4964
10.3319
10.3341
10.3529
10.3801
10.3927
10.3965
10.3995
10.4048
10.412
10.4203
10.4291
10.4383
10.4478
10.4576
10.4676
10.4775
10.4873
10.4968
10.5058
10.5141
10.5215
10.5278
10.5325
10.5353
10.5355
10.5341
10.5292
10.519
10.5036
10.4822
10.4533
10.4151
10.3655
10.3015
10.219
10.1132
9.97587
9.79718
9.56183
9.24861
8.82834
8.26075
7.52885
6.55577
1.62691
3.56308
11.0035
11.3675
10.9314
10.4509
10.277
10.2792
10.2995
10.3301
10.3441
10.3477
10.3499
10.3542
10.3604
10.3674
10.3747
10.3821
10.3896
10.3971
10.4044
10.4115
10.4182
10.4243
10.4296
10.4339
10.437
10.4383
10.4379
10.4358
10.4306
10.4211
10.4077
10.3894
10.3651
10.334
10.294
10.2436
10.1802
10.1007
10.0013
9.87678
9.7203
9.52309
9.274
8.95922
8.56413
8.07301
7.49259
6.76343
1.6276
3.59752
11.065
11.3648
10.904
10.3853
10.2
10.2053
10.2334
10.2713
10.2878
10.2913
10.2931
10.2967
10.3023
10.3085
10.3146
10.3205
10.3262
10.3316
10.3367
10.3413
10.3451
10.3482
10.3502
10.3506
10.3499
10.3476
10.3425
10.3343
10.3229
10.3077
10.2878
10.2626
10.2307
10.1911
10.142
10.0817
10.0078
9.91752
9.80727
9.67271
9.5085
9.30835
9.06495
8.77057
8.41797
7.99995
7.51896
6.96783
1.58987
3.70807
11.0699
11.2736
10.8232
10.3039
10.1309
10.1409
10.1775
10.2174
10.2339
10.2377
10.2397
10.2434
10.2482
10.2531
10.2576
10.2617
10.2653
10.2684
10.2709
10.2726
10.2734
10.2732
10.2721
10.2692
10.264
10.2567
10.2469
10.234
10.2176
10.1969
10.1714
10.14
10.1017
10.0552
9.99923
9.93181
9.85099
9.75427
9.63877
9.50104
9.33724
9.14301
8.91394
8.64555
8.33451
7.97815
7.57846
7.13073
1.55488
4.8156
11.2213
10.9521
10.3117
10.0547
10.0501
10.0766
10.124
10.1506
10.1603
10.1645
10.1688
10.1738
10.179
10.1836
10.1874
10.1906
10.193
10.1946
10.1951
10.1949
10.1939
10.1915
10.187
10.181
10.1733
10.1632
10.1501
10.1336
10.1132
10.0882
10.058
10.0217
9.97849
9.9271
9.86631
9.79451
9.70994
9.61055
9.49406
9.3579
9.19932
9.01545
8.80357
8.56123
8.287
7.98085
7.64411
7.26956
1.55578
4.82262
11.1711
10.883
10.2391
9.99962
10.0097
10.0521
10.1006
10.1223
10.1283
10.1309
10.1339
10.1371
10.1397
10.1413
10.142
10.1419
10.1413
10.1395
10.1364
10.1325
10.1276
10.1213
10.1133
10.1034
10.0912
10.0765
10.059
10.0382
10.0138
9.98518
9.95146
9.91159
9.86464
9.80977
9.74576
9.67137
9.5852
9.4856
9.37084
9.23902
9.08823
8.91651
8.72225
8.50404
8.26115
7.99309
7.70616
7.39006
1.56594
4.84173
11.2338
10.9029
10.1828
9.92218
9.93719
9.99179
10.0491
10.0736
10.08
10.0827
10.0861
10.0895
10.0918
10.0928
10.0927
10.0917
10.0893
10.0852
10.0801
10.0738
10.0661
10.0567
10.0455
10.0323
10.0167
9.99865
9.97768
9.95342
9.92522
9.89243
9.85449
9.81099
9.7612
9.70409
9.63872
9.56366
9.47771
9.37962
9.26822
9.14203
8.99988
8.84042
8.6627
8.46602
8.2507
8.01655
7.7674
7.49693
1.55626
4.81994
11.1579
10.8511
10.1587
9.89739
9.90938
9.95853
10.0147
10.039
10.0446
10.0461
10.0481
10.05
10.0507
10.0503
10.0487
10.0453
10.0405
10.0346
10.0275
10.0191
10.009
9.99714
9.98332
9.96733
9.94889
9.9278
9.90367
9.87619
9.84481
9.80913
9.76866
9.72269
9.6706
9.61146
9.54456
9.46909
9.38425
9.28894
9.18224
9.0629
8.92992
8.78248
8.62028
8.44328
8.25164
8.04478
7.82635
7.59157
1.52708
4.76236
10.9504
10.7265
10.1501
9.90197
9.90282
9.93212
9.98079
10.0041
10.0099
10.0106
10.0113
10.0115
10.0111
10.0094
10.0058
10.0007
9.99443
9.98704
9.97822
9.96784
9.9557
9.9417
9.9256
9.90731
9.88648
9.86298
9.83636
9.80639
9.77267
9.73478
9.69224
9.64447
9.59099
9.53113
9.46425
9.38961
9.30652
9.21415
9.11167
8.99855
8.87426
8.73835
8.5903
8.42983
8.25703
8.07405
7.88131
7.67529
1.51101
4.71686
10.8672
10.7315
10.2334
9.94058
9.88867
9.90698
9.9464
9.97052
9.97727
9.977
9.97584
9.97354
9.97065
9.96683
9.96175
9.95539
9.94774
9.93877
9.92828
9.9162
9.90233
9.8866
9.86876
9.84869
9.82606
9.80073
9.77234
9.74062
9.70525
9.66583
9.62205
9.57338
9.51933
9.45942
9.39315
9.31995
9.23927
9.15046
9.05299
8.94637
8.83022
8.7042
8.5682
8.4223
8.26684
8.10249
7.9305
7.74787
1.66799
3.29201
10.5052
11.0122
10.5964
10.0766
9.88835
9.89229
9.91753
9.95059
9.96132
9.96016
9.95622
9.94987
9.94403
9.93811
9.9312
9.92296
9.91331
9.90224
9.88969
9.87548
9.85946
9.84166
9.82178
9.79965
9.77498
9.74765
9.71732
9.6838
9.64676
9.60586
9.56075
9.51104
9.45636
9.39636
9.33068
9.25889
9.18053
9.0952
9.00239
8.9018
8.79317
8.67625
8.55105
8.41769
8.27649
8.12793
7.97319
7.80978
1.6759
3.16836
10.4393
11.1641
10.7154
10.1115
9.86659
9.8537
9.87144
9.90362
9.91407
9.9122
9.9062
9.89686
9.88923
9.8827
9.87576
9.86756
9.8579
9.84676
9.83408
9.81974
9.80359
9.78544
9.76518
9.7426
9.71744
9.68957
9.65868
9.62461
9.58706
9.54582
9.50063
9.45122
9.39733
9.33854
9.27446
9.20474
9.12907
9.04705
8.95843
8.86305
8.76089
8.65208
8.53643
8.41403
8.28508
8.15002
8.00981
7.86234
1.6411
3.05382
9.91049
11.0079
10.648
10.1091
9.88587
9.86497
9.87594
9.89426
9.89592
9.89198
9.88183
9.86847
9.85729
9.8476
9.8378
9.82705
9.81508
9.80185
9.78728
9.77125
9.75358
9.7341
9.71263
9.689
9.663
9.6344
9.60292
9.56841
9.53065
9.48943
9.4445
9.39558
9.34241
9.28468
9.22213
9.15449
9.08152
9.00312
8.91918
8.82948
8.73383
8.63207
8.52411
8.41031
8.29151
8.16801
8.04031
7.90644
1.4358
4.5487
10.3349
10.5112
10.2189
9.92432
9.81635
9.81372
9.82199
9.8325
9.83241
9.82888
9.81983
9.80787
9.79762
9.7885
9.77901
9.76839
9.75649
9.7433
9.72875
9.7127
9.69498
9.67543
9.65392
9.63025
9.60427
9.57572
9.54444
9.51033
9.47314
9.43262
9.38856
9.34075
9.28898
9.23301
9.17262
9.10763
9.03787
8.96321
8.88353
8.79869
8.70865
8.6134
8.51336
8.4086
8.29903
8.18486
8.0671
7.94429
1.63344
3.00238
9.72544
10.8956
10.5809
10.0807
9.8611
9.82679
9.83214
9.83862
9.83586
9.82671
9.81003
9.79422
9.78062
9.76806
9.75524
9.74141
9.72638
9.71029
9.6931
9.67462
9.65465
9.63304
9.60961
9.58424
9.55675
9.5271
9.49513
9.46052
9.42306
9.38256
9.33885
9.29178
9.24114
9.1867
9.12827
9.0657
8.99885
8.92759
8.85184
8.77157
8.68677
8.59749
8.50387
8.40604
8.30414
8.19855
8.08988
7.97688
1.6423
2.93425
9.72681
11.0207
10.6395
10.0484
9.79107
9.75752
9.76767
9.78332
9.78223
9.77509
9.75914
9.74204
9.7282
9.71608
9.70383
9.69074
9.67662
9.66125
9.64448
9.62628
9.60653
9.58512
9.56193
9.5368
9.50958
9.48013
9.44832
9.41396
9.37691
9.33704
9.29416
9.24805
9.19859
9.14565
9.08912
9.02887
8.9648
8.89682
8.82488
8.74891
8.66893
8.58497
8.49713
8.40555
8.31042
8.2122
8.11132
8.00652
1.64061
2.91496
9.67234
10.9991
10.6144
10.0083
9.7416
9.70645
9.71758
9.73592
9.73541
9.72917
9.7142
9.6966
9.68248
9.67041
9.65832
9.64526
9.63099
9.61545
9.59857
9.58028
9.56047
9.53904
9.51585
9.49077
9.46368
9.43444
9.40293
9.36901
9.33256
9.29343
9.25148
9.20657
9.15856
9.10735
9.05286
8.995
8.93369
8.86887
8.80048
8.72848
8.65291
8.57382
8.49131
8.40555
8.31659
8.22478
8.13059
8.03287
1.62625
2.92355
9.50431
10.8585
10.5487
9.99768
9.74201
9.69408
9.69878
9.70706
9.70475
9.6962
9.67898
9.66226
9.64794
9.63485
9.62164
9.60759
9.59248
9.57624
9.55878
9.54002
9.51982
9.49807
9.47465
9.44944
9.42232
9.39317
9.36188
9.32833
9.29238
9.2539
9.2128
9.16898
9.12236
9.07287
9.02038
8.9648
8.90607
8.84416
8.77904
8.7107
8.63914
8.56444
8.48668
8.40599
8.32261
8.23662
8.14835
8.05675
1.39406
4.48141
10.0341
10.3036
10.023
9.73542
9.62755
9.61839
9.62379
9.63037
9.6293
9.62408
9.61275
9.60004
9.58859
9.57774
9.56639
9.55394
9.54021
9.52516
9.50875
9.49092
9.47159
9.45068
9.42809
9.4037
9.37742
9.34915
9.31879
9.28628
9.25148
9.2143
9.17466
9.13247
9.08764
9.04011
8.98978
8.93659
8.88051
8.82152
8.75962
8.69484
8.62716
8.55661
8.48325
8.40716
8.32855
8.2475
8.16436
8.07816
1.63147
2.94726
9.59167
10.8418
10.4979
9.90906
9.63549
9.59308
9.60337
9.62381
9.6254
9.62073
9.60833
9.59101
9.57609
9.56297
9.54975
9.53549
9.51993
9.50303
9.4849
9.46538
9.44449
9.42223
9.39853
9.37326
9.34628
9.31747
9.28673
9.25397
9.21916
9.18228
9.14324
9.10194
9.0583
9.01222
8.96364
8.91252
8.85878
8.80237
8.74326
8.68145
8.61697
8.54989
8.48031
8.40832
8.33405
8.25757
8.17912
8.09777
1.64171
3.07684
9.86475
10.7738
10.3914
9.77947
9.51748
9.49729
9.51461
9.54741
9.55689
9.55422
9.54586
9.53163
9.51914
9.50827
9.4972
9.48491
9.47115
9.45602
9.43967
9.42204
9.40291
9.38216
9.3597
9.33549
9.30954
9.28179
9.25218
9.22067
9.1872
9.15167
9.114
9.07413
9.03198
8.98752
8.94069
8.89145
8.83978
8.78566
8.7291
8.67015
8.60881
8.54505
8.47895
8.41057
8.34003
8.26742
8.19297
8.11579
1.40421
4.54534
10.1029
10.1584
9.85278
9.54545
9.4459
9.4512
9.47058
9.49056
9.49629
9.49477
9.48974
9.48028
9.47095
9.46189
9.45211
9.44101
9.42844
9.41441
9.39896
9.38205
9.36359
9.3435
9.32177
9.29836
9.27324
9.24636
9.21765
9.18707
9.1546
9.1202
9.0838
9.04534
9.00477
8.96204
8.91711
8.86995
8.82054
8.76886
8.7149
8.65865
8.60017
8.53952
8.47672
8.41185
8.34495
8.27608
8.20541
8.13215
1.38816
4.55508
9.9993
10.0245
9.78283
9.55069
9.46832
9.46566
9.47182
9.48123
9.48292
9.48084
9.4749
9.46486
9.45456
9.44414
9.43294
9.42055
9.40687
9.39189
9.37563
9.35805
9.3391
9.31872
9.29684
9.27342
9.24841
9.22177
9.19346
9.16344
9.13161
9.09791
9.06229
9.0247
8.98511
8.94349
8.89978
8.85393
8.80604
8.75617
8.70427
8.65028
8.59421
8.53608
8.47592
8.41375
8.34967
8.28378
8.21624
8.1463
1.42132
4.56852
10.2113
10.1813
9.79766
9.46222
9.36901
9.38096
9.41217
9.43666
9.44359
9.44222
9.43761
9.42901
9.42005
9.41093
9.40097
9.38969
9.37694
9.36274
9.34711
9.33
9.31143
9.29138
9.26983
9.24675
9.22209
9.19583
9.16796
9.13842
9.10717
9.07416
9.03934
9.00271
8.96426
8.92397
8.88183
8.83786
8.79194
8.744
8.69406
8.64217
8.58836
8.53264
8.47503
8.41558
8.35433
8.29135
8.22674
8.15967
1.53221
3.35169
9.88726
10.7061
10.3184
9.67616
9.39219
9.36631
9.38395
9.41982
9.43398
9.43296
9.42831
9.41853
9.40807
9.39807
9.38763
9.37598
9.3629
9.34838
9.33247
9.31521
9.29654
9.27644
9.25484
9.23173
9.20701
9.18065
9.15279
9.12329
9.09213
9.05925
9.02471
8.98847
8.95052
8.91083
8.86941
8.82621
8.78123
8.73444
8.68587
8.63557
8.58341
8.52945
8.47377
8.41645
8.35751
8.29699
8.23502
8.17089
1.39654
4.53384
10.0649
10.0942
9.79125
9.46621
9.34421
9.34264
9.35404
9.37549
9.38432
9.38363
9.38011
9.37245
9.3635
9.35474
9.34555
9.33519
9.3234
9.31015
9.29548
9.27942
9.26192
9.24295
9.22247
9.20046
9.17689
9.15175
9.12508
9.09683
9.067
9.03559
9.00256
8.96783
8.93138
8.8932
8.85329
8.81164
8.76825
8.72312
8.67624
8.6276
8.57733
8.52544
8.47193
8.41682
8.36016
8.30199
8.24247
8.18103
1.39393
4.53096
10.0474
10.0813
9.77467
9.44683
9.32662
9.32691
9.33947
9.36222
9.37161
9.37073
9.36667
9.35809
9.34842
9.33893
9.32897
9.31786
9.30536
9.29147
9.27626
9.25976
9.24194
9.22279
9.20227
9.18036
9.15707
9.13238
9.10618
9.07841
9.04907
9.01812
8.98559
8.95151
8.91585
8.87862
8.83976
8.79928
8.75716
8.7134
8.66801
8.62101
8.57241
8.52225
8.47052
8.41725
8.36249
8.30627
8.24867
8.18922
1.53039
3.3397
9.84788
10.687
10.3009
9.63635
9.33243
9.29665
9.31319
9.34798
9.3632
9.36231
9.35774
9.3479
9.33708
9.32712
9.31706
9.30601
9.29359
9.27981
9.26471
9.2483
9.23056
9.21148
9.19101
9.16906
9.14579
9.12108
9.09488
9.06718
9.03797
9.00724
8.97501
8.9413
8.90609
8.86934
8.83107
8.79126
8.74991
8.70702
8.66259
8.61665
8.5692
8.52026
8.46985
8.41802
8.36478
8.31018
8.25433
8.19682
1.40795
4.54742
10.1173
10.0912
9.70601
9.35313
9.24291
9.25215
9.28142
9.3104
9.32001
9.31909
9.3152
9.30714
9.29849
9.29001
9.28097
9.27076
9.25919
9.24627
9.23204
9.21653
9.19972
9.18158
9.16209
9.14123
9.11899
9.09535
9.07028
9.04377
9.01577
8.98635
8.95548
8.92314
8.8893
8.85396
8.81712
8.77878
8.73895
8.69761
8.65474
8.61035
8.56445
8.51709
8.46827
8.41803
8.36637
8.31339
8.25917
8.2033
1.39289
4.55523
10.0064
9.98074
9.66796
9.38762
9.2991
9.30211
9.31426
9.32507
9.32561
9.32312
9.31651
9.30642
9.29639
9.28646
9.27594
9.2644
9.2517
9.23784
9.2228
9.20661
9.18925
9.17068
9.15089
9.12983
9.1075
9.08387
9.05893
9.03265
9.00505
8.97606
8.94564
8.91378
8.88047
8.8457
8.80946
8.77176
8.7326
8.692
8.64998
8.60654
8.56168
8.51539
8.46771
8.41864
8.36823
8.31647
8.26341
8.20858
1.38493
4.54752
9.95775
9.94649
9.65806
9.38636
9.29407
9.29336
9.29951
9.30721
9.30727
9.30501
9.29886
9.28895
9.27902
9.26922
9.25887
9.24757
9.23518
9.2217
9.20711
9.19139
9.17449
9.15638
9.13705
9.11646
9.09461
9.07146
9.04701
9.02123
8.9941
8.96561
8.93573
8.90446
8.8718
8.83774
8.8023
8.76545
8.72718
8.68749
8.64638
8.60385
8.55992
8.51459
8.46792
8.41995
8.37064
8.31996
8.26794
8.21413
1.37701
4.50899
9.91811
10.0306
9.73033
9.40249
9.28123
9.27719
9.28578
9.29813
9.30022
9.29787
9.29118
9.28013
9.26942
9.25927
9.24879
9.23738
9.22486
9.21122
9.19646
9.18059
9.16357
9.14539
9.12602
9.10544
9.08363
9.06058
9.03627
9.01067
8.98378
8.95558
8.92606
8.89519
8.86298
8.82941
8.79448
8.75819
8.72051
8.68147
8.64106
8.5993
8.5562
8.5118
8.46604
8.41892
8.37049
8.32078
8.26985
8.21732
1.62608
2.96852
9.52023
10.6168
10.2724
9.64669
9.33714
9.27125
9.2788
9.297
9.30444
9.30218
9.29464
9.28026
9.26707
9.25575
9.24488
9.23334
9.2207
9.20692
9.19206
9.17612
9.15909
9.14093
9.12162
9.10112
9.07941
9.05648
9.0323
9.00686
8.98013
8.95212
8.92279
8.89215
8.86017
8.82686
8.79221
8.75621
8.71887
8.68019
8.64017
8.59883
8.55616
8.5122
8.46693
8.42039
8.37263
8.32373
8.27374
8.22235
1.6354
2.8532
9.48246
10.8206
10.4143
9.67604
9.3088
9.23076
9.2413
9.26725
9.2819
9.28069
9.27456
9.26118
9.24705
9.23547
9.22503
9.21411
9.20203
9.18873
9.17429
9.15878
9.14218
9.12447
9.10561
9.08559
9.06437
9.04194
9.01829
8.99339
8.96724
8.93981
8.91109
8.88108
8.84976
8.81712
8.78317
8.74789
8.71128
8.67336
8.63411
8.59354
8.55166
8.50847
8.46399
8.41825
8.3713
8.32317
8.27395
8.22338
1.62645
2.96165
9.50493
10.6073
10.263
9.63056
9.31294
9.24526
9.25363
9.27423
9.28439
9.28251
9.27546
9.26105
9.24718
9.23547
9.22451
9.21301
9.20044
9.18675
9.172
9.15624
9.13944
9.12157
9.10261
9.08251
9.06127
9.03885
9.01525
8.99043
8.96439
8.9371
8.90856
8.87875
8.84766
8.81527
8.78159
8.74661
8.71033
8.67273
8.63384
8.59364
8.55216
8.50939
8.46535
8.42005
8.37353
8.32579
8.2769
8.22647
1.37399
4.50564
9.89874
10.0109
9.70652
9.36445
9.23576
9.23129
9.2408
9.25535
9.25847
9.25625
9.24974
9.23876
9.22816
9.21822
9.20803
9.19697
9.18485
9.17167
9.15745
9.14221
9.12593
9.10857
9.09011
9.07053
9.0498
9.02791
9.00484
8.98057
8.95507
8.92835
8.90037
8.87114
8.84063
8.80884
8.77575
8.74138
8.7057
8.66872
8.63043
8.59085
8.54996
8.50778
8.46433
8.41962
8.37365
8.32641
8.27792
8.22766
1.37977
4.54091
9.92332
9.90595
9.60632
9.32928
9.24137
9.24366
9.25435
9.26432
9.26455
9.26196
9.25501
9.24418
9.23356
9.22329
9.21258
9.20099
9.18839
9.1748
9.16021
9.14463
9.12802
9.11036
9.09163
9.07179
9.05084
9.02874
9.00549
8.98106
8.95543
8.92859
8.90053
8.87122
8.84067
8.80886
8.77577
8.74141
8.70578
8.66886
8.63065
8.59117
8.55041
8.50839
8.46511
8.42058
8.37482
8.32785
8.27967
8.22997
1.40396
4.56214
10.0537
9.98648
9.59136
9.2753
9.19244
9.20404
9.23375
9.25416
9.25672
9.25407
9.24704
9.23666
9.22671
9.21702
9.20675
9.19548
9.18314
9.16978
9.15542
9.14005
9.12365
9.10619
9.08765
9.06801
9.04726
9.02536
9.0023
8.97806
8.95263
8.92599
8.89812
8.86901
8.83865
8.80703
8.77415
8.73998
8.70454
8.66782
8.62981
8.59052
8.54995
8.50812
8.46503
8.4207
8.37515
8.3284
8.28049
8.23122
3.04352
2.45763
3.0019
4.1793
4.1254
4.10905
4.04826
4.01058
3.99764
4.00033
4.02784
4.07131
4.10837
4.13909
4.1731
4.21583
4.2675
4.32559
4.38725
4.45016
4.5126
4.57335
4.63194
4.6889
4.7399
4.7853
4.82499
4.85944
4.88858
4.91264
4.93161
4.94572
4.95503
4.95981
4.96021
4.95859
4.95326
4.94196
4.92649
4.90871
4.88866
4.8663
4.84175
4.81527
4.78713
4.7576
4.72693
4.69538
4.66315
4.6305
4.59761
4.56472
4.53201
4.49969
4.46796
4.43703
4.40707
4.37831
4.35092
4.32511
4.30107
4.27899
4.25905
4.24141
4.22624
4.21366
4.20375
4.19657
4.19209
4.19033
4.19049
4.19143
4.19414
4.20028
4.21175
4.2246
4.23781
4.25123
4.26471
4.27795
4.29061
4.30235
4.31292
4.32212
4.32984
4.33602
4.34067
4.34381
4.34557
4.34612
4.34604
4.34565
4.34456
4.34218
4.33815
4.33372
4.32917
4.32448
4.31948
4.31514
4.09581
3.55317
3.75554
4.23367
4.1513
4.09479
4.03563
3.99531
3.98357
3.9957
4.03665
4.08696
4.11871
4.14071
4.16979
4.21072
4.262
4.32002
4.38155
4.44435
4.50671
4.5676
4.62647
4.68317
4.73425
4.77964
4.81946
4.85403
4.88332
4.9075
4.92659
4.9408
4.95019
4.95499
4.95522
4.95404
4.94977
4.93977
4.92277
4.90436
4.88448
4.86245
4.83815
4.81183
4.78381
4.7544
4.72385
4.6924
4.66028
4.62773
4.59494
4.56212
4.52949
4.49725
4.46558
4.4347
4.40479
4.37607
4.34872
4.32294
4.29892
4.27686
4.25693
4.23932
4.22418
4.21164
4.2018
4.19471
4.19043
4.18916
4.1894
4.19043
4.19319
4.19925
4.21072
4.22385
4.23742
4.25114
4.26483
4.27823
4.29103
4.3029
4.31357
4.32283
4.33059
4.33677
4.3414
4.34451
4.34621
4.34668
4.34658
4.34617
4.34509
4.34274
4.3386
4.33403
4.3294
4.32478
4.32001
4.3173
5.22518
4.46395
4.23532
4.26713
4.24798
4.19564
4.11382
4.06092
4.04076
4.04318
4.05557
4.08465
4.11993
4.15133
4.18449
4.22517
4.27415
4.32971
4.3891
4.45004
4.51082
4.5703
4.62764
4.68219
4.73241
4.7773
4.8167
4.85079
4.87964
4.90341
4.92214
4.93598
4.94502
4.94939
4.94931
4.94822
4.94457
4.93594
4.91865
4.89925
4.87876
4.85662
4.83244
4.80628
4.77838
4.74908
4.71863
4.68729
4.65529
4.62286
4.59018
4.55749
4.52497
4.49282
4.46126
4.43047
4.40066
4.37202
4.34475
4.31904
4.2951
4.27312
4.25327
4.23574
4.22069
4.20828
4.1986
4.19177
4.1879
4.18731
4.18762
4.18879
4.19171
4.19796
4.20936
4.22272
4.23679
4.25103
4.26518
4.27894
4.29202
4.30411
4.31494
4.32432
4.33212
4.33831
4.34287
4.34589
4.34752
4.34777
4.34764
4.34717
4.34598
4.34346
4.33923
4.33452
4.32978
4.3252
4.32061
4.31962
5.82862
5.09542
4.66256
4.46602
4.42726
4.36165
4.26958
4.18926
4.13736
4.11691
4.11917
4.13015
4.15617
4.19317
4.22675
4.26166
4.30254
4.35027
4.40333
4.45941
4.51648
4.57303
4.62784
4.68018
4.72863
4.77242
4.81104
4.84438
4.87254
4.89569
4.91388
4.9272
4.93577
4.93957
4.9394
4.93827
4.9349
4.92712
4.91122
4.8911
4.86973
4.84716
4.82297
4.79701
4.76938
4.74034
4.71016
4.67908
4.64734
4.61515
4.58273
4.55027
4.51799
4.48607
4.45472
4.42415
4.39454
4.3661
4.33902
4.3135
4.28975
4.26794
4.24828
4.23094
4.2161
4.20391
4.1945
4.18808
4.18481
4.18483
4.18527
4.18667
4.18995
4.19679
4.208
4.22142
4.23594
4.25083
4.2656
4.27987
4.29332
4.30568
4.31669
4.32617
4.33402
4.34019
4.34469
4.34763
4.34908
4.34907
4.34888
4.34828
4.34687
4.34399
4.33977
4.33502
4.33016
4.32561
4.32125
4.32134
6.23165
5.59658
5.12188
4.83266
4.68387
4.57107
4.45983
4.3584
4.28091
4.23335
4.21345
4.21437
4.22062
4.23695
4.26947
4.30227
4.33856
4.37986
4.426
4.47576
4.52758
4.57991
4.63127
4.68054
4.72669
4.76873
4.80609
4.83828
4.86545
4.88778
4.90516
4.91776
4.92568
4.92871
4.92845
4.92721
4.92385
4.9164
4.90134
4.88158
4.85977
4.83663
4.81215
4.7862
4.75878
4.73003
4.70016
4.66939
4.63796
4.60609
4.57397
4.54181
4.50983
4.47821
4.44716
4.41688
4.38757
4.35942
4.33264
4.30741
4.28395
4.26244
4.24308
4.22604
4.21153
4.19968
4.19073
4.18482
4.18231
4.18245
4.18313
4.18491
4.18879
4.19658
4.20752
4.2208
4.23557
4.25097
4.26632
4.2811
4.29494
4.30755
4.31872
4.32827
4.33613
4.34225
4.34669
4.3495
4.3506
4.35053
4.3502
4.34937
4.34757
4.34435
4.34015
4.33539
4.33046
4.32591
4.32189
4.3222
6.53873
6.00358
5.54887
5.20503
4.97204
4.80571
4.66874
4.54958
4.45154
4.37942
4.33408
4.31214
4.31188
4.31506
4.32573
4.34887
4.38123
4.41722
4.456
4.49791
4.54257
4.58885
4.63527
4.68057
4.72359
4.76332
4.79892
4.82987
4.856
4.87738
4.89385
4.90568
4.91294
4.91518
4.91485
4.9135
4.91005
4.90264
4.88803
4.86911
4.84743
4.82397
4.79916
4.7731
4.74583
4.71739
4.68791
4.65756
4.62656
4.59509
4.56339
4.53165
4.50008
4.46888
4.43825
4.4084
4.37952
4.35181
4.32546
4.30068
4.27766
4.2566
4.23769
4.22109
4.20705
4.19574
4.18736
4.18198
4.18028
4.18052
4.18142
4.18364
4.1883
4.19673
4.20776
4.22097
4.23577
4.25138
4.26707
4.28222
4.29635
4.30916
4.32043
4.33001
4.33785
4.34394
4.34828
4.35093
4.35167
4.35155
4.35111
4.35004
4.34784
4.3444
4.34013
4.33535
4.3304
4.32587
4.32211
4.32252
6.78297
6.3324
5.91475
5.5556
5.275
5.06329
4.89563
4.75574
4.6387
4.54522
4.47652
4.43174
4.40823
4.40233
4.40396
4.41063
4.42637
4.45482
4.48661
4.52187
4.55989
4.59976
4.64048
4.68104
4.72034
4.75725
4.79077
4.82022
4.84518
4.86554
4.88124
4.89231
4.89884
4.90031
4.89991
4.89844
4.89482
4.88719
4.87306
4.85481
4.83353
4.81009
4.78514
4.75902
4.73184
4.70367
4.67459
4.64471
4.61419
4.58322
4.55201
4.52077
4.48971
4.45903
4.42894
4.39962
4.37129
4.34414
4.31836
4.29415
4.27172
4.25126
4.23294
4.217
4.20357
4.19286
4.18507
4.18029
4.17944
4.17976
4.18087
4.18349
4.18893
4.19794
4.20923
4.2224
4.23705
4.25256
4.26823
4.28344
4.29766
4.31053
4.32183
4.33141
4.33922
4.34522
4.34944
4.35193
4.35235
4.3522