/*--------------------------------*- C++ -*----------------------------------*\
| =========                 |                                                 |
| \\      /  F ield         | OpenFOAM: The Open Source CFD Toolbox           |
|  \\    /   O peration     | Version:  2412                                  |
|   \\  /    A nd           | Website:  www.openfoam.com                      |
|    \\/     M anipulation  |                                                 |
\*---------------------------------------------------------------------------*/
FoamFile
{
    version     2.0;
    format      ascii;
    arch        "LSB;label=32;scalar=64";
    class       surfaceScalarField;
    location    "19";
    object      phi;
}
// * * * * * * * * * * * * * * * * * * * * * * * * * * * * * * * * * * * * * //

dimensions      [1 0 -1 0 0 0 0];

oriented        oriented;

internalField   nonuniform List<scalar> 
13790
(
0.00292375
-1.97241e-07
0.00274461
9.30784e-07
0.00280399
3.25091e-06
0.00280524
5.58675e-06
0.00279921
6.47393e-06
0.00279207
7.1656e-06
0.00278411
7.95806e-06
0.00277519
8.90787e-06
0.0027652
9.99535e-06
0.00275395
1.12396e-05
0.00274138
1.25716e-05
0.00272742
1.39526e-05
0.00271203
1.53853e-05
0.00269514
1.68864e-05
0.00267667
1.84685e-05
0.00265653
2.01374e-05
0.00263463
2.18964e-05
0.00261088
2.37498e-05
0.00258517
2.57039e-05
0.0025574
2.77658e-05
0.00252746
2.9944e-05
0.00249521
3.2247e-05
0.00246052
3.46841e-05
0.00242325
3.7265e-05
0.00238325
4.00004e-05
0.00234035
4.29007e-05
0.00229437
4.59773e-05
0.00224513
4.92408e-05
0.00219242
5.27022e-05
0.00213605
5.63713e-05
0.00207579
6.02573e-05
0.00201142
6.43668e-05
0.00194271
6.8705e-05
0.00186944
7.32719e-05
0.00179137
7.80651e-05
0.0017083
8.30731e-05
0.00162002
8.82811e-05
0.00152635
9.36592e-05
0.00142718
9.91739e-05
0.00132241
0.00010477
0.00121202
0.000110389
0.00109607
0.000115944
0.000974713
0.000121354
0.000848213
0.000126498
0.000716919
0.000131291
0.000581312
0.000135605
0.000441838
0.000139471
0.000299166
0.000142672
0.000152281
0.000146885
0.00015228
0.00303218
2.03746e-08
0.00284628
8.41922e-07
0.00290646
8.61213e-06
0.00290778
1.12869e-05
0.00290191
1.28095e-05
0.00289473
1.43763e-05
0.00288653
1.61489e-05
0.00287728
1.8151e-05
0.00286689
2.03903e-05
0.00285522
2.29057e-05
0.00284219
2.55978e-05
0.00282773
2.84026e-05
0.0028118
3.13211e-05
0.0027943
3.43811e-05
0.00277516
3.76045e-05
0.00275429
4.10035e-05
0.0027316
4.45851e-05
0.00270698
4.83596e-05
0.00268035
5.23384e-05
0.00265157
5.65378e-05
0.00262054
6.0973e-05
0.00258712
6.5663e-05
0.00255118
7.06254e-05
0.00251256
7.58816e-05
0.0024711
8.14517e-05
0.00242664
8.73587e-05
0.00237899
9.36243e-05
0.00232796
0.000100272
0.00227334
0.000107322
0.00221491
0.000114797
0.00215245
0.000122714
0.00208573
0.000131088
0.0020145
0.000139931
0.00193853
0.00014924
0.00185758
0.000159016
0.00177142
0.00016923
0.00167984
0.000179861
0.00158266
0.000190841
0.00147972
0.00020211
0.00137094
0.000213551
0.00125627
0.000225051
0.00113578
0.000236429
0.00100961
0.000247524
0.000878012
0.000258094
0.00074136
0.000267941
0.000600112
0.000276851
0.000454842
0.000284738
0.00030609
0.000291423
0.000154202
0.000298772
0.000306481
0.00314489
9.21051e-08
0.0029518
1.21153e-06
0.00301441
1.38832e-05
0.00301568
1.72727e-05
0.00300969
1.92929e-05
0.00300238
2.17202e-05
0.00299395
2.45698e-05
0.0029844
2.77002e-05
0.00297363
3.11526e-05
0.00296155
3.49853e-05
0.00294807
3.90769e-05
0.00293312
4.33469e-05
0.00291663
4.78065e-05
0.00289853
5.24803e-05
0.00287872
5.74079e-05
0.00285713
6.25952e-05
0.00283364
6.80677e-05
0.00280817
7.38263e-05
0.0027806
7.99058e-05
0.00275082
8.63121e-05
0.0027187
9.30889e-05
0.00268412
0.000100243
0.00264692
0.000107825
0.00260695
0.000115843
0.00256405
0.000124354
0.00251804
0.000133364
0.00246872
0.00014294
0.00241591
0.000153081
0.00235937
0.000163858
0.0022989
0.000175265
0.00223424
0.000187371
0.00216517
0.000200156
0.00209142
0.000213682
0.00201275
0.000227906
0.0019289
0.000242869
0.00183963
0.000258494
0.00174472
0.000274776
0.00164396
0.000291598
0.00153719
0.000308876
0.00142429
0.000326443
0.00130525
0.000344096
0.00118005
0.000361627
0.00104889
0.000378675
0.000911945
0.00039504
0.000769665
0.000410218
0.000622492
0.000424022
0.000471051
0.000436177
0.000316165
0.000446308
0.000158594
0.000456345
0.000465073
0.00326182
1.1612e-07
0.00306155
1.6687e-06
0.00312672
1.90833e-05
0.00312804
2.34629e-05
0.00312187
2.59836e-05
0.00311438
2.92354e-05
0.00310575
3.31981e-05
0.00309591
3.75322e-05
0.0030848
4.2268e-05
0.00307231
4.74658e-05
0.00305839
5.29925e-05
0.00304296
5.87775e-05
0.00302594
6.48254e-05
0.00300724
7.11761e-05
0.00298678
7.78609e-05
0.00296447
8.49058e-05
0.0029402
9.23247e-05
0.00291388
0.000100144
0.0028854
0.000108384
0.00285463
0.000117084
0.00282145
0.000126266
0.00278571
0.000135982
0.00274728
0.000146253
0.00270597
0.000157143
0.00266165
0.00016867
0.0026141
0.000180913
0.00256316
0.00019388
0.00250857
0.000207664
0.00245017
0.000222259
0.00238766
0.000237772
0.00232086
0.000254169
0.00224944
0.000271571
0.00217323
0.000289899
0.00209185
0.000309279
0.00200515
0.000329569
0.00191275
0.000350887
0.00181453
0.000372997
0.00171014
0.000395984
0.00159952
0.0004195
0.00148242
0.000443542
0.00135885
0.000467664
0.0012288
0.000491667
0.00109236
0.000515111
0.000949928
0.000537473
0.000801614
0.000558528
0.000648236
0.000577398
0.000490304
0.000594106
0.000328668
0.000607943
0.00016476
0.000620253
0.000629832
0.00338306
1.39523e-07
0.00317538
2.1578e-06
0.00324313
2.431e-05
0.00324458
2.97848e-05
0.00323825
3.2848e-05
0.00323059
3.69302e-05
0.00322178
4.20067e-05
0.00321167
4.76349e-05
0.00320022
5.3714e-05
0.00318736
6.03214e-05
0.00317303
6.73225e-05
0.00315713
7.46727e-05
0.00313959
8.23575e-05
0.00312032
9.04449e-05
0.00309924
9.89421e-05
0.00307623
0.000107909
0.00305122
0.000117334
0.00302407
0.000127284
0.00299471
0.00013775
0.00296297
0.000148816
0.00292875
0.000160479
0.0028919
0.000172835
0.00285226
0.000185883
0.00280967
0.000199729
0.00276397
0.000214376
0.00271494
0.000229938
0.00266239
0.000246423
0.00260611
0.000263942
0.00254586
0.000282511
0.0024814
0.000302226
0.00241245
0.000323112
0.00233879
0.000345227
0.00226008
0.000368608
0.00217612
0.000393244
0.00208651
0.000419179
0.0019911
0.000446289
0.00188947
0.000474629
0.00178156
0.000503889
0.00166692
0.000534138
0.00154565
0.000564806
0.00141736
0.000595952
0.00128231
0.000626719
0.0011404
0.000657022
0.000991916
0.000685951
0.000837462
0.000712979
0.000677144
0.000737713
0.000512226
0.000759022
0.000343475
0.000776692
0.000172035
0.000791694
0.000801865
0.00350881
1.63221e-07
0.00329345
2.65327e-06
0.00336389
2.95806e-05
0.00336549
3.62095e-05
0.00335904
3.9873e-05
0.00335121
4.47874e-05
0.00334216
5.10559e-05
0.00333185
5.79382e-05
0.00332014
6.54293e-05
0.00330695
7.3507e-05
0.00329221
8.20552e-05
0.00327588
9.10008e-05
0.00325784
0.000100395
0.00323803
0.000110251
0.00321632
0.000120645
0.00319266
0.000131566
0.0031669
0.000143089
0.00313898
0.000155199
0.00310873
0.000167993
0.00307609
0.000181456
0.00304085
0.000195714
0.00300294
0.00021074
0.00296213
0.00022669
0.00291833
0.000243527
0.00287127
0.000261435
0.00282085
0.000280359
0.00276675
0.000300518
0.00270886
0.000321831
0.00264683
0.000344544
0.0025805
0.000368549
0.00250951
0.000394102
0.00243366
0.000421068
0.00235258
0.000449685
0.00226604
0.000479788
0.00217366
0.00051155
0.00207517
0.000544778
0.00197029
0.000579509
0.00185865
0.000615526
0.00174017
0.000652621
0.00161439
0.000690578
0.00148155
0.000728797
0.00134108
0.000767178
0.00119357
0.000804533
0.00103875
0.000840764
0.000877301
0.000874429
0.000709974
0.000905038
0.000537031
0.000931961
0.000360121
0.000953602
0.000180623
0.000971192
0.000982487
0.00363925
1.8726e-07
0.0034159
3.15053e-06
0.00348915
3.48902e-05
0.00349095
4.27115e-05
0.00348442
4.70086e-05
0.00347645
5.27844e-05
0.00346726
6.02521e-05
0.00345672
6.8465e-05
0.00344475
7.74009e-05
0.00343124
8.70113e-05
0.00341615
9.71423e-05
0.00339939
0.000107752
0.00338089
0.000118888
0.00336055
0.000130593
0.00333828
0.000142914
0.00331396
0.000155878
0.00328752
0.000169527
0.00325882
0.000183897
0.00322777
0.000199041
0.0031942
0.000215016
0.00315803
0.000231881
0.00311906
0.000249712
0.00307718
0.000268569
0.00303214
0.000288554
0.00298386
0.000309715
0.00293203
0.00033219
0.00287654
0.000356004
0.00281703
0.000381335
0.0027534
0.000408168
0.00268522
0.000436726
0.00261239
0.000466932
0.0025344
0.000499055
0.00245116
0.000532927
0.0023621
0.000568842
0.00226712
0.000606526
0.00216567
0.000646233
0.00205759
0.000687588
0.0019424
0.00073071
0.0018199
0.000775117
0.00168982
0.00082066
0.00155185
0.000866767
0.00140622
0.000912802
0.00125242
0.00095833
0.00109119
0.00100199
0.000922295
0.00104332
0.000746698
0.00108063
0.000565535
0.00111312
0.000379438
0.0011397
0.00019015
0.00116048
0.00117264
0.00377455
2.11449e-07
0.00354289
3.64686e-06
0.00361909
4.02217e-05
0.00362113
4.92617e-05
0.00361456
5.42159e-05
0.0036065
6.08823e-05
0.00359718
6.95678e-05
0.00358648
7.91606e-05
0.00357428
8.95949e-05
0.00356051
0.000100783
0.00354509
0.000112551
0.00352797
0.000124874
0.00350904
0.000137809
0.00348822
0.00015141
0.00346541
0.000165722
0.0034405
0.000180777
0.00341341
0.00019662
0.003384
0.000213296
0.00335218
0.000230867
0.00331779
0.000249396
0.00328071
0.000268959
0.00324079
0.000289631
0.00319785
0.000311505
0.00315173
0.000334665
0.00310223
0.00035922
0.00304916
0.000385257
0.00299225
0.000412907
0.00293134
0.000442247
0.00286607
0.000473434
0.00279628
0.000506514
0.00272154
0.000541672
0.0026417
0.000578892
0.00255622
0.000618403
0.002465
0.000660061
0.00236738
0.000704145
0.00226328
0.000750324
0.00215201
0.000798862
0.00203348
0.000849229
0.00190706
0.00090154
0.00177263
0.000955084
0.00162979
0.00100961
0.00147828
0.0010643
0.00131843
0.00111818
0.00114975
0.00117067
0.000973225
0.00121984
0.000788854
0.001265
0.000597618
0.00130435
0.00040135
0.00133596
0.000201558
0.00136027
0.00137419
0.00391489
2.35653e-07
0.0036746
4.13898e-06
0.00375391
4.5545e-05
0.00375622
5.58219e-05
0.00374966
6.14566e-05
0.00374155
6.90339e-05
0.00373213
7.89861e-05
0.00372132
8.99624e-05
0.00370897
0.000101948
0.00369497
0.000114772
0.00367928
0.000128233
0.00366183
0.000142321
0.00364253
0.00015711
0.00362127
0.00017266
0.00359797
0.000189017
0.00357253
0.000206217
0.00354484
0.000224309
0.00351478
0.000243345
0.00348225
0.000263398
0.0034471
0.000284539
0.0034092
0.000306853
0.0033684
0.000330432
0.00332453
0.000355374
0.0032774
0.000381786
0.00322684
0.000409781
0.00317261
0.000439481
0.00311451
0.000471007
0.00305226
0.000504495
0.00298562
0.000540063
0.00291427
0.000577862
0.00283796
0.000617986
0.00275625
0.000660599
0.00266892
0.000705729
0.00257542
0.000753563
0.00247558
0.00080398
0.00236869
0.000857212
0.00225467
0.000912874
0.00213267
0.000971234
0.00200269
0.00103152
0.00186383
0.00109394
0.00171616
0.00115728
0.00155903
0.00122143
0.00139232
0.00128489
0.00121645
0.00134653
0.00103081
0.00140548
0.000836916
0.00145889
0.000635281
0.00150598
0.000427023
0.00154422
0.000214245
0.00157305
0.00158844
0.00406047
2.59521e-07
0.00381119
4.62286e-06
0.00389381
5.08128e-05
0.00389645
6.2341e-05
0.00388996
6.86707e-05
0.00388185
7.71874e-05
0.00387243
8.84e-05
0.00386154
0.000100844
0.00384907
0.000114419
0.00383491
0.000128925
0.00381901
0.000144129
0.00380129
0.000160039
0.00378166
0.000176731
0.00376003
0.000194286
0.00373631
0.000212736
0.00371038
0.000232137
0.00368217
0.000252523
0.00365153
0.000273976
0.00361837
0.000296555
0.00358254
0.000320362
0.00354392
0.000345473
0.00350233
0.000372013
0.00345763
0.000400071
0.00340962
0.000429792
0.00335812
0.000461282
0.00330289
0.000494704
0.00324372
0.000530174
0.00318035
0.000567871
0.00311249
0.000607916
0.00303985
0.000650498
0.0029621
0.000695732
0.0028789
0.000743798
0.00278984
0.000794787
0.00269455
0.000848844
0.00259252
0.000906007
0.00248341
0.000966322
0.00236653
0.00102976
0.00224164
0.00109612
0.00210784
0.00116532
0.00196508
0.0012367
0.00181226
0.00131009
0.0016496
0.00138409
0.00147609
0.0014584
0.0012919
0.00153071
0.00109757
0.00159981
0.000892407
0.00166405
0.000678308
0.00172008
0.000456718
0.00176581
0.000229855
0.00179991
0.00181829
0.00421147
2.828e-07
0.00395286
5.09255e-06
0.00403897
5.5962e-05
0.00404203
6.87548e-05
0.00403565
7.58149e-05
0.00402761
8.527e-05
0.0040182
9.78095e-05
0.00400736
0.000111683
0.00399487
0.000126903
0.00398063
0.00014316
0.00396458
0.000160176
0.00394666
0.000177955
0.00392677
0.000196611
0.00390484
0.000216212
0.00388076
0.000236816
0.00385444
0.000258453
0.00382576
0.000281193
0.00379464
0.000305092
0.00376094
0.000330253
0.00372454
0.000356753
0.0036853
0.000384716
0.00364306
0.000414242
0.00359766
0.000445471
0.00354892
0.000478528
0.00349663
0.000513569
0.00344059
0.000550743
0.00338054
0.000590218
0.00331624
0.000632165
0.0032474
0.000676758
0.00317371
0.000724188
0.00309482
0.000774615
0.00301037
0.000828246
0.00291996
0.000885199
0.00282312
0.000945678
0.00271941
0.00100972
0.00260824
0.00107748
0.00248914
0.00114885
0.00236139
0.00122387
0.00222452
0.00130219
0.00207762
0.00138359
0.00192037
0.00146733
0.00175169
0.00155277
0.00157159
0.00163849
0.00137893
0.00172336
0.00117401
0.00180473
0.000957731
0.00188033
0.00072983
0.00194798
0.000492301
0.00200334
0.00024751
0.0020447
0.0020658
0.00436809
3.03478e-07
0.00409979
5.54332e-06
0.00418965
6.08904e-05
0.00419319
7.49872e-05
0.00418702
8.28136e-05
0.00417915
9.31864e-05
0.00416992
0.000107035
0.00415915
0.000122444
0.0041467
0.000139355
0.00413244
0.000157412
0.00411633
0.000176284
0.00409828
0.000196001
0.00407822
0.00021666
0.00405606
0.000238372
0.00403171
0.000261157
0.00400507
0.000285093
0.00397605
0.000310204
0.00394453
0.00033661
0.00391042
0.000364362
0.00387355
0.000393613
0.00383383
0.00042443
0.00379108
0.000456996
0.00374515
0.000491393
0.00369584
0.000527839
0.00364297
0.000566426
0.00358631
0.000607408
0.00352564
0.000650884
0.00346065
0.000697144
0.00339112
0.000746291
0.00331666
0.00079864
0.00323698
0.000854296
0.00315164
0.000913581
0.00306025
0.00097659
0.00296231
0.00104362
0.00285729
0.00111473
0.00274465
0.00119012
0.00262368
0.00126983
0.00249378
0.00135377
0.00235402
0.00144195
0.00220382
0.00153378
0.002042
0.00162915
0.00186808
0.00172668
0.00168078
0.00182578
0.00147993
0.00192422
0.00126437
0.00202028
0.00103402
0.00211068
0.000790442
0.00219155
0.000534728
0.00225905
0.000270105
0.00230933
0.0023359
0.00453057
3.16046e-07
0.00425216
5.9802e-06
0.00434607
6.54514e-05
0.00435019
8.09659e-05
0.00434426
8.96221e-05
0.00433672
0.000100786
0.00432771
0.000116037
0.00431717
0.000132977
0.00430488
0.000151639
0.00429072
0.000171569
0.00427462
0.000192377
0.00425654
0.000214074
0.0042364
0.000236803
0.00421411
0.000260655
0.00418958
0.000285685
0.00416273
0.000311933
0.00413346
0.000339474
0.00410168
0.000368386
0.00406725
0.000398782
0.00403009
0.000430771
0.00399002
0.00046449
0.00394694
0.000500073
0.00390065
0.000537685
0.003851
0.000577485
0.00379776
0.000619665
0.00374075
0.000664409
0.0036797
0.000711938
0.00361437
0.00076246
0.00354444
0.000816222
0.00346963
0.000873446
0.00338952
0.000934409
0.00330377
0.000999326
0.00321185
0.00106851
0.00311335
0.00114211
0.0030076
0.00122048
0.00289407
0.00130365
0.00277194
0.00139196
0.00264047
0.00148523
0.00249873
0.00158369
0.00234564
0.00168687
0.00218032
0.00179447
0.00200115
0.00190585
0.00180749
0.00201944
0.00159748
0.00213422
0.00137094
0.00224682
0.00112699
0.00235463
0.000865194
0.00245334
0.00058746
0.00253679
0.000296633
0.00260015
0.00263253
0.00469911
3.26596e-07
0.00441018
6.38136e-06
0.00450833
6.96431e-05
0.00451319
8.6516e-05
0.00450777
9.59887e-05
0.00450065
0.000107967
0.00449204
0.000124643
0.00448183
0.000143181
0.00446981
0.000163657
0.00445583
0.000185543
0.00443986
0.000208339
0.00442184
0.000232086
0.00440172
0.000256923
0.00437939
0.000282975
0.0043548
0.000310268
0.00432785
0.000338881
0.00429847
0.000368851
0.00426654
0.000400312
0.00423198
0.000433336
0.00419465
0.000468097
0.00415445
0.000504686
0.0041112
0.000543315
0.00406479
0.000584091
0.00401501
0.000627269
0.00396169
0.000672976
0.00390459
0.000721504
0.00384352
0.000773008
0.00377817
0.00082781
0.00370828
0.000886104
0.0036335
0.000948223
0.00355349
0.00101442
0.00346781
0.001085
0.00337601
0.0011603
0.00327754
0.00124057
0.00317182
0.0013262
0.00305812
0.00141734
0.00293569
0.00151439
0.00280354
0.00161738
0.00266072
0.00172651
0.00250589
0.00184169
0.00233778
0.00196258
0.00215487
0.00208876
0.00195515
0.00221915
0.00173736
0.002352
0.00149874
0.00248544
0.0012386
0.00261476
0.000956587
0.00273535
0.000653273
0.0028401
0.000332522
0.0029209
0.00296505
0.00487395
3.46838e-07
0.00457407
6.7023e-06
0.00467661
7.3515e-05
0.00468245
9.13909e-05
0.0046779
0.000101564
0.00467133
0.000114609
0.00466328
0.000132681
0.00465356
0.000152895
0.0046419
0.00017532
0.00462822
0.000199211
0.00461249
0.000224063
0.00459465
0.000249917
0.00457465
0.00027692
0.00455242
0.000305205
0.00452788
0.000334804
0.00450096
0.000365789
0.00447159
0.000398218
0.00443969
0.000432213
0.00440513
0.000467883
0.00436785
0.000505378
0.00432768
0.000544849
0.00428454
0.000586456
0.00423822
0.000630407
0.00418861
0.000676867
0.00413547
0.000726111
0.00407868
0.000778297
0.0040179
0.000833785
0.00395299
0.000892714
0.00388354
0.000955548
0.00380937
0.00102239
0.00372996
0.00109382
0.00364505
0.00116991
0.00355401
0.00125133
0.00345643
0.00133815
0.00335158
0.00143105
0.00323876
0.00153016
0.0031171
0.00163605
0.00298553
0.00174895
0.00284291
0.00186913
0.00268774
0.00199686
0.00251833
0.00213199
0.00233276
0.00227433
0.00212881
0.0024231
0.00190366
0.00257715
0.00165515
0.00273394
0.00137939
0.00289052
0.00107443
0.00304031
0.000739548
0.00317497
0.000377701
0.00328275
0.00334275
0.0050553
3.60912e-07
0.00474405
6.9654e-06
0.00485155
7.66516e-05
0.00485852
9.54477e-05
0.0048549
0.000106291
0.00484918
0.000120408
0.00484186
0.000139997
0.00483279
0.000161957
0.00482169
0.000186414
0.00480847
0.000212419
0.0047931
0.000239434
0.00477556
0.000267445
0.0047558
0.00029668
0.00473378
0.00032722
0.00470941
0.000359168
0.00468267
0.000392518
0.00465346
0.000427429
0.00462174
0.000463926
0.00458737
0.000502244
0.00455032
0.000542421
0.00451042
0.000584748
0.0044676
0.00062927
0.00442167
0.000676339
0.00437252
0.000726009
0.00431994
0.000778691
0.00426376
0.000834464
0.00420376
0.000893786
0.00413969
0.000956783
0.00407129
0.00102394
0.0039982
0.00109548
0.00392016
0.00117186
0.00383662
0.00125345
0.00374728
0.00134066
0.00365139
0.00143404
0.00354853
0.00153391
0.00343769
0.001641
0.00331819
0.00175554
0.00318875
0.00187838
0.00304814
0.00200974
0.00289471
0.00215028
0.00272642
0.00230027
0.00254077
0.00245998
0.00233474
0.00262912
0.00210497
0.00280691
0.00184635
0.00299256
0.00155517
0.00318169
0.00122623
0.00336925
0.000855745
0.00354545
0.000444113
0.00369438
0.00378686
0.00524339
3.6899e-07
0.00492038
7.13786e-06
0.00503327
7.87832e-05
0.00504172
9.83464e-05
0.00503936
0.000109863
0.00503475
0.000125094
0.00502839
0.000146358
0.00502017
0.000170167
0.00500981
0.000196769
0.00499718
0.000225042
0.00498229
0.000254317
0.00496516
0.000284573
0.00494575
0.000316076
0.00492406
0.000348908
0.00490002
0.000383203
0.00487359
0.000418945
0.00484472
0.000456294
0.00481334
0.000495302
0.00477939
0.000536184
0.00474277
0.000579037
0.00470341
0.0006241
0.00466116
0.000671516
0.00461595
0.000721544
0.00456757
0.000774385
0.00451595
0.000830309
0.00446081
0.000889599
0.00440207
0.000952527
0.00433937
0.00101947
0.0042726
0.00109071
0.00420133
0.00116674
0.00412534
0.00124785
0.00404415
0.00133463
0.00395736
0.00142745
0.00386443
0.00152696
0.00376465
0.00163369
0.0036574
0.00174824
0.00354152
0.00187142
0.00341615
0.00200374
0.00327961
0.00214628
0.00313029
0.0022996
0.00296608
0.00246448
0.0027839
0.00264216
0.00258004
0.00283298
0.00235068
0.00303626
0.00208924
0.003254
0.00178647
0.00348445
0.00143336
0.00372235
0.00101964
0.00395917
0.000538152
0.00417587
0.00432501
0.00543848
3.69963e-07
0.00510328
7.1903e-06
0.00522214
7.9536e-05
0.00523251
9.96358e-05
0.00523184
0.000111844
0.00522873
0.000128299
0.00522368
0.000151399
0.00521654
0.000177301
0.00520705
0.000206251
0.00519513
0.000236959
0.00518085
0.000268586
0.00516424
0.000301178
0.00514534
0.000334975
0.00512408
0.000370163
0.00510049
0.000406785
0.0050745
0.000444932
0.00504612
0.000484665
0.00501526
0.000526157
0.00498192
0.000569523
0.00494596
0.000614986
0.00490737
0.000662683
0.004866
0.000712883
0.00482179
0.000765748
0.00477458
0.000821593
0.00472426
0.000880625
0.00467066
0.000943196
0.0046136
0.00100958
0.00455291
0.00108016
0.00448832
0.00115531
0.00441964
0.00123542
0.00434647
0.00132102
0.00426859
0.00141251
0.00418544
0.0015106
0.00409669
0.00161571
0.00400162
0.00172876
0.00389955
0.0018503
0.00378967
0.0019813
0.00367062
0.00212279
0.00354144
0.00227546
0.00339944
0.0024416
0.00324351
0.00262041
0.00307143
0.00281423
0.00287665
0.00302776
0.00265179
0.00326112
0.00239138
0.0035144
0.0020859
0.00378993
0.00171798
0.00409027
0.00126608
0.00441106
0.000701243
0.00474071
0.00502626
0.00564082
3.49851e-07
0.00529301
7.09497e-06
0.00541859
7.83429e-05
0.00543149
9.87061e-05
0.00543307
0.000111696
0.00543188
0.000129595
0.00542844
0.000154826
0.00542264
0.000183096
0.00541415
0.000214737
0.00540304
0.000248053
0.00538946
0.000282159
0.00537351
0.000317127
0.0053552
0.000353275
0.00533455
0.000390805
0.00531155
0.000429781
0.00528622
0.000470259
0.00525851
0.000512371
0.00522843
0.000556229
0.0051959
0.000602046
0.00516093
0.000649957
0.00512338
0.000700226
0.00508326
0.000753
0.00504039
0.000808607
0.00499478
0.000867202
0.00494621
0.000929192
0.00489465
0.000994748
0.00483987
0.00106436
0.00478178
0.00113824
0.00472013
0.00121695
0.00465476
0.00130079
0.00458538
0.00139039
0.00451169
0.00148619
0.00443342
0.00158887
0.00435001
0.00169912
0.00426117
0.0018176
0.004166
0.00194547
0.00406416
0.00208313
0.00395409
0.00223286
0.00383572
0.00239383
0.00370882
0.0025685
0.00356681
0.00276242
0.00340584
0.00297519
0.00322581
0.00320778
0.00302107
0.00346586
0.0027811
0.00375437
0.00249012
0.0040809
0.00212835
0.00445204
0.00165431
0.00488509
0.000999288
0.00539574
0.00602554
0.00585085
1.94078e-07
0.00548953
7.15972e-06
0.00562301
7.43444e-05
0.00563951
9.44732e-05
0.00564403
0.000108735
0.00564542
0.000128313
0.00564401
0.000156227
0.00563974
0.000187363
0.00563239
0.000222076
0.00562216
0.00025828
0.00560931
0.000295004
0.00559401
0.000332415
0.00557632
0.000370962
0.0055563
0.000410815
0.00553395
0.000452125
0.00550932
0.000494885
0.0054824
0.000539286
0.00545321
0.000585415
0.00542171
0.000633538
0.00538789
0.000683773
0.0053517
0.000736415
0.00531307
0.000791614
0.00527198
0.000849695
0.00522832
0.000910861
0.00518205
0.00097546
0.00513301
0.00104378
0.00508119
0.00111618
0.00502636
0.00119306
0.00496852
0.00127479
0.00490735
0.00136195
0.00484286
0.00145489
0.00477463
0.00155442
0.00470261
0.00166088
0.00462634
0.00177539
0.00454554
0.00189839
0.00445933
0.00203167
0.00436861
0.00217385
0.00427379
0.00232768
0.0041694
0.0024982
0.00405337
0.00268453
0.00392867
0.00288712
0.00379288
0.00311097
0.00364122
0.00335944
0.00346868
0.0036384
0.00326849
0.00395455
0.00302851
0.00432088
0.00272149
0.00475905
0.00229835
0.00530823
0.00164579
0.00604829
0.00767134
0.00846022
1.37334e-07
0.00793524
6.22278e-06
0.00813417
6.47216e-05
0.00816361
8.29701e-05
0.00817625
9.83879e-05
0.00818322
0.000121501
0.00818545
0.000153992
0.00818276
0.000190029
0.00817516
0.000229676
0.00816316
0.000270266
0.0081474
0.000310756
0.0081282
0.00035161
0.00810574
0.000393412
0.00808008
0.000436468
0.00805136
0.000480832
0.00801962
0.000526619
0.00798497
0.000573925
0.00794739
0.000622988
0.00790697
0.000673955
0.00786362
0.000727111
0.00781743
0.000782599
0.00776828
0.00084075
0.00771625
0.000901721
0.00766121
0.000965899
0.0076032
0.00103346
0.0075421
0.00110487
0.00747794
0.00118033
0.00741062
0.00126038
0.00734009
0.00134531
0.00726632
0.00143571
0.00718918
0.00153202
0.00710873
0.00163487
0.00702458
0.00174502
0.0069373
0.00186267
0.00684744
0.00198824
0.00675541
0.00212369
0.00665654
0.00227272
0.00655062
0.0024336
0.00644175
0.00260706
0.00633065
0.00279563
0.00621377
0.00300399
0.00609259
0.00323215
0.00596541
0.00348662
0.00583397
0.00376983
0.00570036
0.00408815
0.00557206
0.00444918
0.00548237
0.00484874
0.00550619
0.0052844
0.00591269
0.00564178
0.00547751
0.00810652
0.00846202
1.0644e-07
0.00793465
3.85885e-06
0.00814834
4.22906e-05
0.00818859
6.08405e-05
0.00821054
7.8769e-05
0.0082245
0.000107705
0.00823078
0.000147697
0.00823035
0.000190445
0.00822366
0.000236361
0.00821252
0.000281394
0.00819794
0.000325327
0.00818023
0.00036931
0.00815951
0.000414132
0.00813592
0.000460047
0.00810962
0.000507125
0.00808077
0.00055546
0.00804944
0.000605241
0.00801574
0.000656681
0.00797967
0.000710017
0.00794132
0.000765458
0.00790065
0.00082326
0.00785776
0.000883634
0.00781259
0.000946881
0.00776526
0.00101322
0.0077157
0.00108301
0.00766406
0.0011565
0.00761027
0.00123412
0.00755452
0.00131613
0.00749674
0.00140309
0.00743715
0.00149529
0.00737556
0.0015936
0.00731318
0.00169725
0.00725063
0.00180756
0.00718638
0.00192692
0.0071189
0.00205572
0.00704924
0.00219334
0.00698156
0.0023404
0.00691582
0.00249934
0.00685175
0.00267113
0.00679013
0.00285724
0.00673543
0.00305869
0.00668813
0.00327944
0.00665834
0.0035164
0.0066493
0.00377887
0.00668179
0.00405565
0.0067786
0.00435237
0.00698565
0.00464168
0.00738554
0.00488449
0.00800253
0.00502479
0.00467575
0.00880428
0.00846274
1.53924e-07
0.00793434
7.42017e-07
0.00816337
5.46373e-06
0.008222
2.04127e-05
0.0082591
4.40128e-05
0.00828273
8.42387e-05
0.00829409
0.000136333
0.00829462
0.000189897
0.00828883
0.000242149
0.00827913
0.000291083
0.00826619
0.000338259
0.00825009
0.000385399
0.00823103
0.00043319
0.00820926
0.000481805
0.00818505
0.000531322
0.00815863
0.00058188
0.00813009
0.00063377
0.00809956
0.000687204
0.00806711
0.000742459
0.00803284
0.00079972
0.00799682
0.000859274
0.00795914
0.000921306
0.00791988
0.000986127
0.00787916
0.00105393
0.0078371
0.00112507
0.00779383
0.00119976
0.00774952
0.00127842
0.0077043
0.00136135
0.00765861
0.00144878
0.00761329
0.00154061
0.00756904
0.00163785
0.00752355
0.00174273
0.00747689
0.00185422
0.00743176
0.00197204
0.00739027
0.00209721
0.00735191
0.00223169
0.00731768
0.00237462
0.00728819
0.00252883
0.00726694
0.00269237
0.00725477
0.00286941
0.00725683
0.00305663
0.00727791
0.00325835
0.00732465
0.00346967
0.00741265
0.00369086
0.00755117
0.00391713
0.0077706
0.00413293
0.0080836
0.00432867
0.00850995
0.00445814
0.00902994
0.00450479
0.00424752
0.00945817
0.00846133
1.30265e-06
0.00794062
-9.86212e-06
0.0082169
-7.85217e-05
0.00830504
-4.95427e-05
0.00835083
5.92326e-07
0.00837135
6.38896e-05
0.00837566
0.00013201
0.00837141
0.000194134
0.00836371
0.000249845
0.00835431
0.000300476
0.00834235
0.000350204
0.0083275
0.000400242
0.0083101
0.000450584
0.00829047
0.000501431
0.008269
0.000552775
0.00824584
0.000605033
0.00822105
0.000658559
0.00819469
0.000713554
0.00816684
0.000770297
0.00813759
0.000828968
0.00810699
0.000889862
0.00807514
0.000953149
0.00804215
0.00101911
0.00800815
0.00108793
0.00797334
0.00115988
0.00793781
0.00123528
0.00790223
0.00131399
0.0078672
0.00139636
0.00783257
0.0014834
0.00779715
0.00157602
0.00776172
0.00167327
0.00772912
0.00177532
0.00770017
0.00188317
0.00767452
0.00199768
0.00765349
0.00211823
0.00763844
0.00224675
0.00763112
0.00238193
0.00763385
0.0025261
0.00764833
0.00267789
0.00767952
0.00283822
0.00772898
0.00300716
0.00780557
0.00318176
0.00791197
0.00336327
0.00806008
0.00354274
0.00825812
0.00371908
0.00851397
0.00387707
0.00883829
0.00400435
0.00921588
0.00408054
0.00966979
0.00405086
0.00392812
0.00998919
0.00845145
9.93718e-06
0.00798009
-6.5734e-05
0.00836228
-0.000271166
0.00854397
-0.000213132
0.00858706
-4.01975e-05
0.00857796
7.31542e-05
0.0085613
0.000148671
0.00854554
0.000209868
0.00853292
0.000262464
0.0085199
0.000313488
0.00850379
0.000366307
0.00848478
0.000419242
0.00846368
0.000471675
0.00844133
0.000523774
0.00841766
0.000576434
0.00839278
0.000629911
0.00836684
0.000684487
0.00833998
0.000740402
0.00831235
0.00079792
0.00828406
0.000857254
0.00825525
0.000918669
0.00822601
0.000982385
0.0081965
0.00104861
0.00816698
0.00111744
0.00813799
0.00118886
0.00810992
0.00126335
0.00808182
0.00134209
0.0080536
0.00142457
0.00802643
0.00151057
0.00800198
0.00160046
0.00798021
0.00169504
0.00796129
0.00179424
0.0079459
0.00189855
0.00793565
0.00200793
0.0079309
0.00212297
0.00793438
0.00224326
0.0079464
0.00236991
0.00797134
0.00250115
0.0080098
0.00263942
0.00806721
0.00278081
0.00814634
0.00292803
0.00825229
0.00307581
0.0083913
0.00322425
0.00856624
0.0033678
0.00878566
0.00349966
0.00904812
0.00361459
0.0093567
0.00369577
0.00970202
0.00373521
0.0100489
0.00370396
0.00359509
0.0103819
0.00851923
1.56621e-05
0.00824798
-0.000394717
0.00879276
-0.00060487
0.00889088
-0.000291214
0.00887228
-1.86317e-05
0.00880439
0.000141266
0.00877243
0.00018062
0.00875252
0.000229766
0.00874282
0.000272159
0.00872829
0.000328009
0.00870932
0.000385265
0.00868826
0.000440291
0.00866624
0.000493689
0.00864323
0.000546782
0.00861924
0.000600416
0.00859418
0.000654962
0.00856803
0.000710629
0.00854087
0.000767553
0.00851282
0.000825963
0.00848403
0.000886029
0.00845458
0.000948115
0.00842482
0.00101214
0.00839525
0.00107817
0.00836612
0.00114656
0.00833664
0.00121834
0.00830747
0.0012925
0.0082804
0.00136916
0.00825632
0.00144864
0.00823486
0.00153202
0.00821691
0.0016184
0.0082027
0.00170925
0.00819358
0.00180336
0.00818965
0.00190247
0.00819269
0.00200488
0.00820299
0.00211267
0.0082226
0.00222365
0.00825256
0.00233993
0.00829482
0.00245889
0.00835249
0.00258174
0.00842673
0.00270657
0.00852306
0.00283169
0.00864209
0.00295678
0.0087907
0.00307563
0.00896916
0.00318934
0.00918233
0.00328648
0.0094292
0.00336772
0.00970735
0.00341762
0.0100122
0.00343039
0.0103155
0.00340062
0.00330256
0.010608