/*--------------------------------*- C++ -*----------------------------------*\
| =========                 |                                                 |
| \\      /  F ield         | OpenFOAM: The Open Source CFD Toolbox           |
|  \\    /   O peration     | Version:  2412                                  |
|   \\  /    A nd           | Website:  www.openfoam.com                      |
|    \\/     M anipulation  |                                                 |
\*---------------------------------------------------------------------------*/
FoamFile
{
    version     2.0;
    format      ascii;
    arch        "LSB;label=32;scalar=64";
    class       volScalarField;
    location    "19";
    object      T;
}
// * * * * * * * * * * * * * * * * * * * * * * * * * * * * * * * * * * * * * //

dimensions      [0 0 0 1 0 0 0];

internalField   nonuniform List<scalar> 
7000
(
1.31909
2.65675
2.71968
2.66987
2.66466
2.64794
2.64452
2.64727
2.64931
2.65152
2.65277
2.65378
2.65491
2.65627
2.65776
2.6594
2.66112
2.66299
2.66495
2.66706
2.66926
2.67162
2.67408
2.67668
2.67938
2.68222
2.68516
2.68823
2.69139
2.69467
2.69803
2.70149
2.705
2.70859
2.71221
2.71586
2.7195
2.72313
2.72669
2.73018
2.73354
2.73675
2.73974
2.74251
2.74496
2.74713
2.74888
2.75029
2.75121
2.75175
1.31916
2.65696
2.71992
2.66997
2.66479
2.64807
2.64465
2.64739
2.64943
2.65164
2.65288
2.6539
2.65502
2.65638
2.65787
2.6595
2.66123
2.66308
2.66504
2.66715
2.66936
2.67171
2.67416
2.67676
2.67946
2.6823
2.68523
2.6883
2.69146
2.69473
2.69808
2.70153
2.70504
2.70862
2.71223
2.71587
2.7195
2.72312
2.72667
2.73015
2.73349
2.73668
2.73966
2.74241
2.74486
2.74698
2.74874
2.75004
2.75095
2.7513
1.31914
2.65687
2.71982
2.66995
2.66475
2.64801
2.64459
2.64735
2.64934
2.65158
2.65278
2.65384
2.65492
2.65632
2.65776
2.65943
2.6611
2.66301
2.66491
2.66706
2.66922
2.67161
2.67401
2.67665
2.6793
2.68217
2.68505
2.68816
2.69126
2.69457
2.69787
2.70135
2.70482
2.70842
2.71201
2.71566
2.71928
2.7229
2.72646
2.72993
2.7333
2.73645
2.73948
2.74215
2.74464
2.74673
2.74848
2.74984
2.75064
2.75107
1.31911
2.6567
2.71964
2.66995
2.6647
2.6479
2.64449
2.6472
2.64927
2.65142
2.65269
2.65366
2.65482
2.65613
2.65765
2.65923
2.66099
2.66278
2.66479
2.66682
2.66908
2.67134
2.67387
2.67636
2.67914
2.68185
2.68488
2.6878
2.69107
2.69418
2.69765
2.70092
2.70457
2.70795
2.71171
2.71515
2.71893
2.72237
2.72605
2.72941
2.73282
2.736
2.73896
2.74181
2.74409
2.74632
2.748
2.74926
2.75025
2.75044
1.31908
2.65647
2.71941
2.66997
2.66465
2.64777
2.64438
2.64699
2.6492
2.65119
2.6526
2.65341
2.65471
2.65586
2.65752
2.65895
2.66083
2.66248
2.6646
2.6665
2.66885
2.67101
2.67359
2.67601
2.67881
2.68149
2.68449
2.68743
2.69061
2.6938
2.69713
2.70055
2.70397
2.70759
2.71103
2.71479
2.71818
2.72198
2.72521
2.72892
2.73194
2.73534
2.73818
2.74096
2.74359
2.74539
2.74738
2.74865
2.74928
2.74986
1.31904
2.65619
2.71911
2.67001
2.6646
2.64764
2.64418
2.64699
2.64884
2.65117
2.65222
2.65338
2.65429
2.65581
2.65707
2.65888
2.66034
2.66239
2.66407
2.66638
2.66828
2.67085
2.67297
2.6758
2.67813
2.68122
2.68376
2.68708
2.68983
2.69335
2.69631
2.69998
2.70314
2.70688
2.71023
2.71394
2.71744
2.721
2.7246
2.72783
2.7314
2.7341
2.73744
2.73978
2.74247
2.74472
2.74608
2.74767
2.74858
2.74856
1.31899
2.65583
2.71875
2.67007
2.66454
2.64744
2.64398
2.64673
2.64867
2.65087
2.65202
2.65304
2.65409
2.65544
2.65685
2.65846
2.66012
2.66193
2.66384
2.66586
2.66804
2.67027
2.67272
2.67514
2.67787
2.68047
2.68347
2.68622
2.6895
2.69237
2.6959
2.69886
2.7026
2.70566
2.70951
2.71267
2.71651
2.71974
2.72342
2.72669
2.73002
2.73331
2.73588
2.73889
2.74089
2.74325
2.74515
2.74615
2.74683
2.74758
1.31893
2.65539
2.71831
2.67013
2.66446
2.6472
2.64373
2.64641
2.64842
2.65053
2.65173
2.65266
2.65375
2.65503
2.65647
2.65802
2.65968
2.66145
2.66334
2.66535
2.66747
2.66972
2.67207
2.67456
2.67712
2.67986
2.68262
2.68561
2.68853
2.69176
2.6948
2.69827
2.70134
2.70501
2.70807
2.71187
2.7149
2.71871
2.72174
2.72532
2.72838
2.73151
2.73469
2.73698
2.73972
2.74143
2.74307
2.74487
2.74568
2.74544
1.31886
2.65487
2.71779
2.67022
2.66437
2.64692
2.64342
2.64613
2.64804
2.6502
2.65131
2.65229
2.6533
2.65461
2.65597
2.65755
2.65914
2.66092
2.66274
2.66475
2.66681
2.66905
2.67134
2.67379
2.67632
2.67898
2.68174
2.68459
2.68757
2.69058
2.69377
2.69689
2.7003
2.70345
2.70706
2.71012
2.71389
2.71676
2.72057
2.72325
2.72687
2.72945
2.73246
2.73537
2.73712
2.73985
2.74127
2.74219
2.74289
2.74389
1.31877
2.65427
2.71718
2.67032
2.66427
2.64658
2.64307
2.64566
2.64772
2.64968
2.65093
2.65173
2.65287
2.654
2.65549
2.65689
2.65859
2.6602
2.66212
2.66397
2.66611
2.66818
2.67055
2.67284
2.67542
2.67793
2.68071
2.68343
2.68639
2.6893
2.69242
2.69549
2.69872
2.70194
2.70522
2.70855
2.71177
2.7152
2.71819
2.72167
2.72424
2.72769
2.72981
2.73283
2.73525
2.73649
2.73874
2.74031
2.74108
2.74056
1.31868
2.65356
2.71648
2.67044
2.66415
2.64621
2.64262
2.64533
2.64713
2.64928
2.65029
2.65127
2.65217
2.65349
2.65473
2.65631
2.65776
2.65955
2.66122
2.66322
2.66513
2.66734
2.66947
2.67188
2.67423
2.67684
2.6794
2.68218
2.68494
2.68787
2.69082
2.69386
2.69696
2.70007
2.70328
2.7064
2.70967
2.71273
2.71598
2.71886
2.72199
2.72452
2.72745
2.72939
2.73206
2.73434
2.73507
2.73612
2.73678
2.73817
1.31857
2.65276
2.71567
2.67057
2.66401
2.64575
2.64215
2.64469
2.6467
2.64857
2.64979
2.6505
2.65161
2.65264
2.6541
2.65538
2.65706
2.65854
2.66043
2.66212
2.66423
2.66613
2.66845
2.67055
2.67308
2.67536
2.67808
2.68055
2.68344
2.68606
2.68909
2.69186
2.69498
2.69787
2.70101
2.70399
2.70705
2.71012
2.71297
2.7161
2.7186
2.72165
2.72375
2.72634
2.7279
2.72979
2.7321
2.73329
2.73394
2.73303
1.31845
2.65184
2.71475
2.67073
2.66383
2.64526
2.64157
2.64417
2.64598
2.64798
2.64899
2.64983
2.65073
2.6519
2.65314
2.65457
2.656
2.65764
2.65927
2.66112
2.66294
2.665
2.66703
2.66928
2.67149
2.67394
2.67631
2.67893
2.68146
2.68423
2.68687
2.68977
2.69249
2.69549
2.69823
2.70128
2.70398
2.707
2.70962
2.71244
2.71504
2.71733
2.72004
2.72171
2.72416
2.72538
2.72598
2.72688
2.72738
2.72923
1.31832
2.65085
2.71367
2.67114
2.66341
2.6447
2.64092
2.64346
2.64527
2.64717
2.6482
2.64893
2.64986
2.65091
2.65219
2.65347
2.65496
2.65643
2.65812
2.65977
2.66168
2.66351
2.66563
2.66762
2.66992
2.67208
2.67455
2.67685
2.67946
2.68189
2.6846
2.68716
2.6899
2.69255
2.69528
2.69798
2.70065
2.70328
2.70587
2.70829
2.71074
2.71285
2.71476
2.71678
2.71783
2.71999
2.72155
2.72238
2.72269
2.72106
1.31819
2.64977
2.71239
2.67186
2.6627
2.64406
2.64018
2.64262
2.64447
2.64622
2.6473
2.6479
2.64886
2.64979
2.65108
2.65225
2.65373
2.6551
2.65675
2.65833
2.66014
2.66194
2.66389
2.66589
2.66796
2.67017
2.67233
2.67472
2.67694
2.67951
2.68175
2.68445
2.68669
2.68945
2.69167
2.69436
2.69659
2.69906
2.70128
2.70346
2.70554
2.70748
2.70923
2.71056
2.71191
2.71183
2.71223
2.7124
2.71294
2.71466
1.31804
2.64855
2.71104
2.67241
2.66207
2.64336
2.63932
2.64182
2.64343
2.64529
2.64615
2.64688
2.6476
2.64866
2.6497
2.65102
2.65221
2.65374
2.65509
2.65682
2.65832
2.66025
2.66188
2.66398
2.66575
2.668
2.66989
2.67224
2.67425
2.67664
2.67879
2.68114
2.68341
2.68562
2.688
2.69
2.69237
2.69414
2.69627
2.69784
2.69947
2.70075
2.70199
2.70299
2.70353
2.7049
2.70453
2.7045
2.70319
2.7008
1.31787
2.64721
2.70959
2.67296
2.66138
2.64256
2.63836
2.6409
2.64227
2.64422
2.64489
2.64569
2.64624
2.64736
2.64821
2.64957
2.65061
2.65213
2.65335
2.65501
2.65643
2.65821
2.65981
2.66168
2.66346
2.66539
2.66733
2.66928
2.67136
2.6733
2.67546
2.67737
2.67953
2.68142
2.68344
2.68531
2.68703
2.68887
2.69018
2.69176
2.69272
2.6935
2.69381
2.69391
2.69325
2.69143
2.69075
2.6886
2.68793
2.68781
1.31769
2.64576
2.70803
2.67353
2.66065
2.64164
2.6373
2.63968
2.64115
2.64283
2.64364
2.64418
2.64488
2.64571
2.64674
2.64778
2.64901
2.65017
2.65158
2.65288
2.65446
2.65588
2.6576
2.65913
2.66096
2.66258
2.66448
2.66619
2.66809
2.66987
2.6717
2.67352
2.6752
2.67699
2.67844
2.68005
2.68126
2.68242
2.68347
2.68385
2.68465
2.68456
2.68419
2.68323
2.68204
2.68039
2.6761
2.67254
2.66671
2.66067
1.3175
2.64422
2.70639
2.67411
2.65983
2.64063
2.63611
2.63836
2.63981
2.64133
2.64217
2.64258
2.64327
2.64398
2.64497
2.64592
2.64704
2.64816
2.6494
2.65068
2.65202
2.65346
2.65487
2.65644
2.65789
2.65956
2.66102
2.66277
2.66421
2.66597
2.66738
2.66904
2.67039
2.67183
2.6731
2.67412
2.67522
2.67558
2.67621
2.67605
2.67519
2.67443
2.67201
2.6699
2.66524
2.65991
2.65474
2.64501
2.63536
2.62271
1.31729
2.64262
2.70471
2.67468
2.6589
2.63951
2.63472
2.63704
2.63814
2.63982
2.64039
2.64096
2.64139
2.64227
2.64294
2.64407
2.64489
2.64614
2.64709
2.64846
2.64952
2.65097
2.65213
2.65361
2.65486
2.65633
2.65764
2.65903
2.66038
2.66162
2.66295
2.66396
2.66519
2.6659
2.6669
2.6672
2.66786
2.66774
2.66739
2.66653
2.66545
2.66279
2.66057
2.65527
2.65063
2.64065
2.62783
2.61093
2.58206
2.51101
1.31729
2.64177
2.70018
2.67518
2.65747
2.63774
2.63263
2.63474
2.63586
2.63726
2.63796
2.63824
2.63878
2.63932
2.64017
2.6409
2.6419
2.64273
2.64386
2.64476
2.646
2.64695
2.64826
2.64923
2.65058
2.65153
2.65286
2.65374
2.65497
2.65575
2.65677
2.65737
2.65802
2.65832
2.65854
2.65821
2.65762
2.65672
2.65483
2.65278
2.64867
2.64508
2.63744
2.63137
2.61839
2.60619
2.58343
2.54733
2.48958
2.36399
1.31727
2.64079
2.69547
2.67536
2.65557
2.63537
2.62976
2.63184
2.6327
2.63414
2.63475
2.63506
2.63544
2.63598
2.63663
2.63736
2.63811
2.63893
2.63975
2.64065
2.64151
2.64245
2.64331
2.64428
2.64508
2.64602
2.64672
2.64758
2.64809
2.6488
2.64904
2.64954
2.6495
2.64932
2.64884
2.64827
2.64675
2.64547
2.64236
2.63993
2.63485
2.6289
2.62126
2.60783
2.59488
2.56849
2.54176
2.49169
2.4172
2.31793
1.31725
2.64012
2.693
2.67519
2.65398
2.63308
2.62684
2.62868
2.62945
2.63088
2.63146
2.6317
2.63199
2.63244
2.63299
2.63362
2.63427
2.63497
2.63567
2.63642
2.63715
2.63792
2.63864
2.63938
2.64002
2.64066
2.64117
2.64161
2.64187
2.64203
2.64187
2.64148
2.64094
2.63975
2.63852
2.63618
2.63409
2.63017
2.62705
2.62075
2.61612
2.60611
2.59863
2.58343
2.56672
2.54289
2.50647
2.46397
2.39204
2.31841
1.31713
2.63898
2.69219
2.674
2.65204
2.63028
2.62358
2.62552
2.62636
2.62788
2.6284
2.62847
2.62857
2.62883
2.62908
2.62953
2.62984
2.63033
2.63067
2.63119
2.63156
2.6321
2.63249
2.63301
2.63338
2.63385
2.63416
2.63456
2.63467
2.63474
2.63464
2.6343
2.63371
2.63243
2.63116
2.62838
2.62605
2.62116
2.61675
2.60951
2.60129
2.5913
2.5773
2.56324
2.5411
2.51822
2.48442
2.44388
2.39089
2.32883
1.31688
2.64011
2.70386
2.67066
2.65205
2.62867
2.62146
2.62419
2.62515
2.627
2.62748
2.62742
2.62739
2.62742
2.6275
2.62761
2.62767
2.6277
2.62769
2.62764
2.62756
2.62739
2.62723
2.62689
2.62661
2.62614
2.62577
2.62495
2.62447
2.62338
2.62273
2.62126
2.62039
2.61836
2.61706
2.61425
2.6117
2.6079
2.60272
2.5971
2.5881
2.57872
2.5647
2.54872
2.5284
2.50249
2.4734
2.43463
2.39197
2.34475
1.30177
2.58651
2.69842
2.67711
2.65962
2.63609
2.6292
2.6321
2.63316
2.63469
2.63455
2.63412
2.63345
2.63291
2.63232
2.63179
2.63115
2.6306
2.62993
2.62939
2.62871
2.62818
2.62745
2.62696
2.62607
2.62553
2.62429
2.62337
2.62152
2.6202
2.61753
2.61573
2.6122
2.60996
2.60547
2.6027
2.59701
2.59347
2.58639
2.5808
2.57194
2.56255
2.55064
2.53527
2.51798
2.49456
2.46883
2.43585
2.39821
2.35804
1.72055
2.46884
2.72865
2.70678
2.68428
2.67397
2.67449
2.67604
2.67744
2.67772
2.67653
2.67507
2.67345
2.67167
2.6697
2.66751
2.6651
2.6625
2.65967
2.65671
2.6535
2.65026
2.64671
2.64326
2.63927
2.63535
2.63092
2.62782
2.62397
2.6214
2.61775
2.61501
2.61076
2.60706
2.6019
2.59679
2.59072
2.58367
2.5768
2.56734
2.55922
2.54684
2.53633
2.52025
2.50549
2.48444
2.46319
2.43562
2.4059
2.37312
1.73246
2.46193
2.72314
2.70205
2.67734
2.66835
2.67224
2.67393
2.67662
2.67745
2.67765
2.67751
2.67725
2.67695
2.67627
2.67566
2.67434
2.67338
2.67135
2.67004
2.66731
2.66559
2.66218
2.65989
2.65598
2.65334
2.64897
2.64479
2.63922
2.63376
2.62722
2.621
2.61486
2.6088
2.60315
2.59606
2.5901
2.58129
2.57383
2.56298
2.55336
2.54024
2.5277
2.51204
2.49573
2.47687
2.45603
2.43312
2.40771
2.38162
1.72921
2.46748
2.72513
2.70235
2.67378
2.66429
2.66912
2.67155
2.67472
2.67584
2.67618
2.67632
2.67649
2.67647
2.67637
2.67612
2.67552
2.67513
2.67421
2.67349
2.67192
2.67085
2.66867
2.66687
2.6641
2.66137
2.65804
2.65432
2.65026
2.64527
2.64063
2.63404
2.62806
2.619
2.6118
2.60165
2.59372
2.58342
2.57486
2.56362
2.55329
2.54044
2.52742
2.5122
2.49611
2.47781
2.45803
2.43624
2.41273
2.38978
1.73191
2.46078
2.72059
2.69686
2.6707
2.66104
2.6656
2.66784
2.67101
2.67227
2.67268
2.67296
2.67329
2.67359
2.67386
2.6739
2.67381
2.67356
2.67313
2.67243
2.67175
2.67044
2.66947
2.66746
2.66615
2.66344
2.66164
2.65794
2.65555
2.65063
2.64754
2.64128
2.63703
2.62948
2.62338
2.61418
2.60565
2.59428
2.58346
2.57066
2.5581
2.54436
2.53044
2.51514
2.49904
2.48144
2.46327
2.44322
2.42216
2.40146
1.74109
2.44261
2.70905
2.68451
2.66697
2.65759
2.66053
2.66223
2.66533
2.66638
2.66704
2.66713
2.66735
2.66747
2.66761
2.6676
2.66755
2.66738
2.6672
2.66673
2.66638
2.66559
2.66501
2.66375
2.66281
2.66076
2.65938
2.65641
2.65447
2.65045
2.64756
2.6426
2.63852
2.63253
2.62686
2.61956
2.61214
2.6031
2.59344
2.5822
2.57006
2.55613
2.5415
2.52542
2.50909
2.49134
2.47312
2.45381
2.43379
2.41429
1.73604
2.43619
2.70569
2.67696
2.66916
2.65591
2.65603
2.65803
2.66103
2.66214
2.66321
2.66331
2.66359
2.66378
2.66394
2.66402
2.664
2.6639
2.66374
2.6634
2.6631
2.66243
2.66192
2.66082
2.66003
2.65831
2.65714
2.65463
2.65289
2.64958
2.64688
2.64269
2.6387
2.63356
2.62838
2.62199
2.61535
2.60745
2.59917
2.58955
2.57932
2.56759
2.55506
2.54091
2.52583
2.50936
2.49212
2.47377
2.45466
2.43602
1.35696
2.46724
2.67917
2.66849
2.64648
2.62383
2.61678
2.62082
2.62279
2.62567
2.62709
2.62813
2.62892
2.62993
2.63064
2.63173
2.63238
2.63335
2.63385
2.63468
2.63499
2.63573
2.63585
2.63603
2.63603
2.63592
2.63569
2.63511
2.63453
2.63332
2.63216
2.63025
2.62827
2.62529
2.62206
2.61748
2.61245
2.60607
2.59916
2.5909
2.5822
2.57211
2.56147
2.54962
2.53689
2.52298
2.50816
2.49229
2.4755
2.45903
1.36037
2.47679
2.6863
2.67708
2.65246
2.62348
2.61385
2.61467
2.61666
2.61862
2.61943
2.61953
2.61973
2.61976
2.62002
2.62036
2.62073
2.62105
2.62139
2.62161
2.62189
2.62197
2.62213
2.62205
2.62188
2.62148
2.62109
2.62021
2.61952
2.61803
2.61687
2.61466
2.61273
2.60979
2.60694
2.60341
2.59974
2.59529
2.59034
2.58469
2.57798
2.57041
2.56141
2.5515
2.54066
2.529
2.51663
2.50342
2.48932
2.47552
1.34959
2.41251
2.66931
2.66954
2.65012
2.62372
2.61395
2.61401
2.61471
2.61527
2.61494
2.61407
2.61332
2.61229
2.61162
2.61093
2.61043
2.60978
2.6093
2.60865
2.60818
2.60754
2.60705
2.60638
2.60582
2.60503
2.60432
2.60348
2.6026
2.60151
2.60013
2.59858
2.59657
2.59439
2.59159
2.58862
2.58494
2.58106
2.57641
2.57132
2.56558
2.55948
2.5528
2.54549
2.53743
2.52807
2.51755
2.50646
2.49467
2.4833
1.74172
2.39651
2.67485
2.66125
2.65242
2.63851
2.63335
2.6336
2.63336
2.63307
2.63227
2.63105
2.62965
2.62799
2.62638
2.6248
2.62313
2.62141
2.61956
2.6177
2.61571
2.61374
2.61161
2.60954
2.60726
2.60514
2.60276
2.60066
2.59818
2.59575
2.5932
2.59056
2.58776
2.58471
2.58153
2.57789
2.57415
2.56976
2.56528
2.55998
2.5546
2.54829
2.54191
2.53458
2.52698
2.51896
2.51083
2.50181
2.49207
2.48249
1.34699
2.39547
2.6601
2.66578
2.64945
2.62415
2.61555
2.6142
2.61546
2.61573
2.61545
2.6151
2.61422
2.61329
2.61264
2.61179
2.61107
2.61
2.60906
2.60772
2.60659
2.60522
2.60405
2.60255
2.60128
2.59942
2.59784
2.59533
2.59332
2.5906
2.58825
2.58517
2.58238
2.57882
2.57559
2.57166
2.56795
2.56355
2.55921
2.55423
2.54908
2.5433
2.53717
2.53052
2.52333
2.51575
2.50761
2.49919
2.49022
2.4816
1.34831
2.40635
2.66729
2.67125
2.65093
2.6222
2.61093
2.61074
2.61171
2.61242
2.6123
2.6116
2.61084
2.60985
2.60925
2.60851
2.60791
2.60702
2.60621
2.60508
2.60393
2.60227
2.60059
2.59843
2.59625
2.59376
2.59123
2.58843
2.58551
2.58242
2.57911
2.57572
2.57215
2.56859
2.56464
2.56072
2.55631
2.55203
2.54716
2.54246
2.53712
2.532
2.52612
2.52043
2.51396
2.50757
2.50038
2.4931
2.48527
2.47793
1.34773
2.40201
2.66451
2.66929
2.64833
2.6189
2.60689
2.60675
2.60755
2.60846
2.60818
2.60733
2.60651
2.6054
2.60469
2.60394
2.60331
2.60251
2.60174
2.60081
2.59984
2.59869
2.59741
2.59593
2.59421
2.59231
2.5901
2.58772
2.58497
2.58209
2.57879
2.5754
2.57156
2.56769
2.56339
2.55901
2.55417
2.54921
2.54385
2.53834
2.53252
2.5265
2.52024
2.51372
2.50705
2.50005
2.49302
2.48553
2.47798
2.47061
1.3449
2.379
2.64734
2.66151
2.64236
2.61452
2.6027
2.60126
2.60157
2.60181
2.60115
2.60038
2.59904
2.59795
2.59686
2.596
2.59495
2.59403
2.59288
2.59185
2.59058
2.58946
2.58808
2.58684
2.58532
2.5839
2.58216
2.58045
2.57838
2.57628
2.57382
2.57122
2.56823
2.56499
2.56136
2.55744
2.55323
2.54866
2.54382
2.53853
2.53305
2.5271
2.52097
2.51438
2.50765
2.50049
2.49325
2.48573
2.47811
2.47077
1.75135
2.373
2.64552
2.64162
2.62816
2.61406
2.60919
2.60943
2.60941
2.6093
2.60872
2.60806
2.60684
2.6057
2.60442
2.60331
2.60194
2.60063
2.59905
2.59751
2.59572
2.59396
2.59197
2.58999
2.5878
2.5856
2.5832
2.58075
2.57812
2.5754
2.57259
2.56962
2.56656
2.56324
2.55981
2.55601
2.5521
2.54776
2.54322
2.53826
2.53304
2.52744
2.52165
2.51551
2.5092
2.50255
2.49567
2.48851
2.48101
2.47386
1.34699
2.38863
2.65249
2.65978
2.63923
2.60889
2.59754
2.59618
2.59781
2.59913
2.59897
2.59846
2.59788
2.59661
2.59594
2.59472
2.59398
2.5925
2.59155
2.58982
2.58828
2.58643
2.58461
2.58248
2.5804
2.57817
2.57609
2.57379
2.57164
2.56919
2.56665
2.56376
2.5608
2.55753
2.55418
2.55055
2.54681
2.54282
2.53873
2.5344
2.52989
2.52508
2.51999
2.51455
2.5088
2.50274
2.49642
2.48988
2.48303
2.47647
1.35069
2.41189
2.65475
2.6488
2.62686
2.5963
2.58553
2.5858
2.58759
2.58951
2.58985
2.58961
2.58915
2.58837
2.58786
2.58734
2.58688
2.58626
2.5856
2.5848
2.58391
2.58289
2.58175
2.58043
2.57894
2.5771
2.57502
2.57262
2.56999
2.56711
2.56411
2.56092
2.55759
2.55407
2.5504
2.54654
2.54252
2.53832
2.53394
2.52939
2.52466
2.51976
2.51475
2.50963
2.50428
2.49879
2.49302
2.48707
2.48082
2.47485
1.77125
2.37208
2.6383
2.61742
2.61108
2.59577
2.59304
2.5938
2.59491
2.59619
2.59593
2.59545
2.5951
2.59444
2.59387
2.59329
2.59272
2.59204
2.59132
2.5905
2.58962
2.58862
2.58754
2.58631
2.58498
2.58347
2.58181
2.57992
2.57785
2.57544
2.57271
2.56968
2.56635
2.56275
2.55888
2.55478
2.55043
2.54588
2.54111
2.53617
2.53099
2.52562
2.51997
2.51414
2.50815
2.50202
2.49581
2.48949
2.48306
2.47693
1.79779
2.35503
2.6263
2.60574
2.60256
2.59263
2.58925
2.58947
2.58972
2.59027
2.59001
2.5894
2.58876
2.58773
2.58671
2.58558
2.58441
2.58307
2.58168
2.58014
2.57856
2.57685
2.57516
2.57337
2.57162
2.56977
2.56796
2.56604
2.56413
2.56217
2.56029
2.55825
2.55627
2.55407
2.55186
2.54936
2.54677
2.54382
2.5405
2.53682
2.53292
2.52875
2.52434
2.51964
2.5147
2.50946
2.50393
2.4981
2.49201
2.4861
1.76261
2.38152
2.64994
2.61916
2.61338
2.59923
2.59606
2.59817
2.59964
2.60048
2.60021
2.59972
2.59867
2.59747
2.59619
2.59487
2.59344
2.59193
2.59029
2.58859
2.58678
2.58494
2.58285
2.58065
2.5782
2.57568
2.57291
2.57009
2.56703
2.56397
2.56067
2.55742
2.55396
2.55046
2.54674
2.54302
2.53908
2.53517
2.53127
2.52735
2.52327
2.51909
2.51473
2.51031
2.50571
2.50104
2.49617
2.4912
2.48597
2.48104
1.28616
2.49442
2.64465
2.64196
2.6167
2.58398
2.57192
2.57235
2.57499
2.57738
2.57863
2.57886
2.57909
2.57906
2.579
2.57892
2.57876
2.57845
2.57799
2.57733
2.5765
2.57546
2.5743
2.57295
2.57148
2.56978
2.56805
2.56591
2.56367
2.56127
2.55865
2.55587
2.55277
2.54957
2.54607
2.5425
2.53863
2.53471
2.53053
2.52632
2.52188
2.51741
2.51291
2.50818
2.50332
2.49824
2.49306
2.48766
2.48215
2.47688
1.77187
2.3671
2.63936
2.61682
2.61052
2.5951
2.59016
2.59107
2.5915
2.59309
2.59271
2.59214
2.59169
2.5909
2.59015
2.58929
2.58853
2.58756
2.58663
2.58548
2.58437
2.58303
2.58172
2.58016
2.57863
2.57681
2.57502
2.57292
2.5706
2.56799
2.5652
2.56212
2.55904
2.55572
2.5524
2.54878
2.54515
2.5412
2.53723
2.5329
2.52858
2.52388
2.51901
2.51394
2.50879
2.50343
2.49799
2.49237
2.48664
2.48116
1.77327
2.36529
2.63727
2.61491
2.60866
2.59336
2.5884
2.5895
2.59056
2.59165
2.59219
2.59169
2.59126
2.59046
2.58961
2.58867
2.58769
2.58654
2.58531
2.58392
2.58245
2.58085
2.57916
2.57738
2.57548
2.57352
2.57143
2.56932
2.56725
2.5651
2.56292
2.56059
2.55809
2.55538
2.55248
2.54943
2.5462
2.54283
2.53927
2.53556
2.53166
2.52763
2.52339
2.51901
2.51442
2.50972
2.50479
2.49976
2.49451
2.48941
1.28556
2.49081
2.64196
2.63929
2.61355
2.5789
2.56596
2.56546
2.56798
2.57004
2.571
2.57094
2.5708
2.57041
2.5701
2.56963
2.56934
2.56871
2.56827
2.56737
2.56673
2.56557
2.56469
2.56325
2.56214
2.5605
2.55887
2.5571
2.55519
2.55318
2.55105
2.54884
2.54652
2.5441
2.54157
2.5389
2.53609
2.53314
2.53004
2.52677
2.52335
2.51975
2.51601
2.51208
2.50803
2.50378
2.49942
2.49486
2.49019
2.48565
1.76681
2.37274
2.64047
2.60975
2.60333
2.58736
2.5843
2.58647
2.58737
2.5895
2.58926
2.58871
2.58826
2.58741
2.58663
2.58574
2.58488
2.58384
2.58279
2.58156
2.58031
2.57891
2.57746
2.57589
2.57422
2.57245
2.57056
2.56857
2.56644
2.56421
2.56183
2.55921
2.55646
2.55349
2.5504
2.5471
2.54371
2.5401
2.53641
2.53261
2.52872
2.52469
2.52054
2.51627
2.51187
2.50734
2.50267
2.49789
2.49295
2.48823
1.79471
2.35584
2.62388
2.59578
2.59177
2.58006
2.57679
2.57799
2.5783
2.57901
2.57883
2.57842
2.57797
2.57722
2.57651
2.57575
2.57496
2.57405
2.57307
2.57197
2.57081
2.56954
2.56818
2.56673
2.56519
2.56356
2.56184
2.56002
2.55811
2.55611
2.55402
2.55196
2.54979
2.54762
2.54531
2.54298
2.54047
2.53789
2.53506
2.5321
2.5289
2.52561
2.52211
2.51852
2.51473
2.51084
2.50674
2.50256
2.49815
2.49397
1.79932
2.35061
2.61885
2.59261
2.58896
2.57771
2.5739
2.57457
2.57475
2.57515
2.57501
2.5746
2.5741
2.57334
2.57257
2.57179
2.57092
2.56999
2.56895
2.56783
2.56659
2.56527
2.56383
2.5623
2.56064
2.5589
2.55702
2.55506
2.55295
2.55076
2.54842
2.546
2.54344
2.5408
2.53802
2.53516
2.53218
2.52916
2.52605
2.52289
2.51962
2.51628
2.51279
2.50921
2.5055
2.50169
2.49774
2.49369
2.48948
2.48548
1.77985
2.35584
2.6164
2.60288
2.5935
2.57705
2.57202
2.5725
2.57311
2.57373
2.57372
2.57324
2.57272
2.57189
2.57109
2.5703
2.56946
2.56854
2.56753
2.56643
2.56524
2.56396
2.56257
2.5611
2.55951
2.55783
2.55603
2.55412
2.5521
2.54997
2.54771
2.54533
2.54283
2.54021
2.53746
2.53459
2.53159
2.52846
2.52521
2.52184
2.51834
2.51473
2.511
2.50716
2.50319
2.49911
2.49491
2.49059
2.48615
2.4819
1.34475
2.37975
2.63789
2.63731
2.61511
2.58165
2.56744
2.56505
2.56636
2.56747
2.56742
2.56716
2.56648
2.56547
2.56457
2.56377
2.56295
2.56207
2.56107
2.56
2.55882
2.55756
2.55618
2.55471
2.55312
2.55144
2.54963
2.54772
2.54567
2.54353
2.54123
2.53884
2.5363
2.53366
2.53086
2.52796
2.5249
2.52175
2.51842
2.515
2.51141
2.50772
2.50386
2.49992
2.4958
2.4916
2.48724
2.48281
2.47821
2.47382
1.346
2.38733
2.65277
2.65695
2.6309
2.59239
2.57485
2.57249
2.57414
2.57542
2.57587
2.57552
2.57469
2.57369
2.57263
2.57176
2.57088
2.56997
2.56894
2.56785
2.56665
2.56539
2.56402
2.56259
2.56104
2.55944
2.5577
2.5559
2.55397
2.55197
2.54984
2.54763
2.54528
2.54285
2.54027
2.53761
2.53479
2.53189
2.52883
2.52568
2.52237
2.51896
2.51539
2.51172
2.50789
2.50396
2.49987
2.49569
2.49134
2.48717
1.3451
2.37922
2.63626
2.63627
2.61336
2.58002
2.56485
2.56286
2.56422
2.56513
2.56554
2.56512
2.56441
2.56338
2.56244
2.56162
2.56081
2.55994
2.55899
2.55794
2.55683
2.55563
2.55437
2.55301
2.55158
2.55005
2.54844
2.54673
2.54494
2.54303
2.54105
2.53894
2.53676
2.53444
2.53205
2.52952
2.52692
2.52417
2.52134
2.51836
2.5153
2.51209
2.50879
2.50534
2.50181
2.49812
2.49435
2.49041
2.48639
2.48247
1.78112
2.35413
2.61388
2.59959
2.5899
2.57202
2.56695
2.56731
2.56789
2.56894
2.56878
2.56824
2.56774
2.56687
2.56611
2.5653
2.56452
2.5636
2.56266
2.56158
2.56048
2.55924
2.55798
2.55657
2.55514
2.55356
2.55195
2.55018
2.54839
2.54643
2.54444
2.54227
2.54008
2.53771
2.53531
2.53273
2.53012
2.52732
2.52448
2.52145
2.51839
2.51513
2.51183
2.50834
2.50481
2.50108
2.49731
2.49334
2.4893
2.48536
1.80139
2.34709
2.61446
2.58725
2.58371
2.57245
2.56895
2.57003
2.57033
2.57077
2.57062
2.57011
2.56955
2.56866
2.56784
2.56695
2.56606
2.56505
2.56399
2.56281
2.56158
2.56023
2.55883
2.55729
2.55571
2.55398
2.5522
2.55027
2.54829
2.54615
2.54396
2.54161
2.5392
2.53664
2.534
2.53121
2.52835
2.52533
2.52224
2.51899
2.51567
2.51218
2.50862
2.5049
2.50111
2.49715
2.49312
2.48893
2.48466
2.48052
1.78833
2.36073
2.62688
2.59526
2.58865
2.57454
2.57205
2.57408
2.57558
2.5765
2.57647
2.57596
2.57542
2.57459
2.57381
2.573
2.57214
2.57118
2.57015
2.56902
2.56783
2.56653
2.56516
2.56369
2.56214
2.56048
2.55874
2.55689
2.55496
2.5529
2.55076
2.5485
2.54615
2.54367
2.5411
2.5384
2.53561
2.53268
2.52966
2.52649
2.52324
2.51984
2.51635
2.51272
2.50899
2.50512
2.50115
2.49704
2.49284
2.48878
2.17214
2.34487
2.76321
2.85991
2.87315
2.82752
2.82514
2.82429
2.8169
2.8157
2.81854
2.82008
2.82123
2.82204
2.82359
2.82489
2.82675
2.82846
2.82983
2.83068
2.831
2.83104
2.82958
2.82868
2.82544
2.82308
2.81892
2.81514
2.81
2.80509
2.79915
2.79331
2.7867
2.78014
2.77323
2.76626
2.75903
2.75124
2.74302
2.7349
2.72664
2.71845
2.71012
2.70187
2.69354
2.68533
2.6771
2.66904
2.661
2.65317
2.64541
2.63791
2.63052
2.62344
2.61653
2.60998
2.60365
2.59773
2.59211
2.58695
2.58215
2.57787
2.57402
2.57074
2.56795
2.56577
2.5641
2.56305
2.5625
2.56243
2.56255
2.56288
2.56376
2.56512
2.56725
2.56943
2.57173
2.57397
2.57626
2.57841
2.5805
2.58236
2.58405
2.58547
2.58668
2.5876
2.58831
2.58875
2.589
2.58907
2.58898
2.58877
2.58844
2.58774
2.58699
2.58598
2.58513
2.58403
2.58313
2.58014
2.18029
2.26015
2.45021
2.62845
2.69672
2.73614
2.76499
2.79065
2.80566
2.81852
2.8267
2.83676
2.84256
2.84214
2.83829
2.83258
2.82502
2.81709
2.80765
2.79828
2.78784
2.77777
2.76699
2.75679
2.74567
2.73508
2.72369
2.71294
2.70152
2.69076
2.6794
2.66871
2.65749
2.64693
2.63613
2.62606
2.61569
2.60526
2.59441
2.58395
2.57371
2.56371
2.5538
2.54412
2.53455
2.52524
2.51607
2.50718
2.49845
2.49001
2.48177
2.47384
2.46614
2.45877
2.45167
2.44495
2.43853
2.43253
2.42688
2.4217
2.41691
2.41265
2.40884
2.40561
2.40286
2.40073
2.3991
2.39811
2.39761
2.39759
2.39782
2.39832
2.39937
2.40103
2.40344
2.40605
2.40875
2.41145
2.41413
2.41669
2.41911
2.42129
2.42323
2.42484
2.42617
2.42717
2.42787
2.42827
2.4284
2.42833
2.42816
2.4278
2.42739
2.42654
2.42573
2.42457
2.42368
2.42247
2.42168
2.41878
2.22678
2.21272
2.27131
2.35802
2.41108
2.46017
2.49396
2.52148
2.5429
2.55897
2.57102
2.58016
2.587
2.58937
2.58859
2.5868
2.5827
2.57805
2.57238
2.56626
2.5594
2.55243
2.54497
2.53763
2.52975
2.52199
2.51371
2.50569
2.49722
2.4891
2.48056
2.47242
2.46387
2.45574
2.44743
2.43978
2.43187
2.42385
2.41526
2.40691
2.39875
2.39078
2.38287
2.37508
2.36735
2.35977
2.35229
2.34497
2.33778
2.33077
2.32391
2.31727
2.31081
2.30459
2.29858
2.29286
2.2874
2.28227
2.27743
2.27298
2.26888
2.2652
2.26193
2.25913
2.25678
2.25494
2.25358
2.25275
2.25241
2.25246
2.25273
2.2532
2.25417
2.25569
2.25791
2.26032
2.26285
2.26535
2.26784
2.27018
2.2724
2.27437
2.27614
2.27759
2.2788
2.27966
2.2803
2.2806
2.28071
2.28061
2.28047
2.28015
2.2798
2.27903
2.27833
2.27729
2.27653
2.2755
2.275
2.27259
2.2596
2.22018
2.21579
2.24074
2.27142
2.2939
2.30914
2.32093
2.33147
2.3407
2.34835
2.35443
2.35913
2.36272
2.36427
2.36449
2.36444
2.36431
2.36412
2.36384
2.36336
2.36272
2.36201
2.36075
2.35925
2.35748
2.35523
2.35275
2.34983
2.34674
2.34323
2.33959
2.33553
2.33139
2.32708
2.32301
2.31868
2.31394
2.30854
2.30302
2.29748
2.29202
2.28647
2.28091
2.27526
2.26963
2.26394
2.25832
2.25267
2.24713
2.24161
2.23623
2.23091
2.22577
2.22074
2.21594
2.21128
2.20692
2.20275
2.19892
2.19533
2.19215
2.18926
2.18683
2.18474
2.18315
2.18195
2.18127
2.18104
2.18117
2.18147
2.18194
2.1829
2.18433
2.18642
2.18866
2.19112
2.19349
2.19591
2.19811
2.20025
2.20207
2.20376
2.20508
2.20624
2.20701
2.20762
2.20787
2.208
2.2079
2.2078
2.20756
2.20725
2.20659
2.20601
2.2051
2.20448
2.20362
2.20337
2.20132
2.27498
2.24092
2.21915
2.21162
2.21867
2.22332
2.22537
2.22598
2.22695
2.2288
2.2316
2.2339
2.23593
2.23776
2.24049
2.2428
2.245
2.24746
2.25013
2.25299
2.25588
2.25869
2.26129
2.26356
2.26548
2.26687
2.26781
2.26831
2.26803
2.26748
2.26638
2.26491
2.2629
2.26063
2.25811
2.25564
2.25286
2.24956
2.24553
2.24118
2.23669
2.23215
2.22751
2.22279
2.21795
2.21305
2.20807
2.20307
2.19803
2.19303
2.18803
2.18311
2.17824
2.1735
2.16885
2.16439
2.16007
2.15598
2.15209
2.1485
2.14515
2.14215
2.13945
2.13716
2.13522
2.13374
2.13264
2.13207
2.13193
2.13208
2.13239
2.1329
2.13386
2.13531
2.13724
2.13938
2.14173
2.14406
2.1464
2.14854
2.15058
2.15234
2.15392
2.15518
2.15624
2.15696
2.15749
2.15771
2.15778
2.15768
2.15757
2.15729
2.15697
2.15628
2.15577
2.15486
2.15431
2.15348
2.15334
2.15135
2.29847
2.25462
2.23045
2.21057
2.20077
2.19391
2.18817
2.18209
2.17724
2.17345
2.17171
2.17121
2.1718
2.17217
2.17327
2.17549
2.17807
2.18125
2.1842
2.18783
2.19122
2.19508
2.19842
2.20194
2.2047
2.20742
2.20922
2.21086
2.21157
2.21214
2.21192
2.21127
2.21009
2.20858
2.20685
2.2051
2.20302
2.2004
2.19707
2.19336
2.18944
2.18537
2.18121
2.17694
2.17258
2.16812
2.16359
2.159
2.15437
2.14972
2.14509
2.14048
2.13594
2.13148
2.12713
2.12291
2.11885
2.11498
2.11132
2.10791
2.10476
2.10191
2.09938
2.09721
2.0954
2.094
2.09304
2.09257
2.09251
2.09267
2.09298
2.09353
2.09454
2.09598
2.09781
2.09985
2.1021
2.10437
2.10663
2.10873
2.1107
2.1124
2.11391
2.11511
2.1161
2.1168
2.11729
2.11748
2.11752
2.11743
2.11731
2.117
2.11669
2.11598
2.11551
2.11463
2.11413
2.11334
2.11327
2.11134
2.3221
2.28207
2.24839
2.22359
2.20316
2.1882
2.17581
2.16532
2.15582
2.14835
2.14248
2.13897
2.13685
2.13646
2.13651
2.13708
2.13895
2.1418
2.14501
2.14842
2.15206
2.15586
2.15963
2.16335
2.16676
2.16991
2.17249
2.1747
2.17622
2.17737
2.1778
2.17793
2.17733
2.17642
2.17535
2.17419
2.17268
2.17061
2.16789
2.16475
2.16133
2.15771
2.15396
2.15008
2.14612
2.14204
2.13788
2.13364
2.12935
2.12502
2.12068
2.11636
2.11208
2.10786
2.10375
2.09974
2.09589
2.09221
2.08873
2.08548
2.08249
2.07978
2.07739
2.07532
2.07364
2.07235
2.07149
2.07112
2.07112
2.07128
2.07159
2.07221
2.07323
2.07472
2.07646
2.07846
2.08059
2.0828
2.08496
2.08702
2.0889
2.09058
2.092
2.0932
2.09412
2.09482
2.09526
2.09545
2.09545
2.09536
2.09523