/*--------------------------------*- C++ -*----------------------------------*\
| =========                 |                                                 |
| \\      /  F ield         | OpenFOAM: The Open Source CFD Toolbox           |
|  \\    /   O peration     | Version:  2412                                  |
|   \\  /    A nd           | Website:  www.openfoam.com                      |
|    \\/     M anipulation  |                                                 |
\*---------------------------------------------------------------------------*/
FoamFile
{
    version     2.0;
    format      ascii;
    arch        "LSB;label=32;scalar=64";
    class       volVectorField;
    location    "19";
    object      U;
}
// * * * * * * * * * * * * * * * * * * * * * * * * * * * * * * * * * * * * * //

dimensions      [0 1 -1 0 0 0 0];

internalField   nonuniform List<vector> 
7000
(
(2.59121 -7.2537e-05 0)
(1.6209 0.000178398 0)
(0.495909 0.000208751 0)
(0.552998 0.000350578 0)
(0.654692 0.000446409 0)
(0.719911 0.00052445 0)
(0.7328 0.000592282 0)
(0.725907 0.000662565 0)
(0.715842 0.000741016 0)
(0.708141 0.000831426 0)
(0.703672 0.000930065 0)
(0.700103 0.00103327 0)
(0.696017 0.00114024 0)
(0.691161 0.0012519 0)
(0.685696 0.00136929 0)
(0.679749 0.00149298 0)
(0.673335 0.00162326 0)
(0.666424 0.00176046 0)
(0.658979 0.001905 0)
(0.650973 0.00205745 0)
(0.642384 0.00221839 0)
(0.63319 0.00238852 0)
(0.623364 0.00256851 0)
(0.612881 0.00275917 0)
(0.601709 0.00296128 0)
(0.58982 0.00317575 0)
(0.577181 0.00340347 0)
(0.563758 0.00364541 0)
(0.549518 0.00390253 0)
(0.534422 0.00417581 0)
(0.518435 0.00446623 0)
(0.501518 0.00477468 0)
(0.483633 0.00510203 0)
(0.464743 0.00544889 0)
(0.444812 0.00581588 0)
(0.423806 0.00620308 0)
(0.401696 0.00661054 0)
(0.378458 0.00703743 0)
(0.354073 0.00748281 0)
(0.328535 0.00794451 0)
(0.301848 0.00842014 0)
(0.27403 0.00890561 0)
(0.245115 0.00939697 0)
(0.215157 0.00988786 0)
(0.18423 0.0103738 0)
(0.152425 0.0108476 0)
(0.119827 0.0113137 0)
(0.0868525 0.0117558 0)
(0.0514925 0.0123446 0)
(0.0221177 0.0131971 0)
(2.59134 -4.81452e-05 0)
(1.62106 0.000347394 0)
(0.495597 0.000827603 0)
(0.552736 0.00113933 0)
(0.654453 0.0013745 0)
(0.719685 0.00159651 0)
(0.732575 0.00180449 0)
(0.725686 0.00201975 0)
(0.71563 0.00225723 0)
(0.707939 0.00252699 0)
(0.703475 0.00281978 0)
(0.699911 0.00312601 0)
(0.695828 0.00344352 0)
(0.690977 0.00377458 0)
(0.685517 0.00412182 0)
(0.679576 0.00448661 0)
(0.673168 0.00486971 0)
(0.666263 0.00527178 0)
(0.658824 0.00569393 0)
(0.650825 0.00613741 0)
(0.642243 0.00660373 0)
(0.633056 0.00709439 0)
(0.623239 0.00761111 0)
(0.612763 0.00815552 0)
(0.6016 0.00872955 0)
(0.58972 0.00933491 0)
(0.57709 0.00997361 0)
(0.563678 0.0106472 0)
(0.549446 0.0113578 0)
(0.53436 0.0121064 0)
(0.518382 0.0128947 0)
(0.501473 0.0137231 0)
(0.483596 0.0145923 0)
(0.464712 0.0155012 0)
(0.444784 0.0164491 0)
(0.423779 0.0174326 0)
(0.401666 0.0184482 0)
(0.378418 0.0194892 0)
(0.354018 0.0205483 0)
(0.328457 0.0216142 0)
(0.301735 0.0226745 0)
(0.273871 0.0237124 0)
(0.244895 0.0247103 0)
(0.214859 0.0256471 0)
(0.183834 0.0265022 0)
(0.151913 0.0272559 0)
(0.119169 0.0279061 0)
(0.0860666 0.0284266 0)
(0.0505462 0.0290776 0)
(0.0211912 0.0298281 0)
(2.59147 4.76187e-05 0)
(1.62136 0.000392127 0)
(0.495804 0.00160439 0)
(0.552789 0.00197995 0)
(0.654495 0.00230414 0)
(0.719728 0.00266971 0)
(0.732617 0.00303908 0)
(0.72574 0.00341786 0)
(0.715705 0.00382791 0)
(0.708035 0.00428579 0)
(0.703586 0.00478046 0)
(0.70003 0.00529908 0)
(0.695958 0.00583873 0)
(0.691118 0.00640226 0)
(0.685671 0.00699366 0)
(0.679743 0.00761492 0)
(0.67335 0.00826768 0)
(0.666459 0.00895302 0)
(0.659036 0.00967316 0)
(0.651053 0.01043 0)
(0.642489 0.0112266 0)
(0.633322 0.0120651 0)
(0.623524 0.0129489 0)
(0.61307 0.0138808 0)
(0.601931 0.0148643 0)
(0.590075 0.0159022 0)
(0.577471 0.0169985 0)
(0.564085 0.0181559 0)
(0.549882 0.0193781 0)
(0.534826 0.0206672 0)
(0.518877 0.0220266 0)
(0.501999 0.023457 0)
(0.484151 0.0249602 0)
(0.465295 0.026535 0)
(0.445394 0.0281803 0)
(0.424412 0.0298913 0)
(0.402316 0.0316621 0)
(0.379079 0.0334831 0)
(0.354681 0.0353408 0)
(0.329109 0.0372188 0)
(0.302362 0.039094 0)
(0.274454 0.0409418 0)
(0.245414 0.0427293 0)
(0.215291 0.0444247 0)
(0.18415 0.0459912 0)
(0.152089 0.0473936 0)
(0.119174 0.0486197 0)
(0.0859299 0.0496302 0)
(0.0502702 0.050683 0)
(0.0207514 0.0516764 0)
(2.59164 5.40888e-05 0)
(1.6218 0.000535518 0)
(0.496232 0.00235021 0)
(0.552912 0.00281354 0)
(0.654617 0.00323616 0)
(0.71987 0.0037561 0)
(0.732765 0.00430233 0)
(0.725902 0.0048582 0)
(0.715897 0.00545087 0)
(0.708258 0.00610307 0)
(0.703832 0.00680454 0)
(0.700294 0.00754141 0)
(0.696238 0.00830988 0)
(0.691418 0.00911305 0)
(0.685993 0.00995549 0)
(0.680088 0.0108401 0)
(0.673718 0.011769 0)
(0.666853 0.0127443 0)
(0.659457 0.0137687 0)
(0.651503 0.0148454 0)
(0.64297 0.015978 0)
(0.633835 0.0171705 0)
(0.624072 0.018427 0)
(0.613655 0.019752 0)
(0.602555 0.0211499 0)
(0.590742 0.0226257 0)
(0.578182 0.024184 0)
(0.564843 0.0258298 0)
(0.550689 0.0275674 0)
(0.535684 0.0294015 0)
(0.519788 0.0313349 0)
(0.502963 0.0333716 0)
(0.485168 0.0355116 0)
(0.466365 0.0377565 0)
(0.446514 0.0401023 0)
(0.425578 0.0425459 0)
(0.403522 0.0450765 0)
(0.380316 0.0476841 0)
(0.355936 0.0503481 0)
(0.330367 0.0530479 0)
(0.303604 0.0557512 0)
(0.275655 0.0584219 0)
(0.246547 0.0610177 0)
(0.216323 0.0634874 0)
(0.18505 0.0657866 0)
(0.152822 0.0678591 0)
(0.119706 0.0696763 0)
(0.0862776 0.0711848 0)
(0.0504193 0.0726103 0)
(0.0206072 0.073767 0)
(2.59189 6.77115e-05 0)
(1.62244 0.000715968 0)
(0.496783 0.00310271 0)
(0.553022 0.00367863 0)
(0.654745 0.00421027 0)
(0.720042 0.00488427 0)
(0.732951 0.00560753 0)
(0.726106 0.00634755 0)
(0.716137 0.0071316 0)
(0.70854 0.00798431 0)
(0.704147 0.00889783 0)
(0.700635 0.0098593 0)
(0.696606 0.0108639 0)
(0.691815 0.0119152 0)
(0.686422 0.0130175 0)
(0.68055 0.014175 0)
(0.674217 0.01539 0)
(0.667389 0.016666 0)
(0.660033 0.0180058 0)
(0.652122 0.0194146 0)
(0.643634 0.0208961 0)
(0.634548 0.0224564 0)
(0.624838 0.0241 0)
(0.614477 0.0258337 0)
(0.603436 0.0276625 0)
(0.591686 0.0295939 0)
(0.579193 0.0316328 0)
(0.565924 0.0337871 0)
(0.551844 0.0360614 0)
(0.536915 0.0384628 0)
(0.521099 0.0409948 0)
(0.504355 0.0436625 0)
(0.486642 0.046467 0)
(0.467919 0.0494096 0)
(0.448145 0.0524865 0)
(0.427281 0.0556926 0)
(0.405289 0.0590166 0)
(0.382134 0.0624424 0)
(0.357791 0.0659486 0)
(0.332237 0.0695032 0)
(0.305462 0.0730714 0)
(0.27747 0.0765999 0)
(0.24828 0.0800371 0)
(0.217933 0.083313 0)
(0.186492 0.0863615 0)
(0.154055 0.0891168 0)
(0.120677 0.0915201 0)
(0.0869977 0.0934945 0)
(0.050851 0.0952325 0)
(0.020625 0.0964817 0)
(2.59223 7.99879e-05 0)
(1.62328 0.000899977 0)
(0.497481 0.00385427 0)
(0.553137 0.00455631 0)
(0.654888 0.00520323 0)
(0.720253 0.0060316 0)
(0.733188 0.0069374 0)
(0.726369 0.00786658 0)
(0.716444 0.00885061 0)
(0.708896 0.0099127 0)
(0.704545 0.0110467 0)
(0.70107 0.0122406 0)
(0.697076 0.0134898 0)
(0.692324 0.0147977 0)
(0.686973 0.0161691 0)
(0.681146 0.0176085 0)
(0.67486 0.0191191 0)
(0.668081 0.0207051 0)
(0.660778 0.0223706 0)
(0.652923 0.0241212 0)
(0.644496 0.0259625 0)
(0.635475 0.0279012 0)
(0.625834 0.0299439 0)
(0.615547 0.032098 0)
(0.604586 0.0343713 0)
(0.59292 0.0367714 0)
(0.580517 0.0393068 0)
(0.567343 0.0419849 0)
(0.553363 0.0448145 0)
(0.538539 0.0478018 0)
(0.522831 0.0509544 0)
(0.506197 0.0542764 0)
(0.488597 0.0577722 0)
(0.469986 0.0614413 0)
(0.450321 0.0652825 0)
(0.42956 0.0692875 0)
(0.40766 0.0734457 0)
(0.384584 0.0777359 0)
(0.360297 0.0821334 0)
(0.334775 0.0865986 0)
(0.307996 0.0910866 0)
(0.27996 0.095538 0)
(0.250675 0.0998814 0)
(0.220179 0.104035 0)
(0.188527 0.107903 0)
(0.155819 0.111396 0)
(0.122108 0.114434 0)
(0.0880689 0.116905 0)
(0.0515118 0.118955 0)
(0.0207763 0.120276 0)
(2.59266 9.26405e-05 0)
(1.62436 0.00108615 0)
(0.498338 0.00461359 0)
(0.553258 0.00544952 0)
(0.655046 0.00621819 0)
(0.720504 0.00720468 0)
(0.733479 0.00830051 0)
(0.726692 0.00942342 0)
(0.716821 0.0106142 0)
(0.709333 0.0118941 0)
(0.705035 0.0132567 0)
(0.701605 0.0146906 0)
(0.697658 0.0161923 0)
(0.692954 0.017765 0)
(0.687656 0.0194141 0)
(0.681886 0.0211442 0)
(0.675659 0.0229598 0)
(0.668943 0.0248651 0)
(0.661706 0.0268662 0)
(0.653923 0.0289688 0)
(0.645573 0.0311807 0)
(0.636633 0.0335089 0)
(0.62708 0.0359625 0)
(0.616888 0.0385495 0)
(0.606027 0.0412801 0)
(0.594468 0.0441631 0)
(0.58218 0.0472092 0)
(0.569128 0.0504278 0)
(0.555275 0.053829 0)
(0.540585 0.0574217 0)
(0.525016 0.0612147 0)
(0.508526 0.0652145 0)
(0.491072 0.0694262 0)
(0.472608 0.0738516 0)
(0.453088 0.0784888 0)
(0.432465 0.0833307 0)
(0.410691 0.0883641 0)
(0.387725 0.0935671 0)
(0.363523 0.0989094 0)
(0.338052 0.104346 0)
(0.311285 0.109823 0)
(0.283205 0.115267 0)
(0.253819 0.120596 0)
(0.223144 0.125706 0)
(0.191238 0.130479 0)
(0.158192 0.134797 0)
(0.124049 0.13854 0)
(0.0895441 0.141562 0)
(0.0524188 0.143972 0)
(0.0210236 0.145396 0)
(2.59319 0.000105408 0)
(1.62567 0.00127282 0)
(0.499364 0.00537866 0)
(0.553388 0.00635223 0)
(0.655222 0.00724628 0)
(0.720801 0.00839509 0)
(0.73383 0.00968354 0)
(0.727084 0.0110074 0)
(0.717279 0.0124132 0)
(0.709861 0.013919 0)
(0.705625 0.0155178 0)
(0.702253 0.0171995 0)
(0.698362 0.0189617 0)
(0.69372 0.0208078 0)
(0.688487 0.0227432 0)
(0.682785 0.0247731 0)
(0.676631 0.0269026 0)
(0.669993 0.0291371 0)
(0.662838 0.0314832 0)
(0.655143 0.0339483 0)
(0.646886 0.036541 0)
(0.638048 0.0392701 0)
(0.628603 0.0421457 0)
(0.618526 0.0451783 0)
(0.60779 0.0483789 0)
(0.596364 0.0517591 0)
(0.584216 0.0553308 0)
(0.571314 0.059106 0)
(0.55762 0.0630966 0)
(0.543095 0.0673141 0)
(0.5277 0.0717687 0)
(0.51139 0.0764695 0)
(0.49412 0.0814236 0)
(0.475842 0.086634 0)
(0.456505 0.0921014 0)
(0.436059 0.0978178 0)
(0.414452 0.103772 0)
(0.391633 0.109938 0)
(0.36755 0.116284 0)
(0.34216 0.122761 0)
(0.315422 0.129305 0)
(0.28731 0.135833 0)
(0.257812 0.142239 0)
(0.226936 0.148408 0)
(0.194723 0.154188 0)
(0.161268 0.159428 0)
(0.126588 0.163979 0)
(0.0914622 0.16764 0)
(0.0536159 0.170468 0)
(0.0214132 0.172031 0)
(2.59383 0.000118241 0)
(1.62726 0.0014591 0)
(0.500577 0.00614681 0)
(0.55353 0.00726039 0)
(0.655421 0.00828304 0)
(0.721148 0.00959838 0)
(0.734248 0.011085 0)
(0.727554 0.0126153 0)
(0.717828 0.0142434 0)
(0.710492 0.015983 0)
(0.706329 0.017826 0)
(0.703025 0.0197637 0)
(0.699204 0.0217946 0)
(0.694635 0.0239225 0)
(0.689481 0.0261528 0)
(0.683861 0.0284912 0)
(0.677794 0.0309434 0)
(0.671248 0.0335158 0)
(0.664192 0.0362162 0)
(0.656602 0.039053 0)
(0.648459 0.0420362 0)
(0.639741 0.0451762 0)
(0.630427 0.0484846 0)
(0.62049 0.0519737 0)
(0.609904 0.0556565 0)
(0.598638 0.0595464 0)
(0.586662 0.0636579 0)
(0.573941 0.0680049 0)
(0.56044 0.072602 0)
(0.546119 0.0774628 0)
(0.530935 0.0826007 0)
(0.514846 0.0880265 0)
(0.497801 0.0937507 0)
(0.479753 0.0997779 0)
(0.460645 0.106111 0)
(0.440424 0.112745 0)
(0.419028 0.119667 0)
(0.3964 0.126854 0)
(0.372478 0.13427 0)
(0.347205 0.141864 0)
(0.320527 0.149562 0)
(0.292397 0.157275 0)
(0.26279 0.164877 0)
(0.231689 0.172227 0)
(0.199121 0.179153 0)
(0.165168 0.185451 0)
(0.129839 0.190929 0)
(0.0939397 0.195336 0)
(0.0551453 0.198674 0)
(0.021921 0.200429 0)
(2.59458 0.000131002 0)
(1.62912 0.00164372 0)
(0.501989 0.00691288 0)
(0.553687 0.00816796 0)
(0.655646 0.00932146 0)
(0.721554 0.0108069 0)
(0.734743 0.0124956 0)
(0.728113 0.0142382 0)
(0.718481 0.0160964 0)
(0.711238 0.0180779 0)
(0.707161 0.0201735 0)
(0.703938 0.0223756 0)
(0.7002 0.0246835 0)
(0.695718 0.0271015 0)
(0.690655 0.0296353 0)
(0.685132 0.0322906 0)
(0.679167 0.0350741 0)
(0.67273 0.037993 0)
(0.66579 0.0410562 0)
(0.658324 0.0442736 0)
(0.650315 0.0476564 0)
(0.641741 0.0512166 0)
(0.632581 0.0549675 0)
(0.62281 0.0589232 0)
(0.612401 0.063099 0)
(0.601326 0.0675103 0)
(0.589553 0.072174 0)
(0.57705 0.0771066 0)
(0.563778 0.0823256 0)
(0.5497 0.0878472 0)
(0.534773 0.0936882 0)
(0.51895 0.0998627 0)
(0.502181 0.106384 0)
(0.484414 0.11326 0)
(0.465589 0.120497 0)
(0.445645 0.128093 0)
(0.424518 0.136036 0)
(0.402135 0.144307 0)
(0.378427 0.152868 0)
(0.353318 0.161667 0)
(0.326741 0.170624 0)
(0.298622 0.179642 0)
(0.268914 0.188579 0)
(0.237578 0.197268 0)
(0.204606 0.205503 0)
(0.170068 0.213041 0)
(0.133935 0.219627 0)
(0.0970654 0.224938 0)
(0.0571065 0.228899 0)
(0.0226264 0.230905 0)
(2.59545 0.000143565 0)
(1.63129 0.0018249 0)
(0.503615 0.00766939 0)
(0.553863 0.00906755 0)
(0.655903 0.0103544 0)
(0.722026 0.0120118 0)
(0.735324 0.0139077 0)
(0.728775 0.0158675 0)
(0.719252 0.0179625 0)
(0.712117 0.0201946 0)
(0.708137 0.0225518 0)
(0.705008 0.0250269 0)
(0.701366 0.0276204 0)
(0.696985 0.0303369 0)
(0.692029 0.0331823 0)
(0.686619 0.0361627 0)
(0.680772 0.0392855 0)
(0.674461 0.042559 0)
(0.667656 0.0459931 0)
(0.660335 0.049599 0)
(0.652481 0.0533895 0)
(0.644075 0.0573782 0)
(0.635094 0.0615802 0)
(0.625517 0.0660117 0)
(0.615316 0.07069 0)
(0.604464 0.0756331 0)
(0.592931 0.0808604 0)
(0.580682 0.0863912 0)
(0.567683 0.0922461 0)
(0.553893 0.0984448 0)
(0.539269 0.105007 0)
(0.523764 0.111952 0)
(0.507327 0.119296 0)
(0.489899 0.127053 0)
(0.47142 0.135231 0)
(0.451821 0.143834 0)
(0.431029 0.152855 0)
(0.408962 0.162278 0)
(0.385536 0.172066 0)
(0.360659 0.182171 0)
(0.334237 0.192509 0)
(0.306179 0.202974 0)
(0.276394 0.213416 0)
(0.244821 0.223638 0)
(0.211407 0.233404 0)
(0.176191 0.242407 0)
(0.139121 0.250326 0)
(0.101047 0.256757 0)
(0.059585 0.261526 0)
(0.0235161 0.263883 0)
(2.59644 0.000155531 0)
(1.63377 0.00200075 0)
(0.505469 0.00840485 0)
(0.554065 0.0099501 0)
(0.656197 0.0113739 0)
(0.722572 0.0132016 0)
(0.736004 0.0153084 0)
(0.729548 0.0174904 0)
(0.720157 0.0198305 0)
(0.713144 0.0223226 0)
(0.709276 0.0249507 0)
(0.706255 0.0277078 0)
(0.702724 0.0305953 0)
(0.698459 0.0336185 0)
(0.693624 0.0367835 0)
(0.688343 0.0400968 0)
(0.682632 0.0435664 0)
(0.676466 0.0472016 0)
(0.669815 0.0510136 0)
(0.662661 0.0550151 0)
(0.654985 0.0592201 0)
(0.646771 0.0636443 0)
(0.637999 0.0683046 0)
(0.628645 0.0732192 0)
(0.618684 0.0784079 0)
(0.608091 0.0838914 0)
(0.596835 0.0896915 0)
(0.584884 0.0958312 0)
(0.572202 0.102334 0)
(0.55875 0.109224 0)
(0.544484 0.116525 0)
(0.529356 0.12426 0)
(0.513312 0.132452 0)
(0.496293 0.141119 0)
(0.478233 0.150275 0)
(0.459056 0.159933 0)
(0.438682 0.170089 0)
(0.417017 0.180736 0)
(0.393961 0.191843 0)
(0.369402 0.203365 0)
(0.343222 0.215224 0)
(0.315295 0.227304 0)
(0.285494 0.239453 0)
(0.253705 0.251448 0)
(0.219829 0.263018 0)
(0.183843 0.273808 0)
(0.145641 0.283393 0)
(0.106107 0.29125 0)
(0.0627951 0.297069 0)
(0.02473 0.299909 0)
(2.59757 0.000164385 0)
(1.63657 0.00217109 0)
(0.507563 0.00910141 0)
(0.5543 0.0108026 0)
(0.656533 0.0123717 0)
(0.723198 0.0143598 0)
(0.736792 0.0166828 0)
(0.730454 0.0190937 0)
(0.721215 0.0216875 0)
(0.714342 0.0244497 0)
(0.710598 0.0273587 0)
(0.7077 0.0304069 0)
(0.704294 0.0335972 0)
(0.700161 0.0369354 0)
(0.695465 0.0404277 0)
(0.690328 0.0440811 0)
(0.684772 0.0479043 0)
(0.678769 0.0519077 0)
(0.672294 0.0561037 0)
(0.665328 0.0605065 0)
(0.657856 0.0651317 0)
(0.649862 0.0699968 0)
(0.641326 0.0751208 0)
(0.632227 0.0805241 0)
(0.622543 0.0862289 0)
(0.612247 0.0922588 0)
(0.601311 0.0986387 0)
(0.589703 0.105395 0)
(0.577388 0.112555 0)
(0.564328 0.120147 0)
(0.55048 0.1282 0)
(0.535794 0.136743 0)
(0.520216 0.145803 0)
(0.503683 0.155408 0)
(0.486127 0.165579 0)
(0.467465 0.176335 0)
(0.447609 0.187686 0)
(0.426454 0.199631 0)
(0.403882 0.212154 0)
(0.379761 0.225215 0)
(0.353939 0.238749 0)
(0.326256 0.252644 0)
(0.29653 0.266744 0)
(0.264591 0.280816 0)
(0.230269 0.294543 0)
(0.193468 0.307511 0)
(0.153977 0.319202 0)
(0.112637 0.328934 0)
(0.0669421 0.336203 0)
(0.0262965 0.33975 0)
(2.59883 0.000169735 0)
(1.63971 0.00233274 0)
(0.509892 0.00974843 0)
(0.554576 0.0116072 0)
(0.65691 0.0133249 0)
(0.723904 0.0154664 0)
(0.737701 0.0180155 0)
(0.7315 0.0206618 0)
(0.722441 0.0235184 0)
(0.715726 0.0265615 0)
(0.712122 0.0297617 0)
(0.70936 0.0331107 0)
(0.706096 0.0366124 0)
(0.702111 0.0402734 0)
(0.697569 0.0441001 0)
(0.692596 0.0481 0)
(0.687212 0.0522823 0)
(0.681394 0.0566589 0)
(0.675117 0.0612433 0)
(0.668364 0.0660513 0)
(0.661121 0.0711003 0)
(0.653375 0.0764097 0)
(0.645107 0.0820004 0)
(0.636299 0.0878956 0)
(0.626928 0.0941197 0)
(0.61697 0.1007 0)
(0.606398 0.107663 0)
(0.595183 0.115041 0)
(0.583291 0.122864 0)
(0.570684 0.131166 0)
(0.55732 0.139981 0)
(0.543149 0.149345 0)
(0.528118 0.159291 0)
(0.512162 0.169857 0)
(0.495208 0.181074 0)
(0.477172 0.192971 0)
(0.457955 0.205572 0)
(0.437442 0.218891 0)
(0.415499 0.232928 0)
(0.39197 0.247659 0)
(0.366672 0.263039 0)
(0.339398 0.27897 0)
(0.309912 0.295307 0)
(0.277953 0.311818 0)
(0.243258 0.328169 0)
(0.205604 0.34388 0)
(0.164657 0.358305 0)
(0.121178 0.370565 0)
(0.0725098 0.379868 0)
(0.0284963 0.384479 0)
(2.60023 0.000178182 0)
(1.64318 0.00247437 0)
(0.512459 0.0103505 0)
(0.554896 0.0123456 0)
(0.657337 0.014193 0)
(0.724703 0.0165058 0)
(0.73875 0.0192788 0)
(0.732711 0.0221708 0)
(0.723862 0.0253072 0)
(0.717324 0.028644 0)
(0.713875 0.032146 0)
(0.711263 0.0358057 0)
(0.708155 0.0396281 0)
(0.704334 0.0436205 0)
(0.699965 0.047789 0)
(0.695172 0.0521417 0)
(0.689979 0.0566886 0)
(0.684366 0.0614429 0)
(0.678309 0.0664192 0)
(0.671794 0.0716352 0)
(0.664808 0.0771097 0)
(0.65734 0.0828645 0)
(0.649374 0.0889224 0)
(0.640892 0.0953093 0)
(0.631874 0.102052 0)
(0.622298 0.109181 0)
(0.61214 0.116728 0)
(0.601372 0.124727 0)
(0.589961 0.133213 0)
(0.577873 0.142226 0)
(0.565066 0.151807 0)
(0.551493 0.161997 0)
(0.537099 0.172841 0)
(0.521822 0.184384 0)
(0.505586 0.19667 0)
(0.488304 0.209743 0)
(0.469872 0.223644 0)
(0.450165 0.238406 0)
(0.429034 0.254053 0)
(0.4063 0.27059 0)
(0.381748 0.287998 0)
(0.355123 0.306214 0)
(0.326121 0.325119 0)
(0.29439 0.344505 0)
(0.259525 0.364041 0)
(0.221137 0.383215 0)
(0.178646 0.401255 0)
(0.132612 0.417061 0)
(0.0800926 0.4294 0)
(0.0315283 0.435748 0)
(2.60175 0.000188062 0)
(1.64699 0.00259152 0)
(0.515291 0.0108815 0)
(0.555264 0.0129881 0)
(0.657836 0.0149471 0)
(0.725637 0.0174466 0)
(0.739972 0.0204496 0)
(0.734136 0.0235993 0)
(0.725528 0.0270318 0)
(0.719184 0.0306764 0)
(0.715901 0.0344919 0)
(0.713454 0.0384716 0)
(0.710518 0.0426218 0)
(0.706876 0.0469512 0)
(0.702694 0.0514656 0)
(0.698098 0.0561741 0)
(0.693115 0.0610875 0)
(0.687727 0.0662203 0)
(0.681912 0.0715889 0)
(0.675658 0.0772124 0)
(0.668957 0.0831118 0)
(0.661796 0.0893106 0)
(0.654164 0.0958341 0)
(0.646045 0.10271 0)
(0.637421 0.10997 0)
(0.628274 0.117645 0)
(0.61858 0.125771 0)
(0.608314 0.134387 0)
(0.597449 0.143533 0)
(0.58595 0.153254 0)
(0.573779 0.163598 0)
(0.560893 0.174615 0)
(0.547238 0.186359 0)
(0.532754 0.198885 0)
(0.517367 0.212255 0)
(0.500989 0.226528 0)
(0.483514 0.241765 0)
(0.464811 0.258028 0)
(0.444721 0.27537 0)
(0.423047 0.293836 0)
(0.399544 0.313451 0)
(0.373907 0.334212 0)
(0.345761 0.356053 0)
(0.314644 0.378823 0)
(0.279987 0.402287 0)
(0.241133 0.425908 0)
(0.197202 0.448801 0)
(0.148343 0.469694 0)
(0.0910111 0.48671 0)
(0.0361575 0.496119 0)
(2.6034 0.000193997 0)
(1.65112 0.00268135 0)
(0.518372 0.0112915 0)
(0.555685 0.0134947 0)
(0.658423 0.0155609 0)
(0.726733 0.0182457 0)
(0.741404 0.021503 0)
(0.73581 0.024927 0)
(0.72748 0.0286724 0)
(0.721345 0.032646 0)
(0.71824 0.0367949 0)
(0.715968 0.0411114 0)
(0.713217 0.0456038 0)
(0.709769 0.0502811 0)
(0.705789 0.0551508 0)
(0.701407 0.0602215 0)
(0.696652 0.0655055 0)
(0.691508 0.0710181 0)
(0.685958 0.0767779 0)
(0.679992 0.0828055 0)
(0.673602 0.0891242 0)
(0.666781 0.0957595 0)
(0.659518 0.102739 0)
(0.6518 0.110095 0)
(0.643613 0.117858 0)
(0.63494 0.126066 0)
(0.625763 0.134759 0)
(0.61606 0.143977 0)
(0.605805 0.153769 0)
(0.59497 0.164184 0)
(0.58352 0.175277 0)
(0.571417 0.187107 0)
(0.558612 0.199739 0)
(0.545048 0.213242 0)
(0.530656 0.227692 0)
(0.515352 0.24317 0)
(0.499034 0.259763 0)
(0.48157 0.277561 0)
(0.462799 0.296661 0)
(0.442514 0.317161 0)
(0.420455 0.339135 0)
(0.396276 0.362695 0)
(0.369528 0.387867 0)
(0.339685 0.414529 0)
(0.305963 0.442725 0)
(0.267312 0.472043 0)
(0.22243 0.501646 0)
(0.170708 0.53009 0)
(0.107367 0.5549 0)
(0.0434845 0.570079 0)
(2.60515 0.000196635 0)
(1.65554 0.00273194 0)
(0.521678 0.0115325 0)
(0.55617 0.0138173 0)
(0.65912 0.0159849 0)
(0.728032 0.0188582 0)
(0.7431 0.0223871 0)
(0.737788 0.0261031 0)
(0.729779 0.0301793 0)
(0.723875 0.034495 0)
(0.720957 0.0389846 0)
(0.71887 0.0436403 0)
(0.716314 0.0484748 0)
(0.713071 0.053499 0)
(0.709307 0.0587222 0)
(0.705152 0.0641536 0)
(0.70064 0.0698066 0)
(0.695759 0.0756979 0)
(0.690493 0.0818477 0)
(0.684837 0.0882782 0)
(0.678785 0.0950145 0)
(0.672332 0.102084 0)
(0.665471 0.109516 0)
(0.658192 0.117344 0)
(0.650484 0.125605 0)
(0.642334 0.134336 0)
(0.633728 0.143581 0)
(0.624647 0.153388 0)
(0.615072 0.163807 0)
(0.604978 0.174896 0)
(0.594339 0.186715 0)
(0.58312 0.199335 0)
(0.571282 0.212829 0)
(0.558776 0.227283 0)
(0.545541 0.24279 0)
(0.531502 0.259452 0)
(0.516566 0.277386 0)
(0.500616 0.296721 0)
(0.483498 0.317593 0)
(0.464999 0.34021 0)
(0.44489 0.364638 0)
(0.42282 0.391079 0)
(0.398181 0.419912 0)
(0.370526 0.451195 0)
(0.338963 0.485064 0)
(0.301918 0.521528 0)
(0.257466 0.560254 0)
(0.203867 0.600029 0)
(0.133826 0.638311 0)
(0.0565621 0.666352 0)
(2.60699 0.00019511 0)
(1.66017 0.00273243 0)
(0.525177 0.0115295 0)
(0.556747 0.0138809 0)
(0.659964 0.0161582 0)
(0.729582 0.0192483 0)
(0.745116 0.0230983 0)
(0.74013 0.0271658 0)
(0.732477 0.031639 0)
(0.72681 0.0363503 0)
(0.724078 0.0412209 0)
(0.72218 0.0462467 0)
(0.719828 0.0514455 0)
(0.716803 0.0568327 0)
(0.713269 0.0624164 0)
(0.709358 0.0682076 0)
(0.705108 0.0742217 0)
(0.70051 0.0804783 0)
(0.695553 0.0869999 0)
(0.690232 0.0938116 0)
(0.684547 0.100941 0)
(0.678494 0.108418 0)
(0.672069 0.116275 0)
(0.665268 0.124548 0)
(0.658081 0.133275 0)
(0.650501 0.1425 0)
(0.642519 0.152268 0)
(0.634121 0.16263 0)
(0.625293 0.173644 0)
(0.61602 0.18537 0)
(0.606281 0.197878 0)
(0.596051 0.211246 0)
(0.585301 0.225561 0)
(0.573995 0.240919 0)
(0.562086 0.257434 0)
(0.549515 0.27523 0)
(0.536211 0.29444 0)
(0.522068 0.315288 0)
(0.507012 0.337859 0)
(0.490765 0.362403 0)
(0.473075 0.389352 0)
(0.453936 0.418931 0)
(0.432725 0.451625 0)
(0.408639 0.487934 0)
(0.38087 0.528308 0)
(0.347872 0.573475 0)
(0.307002 0.624256 0)
(0.255024 0.680986 0)
(0.180399 0.743032 0)
(0.0832334 0.80319 0)
(2.60887 0.000137836 0)
(1.66494 0.00273141 0)
(0.528767 0.0111894 0)
(0.557439 0.0135356 0)
(0.661014 0.0159099 0)
(0.731482 0.0192001 0)
(0.747583 0.0233737 0)
(0.742989 0.0277964 0)
(0.735736 0.0326703 0)
(0.730302 0.0377709 0)
(0.727745 0.0430101 0)
(0.726026 0.0483958 0)
(0.723876 0.0539566 0)
(0.721069 0.0597096 0)
(0.717763 0.0656634 0)
(0.714097 0.071828 0)
(0.710113 0.0782187 0)
(0.705807 0.0848561 0)
(0.701172 0.091764 0)
(0.696207 0.0989686 0)
(0.690911 0.106499 0)
(0.685287 0.114385 0)
(0.679332 0.122663 0)
(0.673046 0.13137 0)
(0.666425 0.140546 0)
(0.659465 0.150238 0)
(0.652162 0.160494 0)
(0.644509 0.171371 0)
(0.636501 0.182929 0)
(0.628128 0.195235 0)
(0.61938 0.208366 0)
(0.610246 0.222409 0)
(0.600709 0.237459 0)
(0.59075 0.253625 0)
(0.580343 0.271047 0)
(0.569435 0.289903 0)
(0.558047 0.310215 0)
(0.546014 0.33226 0)
(0.533227 0.356424 0)
(0.519864 0.382914 0)
(0.505646 0.412248 0)
(0.490276 0.444862 0)
(0.473502 0.481247 0)
(0.45483 0.522387 0)
(0.433616 0.569458 0)
(0.40869 0.62428 0)
(0.37766 0.689748 0)
(0.336619 0.770937 0)
(0.270953 0.878198 0)
(0.146445 1.04343 0)
(2.61125 7.72997e-05 0)
(1.67071 0.00260136 0)
(0.532471 0.0103654 0)
(0.557931 0.0128011 0)
(0.662135 0.0154196 0)
(0.733815 0.0191739 0)
(0.750742 0.0239718 0)
(0.7467 0.0290312 0)
(0.739981 0.0345484 0)
(0.73484 0.0402163 0)
(0.732515 0.0459453 0)
(0.731068 0.0517711 0)
(0.729232 0.0577441 0)
(0.726767 0.063891 0)
(0.723823 0.0702268 0)
(0.720542 0.0767657 0)
(0.716975 0.0835284 0)
(0.713124 0.0905407 0)
(0.708986 0.0978309 0)
(0.704563 0.105429 0)
(0.699861 0.113367 0)
(0.694886 0.121678 0)
(0.689641 0.130399 0)
(0.684132 0.139571 0)
(0.678362 0.149235 0)
(0.672334 0.15944 0)
(0.666053 0.170237 0)
(0.659524 0.181683 0)
(0.652752 0.193844 0)
(0.645742 0.20679 0)
(0.638502 0.220604 0)
(0.631038 0.235375 0)
(0.623352 0.251231 0)
(0.615472 0.268256 0)
(0.607462 0.286541 0)
(0.599091 0.306337 0)
(0.590411 0.327872 0)
(0.5819 0.351328 0)
(0.573415 0.377134 0)
(0.564733 0.405653 0)
(0.555975 0.437232 0)
(0.547226 0.472581 0)
(0.538678 0.512538 0)
(0.530555 0.558387 0)
(0.5234 0.611912 0)
(0.51839 0.675879 0)
(0.518245 0.754749 0)
(0.53117 0.855953 0)
(0.587144 0.99067 0)
(0.657224 1.18535 0)
(2.61376 5.91673e-05 0)
(1.67685 0.00193966 0)
(0.536988 0.00775283 0)
(0.55957 0.00991326 0)
(0.664781 0.0124945 0)
(0.738205 0.016669 0)
(0.75621 0.0221988 0)
(0.752768 0.028038 0)
(0.74651 0.0343686 0)
(0.741437 0.0407566 0)
(0.739128 0.0471334 0)
(0.737781 0.0535749 0)
(0.736126 0.0601462 0)
(0.733883 0.0668736 0)
(0.731192 0.0737679 0)
(0.7282 0.0808442 0)
(0.724966 0.0881257 0)
(0.7215 0.095641 0)
(0.717802 0.10342 0)
(0.713876 0.111496 0)
(0.709731 0.119901 0)
(0.705376 0.128671 0)
(0.70082 0.137846 0)
(0.696073 0.147467 0)
(0.691145 0.15758 0)
(0.686046 0.168235 0)
(0.680791 0.179486 0)
(0.675394 0.191395 0)
(0.669873 0.204025 0)
(0.664249 0.217457 0)
(0.658539 0.231796 0)
(0.652811 0.247057 0)
(0.647042 0.263359 0)
(0.641157 0.280917 0)
(0.635395 0.299864 0)
(0.629969 0.320333 0)
(0.62477 0.34267 0)
(0.619867 0.367072 0)
(0.615489 0.39373 0)
(0.61179 0.423097 0)
(0.609046 0.455693 0)
(0.607732 0.492174 0)
(0.608517 0.533454 0)
(0.612493 0.580683 0)
(0.621484 0.635526 0)
(0.63881 0.70014 0)
(0.670479 0.777442 0)
(0.725503 0.870868 0)
(0.836667 0.980443 0)
(0.984538 1.09502 0)
(2.61521 7.00534e-05 0)
(1.6804 0.00130218 0)
(0.539843 0.00544967 0)
(0.56132 0.00789933 0)
(0.668134 0.0110902 0)
(0.743972 0.0164512 0)
(0.763423 0.0232482 0)
(0.760712 0.0301822 0)
(0.754924 0.0372428 0)
(0.749845 0.0440491 0)
(0.747545 0.0507237 0)
(0.746335 0.0574438 0)
(0.744884 0.0642898 0)
(0.742865 0.0712819 0)
(0.74041 0.0784267 0)
(0.737679 0.0857474 0)
(0.734746 0.0932773 0)
(0.731625 0.101051 0)
(0.728319 0.109102 0)
(0.724837 0.117464 0)
(0.721192 0.12617 0)
(0.717398 0.135257 0)
(0.713471 0.144761 0)
(0.709426 0.154723 0)
(0.705282 0.165187 0)
(0.701058 0.176199 0)
(0.696777 0.187811 0)
(0.692463 0.20009 0)
(0.688153 0.213089 0)
(0.683919 0.226838 0)
(0.679666 0.241451 0)
(0.675429 0.257072 0)
(0.671542 0.273762 0)
(0.668043 0.291684 0)
(0.664849 0.311035 0)
(0.662119 0.331897 0)
(0.660024 0.354442 0)
(0.658742 0.378934 0)
(0.658552 0.405665 0)
(0.659823 0.434978 0)
(0.66302 0.467329 0)
(0.66889 0.503238 0)
(0.678499 0.543364 0)
(0.693325 0.588473 0)
(0.715753 0.63942 0)
(0.74924 0.697048 0)
(0.799374 0.761631 0)
(0.871757 0.832213 0)
(0.984702 0.903837 0)
(1.12037 0.956674 0)
(2.61642 4.01628e-05 0)
(1.68347 -0.00153303 0)
(0.545203 -0.00484934 0)
(0.567292 -0.0030545 0)
(0.675905 0.000986471 0)
(0.75411 0.00903634 0)
(0.77444 0.0185684 0)
(0.771506 0.0278514 0)
(0.765122 0.0364378 0)
(0.759452 0.0442393 0)
(0.756974 0.0517314 0)
(0.755847 0.0592095 0)
(0.754564 0.0667517 0)
(0.752729 0.0743771 0)
(0.750486 0.0820813 0)
(0.748024 0.0899002 0)
(0.745421 0.0978792 0)
(0.742689 0.106059 0)
(0.739826 0.114479 0)
(0.736838 0.123174 0)
(0.73374 0.132186 0)
(0.730548 0.141551 0)
(0.72728 0.151311 0)
(0.723956 0.161506 0)
(0.720603 0.172183 0)
(0.717243 0.183402 0)
(0.713927 0.195184 0)
(0.710675 0.207572 0)
(0.707444 0.220668 0)
(0.70436 0.23455 0)
(0.701637 0.249269 0)
(0.699242 0.26499 0)
(0.697187 0.281803 0)
(0.695641 0.299725 0)
(0.694706 0.31891 0)
(0.694547 0.339514 0)
(0.695382 0.361706 0)
(0.697467 0.385685 0)
(0.701158 0.411677 0)
(0.706886 0.439938 0)
(0.715258 0.470748 0)
(0.727086 0.504437 0)
(0.743504 0.541287 0)
(0.766007 0.581575 0)
(0.796651 0.625384 0)
(0.838127 0.672435 0)
(0.89407 0.721672 0)
(0.967179 0.770504 0)
(1.06838 0.814713 0)
(1.18142 0.840274 0)
(2.61208 0.00229252 0)
(1.67344 -0.00677213 0)
(0.549778 -0.013796 0)
(0.583097 -0.00802259 0)
(0.696157 -0.000397417 0)
(0.777932 0.00987428 0)
(0.798546 0.0200663 0)
(0.794129 0.029712 0)
(0.785799 0.0382255 0)
(0.778754 0.0460861 0)
(0.775636 0.0537664 0)
(0.774154 0.0614231 0)
(0.772567 0.0690909 0)
(0.770426 0.0768015 0)
(0.767889 0.0846079 0)
(0.765199 0.0925628 0)
(0.762437 0.100711 0)
(0.759608 0.109089 0)
(0.756711 0.117731 0)
(0.753759 0.12667 0)
(0.750768 0.135938 0)
(0.747761 0.145569 0)
(0.744755 0.155596 0)
(0.741779 0.16605 0)
(0.738887 0.176943 0)
(0.736057 0.188334 0)
(0.73329 0.200303 0)
(0.730745 0.212868 0)
(0.728518 0.226094 0)
(0.726593 0.24009 0)
(0.725031 0.254886 0)
(0.723939 0.270508 0)
(0.723404 0.287068 0)
(0.723571 0.304659 0)
(0.724604 0.323384 0)
(0.726683 0.343376 0)
(0.730059 0.364752 0)
(0.735011 0.387666 0)
(0.741915 0.412251 0)
(0.751237 0.438658 0)
(0.763574 0.467015 0)
(0.7797 0.497427 0)
(0.800588 0.529914 0)
(0.82749 0.564359 0)
(0.861928 0.600418 0)
(0.905735 0.637331 0)
(0.961197 0.673762 0)
(1.02992 0.707376 0)
(1.11629 0.735246 0)
(1.20914 0.748996 0)
(2.6038 0.00791815 0)
(1.64321 -0.0735297 0)
(0.585088 -0.072592 0)
(0.623988 -0.0457719 0)
(0.73142 -0.00578432 0)
(0.809052 0.0165009 0)
(0.827062 0.0266045 0)
(0.821109 0.0352669 0)
(0.811596 0.0426335 0)
(0.804234 0.0507496 0)
(0.800858 0.0592805 0)
(0.798998 0.0677132 0)
(0.797016 0.0759241 0)
(0.794573 0.0839935 0)
(0.791848 0.0920579 0)
(0.789015 0.100196 0)
(0.786134 0.108457 0)
(0.783203 0.116881 0)
(0.780224 0.125511 0)
(0.777208 0.134394 0)
(0.774177 0.143578 0)
(0.771157 0.153089 0)
(0.76817 0.162943 0)
(0.765209 0.173192 0)
(0.76235 0.183903 0)
(0.759738 0.195085 0)
(0.757357 0.206793 0)
(0.755207 0.219087 0)
(0.753407 0.231986 0)
(0.752031 0.245546 0)
(0.751155 0.259839 0)
(0.750889 0.274929 0)
(0.751361 0.290876 0)
(0.752724 0.307762 0)
(0.755155 0.325645 0)
(0.75885 0.344613 0)
(0.764061 0.364734 0)
(0.771091 0.38609 0)
(0.780285 0.40875 0)
(0.792092 0.432763 0)