/*--------------------------------*- C++ -*----------------------------------*\
| =========                 |                                                 |
| \\      /  F ield         | OpenFOAM: The Open Source CFD Toolbox           |
|  \\    /   O peration     | Version:  2412                                  |
|   \\  /    A nd           | Website:  www.openfoam.com                      |
|    \\/     M anipulation  |                                                 |
\*---------------------------------------------------------------------------*/
FoamFile
{
    version     2.0;
    format      ascii;
    arch        "LSB;label=32;scalar=64";
    class       volScalarField;
    location    "12";
    object      Ma;
}
// * * * * * * * * * * * * * * * * * * * * * * * * * * * * * * * * * * * * * //

dimensions      [0 0 0 0 0 0 0];

internalField   nonuniform List<scalar> 
7000
(
2.26637
1.01239
0.313222
0.339798
0.403106
0.446165
0.455086
0.450959
0.444909
0.440165
0.437509
0.43551
0.433198
0.4304
0.427185
0.423624
0.419771
0.415587
0.411045
0.406114
0.400764
0.395004
0.388821
0.382188
0.375071
0.367459
0.359353
0.350744
0.341636
0.332005
0.321803
0.311011
0.299623
0.287598
0.274943
0.261677
0.247755
0.233195
0.217992
0.202087
0.185553
0.168433
0.150613
0.13207
0.112996
0.0935784
0.073966
0.054294
0.0331881
0.0155704
2.26645
1.0125
0.313055
0.339742
0.40322
0.446238
0.455096
0.45093
0.444849
0.440103
0.437444
0.435437
0.433114
0.430307
0.427087
0.423526
0.419677
0.415496
0.410959
0.406034
0.400692
0.394943
0.388769
0.382143
0.375031
0.367425
0.359328
0.350734
0.341642
0.332028
0.321844
0.311068
0.299698
0.287692
0.275058
0.261816
0.24792
0.233389
0.218217
0.202348
0.185855
0.168785
0.151024
0.132565
0.113612
0.0943787
0.0750679
0.0559721
0.0363185
0.0221828
2.26655
1.01266
0.313134
0.33967
0.402917
0.445973
0.45493
0.450824
0.444822
0.440102
0.437449
0.435452
0.433151
0.43037
0.427175
0.423634
0.4198
0.415634
0.411112
0.406204
0.400881
0.395153
0.389
0.382398
0.375313
0.367734
0.359667
0.351106
0.342051
0.33248
0.322342
0.311616
0.300299
0.288354
0.275785
0.262617
0.248804
0.234366
0.2193
0.203553
0.187203
0.170302
0.152752
0.134568
0.115993
0.0972962
0.0787923
0.061039
0.0440451
0.0336987
2.26674
1.013
0.313479
0.339842
0.403259
0.446304
0.455187
0.451058
0.445026
0.44032
0.437685
0.435695
0.433391
0.43061
0.427418
0.423883
0.420058
0.415902
0.411397
0.406513
0.401219
0.395525
0.389407
0.382842
0.375797
0.368263
0.360249
0.351747
0.342756
0.333256
0.323196
0.312553
0.301331
0.289489
0.277033
0.263991
0.250318
0.236037
0.221149
0.205606
0.189493
0.172873
0.155667
0.137923
0.11993
0.102027
0.0846448
0.0685577
0.0541899
0.0463203
2.26698
1.01341
0.313784
0.339879
0.403112
0.446165
0.45516
0.451083
0.44515
0.440488
0.437859
0.435875
0.43359
0.430839
0.427685
0.424188
0.420397
0.416269
0.411788
0.406936
0.401682
0.396039
0.38998
0.383472
0.376487
0.369015
0.361069
0.352646
0.343745
0.334344
0.324399
0.313882
0.302796
0.291108
0.278818
0.265957
0.25249
0.238435
0.223802
0.208551
0.192774
0.176547
0.159817
0.142664
0.125428
0.108511
0.0924261
0.0780549
0.0659191
0.05966
2.2673
1.014
0.314309
0.340029
0.403435
0.446556
0.455501
0.451423
0.445461
0.440815
0.438216
0.436252
0.433977
0.431233
0.428095
0.424623
0.420859
0.41676
0.41231
0.407497
0.402296
0.396715
0.390727
0.384298
0.377391
0.370003
0.362151
0.353833
0.345053
0.335788
0.325991
0.315639
0.304736
0.293245
0.281175
0.268557
0.255359
0.241604
0.22731
0.212442
0.197105
0.181388
0.165262
0.148843
0.132511
0.116714
0.102011
0.0892786
0.0789602
0.0738144
2.26771
1.01472
0.314816
0.340118
0.403404
0.446495
0.455554
0.45153
0.445697
0.441146
0.438593
0.436654
0.434404
0.431692
0.428604
0.425192
0.421487
0.417435
0.413027
0.408261
0.403121
0.397617
0.391715
0.385378
0.378575
0.371298
0.363572
0.355393
0.346762
0.337662
0.328043
0.317885
0.307199
0.295952
0.284152
0.271838
0.258977
0.245599
0.231729
0.217339
0.202544
0.187451
0.172054
0.15649
0.141177
0.126583
0.113255
0.102026
0.0932016
0.088857
2.26821
1.0156
0.315499
0.340277
0.403601
0.446762
0.455876
0.451905
0.446138
0.441653
0.439159
0.43727
0.435061
0.432384
0.429332
0.425966
0.422313
0.418316
0.413966
0.409265
0.404194
0.398765
0.392948
0.386708
0.380017
0.372871
0.365293
0.357282
0.348833
0.339932
0.330536
0.320623
0.310209
0.299264
0.287795
0.27585
0.263399
0.250477
0.237119
0.223305
0.209156
0.194796
0.180239
0.165638
0.151427
0.138074
0.126095
0.116212
0.108601
0.104892
2.26879
1.01664
0.316275
0.34036
0.403817
0.446937
0.456011
0.451979
0.446189
0.441743
0.439309
0.437481
0.43533
0.432706
0.42971
0.426406
0.422832
0.418935
0.414698
0.410116
0.405161
0.399844
0.394148
0.38804
0.381507
0.374549
0.367182
0.359405
0.351208
0.342577
0.333472
0.323865
0.313782
0.303204
0.292136
0.280633
0.268674
0.256294
0.243541
0.230401
0.217001
0.203481
0.18987
0.176323
0.163279
0.151178
0.140487
0.131835
0.125267
0.122026
2.26947
1.01786
0.317173
0.340517
0.404035
0.447267
0.45641
0.452428
0.446702
0.44232
0.439945
0.438169
0.436072
0.433509
0.430575
0.427327
0.423811
0.419983
0.415827
0.411342
0.406501
0.401311
0.395749
0.389802
0.383452
0.376704
0.369567
0.362036
0.354097
0.345739
0.336933
0.327665
0.317964
0.307814
0.297218
0.286237
0.274853
0.263106
0.251055
0.23869
0.226146
0.21357
0.201006
0.188596
0.176773
0.165948
0.156495
0.148954
0.143287
0.140501
2.27026
1.01926
0.318189
0.340674
0.404253
0.447613
0.456844
0.452935
0.447298
0.443001
0.440702
0.438998
0.436976
0.434486
0.431632
0.428466
0.425033
0.421298
0.417237
0.41286
0.408142
0.403087
0.39768
0.391905
0.385759
0.379242
0.37236
0.365095
0.357441
0.349393
0.340938
0.332063
0.322804
0.313149
0.303098
0.292717
0.281996
0.270973
0.259723
0.248238
0.236654
0.225131
0.213714
0.202532
0.191989
0.182451
0.174251
0.167798
0.162968
0.160504
2.27116
1.02086
0.31934
0.340843
0.4045
0.448008
0.457339
0.453504
0.447963
0.443747
0.441524
0.439894
0.437951
0.435547
0.432786
0.429725
0.426402
0.422785
0.418854
0.414615
0.410051
0.405164
0.399937
0.394367
0.388445
0.382178
0.375571
0.368607
0.361279
0.353596
0.345542
0.337121
0.328364
0.319268
0.309836
0.300131
0.290159
0.279956
0.269606
0.259111
0.248601
0.23824
0.228085
0.218229
0.209044
0.200858
0.19389
0.188515
0.184505
0.182486
2.27217
1.02267
0.320632
0.341024
0.404778
0.448457
0.457902
0.454149
0.448714
0.444595
0.442453
0.440905
0.439052
0.43674
0.434084
0.431135
0.427938
0.42446
0.420679
0.416603
0.412219
0.407528
0.402516
0.39718
0.391517
0.385533
0.379238
0.372615
0.365662
0.358389
0.350797
0.342879
0.33469
0.32622
0.317474
0.308533
0.299394
0.290109
0.280769
0.271372
0.262055
0.252983
0.244218
0.235818
0.228109
0.221386
0.215819
0.211615
0.208503
0.206791
2.2733
1.0247
0.32207
0.341214
0.405088
0.448978
0.458557
0.454901
0.449585
0.445571
0.443524
0.442071
0.440314
0.438106
0.435563
0.432738
0.429676
0.426347
0.422734
0.418843
0.414664
0.410196
0.405426
0.400353
0.394984
0.389319
0.383376
0.377142
0.370606
0.363799
0.356719
0.349372
0.341805
0.334036
0.326055
0.317953
0.30975
0.301477
0.293257
0.28509
0.277101
0.269461
0.262246
0.255465
0.249396
0.244296
0.240246
0.237428
0.235359
0.234293
2.27455
1.02696
0.323658
0.341396
0.405437
0.449579
0.459316
0.455774
0.450594
0.446696
0.444751
0.443393
0.441751
0.439656
0.437242
0.434556
0.431643
0.428484
0.42505
0.421359
0.417401
0.413176
0.408678
0.403904
0.39886
0.393557
0.388001
0.382199
0.376131
0.369835
0.363329
0.356606
0.349736
0.342733
0.335601
0.328425
0.321249
0.314103
0.307124
0.300318
0.293805
0.287769
0.282299
0.27738
0.273227
0.270096
0.267995
0.26687
0.266283
0.26587
2.27589
1.02942
0.325418
0.341549
0.40583
0.450272
0.460196
0.456784
0.451762
0.447994
0.446157
0.444912
0.443389
0.441419
0.43914
0.436607
0.433853
0.430875
0.427644
0.424173
0.420464
0.416505
0.412298
0.407846
0.403159
0.398245
0.393124
0.387786
0.382243
0.376509
0.370629
0.364599
0.358482
0.352328
0.346114
0.339967
0.333912
0.32801
0.322395
0.317102
0.312253
0.308024
0.30453
0.301762
0.299868
0.299112
0.299411
0.300875
0.302269
0.303405
2.27732
1.03201
0.327288
0.341714
0.406263
0.451058
0.461209
0.457949
0.453117
0.449485
0.447778
0.446644
0.44525
0.443419
0.441286
0.438916
0.436334
0.43355
0.430536
0.427306
0.423861
0.420192
0.416305
0.4122
0.407903
0.403418
0.398756
0.393939
0.388948
0.383829
0.37863
0.373349
0.368053
0.362813
0.357617
0.352561
0.34775
0.343193
0.33909
0.33547
0.332466
0.330298
0.329116
0.328886
0.329874
0.332249
0.336003
0.340858
0.346072
0.34969
2.2788
1.0347
0.32919
0.341908
0.406742
0.451938
0.462368
0.459297
0.454681
0.451213
0.449636
0.448629
0.447369
0.445688
0.443708
0.441511
0.439116
0.436534
0.433755
0.430778
0.427611
0.424251
0.420697
0.416971
0.41309
0.409065
0.404905
0.400637
0.39625
0.39179
0.387318
0.382843
0.378438
0.37417
0.370064
0.366209
0.362719
0.359649
0.357168
0.355406
0.354483
0.354591
0.356008
0.358855
0.363423
0.369812
0.378389
0.38937
0.400597
0.411018
2.28034
1.03748
0.331087
0.342131
0.407282
0.452922
0.46368
0.460838
0.45648
0.45319
0.451757
0.450881
0.449774
0.448247
0.446432
0.444421
0.442214
0.439853
0.437317
0.434607
0.431748
0.428721
0.425536
0.422215
0.418771
0.415227
0.411595
0.407904
0.40416
0.4004
0.396705
0.393094
0.389611
0.386409
0.38344
0.380864
0.378787
0.377313
0.376624
0.376808
0.378147
0.380935
0.385589
0.392155
0.401191
0.413159
0.428649
0.448511
0.472938
0.499887
2.28189
1.0403
0.332982
0.342396
0.407903
0.454088
0.465229
0.462658
0.45859
0.455482
0.454186
0.453445
0.452473
0.451103
0.449456
0.447625
0.445631
0.443489
0.441205
0.438777
0.436212
0.433528
0.43073
0.427833
0.424877
0.421854
0.418788
0.415701
0.412639
0.409602
0.40671
0.404001
0.4015
0.399363
0.397622
0.396383
0.395765
0.395917
0.396996
0.399363
0.403237
0.40901
0.41696
0.427886
0.442165
0.461196
0.486968
0.52282
0.57376
0.666119
2.28374
1.04367
0.335251
0.342775
0.408671
0.455674
0.467374
0.465166
0.461464
0.458562
0.45744
0.456893
0.456139
0.455011
0.453608
0.452037
0.450336
0.448521
0.446592
0.44457
0.442447
0.440243
0.437996
0.435705
0.433387
0.431112
0.428816
0.4266
0.424485
0.422493
0.420736
0.419279
0.418152
0.417534
0.417455
0.418016
0.419335
0.421804
0.425717
0.431117
0.438536
0.448177
0.461142
0.477888
0.500421
0.530161
0.571483
0.633059
0.733639
0.883765
2.2857
1.04727
0.338002
0.343944
0.410411
0.458542
0.470984
0.469156
0.465771
0.462937
0.461832
0.461371
0.460744
0.45978
0.458562
0.457189
0.455732
0.454204
0.452615
0.450965
0.449273
0.447544
0.445837
0.444129
0.442469
0.440876
0.439372
0.437994
0.436829
0.435873
0.435242
0.435009
0.435206
0.435929
0.437336
0.439703
0.44317
0.447855
0.45409
0.462239
0.472655
0.486227
0.50339
0.526045
0.555051
0.59435
0.647082
0.719917
0.832491
0.971579
2.28669
1.0491
0.339558
0.345108
0.412594
0.462298
0.475708
0.474372
0.471287
0.468465
0.467383
0.467021
0.466574
0.4658
0.464735
0.463526
0.462267
0.460992
0.459685
0.458371
0.457055
0.455749
0.454502
0.453319
0.452231
0.451282
0.450497
0.449916
0.449628
0.449659
0.450065
0.450893
0.452351
0.454621
0.457696
0.461823
0.467043
0.47382
0.482158
0.492853
0.505908
0.522541
0.543171
0.569245
0.602726
0.644838
0.701153
0.770996
0.867473
0.972094
2.28744
1.05048
0.3425
0.348925
0.417552
0.468754
0.48274
0.481258
0.47782
0.474632
0.473454
0.473172
0.472888
0.472334
0.471461
0.470428
0.469404
0.468413
0.467455
0.466514
0.46562
0.464771
0.464012
0.46335
0.46282
0.462454
0.462321
0.462437
0.46285
0.463613
0.464943
0.466872
0.469439
0.472825
0.477114
0.482562
0.489317
0.497656
0.507946
0.520382
0.535814
0.554202
0.577311
0.604673
0.639472
0.680749
0.732876
0.795061
0.873042
0.954677
2.28361
1.04349
0.344602
0.358917
0.430167
0.483587
0.497757
0.4953
0.49068
0.486617
0.48502
0.484518
0.48406
0.483365
0.482355
0.481204
0.480131
0.479142
0.478219
0.477364
0.476592
0.475928
0.475396
0.475041
0.474878
0.474946
0.475237
0.475904
0.476985
0.478578
0.480666
0.483404
0.486831
0.491095
0.496371
0.502767
0.510627
0.519985
0.531458
0.54492
0.561484
0.580701
0.604343
0.631854
0.665124
0.704517
0.750732
0.805307
0.868941
0.933779
2.28892
1.03473
0.368581
0.385406
0.451372
0.501954
0.514516
0.511134
0.505812
0.501595
0.499996
0.499407
0.498858
0.498117
0.497133
0.49608
0.495076
0.494148
0.493271
0.492441
0.491705
0.491044
0.490533
0.49015
0.490016
0.490153
0.490661
0.491498
0.492861
0.494704
0.497232
0.500369
0.504426
0.509259
0.515301
0.522358
0.531014
0.541001
0.553149
0.567066
0.583856
0.603166
0.626033
0.652653
0.683437
0.71942
0.760428
0.807421
0.86086
0.914694
1.8803
0.778274
0.282132
0.346469
0.41807
0.443902
0.445054
0.441369
0.437967
0.438058
0.440356
0.443406
0.446559
0.4498
0.45308
0.456483
0.459953
0.463482
0.467003
0.470482
0.473892
0.4772
0.480474
0.483716
0.486937
0.490119
0.493388
0.496651
0.500219
0.503928
0.508167
0.512741
0.518127
0.524099
0.531188
0.539177
0.54859
0.559356
0.571836
0.586314
0.602782
0.622057
0.643676
0.66896
0.697102
0.72959
0.765547
0.806157
0.851153
0.896141
1.87216
0.776638
0.28985
0.357916
0.429144
0.450125
0.44696
0.44048
0.434945
0.433113
0.433162
0.433701
0.434429
0.435424
0.43686
0.438695
0.44105
0.443822
0.447135
0.450726
0.454804
0.45909
0.463833
0.468679
0.473915
0.479194
0.484899
0.490655
0.496842
0.503108
0.509831
0.516763
0.524238
0.532199
0.540881
0.550437
0.560927
0.572785
0.585839
0.600793
0.617278
0.636169
0.657049
0.680727
0.70695
0.736183
0.768483
0.803613
0.842143
0.879973
1.87118
0.775234
0.291558
0.367488
0.444455
0.466021
0.461083
0.452581
0.445664
0.442947
0.44217
0.441717
0.441256
0.440925
0.44087
0.441124
0.441826
0.442928
0.444521
0.446528
0.449144
0.452228
0.456002
0.460237
0.465195
0.470568
0.476634
0.483086
0.490158
0.497649
0.505724
0.514339
0.523544
0.533388
0.543813
0.555058
0.566991
0.580063
0.594065
0.609528
0.626324
0.644864
0.665181
0.687505
0.711981
0.738631
0.767647
0.79883
0.832438
0.865051
1.87224
0.777868
0.296492
0.369438
0.444482
0.466404
0.462298
0.454565
0.448114
0.445805
0.445418
0.445349
0.445283
0.445273
0.445434
0.445808
0.446437
0.447291
0.448459
0.449904
0.451783
0.454046
0.456845
0.460165
0.464102
0.468696
0.473931
0.479926
0.486567
0.494041
0.502136
0.511111
0.520687
0.531193
0.542379
0.554567
0.56754
0.581557
0.596483
0.612567
0.629763
0.648303
0.668229
0.689704
0.712733
0.737514
0.763811
0.79187
0.821577
0.850268
1.87468
0.783704
0.303252
0.363061
0.429699
0.452258
0.450962
0.445223
0.439954
0.438228
0.438342
0.438911
0.439642
0.44051
0.441539
0.442738
0.444158
0.44577
0.447625
0.449709
0.45206
0.454737
0.457745
0.461189
0.465053
0.469481
0.474429
0.480065
0.486323
0.493393
0.50114
0.509799
0.519184
0.529556
0.540702
0.55287
0.565872
0.579955
0.594979
0.611155
0.628382
0.646839
0.666359
0.687215
0.709149
0.732527
0.756979
0.782608
0.809505
0.835284
1.8833
0.790013
0.304856
0.350428
0.412647
0.442929
0.446677
0.442282
0.437507
0.43535
0.43512
0.435623
0.436498
0.437567
0.438734
0.440054
0.441615
0.44344
0.445523
0.44791
0.450562
0.453583
0.456914
0.460676
0.464801
0.469441
0.474528
0.480208
0.486438
0.493364
0.500948
0.509335
0.518461
0.528482
0.539332
0.551135
0.56382
0.577506
0.592123
0.607791
0.624432
0.642189
0.660937
0.680854
0.70176
0.723738
0.746615
0.770375
0.79512
0.818705
2.26648
1.11276
0.412401
0.401118
0.461153
0.510552
0.522306
0.517572
0.510868
0.504901
0.501269
0.498672
0.49659
0.494642
0.492556
0.490511
0.488663
0.487103
0.485861
0.484956
0.484444
0.484367
0.484772
0.485737
0.487241
0.489402
0.492197
0.495718
0.499958
0.504992
0.510812
0.517525
0.5251
0.533625
0.5431
0.5536
0.565075
0.577591
0.591125
0.605702
0.621281
0.637901
0.655464
0.674027
0.693499
0.713884
0.735076
0.757009
0.779755
0.80139
2.27548
1.13384
0.395955
0.378541
0.451358
0.512713
0.531658
0.530984
0.52692
0.52336
0.522027
0.521663
0.521852
0.521987
0.52165
0.521021
0.520312
0.51961
0.518941
0.518339
0.51784
0.517483
0.517331
0.517444
0.517899
0.518779
0.520109
0.522029
0.524541
0.527782
0.531733
0.536531
0.542148
0.548705
0.556154
0.564588
0.574041
0.584528
0.59608
0.608701
0.622402
0.63717
0.652952
0.669704
0.687357
0.705871
0.725136
0.745079
0.765757
0.785427
2.2998
1.18164
0.438061
0.385342
0.448276
0.505016
0.52398
0.525199
0.523541
0.522615
0.523183
0.524711
0.52685
0.528849
0.530399
0.531741
0.532969
0.534193
0.535374
0.536548
0.537691
0.53885
0.540025
0.541276
0.542617
0.54412
0.545823
0.547813
0.550131
0.552882
0.556107
0.559913
0.564352
0.569506
0.575458
0.582238
0.58994
0.598566
0.608177
0.618753
0.630303
0.642802
0.656287
0.670739
0.68612
0.702421
0.719479
0.737195
0.755627
0.773205
1.90198
0.806725
0.308216
0.317468
0.374559
0.415709
0.430334
0.434329
0.437344
0.441249
0.446465
0.452811
0.459793
0.466578
0.473034
0.479361
0.485616
0.491872
0.498042
0.504143
0.510108
0.515973
0.521694
0.527314
0.5328
0.53821
0.543526
0.548822
0.554103
0.559433
0.564849
0.570458
0.576283
0.582433
0.588964
0.595977
0.603517
0.611681
0.620488
0.630048
0.640343
0.651474
0.663377
0.676114
0.689591
0.703763
0.718653
0.734224
0.750473
0.766011
2.30766
1.19752
0.452274
0.387454
0.441447
0.493388
0.510693
0.510812
0.507636
0.505162
0.503883
0.503893
0.504539
0.504989
0.505358
0.50595
0.506905
0.508352
0.510256
0.512659
0.515486
0.518805
0.522558
0.526773
0.53138
0.536405
0.541739
0.547426
0.553366
0.559625
0.5661
0.572864
0.579848
0.58712
0.594635
0.602498
0.610671
0.619271
0.628259
0.637757
0.647737
0.658294
0.669403
0.681109
0.693405
0.706299
0.719781
0.733735
0.748268
0.762123
2.31257
1.20669
0.434997
0.370364
0.439054
0.501713
0.52349
0.525029
0.522864
0.521478
0.521627
0.523036
0.525019
0.526555
0.527585
0.52846
0.529323
0.530315
0.531414
0.532747
0.534326
0.536225
0.53846
0.54109
0.54412
0.547596
0.551528
0.55593
0.56082
0.566167
0.571994
0.578244
0.584939
0.592053
0.599585
0.607503
0.61581
0.624509
0.633585
0.643052
0.652923
0.663183
0.673901
0.685004
0.696578
0.708583
0.721029
0.733868
0.747135
0.759761
2.31499
1.21181
0.438617
0.372142
0.441921
0.506124
0.528833
0.530701
0.528675
0.527491
0.528083
0.52999
0.532624
0.534954
0.536779
0.538413
0.540027
0.541715
0.543481
0.545358
0.547353
0.549522
0.551861
0.554434
0.557264
0.560376
0.563824
0.567616
0.571805
0.576403
0.581437
0.586915
0.592865
0.599264
0.606143
0.613477
0.621275
0.629517
0.63821
0.647323
0.656871
0.666811
0.677161
0.687875
0.698989
0.710447
0.722218
0.73422
0.746647
0.758349
2.31779
1.21915
0.464864
0.388286
0.447386
0.506715
0.5296
0.533071
0.532405
0.532239
0.533274
0.535568
0.538425
0.540938
0.543125
0.545199
0.547296
0.549458
0.551714
0.554071
0.556533
0.559133
0.561869
0.564773
0.567859
0.571158
0.574697
0.578488
0.582569
0.586952
0.591678
0.596766
0.602218
0.608064
0.614324
0.62101
0.628132
0.635688
0.643693
0.652117
0.660977
0.670243
0.679908
0.689977
0.700428
0.711188
0.722294
0.733681
0.745418
0.756563
1.9076
0.815218
0.325874
0.323548
0.376113
0.413885
0.426749
0.429816
0.432293
0.435894
0.440959
0.447404
0.454628
0.461812
0.468869
0.475924
0.483026
0.490179
0.497352
0.50452
0.511658
0.518763
0.525821
0.532837
0.539807
0.546755
0.553678
0.560613
0.567548
0.574533
0.581563
0.588677
0.595906
0.603272
0.610799
0.618522
0.626446
0.634608
0.643016
0.651699
0.660661
0.669916
0.679478
0.689361
0.699515
0.70995
0.720621
0.731559
0.742789
0.753447
2.31271
1.21014
0.465924
0.40339
0.465973
0.527377
0.549528
0.550734
0.546753
0.543087
0.540796
0.539431
0.538922
0.538498
0.537745
0.53694
0.536418
0.536282
0.53654
0.537316
0.538582
0.540334
0.542641
0.545445
0.548793
0.552636
0.556989
0.561816
0.567096
0.572817
0.578924
0.585408
0.592215
0.599364
0.606781
0.614506
0.622474
0.630728
0.63921
0.64797
0.656962
0.666234
0.675761
0.685551
0.695533
0.705741
0.716178
0.726814
0.737721
0.748056
2.29503
1.17178
0.461468
0.422662
0.485735
0.546439
0.566834
0.567359
0.564001
0.561187
0.560653
0.561188
0.56254
0.564017
0.564932
0.565491
0.56596
0.566492
0.567081
0.567729
0.568462
0.56933
0.570412
0.57176
0.573458
0.575521
0.577981
0.580851
0.584126
0.587838
0.591985
0.596599
0.601661
0.607178
0.613123
0.619497
0.626271
0.633439
0.640979
0.64887
0.657106
0.665656
0.674487
0.683587
0.692959
0.702608
0.712504
0.72263
0.733021
0.742889
1.88317
0.80267
0.340746
0.354739
0.405857
0.442894
0.452924
0.452765
0.451889
0.453002
0.456559
0.4615
0.467696
0.474432
0.480989
0.487433
0.493901
0.500426
0.506981
0.513495
0.519908
0.526229
0.532439
0.538582
0.544627
0.550658
0.556667
0.562723
0.568829
0.575006
0.581269
0.587638
0.594152
0.600829
0.607708
0.614773
0.622074
0.629568
0.637317
0.645288
0.653517
0.661994
0.670699
0.679632
0.688776
0.698143
0.707726
0.717502
0.727529
0.737038
1.86736
0.792842
0.340565
0.356503
0.398014
0.426594
0.434349
0.433536
0.431819
0.430786
0.431289
0.432935
0.435916
0.439534
0.443239
0.447175
0.451547
0.456497
0.462042
0.468064
0.474477
0.481183
0.488164
0.495385
0.502869
0.510579
0.518495
0.526557
0.534718
0.542963
0.551278
0.55966
0.56811
0.576643
0.585247
0.593961
0.602745
0.611631
0.62058
0.629621
0.638739
0.647968
0.657306
0.666779
0.676399
0.686159
0.696057
0.706083
0.716285
0.72593
1.88581
0.805014
0.345381
0.372929
0.429252
0.465314
0.472496
0.468495
0.463101
0.459648
0.458381
0.45803
0.458412
0.459379
0.460358
0.461312
0.462463
0.463983
0.465969
0.468436
0.471361
0.474744
0.478559
0.482861
0.4877
0.493118
0.499039
0.505443
0.512277
0.519519
0.527142
0.535133
0.543466
0.552106
0.561016
0.570127
0.579423
0.58887
0.598457
0.608167
0.617996
0.627909
0.637925
0.648018
0.658201
0.668458
0.678792
0.689211
0.699763
0.709723
2.34252
1.1273
0.471263
0.448029
0.513055
0.574335
0.594632
0.594412
0.589557
0.584494
0.581685
0.57983
0.578114
0.576588
0.574886
0.57285
0.570681
0.568526
0.56647
0.564589
0.562842
0.561292
0.559952
0.558871
0.558119
0.557806
0.557947
0.558676
0.559908
0.561658
0.563975
0.566844
0.570299
0.574316
0.578929
0.584082
0.589779
0.595949
0.602602
0.609663
0.61713
0.624985
0.633194
0.641745
0.650595
0.659724
0.669092
0.678671
0.688499
0.697824
1.89018
0.808246
0.347585
0.362787
0.414582
0.454394
0.466724
0.467996
0.46773
0.468107
0.470938
0.474992
0.479585
0.484673
0.489911
0.494993
0.500007
0.505053
0.510062
0.515038
0.519894
0.524646
0.529295
0.533851
0.538322
0.54275
0.547167
0.551637
0.556148
0.560727
0.565368
0.570094
0.57494
0.579944
0.585128
0.590544
0.596189
0.602084
0.608219
0.614606
0.621259
0.628171
0.635363
0.642839
0.650585
0.6586
0.666882
0.675389
0.684177
0.692552
1.88862
0.80749
0.349477
0.364398
0.414727
0.452162
0.461979
0.460628
0.457471
0.454865
0.454696
0.455843
0.457539
0.459814
0.462437
0.465139
0.468124
0.471513
0.475306
0.479457
0.4839
0.488601
0.49355
0.498751
0.504198
0.509872
0.51574
0.521781
0.527983
0.534312
0.540779
0.547373
0.554091
0.560927
0.567867
0.574917
0.582065
0.589313
0.596654
0.604098
0.611631
0.6193
0.62708
0.635018
0.643088
0.651324
0.65971
0.66825
0.676964
0.685238
2.34524
1.13156
0.476846
0.452032
0.517517
0.580572
0.601906
0.6021
0.597587
0.592631
0.59005
0.588821
0.587656
0.5866
0.585513
0.584154
0.582677
0.581231
0.579871
0.578616
0.57755
0.57677
0.576148
0.575791
0.575688
0.575828
0.576371
0.577242
0.57855
0.580271
0.582443
0.58501
0.587977
0.591322
0.59503
0.599092
0.603502
0.608254
0.613331
0.618742
0.624425
0.630439
0.636675
0.643238
0.650004
0.657078
0.664336
0.671866
0.679587
0.687005
1.87303
0.797
0.348757
0.379556
0.437805
0.476834
0.487292
0.486231
0.483291
0.481962
0.483636
0.486763
0.490404
0.494283
0.498438
0.502862
0.507322
0.511736
0.516148
0.520588
0.525067
0.529603
0.534183
0.538787
0.543399
0.548001
0.552628
0.557277
0.562022
0.566845
0.571791
0.576825
0.581966
0.587192
0.592524
0.597946
0.603501
0.609168
0.61499
0.620972
0.627086
0.633399
0.639816
0.646445
0.653188
0.660154
0.667258
0.674583
0.682073
0.689248
1.84785
0.778073
0.337665
0.374211
0.425165
0.45441
0.462403
0.462622
0.461058
0.460006
0.460355
0.461366
0.462714
0.464611
0.467022
0.469927
0.473014
0.476134
0.479414
0.482929
0.486703
0.490792
0.495278
0.500066
0.505093
0.510313
0.51574
0.521349
0.527187
0.533219
0.539479
0.545879
0.552446
0.559083
0.565855
0.572671
0.579637
0.586657
0.59381
0.601047
0.608378
0.615807
0.623298
0.630926
0.638599
0.646444
0.654325
0.662394
0.670549
0.678342
1.83985
0.771939
0.33448
0.370332
0.41955
0.44869
0.457596
0.458708
0.457514
0.456103
0.45576
0.455967
0.456603
0.457899
0.459701
0.462012
0.464334
0.466485
0.468666
0.471011
0.473574
0.476441
0.479783
0.483506
0.487457
0.491653
0.496094
0.500798
0.505864
0.511254
0.517006
0.523007
0.529271
0.535668
0.5423
0.549045
0.556032
0.563154
0.570481
0.577937
0.585538
0.59327
0.601097
0.609084
0.61714
0.625401
0.633724
0.642278
0.650937
0.65924
1.86341
0.789142
0.345397
0.359615
0.409137
0.446292
0.457948
0.459129
0.45773
0.456083
0.455511
0.455419
0.45596
0.457093
0.458845
0.460898
0.462801
0.464645
0.466551
0.468581
0.47077
0.473282
0.476205
0.479348
0.482713
0.486265
0.490079
0.494166
0.498586
0.503345
0.5084
0.513675
0.51919
0.52484
0.530748
0.536829
0.54318
0.549713
0.556463
0.563361
0.570424
0.577617
0.584991
0.592524
0.600249
0.608188
0.616284
0.62464
0.633135
0.641315
2.31368
1.20716
0.48915
0.43305
0.493079
0.556632
0.582075
0.585075
0.581998
0.578891
0.57745
0.577211
0.577368
0.577824
0.578299
0.578582
0.578662
0.578682
0.578718
0.578781
0.578889
0.57915
0.579605
0.580214
0.58103
0.58201
0.583154
0.584478
0.585999
0.587743
0.589766
0.592007
0.594524
0.597219
0.600154
0.603268
0.606628
0.610192
0.614017
0.618026
0.622303
0.62675
0.631451
0.636352
0.641485
0.646898
0.652515
0.658459
0.664586
0.670582
2.32629
1.23715
0.47123
0.405311
0.480749
0.556678
0.588161
0.593587
0.592232
0.589899
0.589283
0.589983
0.590939
0.592308
0.593742
0.594827
0.595779
0.59679
0.597963
0.599287
0.600787
0.602437
0.604245
0.606202
0.60829
0.610544
0.61294
0.615498
0.618234
0.621127
0.624222
0.627485
0.630921
0.634504
0.638206
0.642007
0.645905
0.64988
0.65398
0.658168
0.662509
0.666964
0.671558
0.676309
0.681174
0.686239
0.691406
0.696797
0.702303
0.707642
2.31755
1.2172
0.493464
0.432902
0.493751
0.558825
0.58631
0.591561
0.590613
0.588691
0.588262
0.588949
0.590042
0.591662
0.593325
0.594657
0.595889
0.597205
0.598676
0.60032
0.60215
0.60416
0.606339
0.608713
0.611248
0.614003
0.616953
0.62013
0.623531
0.627158
0.631
0.635055
0.63926
0.643634
0.648091
0.652666
0.657299
0.662019
0.666809
0.671694
0.676659
0.681755
0.686919
0.692241
0.69762
0.703167
0.708789
0.714582
0.720498
0.726193
1.89017
0.814195
0.364509
0.364571
0.416079
0.45716
0.46884
0.468268
0.465898
0.46394
0.46449
0.466116
0.468411
0.471356
0.474061
0.476359
0.478674
0.481219
0.484057
0.487303
0.491054
0.495078
0.499295
0.503722
0.508406
0.51337
0.518624
0.524212
0.53014
0.536334
0.542735
0.549275
0.555944
0.562696
0.569522
0.576451
0.583426
0.590508
0.59761
0.604777
0.611939
0.619151
0.626363
0.633662
0.641006
0.648488
0.65605
0.663789
0.671672
0.679222
1.87524
0.80618
0.367046
0.38254
0.428309
0.460365
0.467598
0.465012
0.461874
0.460029
0.459723
0.460305
0.461568
0.463332
0.46472
0.465716
0.466684
0.467818
0.469186
0.470927
0.473174
0.475716
0.478417
0.481315
0.484459
0.487888
0.491663
0.495811
0.500397
0.505259
0.510379
0.515713
0.521216
0.526904
0.53281
0.538879
0.545158
0.551574
0.558076
0.564694
0.571337
0.578111
0.584967
0.591984
0.599134
0.606471
0.61395
0.621631
0.629472
0.636991
1.87622
0.806211
0.366176
0.395341
0.448176
0.482397
0.490208
0.487043
0.482369
0.479725
0.478909
0.478962
0.479684
0.480775
0.48193
0.483008
0.483994
0.485003
0.486153
0.48752
0.489166
0.491191
0.493554
0.496179
0.499021
0.502092
0.505416
0.508984
0.512894
0.517118
0.521574
0.526306
0.531205
0.536251
0.541482
0.546786
0.552287
0.557909
0.563664
0.569559
0.575526
0.581592
0.587748
0.594008
0.600402
0.606952
0.613648
0.620554
0.627588
0.634364
1.19605
1.06155
0.510017
0.190219
0.00132509
0.105605
0.156804
0.205388
0.227273
0.231941
0.22026
0.208837
0.198181
0.18836
0.176046
0.16149
0.144191
0.124446
0.102868
0.0800514
0.0565284
0.0332945
0.0144511
0.0238511
0.0475438
0.0714463
0.0952009
0.118516
0.141376
0.163848
0.185917
0.207536
0.228776
0.249514
0.26918
0.288019
0.307379
0.327555
0.347319
0.366354
0.384815
0.40281
0.420386
0.437536
0.454282
0.47058
0.486452
0.501818
0.516785
0.531187
0.545182
0.558584
0.571519
0.583895
0.595724
0.606955
0.617642
0.627625
0.637031
0.645693
0.653656
0.660895
0.66732
0.672952
0.677796
0.681754
0.684929
0.687201
0.688747
0.689425
0.689509
0.689025
0.688353
0.687456
0.685988
0.683628
0.680655
0.677653
0.674745
0.671958
0.66935
0.667016
0.665004
0.663348
0.662129
0.661285
0.660939
0.660956
0.66152
0.662354
0.663628
0.665174
0.666929
0.668979
0.671046
0.673475
0.675851
0.678479
0.681001
0.687454
1.12727
1.04514
0.815491
0.558221
0.50516
0.434575
0.383308
0.341225
0.310372
0.291458
0.260446
0.230328
0.212195
0.211321
0.218706
0.229595
0.242426
0.256747
0.272148
0.288288
0.304777
0.321304
0.337518
0.353559
0.370058
0.386772
0.403622
0.420405
0.43708
0.453592
0.469924
0.486005
0.501929
0.517559
0.532586
0.546884
0.561356
0.576529
0.591885
0.606665
0.621032
0.635144
0.649027
0.662682
0.676095
0.689158
0.701963
0.714422
0.726587
0.738456
0.749988
0.761122
0.771874
0.782123
0.791961
0.801286
0.810194
0.818638
0.826621
0.834143
0.841099
0.847549
0.85335
0.858474
0.862981
0.866687
0.869648
0.871947
0.873388
0.874085
0.87415
0.873738
0.873025
0.872078
0.87059
0.868223
0.865266
0.862199
0.85927
0.856398
0.853738
0.851244
0.849169
0.847377
0.84595
0.844844
0.844171
0.843715
0.843613
0.843729
0.8441
0.844661
0.845323
0.846061
0.846889
0.847827
0.848895
0.850059
0.85128
0.855584
1.08119
1.08405
1.01662
0.908401
0.836977
0.785837
0.74872
0.717443
0.691529
0.672894
0.657157
0.642519
0.631537
0.626408
0.624888
0.625594
0.628011
0.631546
0.636209
0.641832
0.648218
0.655248
0.662683
0.670553
0.67894
0.687801
0.697058
0.706561
0.716261
0.726029
0.735971
0.745927
0.755992
0.766008
0.775776
0.785137
0.794564
0.804645
0.815206
0.825487
0.835493
0.845346
0.855089
0.864725
0.874278
0.883686
0.892948
0.902079
0.910954
0.919683
0.928182
0.936476
0.944603
0.952453
0.960043
0.967343
0.97429
0.980942
0.987227
0.99316
0.998708
1.0038
1.00841
1.01246
1.01599
1.01882
1.0212
1.02288
1.02395
1.02473
1.02462
1.02443
1.02405
1.02349
1.02247
1.02072
1.01851
1.01625
1.01404
1.01197
1.01026
1.00865
1.00739
1.0063
1.00569