/*--------------------------------*- C++ -*----------------------------------*\
| =========                 |                                                 |
| \\      /  F ield         | OpenFOAM: The Open Source CFD Toolbox           |
|  \\    /   O peration     | Version:  2412                                  |
|   \\  /    A nd           | Website:  www.openfoam.com                      |
|    \\/     M anipulation  |                                                 |
\*---------------------------------------------------------------------------*/
FoamFile
{
    version     2.0;
    format      ascii;
    arch        "LSB;label=32;scalar=64";
    class       volScalarField;
    location    "12";
    object      p;
}
// * * * * * * * * * * * * * * * * * * * * * * * * * * * * * * * * * * * * * //

dimensions      [1 -1 -2 0 0 0 0];

internalField   nonuniform List<scalar> 
7000
(
1.63277
3.67446
11.2553
11.4628
11.038
10.6168
10.4897
10.5025
10.5404
10.5784
10.5988
10.611
10.6238
10.6399
10.6587
10.6796
10.7022
10.7266
10.7529
10.7813
10.8118
10.8444
10.879
10.9158
10.9546
10.9955
11.0384
11.0832
11.1299
11.1783
11.2284
11.2799
11.3328
11.3869
11.4419
11.4976
11.5537
11.6098
11.6655
11.7203
11.7737
11.8251
11.8735
11.9186
11.9597
11.9962
12.0273
12.0524
12.0701
12.0832
1.63306
3.67319
11.2547
11.4622
11.0375
10.6164
10.4894
10.5021
10.54
10.578
10.5984
10.6105
10.6233
10.6393
10.6582
10.679
10.7016
10.726
10.7523
10.7807
10.8111
10.8436
10.8783
10.915
10.9538
10.9947
11.0375
11.0823
11.1289
11.1773
11.2273
11.2788
11.3317
11.3858
11.4408
11.4965
11.5525
11.6086
11.6644
11.7192
11.7726
11.8241
11.8726
11.9177
11.959
11.9956
12.0268
12.052
12.0698
12.0829
1.63299
3.67219
11.2528
11.4612
11.0368
10.6156
10.4886
10.5014
10.5391
10.577
10.5973
10.6094
10.6222
10.6382
10.657
10.6777
10.7003
10.7246
10.7509
10.7792
10.8095
10.8419
10.8765
10.9131
10.9518
10.9926
11.0353
11.08
11.1264
11.1747
11.2246
11.2759
11.3287
11.3826
11.4374
11.493
11.5489
11.6049
11.6605
11.7152
11.7686
11.8199
11.8684
11.9136
11.9548
11.9914
12.0226
12.0478
12.0655
12.0786
1.63284
3.67093
11.2494
11.4599
11.0357
10.6144
10.4874
10.5001
10.5378
10.5756
10.5958
10.6078
10.6205
10.6364
10.6551
10.6758
10.6982
10.7224
10.7486
10.7768
10.807
10.8393
10.8737
10.9102
10.9487
10.9893
11.0318
11.0762
11.1225
11.1705
11.2202
11.2713
11.3238
11.3774
11.432
11.4874
11.543
11.5988
11.6542
11.7087
11.7619
11.8131
11.8615
11.9066
11.9478
11.9843
12.0155
12.0407
12.0583
12.0713
1.63267
3.66905
11.2444
11.4583
11.0342
10.6127
10.4856
10.4983
10.5359
10.5735
10.5935
10.6054
10.618
10.6338
10.6524
10.673
10.6953
10.7193
10.7453
10.7733
10.8034
10.8355
10.8697
10.9059
10.9442
10.9845
11.0268
11.0709
11.1169
11.1646
11.2139
11.2646
11.3168
11.3701
11.4243
11.4792
11.5345
11.5899
11.645
11.6992
11.7522
11.8032
11.8514
11.8963
11.9375
11.9739
12.0051
12.0303
12.0479
12.061
1.63245
3.66656
11.2381
11.4561
11.0323
10.6105
10.4833
10.4959
10.5333
10.5707
10.5905
10.6023
10.6148
10.6305
10.6489
10.6693
10.6914
10.7153
10.7411
10.7688
10.7986
10.8305
10.8644
10.9003
10.9383
10.9782
11.0201
11.0639
11.1094
11.1566
11.2055
11.2558
11.3074
11.3602
11.4139
11.4683
11.5231
11.578
11.6326
11.6864
11.7389
11.7896
11.8376
11.8823
11.9233
11.9597
11.9908
12.0161
12.0336
12.0468
1.63219
3.6634
11.23
11.4536
11.0299
10.6078
10.4802
10.4928
10.5301
10.5672
10.5867
10.5983
10.6106
10.6261
10.6444
10.6645
10.6864
10.7101
10.7356
10.7631
10.7926
10.8241
10.8577
10.8932
10.9307
10.9702
11.0116
11.0549
11.0999
11.1465
11.1948
11.2445
11.2955
11.3476
11.4006
11.4544
11.5085
11.5627
11.6167
11.6699
11.7218
11.772
11.8196
11.8641
11.9048
11.941
11.9721
11.9974
12.015
12.0284
1.63188
3.65953
11.2203
11.4504
11.027
10.6044
10.4765
10.4889
10.526
10.5628
10.5821
10.5935
10.6056
10.6209
10.6388
10.6588
10.6804
10.7037
10.7289
10.7561
10.7852
10.8163
10.8494
10.8844
10.9215
10.9604
11.0012
11.0438
11.0881
11.1341
11.1816
11.2305
11.2806
11.3319
11.3841
11.437
11.4903
11.5436
11.5968
11.6491
11.7003
11.7498
11.7969
11.8409
11.8813
11.9173
11.9483
11.9736
11.9913
12.0048
1.63154
3.65494
11.209
11.4465
11.0235
10.6004
10.472
10.4842
10.521
10.5575
10.5765
10.5876
10.5994
10.6145
10.6321
10.6518
10.673
10.696
10.7208
10.7476
10.7762
10.8068
10.8394
10.8739
10.9103
10.9485
10.9886
11.0304
11.0739
11.119
11.1656
11.2135
11.2627
11.3129
11.364
11.4158
11.468
11.5203
11.5723
11.6236
11.6738
11.7225
11.7688
11.8121
11.852
11.8876
11.9184
11.9437
11.9614
11.9753
1.63114
3.64955
11.1957
11.442
11.0194
10.5956
10.4666
10.4787
10.515
10.5512
10.5699
10.5807
10.5922
10.6069
10.6242
10.6435
10.6644
10.6869
10.7113
10.7375
10.7656
10.7956
10.8275
10.8613
10.897
10.9345
10.9737
11.0146
11.0571
11.1011
11.1466
11.1933
11.2413
11.2903
11.3401
11.3905
11.4413
11.4922
11.5428
11.5928
11.6417
11.6891
11.7344
11.7768
11.8159
11.851
11.8815
11.9067
11.9244
11.9386
1.63068
3.64335
11.1804
11.4369
11.0148
10.5901
10.4603
10.4722
10.5081
10.5438
10.5621
10.5725
10.5837
10.598
10.615
10.6338
10.6542
10.6763
10.7001
10.7257
10.7532
10.7826
10.8137
10.8467
10.8815
10.918
10.9562
10.996
11.0373
11.0801
11.1243
11.1697
11.2162
11.2636
11.3118
11.3606
11.4097
11.4588
11.5077
11.5559
11.6031
11.6489
11.6927
11.7338
11.7718
11.806
11.8359
11.8609
11.8786
11.8932
1.63018
3.63627
11.1631
11.4311
11.0096
10.5838
10.4531
10.4646
10.4999
10.5351
10.553
10.5631
10.5738
10.5877
10.6042
10.6225
10.6424
10.6639
10.6871
10.7121
10.7389
10.7674
10.7977
10.8298
10.8635
10.8989
10.936
10.9745
11.0145
11.0559
11.0985
11.1422
11.187
11.2326
11.2788
11.3256
11.3726
11.4196
11.4663
11.5123
11.5573
11.6009
11.6427
11.6818
11.7182
11.7511
11.7801
11.8045
11.822
11.8369
1.62962
3.62829
11.1436
11.4247
11.0038
10.5767
10.4448
10.456
10.4907
10.5253
10.5427
10.5523
10.5625
10.5759
10.5918
10.6096
10.6289
10.6498
10.6723
10.6965
10.7224
10.7501
10.7794
10.8104
10.843
10.8771
10.9128
10.9499
10.9883
11.028
11.0688
11.1106
11.1533
11.1967
11.2407
11.2851
11.3295
11.3738
11.4178
11.461
11.5031
11.5439
11.5829
11.6192
11.6532
11.6839
11.7112
11.7346
11.7516
11.7671
1.629
3.61936
11.1218
11.4178
10.9975
10.5688
10.4355
10.4463
10.4801
10.514
10.5308
10.5399
10.5496
10.5624
10.5778
10.5949
10.6135
10.6336
10.6554
10.6787
10.7037
10.7304
10.7586
10.7883
10.8196
10.8523
10.8865
10.9219
10.9585
10.9963
11.035
11.0746
11.1149
11.1558
11.197
11.2385
11.2799
11.3209
11.3615
11.4011
11.4395
11.4764
11.5116
11.5441
11.5744
11.6018
11.6263
11.6476
11.6635
11.6791
1.62833
3.60942
11.0974
11.4106
10.9906
10.56
10.4251
10.4353
10.4681
10.5012
10.5174
10.5259
10.535
10.5472
10.5618
10.5783
10.5961
10.6155
10.6363
10.6587
10.6827
10.7081
10.7351
10.7635
10.7933
10.8244
10.8568
10.8903
10.9249
10.9604
10.9968
11.0338
11.0714
11.1093
11.1473
11.1853
11.223
11.2601
11.2964
11.3315
11.3651
11.397
11.4268
11.4539
11.4787
11.5007
11.5204
11.5378
11.5513
11.567
1.62768
3.59833
11.0708
11.4031
10.9831
10.5502
10.4133
10.423
10.4547
10.4869
10.5024
10.5102
10.5186
10.53
10.544
10.5596
10.5766
10.595
10.6149
10.6362
10.659
10.6832
10.7088
10.7356
10.7638
10.7931
10.8235
10.855
10.8872
10.9203
10.9539
10.988
11.0224
11.0568
11.0911
11.1251
11.1584
11.1907
11.2218
11.2512
11.2786
11.3038
11.3264
11.3459
11.3625
11.3762
11.3876
11.3979
11.4061
11.4204
1.6271
3.58599
11.0425
11.3948
10.9748
10.5393
10.4002
10.4092
10.4396
10.4708
10.4855
10.4925
10.5002
10.5109
10.524
10.5388
10.5549
10.5723
10.5911
10.6112
10.6327
10.6555
10.6795
10.7047
10.731
10.7583
10.7866
10.8156
10.8453
10.8755
10.9061
10.9369
10.9676
10.9982
11.0281
11.0573
11.0854
11.112
11.1367
11.1591
11.1787
11.195
11.2078
11.2165
11.2208
11.2209
11.2188
11.2151
11.2122
11.2218
1.62658
3.57265
11.0131
11.3856
10.9656
10.5273
10.3855
10.3938
10.4226
10.4527
10.4665
10.4728
10.4797
10.4895
10.5017
10.5155
10.5306
10.547
10.5646
10.5834
10.6035
10.6247
10.6471
10.6704
10.6947
10.7198
10.7457
10.7721
10.799
10.8261
10.8532
10.8803
10.9069
10.9329
10.958
10.9817
11.0037
11.0235
11.0405
11.0543
11.0641
11.0691
11.0684
11.0626
11.049
11.0279
11.001
10.9713
10.9427
10.9375
1.62609
3.55879
10.9829
11.3755
10.9554
10.514
10.3692
10.3765
10.4036
10.4325
10.4455
10.451
10.457
10.4659
10.4771
10.4899
10.504
10.5191
10.5354
10.5529
10.5714
10.591
10.6114
10.6328
10.6549
10.6776
10.7008
10.7244
10.7481
10.7718
10.7952
10.8181
10.8401
10.8611
10.8805
10.898
10.913
10.9249
10.9329
10.936
10.9339
10.9255
10.9075
10.8793
10.8397
10.7864
10.7183
10.6374
10.5491
10.4913
1.62558
3.54489
10.9524
11.3646
10.9444
10.4993
10.3507
10.3569
10.3818
10.4095
10.4216
10.4263
10.4315
10.4394
10.4497
10.4614
10.4743
10.4883
10.5032
10.5192
10.5361
10.5538
10.5723
10.5915
10.6112
10.6313
10.6517
10.6721
10.6924
10.7123
10.7316
10.7499
10.767
10.7823
10.7955
10.8059
10.8131
10.8156
10.8135
10.8056
10.7884
10.761
10.7212
10.6658
10.5902
10.4882
10.3515
10.1719
9.93996
9.68448
1.62491
3.5287
10.916
11.3514
10.9314
10.4806
10.3264
10.3309
10.353
10.3792
10.3905
10.3943
10.3983
10.405
10.4139
10.4244
10.4358
10.4482
10.4614
10.4754
10.4902
10.5056
10.5216
10.538
10.5547
10.5715
10.5883
10.6047
10.6207
10.6358
10.6499
10.6624
10.673
10.6812
10.6864
10.6872
10.6849
10.6771
10.6603
10.6342
10.5974
10.5461
10.4764
10.3813
10.2514
10.0705
9.80897
9.40617
8.71055
7.19239
1.62412
3.51235
10.8777
11.3352
10.9137
10.4535
10.2911
10.2936
10.3123
10.3376
10.3486
10.3518
10.3548
10.3603
10.368
10.3771
10.387
10.3976
10.4089
10.4207
10.433
10.4457
10.4587
10.4718
10.4849
10.4977
10.5102
10.5219
10.5327
10.5421
10.5499
10.5556
10.5584
10.5579
10.5546
10.5459
10.5296
10.506
10.4729
10.428
10.3682
10.2888
10.1831
10.0419
9.84998
9.58361
9.20144
8.63402
7.79535
6.41404
1.62368
3.50429
10.8585
11.3251
10.8999
10.4266
10.2532
10.2533
10.2682
10.293
10.3039
10.3063
10.3081
10.3119
10.3184
10.3262
10.3346
10.3433
10.3524
10.3619
10.3716
10.3815
10.3914
10.4011
10.4104
10.4192
10.4272
10.4341
10.4395
10.4431
10.4442
10.4432
10.4392
10.4301
10.4153
10.3947
10.3664
10.329
10.2799
10.2167
10.1348
10.0295
9.89296
9.71502
9.48065
9.16851
8.74986
8.18398
7.45361
6.48414
1.62326
3.4983
10.843
11.3056
10.8738
10.3833
10.2003
10.2002
10.2165
10.2444
10.2567
10.2588
10.2597
10.262
10.2671
10.2741
10.2812
10.2881
10.295
10.3021
10.3092
10.3162
10.3229
10.3292
10.3348
10.3395
10.3431
10.3451
10.3451
10.3437
10.3395
10.3308
10.3181
10.3006
10.277
10.2463
10.207
10.1572
10.0943
10.0154
9.91646
9.79233
9.63633
9.43949
9.19157
8.87713
8.48243
7.99192
7.41145
6.68244
1.62377
3.53566
10.9101
11.3044
10.8478
10.3205
10.1265
10.1292
10.1524
10.1873
10.202
10.2041
10.2044
10.2059
10.2098
10.2161
10.2221
10.2275
10.2326
10.2376
10.2424
10.2468
10.2507
10.2538
10.256
10.2569
10.2565
10.2548
10.2505
10.243
10.2324
10.2178
10.1986
10.174
10.1427
10.1036
10.0551
9.9952
9.92187
9.83181
9.72215
9.5877
9.42388
9.2239
8.9807
8.68647
8.33392
7.91621
7.43611
6.88418
1.58517
3.65616
10.9303
11.2101
10.7655
10.2423
10.0605
10.0675
10.0987
10.1356
10.1502
10.1525
10.153
10.1544
10.1577
10.1623
10.1664
10.1699
10.1729
10.1755
10.1776
10.1792
10.18
10.1798
10.1788
10.1762
10.1714
10.1648
10.1556
10.1433
10.1276
10.1076
10.0827
10.0519
10.0142
9.9682
9.91265
9.84556
9.76531
9.66868
9.55351
9.41578
9.25195
9.05769
8.8285
8.55998
8.24878
7.89211
7.49224
7.04431
1.53989
4.77915
11.1019
10.8727
10.2706
9.99878
9.9797
10.0031
10.0472
10.0714
10.0791
10.0815
10.084
10.0874
10.0911
10.0947
10.0978
10.1002
10.1019
10.1029
10.1031
10.1028
10.1016
10.0989
10.0946
10.0891
10.0818
10.0722
10.0597
10.0437
10.0239
9.99949
9.96992
9.93425
9.8916
9.84074
9.78039
9.70896
9.62467
9.52543
9.40898
9.27274
9.11399
8.92988
8.7177
8.47504
8.20051
7.89416
7.55679
7.1816
1.54205
4.79051
11.0635
10.8064
10.1932
9.94327
9.94691
9.97925
10.0253
10.046
10.0504
10.051
10.0521
10.0537
10.0548
10.0551
10.0549
10.054
10.0521
10.0495
10.0462
10.042
10.0367
10.0302
10.0223
10.0126
10.0006
9.98623
9.96913
9.94896
9.92526
9.89732
9.8641
9.82474
9.77823
9.7238
9.66022
9.58621
9.50032
9.40093
9.28625
9.15435
9.00336
8.83131
8.63663
8.41791
8.17451
7.90576
7.61805
7.30123
1.55333
4.81098
11.1333
10.8321
10.1413
9.86944
9.87817
9.92241
9.97727
10.0008
10.0056
10.0063
10.0076
10.0092
10.01
10.0097
10.0086
10.0061
10.0025
9.99791
9.9923
9.9854
9.97721
9.96744
9.95604
9.94267
9.92714
9.90921
9.88854
9.86466
9.83684
9.8045
9.76714
9.72429
9.67516
9.6187
9.55363
9.47881
9.39308
9.29509
9.18375
9.05761
8.91535
8.75571
8.57777
8.38068
8.16462
7.92951
7.67967
7.40823
1.54492
4.79294
11.068
10.7868
10.1199
9.84834
9.85445
9.89408
9.94751
9.97043
9.97432
9.97407
9.97381
9.97353
9.97266
9.97062
9.96727
9.96275
9.95722
9.95051
9.94258
9.93326
9.92247
9.91
9.89567
9.87928
9.8606
9.83938
9.81527
9.78786
9.75672
9.72135
9.68129
9.63574
9.58401
9.52522
9.45883
9.38388
9.29948
9.20461
9.0981
8.97864
8.84548
8.69783
8.53524
8.35785
8.16576
7.95825
7.73914
7.50347
1.51668
4.73966
10.8701
10.6673
10.1128
9.85702
9.84896
9.87467
9.91948
9.94015
9.94374
9.94311
9.94158
9.93936
9.93653
9.93275
9.92788
9.92179
9.91449
9.90592
9.89599
9.8846
9.87157
9.85676
9.84
9.82109
9.7998
9.77586
9.74897
9.71883
9.68506
9.64718
9.60475
9.55717
9.50394
9.44434
9.37778
9.30348
9.2207
9.12856
9.02636
8.91361
8.78962
8.65388
8.50578
8.34497
8.17168
7.98817
7.79486
7.58803
1.50185
4.69659
10.796
10.6795
10.2001
9.9004
9.83948
9.85522
9.89014
9.91128
9.91565
9.91429
9.91064
9.90537
9.90009
9.89444
9.88786
9.88009
9.87106
9.86075
9.84906
9.83585
9.82094
9.80424
9.78553
9.76462
9.74128
9.71525
9.68631
9.65409
9.61834
9.57865
9.53463
9.4858
9.43171
9.37185
9.30572
9.23275
9.15231
9.06379
8.96665
8.86036
8.74447
8.61855
8.48263
8.33671
8.18118
8.01674
7.84448
7.66131
1.66513
3.26849
10.4343
10.9782
10.5672
10.0411
9.84495
9.84641
9.86698
9.89657
9.9045
9.90224
9.89565
9.88596
9.8775
9.86963
9.86105
9.85115
9.83993
9.82742
9.81355
9.79814
9.78099
9.76218
9.74132
9.71824
9.69273
9.66457
9.6335
9.59924
9.56145
9.51982
9.47405
9.42374
9.36849
9.30809
9.24219
9.17031
9.09202
9.00683
8.91423
8.81391
8.70556
8.58894
8.46405
8.33098
8.19004
8.04167
7.887
7.72342
1.67356
3.14844
10.3787
11.1359
10.6899
10.0801
9.82867
9.81089
9.82686
9.85508
9.86203
9.85889
9.84991
9.83707
9.82674
9.81804
9.80921
9.79935
9.78817
9.77562
9.76163
9.74609
9.72881
9.7096
9.68824
9.66464
9.6385
9.60957
9.57764
9.54252
9.50398
9.46177
9.41565
9.36538
9.31076
9.25128
9.18656
9.11632
9.04017
8.9578
8.86885
8.77335
8.67139
8.56291
8.44771
8.32572
8.19718
8.06251
7.92266
7.7754
1.63942
3.03741
9.85936
10.9822
10.6251
10.0819
9.85325
9.82757
9.83688
9.85095
9.84998
9.8434
9.82865
9.81233
9.79887
9.78698
9.77514
9.76253
9.74893
9.73423
9.71835
9.70114
9.6824
9.66193
9.63955
9.61499
9.58802
9.55838
9.52585
9.49026
9.45138
9.40897
9.36279
9.31261
9.25817
9.19919
9.13542
9.06664
8.99273
8.91358
8.82923
8.73931
8.64356
8.54179
8.43388
8.32045
8.20219
8.07922
7.95203
7.81859
1.43079
4.5388
10.2961
10.4862
10.1947
9.89783
9.78641
9.78019
9.78689
9.79364
9.79183
9.78465
9.76999
9.75565
9.74338
9.73214
9.7206
9.70811
9.69455
9.67989
9.66405
9.64686
9.62814
9.6077
9.58535
9.56084
9.53396
9.50446
9.4723
9.43717
9.39882
9.35701
9.31156
9.26226
9.20892
9.15134
9.08935
9.02281
8.95162
8.87568
8.79489
8.70913
8.61831
8.52261
8.42246
8.31783
8.2084
8.09464
7.9775
7.85541
1.63234
2.99023
9.6891
10.8794
10.5664
10.0623
9.83817
9.79964
9.80349
9.80588
9.80136
9.78819
9.76676
9.74762
9.73144
9.71644
9.7013
9.68541
9.66853
9.65081
9.6322
9.61249
9.5915
9.56897
9.54476
9.51877
9.49079
9.46065
9.42796
9.39249
9.35404
9.3124
9.26741
9.21889
9.16662
9.11041
9.05014
8.98567
8.9169
8.8438
8.76637
8.68463
8.59861
8.50841
8.41421
8.31624
8.21417
8.1087
8.00048
7.88818
1.64142
2.92534
9.69939
11.0082
10.6276
10.0326
9.77121
9.7341
9.74298
9.75517
9.75265
9.74226
9.72095
9.70085
9.68446
9.66971
9.65485
9.63925
9.62295
9.60573
9.58747
9.56803
9.54729
9.52514
9.50136
9.47578
9.44819
9.41839
9.38613
9.35124
9.31353
9.27282
9.22885
9.18145
9.13051
9.0759
9.01751
8.95527
8.88916
8.81913
8.74516
8.66727
8.58555
8.50011
8.41109
8.31834
8.22244
8.12376
8.02282
7.91836
1.63984
2.90865
9.65178
10.9895
10.6051
9.99636
9.72658
9.68833
9.6983
9.71332
9.71139
9.70181
9.6812
9.66029
9.64328
9.62821
9.61313
9.59726
9.58051
9.56281
9.54412
9.52439
9.5035
9.48129
9.45761
9.43227
9.40509
9.37586
9.3444
9.31049
9.27392
9.23451
9.19206
9.14637
9.09732
9.0448
8.98872
8.92902
8.86566
8.79864
8.72799
8.65378
8.57612
8.49516
8.41113
8.32348
8.23358
8.14122
8.04672
7.94886
1.62555
2.91865
9.488
10.8496
10.5414
9.98991
9.73214
9.68147
9.68503
9.68994
9.68609
9.67398
9.65192
9.63128
9.6134
9.59672
9.57996
9.56259
9.54445
9.52555
9.50584
9.48525
9.46369
9.44101
9.41707
9.39169
9.36471
9.33594
9.30516
9.27217
9.23672
9.19865
9.15783
9.11404
9.06712
9.01693
8.96338
8.90643
8.84605
8.78225
8.71507
8.64462
8.57098
8.49424
8.41401
8.33153
8.24655
8.1593
8.07007
7.97782
1.39231
4.47578
10.02
10.2984
10.0181
9.72902
9.61967
9.60867
9.61291
9.61635
9.61369
9.60504
9.58861
9.57213
9.55702
9.54235
9.52715
9.51099
9.49381
9.47561
9.45647
9.43639
9.41535
9.39329
9.37008
9.34559
9.31964
9.29208
9.26273
9.23136
9.19781
9.16181
9.12316
9.08171
9.03734
8.9899
8.93934
8.88556
8.82855
8.7683
8.70483
8.63816
8.56832
8.49535
8.41964
8.34157
8.26121
8.17865
8.09426
8.00711
1.63102
2.94288
9.57864
10.8373
10.4942
9.90554
9.63176
9.58796
9.59742
9.61541
9.61487
9.60802
9.59113
9.5692
9.54999
9.53254
9.51493
9.49633
9.47663
9.45584
9.43425
9.41178
9.38859
9.36473
9.34008
9.31447
9.28775
9.25974
9.23021
9.19906
9.16614
9.13123
9.09407
9.05447
9.01225
8.96727
8.91938
8.86848
8.8145
8.75744
8.69728
8.634
8.56776
8.49852
8.4271
8.35336
8.27733
8.19917
8.11922
8.03661
1.64085
3.07072
9.84628
10.7724
10.3921
9.77976
9.51594
9.49341
9.50996
9.5409
9.54823
9.54463
9.53366
9.51498
9.49818
9.48316
9.46777
9.45121
9.433
9.41359
9.39334
9.37225
9.3502
9.32714
9.30312
9.27818
9.25225
9.22527
9.19703
9.16729
9.13581
9.10243
9.06698
9.02929
8.98918
8.94652
8.90116
8.85301
8.80199
8.74805
8.69121
8.63152
8.569
8.50409
8.43659
8.36663
8.29442
8.22015
8.14415
8.06562
1.39769
4.55082
10.0838
10.1469
9.84426
9.54112
9.44244
9.44802
9.46721
9.48659
9.49176
9.48985
9.48343
9.47053
9.45758
9.44482
9.43103
9.41549
9.39839
9.37984
9.36008
9.33921
9.31727
9.29435
9.27048
9.2457
9.21996
9.19311
9.16514
9.13596
9.10541
9.0733
9.03941
9.00357
8.96559
8.92529
8.88256
8.83725
8.78925
8.73848
8.68495
8.62872
8.56997
8.50882
8.44525
8.37926
8.311
8.24067
8.16855
8.09395
1.37538
4.56118
9.96271
10.0069
9.77149
9.54586
9.46606
9.46652
9.47401
9.48498
9.48753
9.48537
9.4792
9.46696
9.45394
9.4403
9.42534
9.40854
9.39009
9.37013
9.34891
9.32656
9.30325
9.27906
9.25408
9.22837
9.20191
9.17469
9.14659
9.11743
9.08705
9.05529
9.02195
8.98686
8.9498
8.91061
8.86926
8.82571
8.77987
8.73161
8.68082
8.62756
8.57182
8.51361
8.45303
8.39027
8.32546
8.25873
8.19029
8.11942
1.41679
4.5698
10.1927
10.168
9.79379
9.46258
9.37123
9.38448
9.41855
9.44628
9.45593
9.4553
9.45176
9.4435
9.43274
9.42123
9.40811
9.3928
9.37541
9.35612
9.33512
9.31268
9.28904
9.26439
9.23886
9.21257
9.18554
9.15775
9.12912
9.09962
9.06914
9.03753
9.00464
8.97034
8.93445
8.89686
8.8573
8.81559
8.77167
8.7255
8.67708
8.62638
8.57339
8.51812
8.46063
8.40105
8.33948
8.27599
8.21073
8.14291
1.53048
3.34233
9.85691
10.6974
10.3139
9.67833
9.40097
9.37896
9.39774
9.43618
9.4537
9.45359
9.45066
9.44303
9.43158
9.41997
9.40729
9.39249
9.37552
9.35643
9.33551
9.31305
9.28918
9.26409
9.23792
9.21082
9.18285
9.15409
9.12462
9.09442
9.06328
9.03105
8.99768
8.96305
8.92703
8.88946
8.8502
8.80909
8.76606
8.72113
8.67417
8.6251
8.57396
8.52083
8.46571
8.40871
8.34991
8.28936
8.2272
8.1628
1.3911
4.52789
10.0358
10.0824
9.78444
9.46625
9.34988
9.35123
9.36608
9.39201
9.40466
9.40623
9.40475
9.40038
9.39224
9.38345
9.37359
9.36166
9.3474
9.33091
9.31241
9.29206
9.26998
9.24636
9.22139
9.19521
9.16797
9.1398
9.11081
9.08102
9.05036
9.01873
8.98596
8.95196
8.91659
8.87973
8.84128
8.80117
8.75932
8.7156
8.67007
8.62274
8.57359
8.52247
8.46957
8.41491
8.35855
8.30056
8.24109
8.17964
1.38709
4.52673
10.0142
10.0648
9.76211
9.43945
9.32283
9.32507
9.34207
9.37051
9.38547
9.3884
9.38735
9.38375
9.37641
9.36828
9.35921
9.34816
9.33482
9.3192
9.30156
9.28197
9.26062
9.23774
9.2135
9.18807
9.16154
9.13396
9.10539
9.07581
9.0452
9.01356
8.98082
8.94693
8.91175
8.8752
8.83721
8.79768
8.75651
8.71365
8.66908
8.62278
8.57463
8.52481
8.47335
8.42027
8.36561
8.3095
8.25211
8.19291
1.52808
3.32906
9.80991
10.665
10.2729
9.60796
9.31173
9.28272
9.3015
9.34224
9.36615
9.37125
9.37016
9.36716
9.36097
9.35425
9.34684
9.33769
9.3263
9.31254
9.29675
9.27893
9.2589
9.23718
9.21388
9.18911
9.16294
9.13565
9.10728
9.07782
9.04733
9.01581
8.98317
8.9493
8.91411
8.87751
8.83941
8.79978
8.75856
8.71574
8.67131
8.62527
8.57769
8.5286
8.47797
8.42591
8.3725
8.31781
8.262
8.20465
1.4075
4.57283
10.111
10.0591
9.66524
9.32289
9.21611
9.22631
9.25861
9.29439
9.31132
9.31538
9.3162
9.31595
9.31478
9.31204
9.30705
9.30045
9.29173
9.28064
9.26741
9.25204
9.23468
9.21542
9.19444
9.1719
9.14794
9.1227
9.09623
9.0686
9.03982
9.00984
8.97857
8.94592
8.9118
8.87614
8.83891
8.80003
8.75948
8.71725
8.67335
8.62785
8.58083
8.53242
8.48263
8.43152
8.37914
8.32556
8.27095
8.21493
1.40058
4.60215
10.0245
9.94103
9.58138
9.32205
9.24785
9.25506
9.27575
9.2974
9.30971
9.31194
9.31282
9.31232
9.31017
9.30681
9.30092
9.29367
9.28462
9.27349
9.26041
9.2452
9.22859
9.20987
9.18965
9.16801
9.14501
9.12076
9.09533
9.06874
9.04091
9.01176
8.98119
8.94915
8.91552
8.88022
8.8432
8.80448
8.76408
8.72202
8.67838
8.63322
8.58659
8.5385
8.48904
8.4383
8.38638
8.33334
8.27931
8.22385
1.39341
4.60736
9.98097
9.89793
9.55936
9.31792
9.24287
9.24773
9.26248
9.28074
9.29246
9.29442
9.29578
9.29547
9.29345
9.2904
9.28466
9.27769
9.26934
9.25881
9.24651
9.23209
9.2168
9.19916
9.18021
9.15997
9.13843
9.11566
9.09168
9.06643
9.03991
9.01208
8.9828
8.95194
8.91938
8.8851
8.84898
8.81101
8.77119
8.72955
8.68615
8.64109
8.59448
8.54645
8.49709
8.44652
8.39484
8.34212
8.28842
8.23328
1.38188
4.5549
9.93768
9.95515
9.65507
9.34467
9.23859
9.2422
9.26002
9.2838
9.29597
9.29857
9.29832
9.29636
9.29265
9.28683
9.28008
9.272
9.26229
9.25066
9.23729
9.22272
9.20656
9.18907
9.17048
9.15078
9.13
9.10818
9.08529
9.06131
9.03611
9.00955
8.98148
8.95178
8.9203
8.88696
8.85166
8.81437
8.77508
8.73386
8.69077
8.64595
8.59952
8.55165
8.50248
8.45213
8.40071
8.34831
8.29506
8.24059
1.62599
2.95839
9.49091
10.5971
10.259
9.64062
9.33466
9.27233
9.28197
9.30503
9.31865
9.3185
9.31574
9.30912
9.30051
9.29196
9.2833
9.2735
9.26204
9.24892
9.23431
9.21855
9.20174
9.18397
9.16538
9.14597
9.12573
9.10461
9.08254
9.05945
9.03522
9.00972
8.98278
8.95423
8.92388
8.89156
8.85718
8.82068
8.78205
8.74135
8.69865
8.65409
8.60782
8.56001
8.51082
8.46041
8.40894
8.35658
8.30356
8.24974
1.63374
2.82585
9.40981
10.8066
10.4069
9.67242
9.31269
9.24396
9.25754
9.29058
9.31427
9.31787
9.31558
9.30884
9.29682
9.28554
9.27482
9.26314
9.24987
9.2351
9.21914
9.20224
9.18462
9.1664
9.14766
9.12841
9.10864
9.08827
9.06721
9.04531
9.02241
8.99829
8.97277
8.94563
8.91669
8.88577
8.85275
8.81753
8.78009
8.74046
8.69871
8.65498
8.60943
8.56224
8.51358
8.46363
8.41258
8.36062
8.308
8.25467
1.62277
2.92736
9.40489
10.5908
10.2581
9.63722
9.33276
9.27384
9.28455
9.31157
9.33094
9.33193
9.32897
9.32083
9.3068
9.29357
9.28061
9.26658
9.25109
9.23437
9.21666
9.19824
9.17937
9.16018
9.14077
9.12112
9.10123
9.08098
9.06028
9.03895
9.0168
8.99359
8.96908
8.94301
8.91515
8.88529
8.85328
8.819
8.78244
8.7436
8.70258
8.65949
8.61448
8.56773
8.51942
8.46974
8.41885
8.36694
8.31422
8.26051
1.34227
4.4866
9.78052
9.99418
9.71002
9.38301
9.2623
9.26357
9.27849
9.30505
9.31864
9.31957
9.31812
9.31212
9.29995
9.28718
9.27282
9.25682
9.23943
9.22093
9.20184
9.18193
9.16208
9.14229
9.12263
9.10304
9.08358
9.06399
9.0442
9.02399
9.00314
8.98137
8.95836
8.93383
8.90748
8.87908
8.84843
8.81544
8.78005
8.74228
8.70221
8.65993
8.61563
8.56949
8.52169
8.47243
8.42189
8.37022
8.31759
8.26366
1.34164
4.51964
9.79362
9.86974
9.61166
9.34756
9.26904
9.27867
9.30517
9.32395
9.33254
9.33233
9.32911
9.32174
9.30969
9.29603
9.28045
9.26261
9.24337
9.22269
9.20188
9.18019
9.15884
9.13791
9.11754
9.09754
9.07793
9.05844
9.0389
9.01909
8.99871
8.97749
8.9551
8.93124
8.90559
8.87789
8.84794
8.81558
8.78077
8.74348
8.70381
8.66188
8.61785
8.5719
8.52424
8.47508
8.42462
8.37306
8.32061
8.26714
1.38017
4.54596
9.95609
9.93041
9.5995
9.30035
9.22631
9.24364
9.28605
9.31631
9.3282
9.32835
9.32574
9.31773
9.30713
9.29358
9.27787
9.25973
9.2398
9.21853
9.19662
9.17445
9.15254
9.13119
9.11055
9.09057
9.07105
9.05185
9.03261
9.01319
8.99327
8.97255
8.95071
8.92742
8.90236
8.87526
8.84589
8.8141
8.77981
8.74302
8.70378
8.66221
8.61847
8.57276
8.5253
8.4763
8.426
8.37462
8.32244
8.26943
3.00257
2.39843
2.91588
4.08882
4.04706
4.03077
3.97215
3.93583
3.92341
3.92655
3.9544
3.99804
4.03609
4.06858
4.10407
4.14766
4.19937
4.25691
4.31771
4.37957
4.44092
4.50048
4.55813
4.61388
4.66382
4.70823
4.74705
4.78061
4.809
4.83228
4.85053
4.86399
4.87269
4.877
4.87709
4.8754
4.86995
4.85855
4.84357
4.82641
4.80707
4.78548
4.76177
4.73616
4.70886
4.68012
4.65015
4.61918
4.58737
4.55499
4.52218
4.48921
4.45622
4.42344
4.39106
4.35926
4.32824
4.29819
4.26926
4.24166
4.21553
4.19105
4.1684
4.14771
4.12914
4.11284
4.0989
4.08744
4.07848
4.07205
4.06813
4.06691
4.06708
4.06794
4.07036
4.07574
4.08529
4.0958
4.10652
4.11731
4.12801
4.13839
4.14799
4.15678
4.16478
4.17196
4.1784
4.18385
4.18842
4.19202
4.19482
4.19687
4.1983
4.19923
4.19981
4.20011
4.20008
4.19997
4.19963
4.19961
4.04119
3.47822
3.67305
4.1457
4.07681
4.017
3.95965
3.92118
3.91044
3.9226
3.96327
4.01301
4.0457
4.07037
4.10143
4.14345
4.19484
4.25227
4.3129
4.37454
4.43569
4.49529
4.55292
4.60819
4.658
4.70227
4.74109
4.77472
4.8032
4.82661
4.84503
4.85863
4.86749
4.8719
4.87191
4.87068
4.86631
4.85621
4.83986
4.82222
4.80309
4.78184
4.75838
4.73292
4.70573
4.67709
4.64721
4.61631
4.58461
4.5523
4.51959
4.48669
4.45377
4.42105
4.38872
4.35698
4.32601
4.296
4.26713
4.23957
4.21349
4.18906
4.16645
4.14581
4.12731
4.11109
4.09723
4.08587
4.07704
4.07084
4.06729
4.06647
4.0667
4.06762
4.07009
4.07547
4.08517
4.09601
4.10705
4.11806
4.12892
4.13942
4.14906
4.15802
4.16624
4.17353
4.1799
4.18531
4.18964
4.19315
4.19579
4.19766
4.1989
4.19967
4.20011
4.20034
4.20033
4.20028
4.20013
4.20038
5.15199
4.3853
4.14932
4.181
4.16458
4.11654
4.03685
3.98575
3.96674
3.96936
3.9822
4.01233
4.04958
4.08198
4.11686
4.15838
4.20735
4.26232
4.32073
4.38045
4.43993
4.49798
4.55395
4.60712
4.65602
4.69967
4.73797
4.77106
4.79905
4.82208
4.84018
4.8535
4.86213
4.86624
4.86614
4.86501
4.86133
4.85272
4.83608
4.81759
4.79795
4.77661
4.75324
4.72789
4.70077
4.67219
4.64237
4.61154
4.57992
4.5477
4.51508
4.48226
4.44945
4.41682
4.38458
4.35293
4.32204
4.29212
4.26333
4.23586
4.20987
4.18555
4.16306
4.14257
4.12423
4.10819
4.09455
4.08341
4.07491
4.06908
4.06633
4.06602
4.06632
4.06743
4.07017
4.07603
4.08588
4.09718
4.10876
4.12019
4.13121
4.14169
4.15204
4.16166
4.17021
4.17753
4.18375
4.18879
4.19293
4.19603
4.19825
4.19968
4.20055
4.20095
4.20117
4.20114
4.2011
4.20107
4.20123
4.20218
5.74883
5.01524
4.57853
4.38078
4.34261
4.28137
4.19229
4.11411
4.06353
4.04403
4.04649
4.05786
4.0847
4.12374
4.15902
4.19489
4.23583
4.28298
4.33501
4.38973
4.44532
4.50015
4.55342
4.60413
4.651
4.69337
4.73075
4.76304
4.79044
4.813
4.83072
4.84372
4.85212
4.85598
4.85584
4.8548
4.85161
4.8442
4.82907
4.80995
4.78954
4.76785
4.74448
4.7193
4.69242
4.66404
4.63442
4.60379
4.57236
4.54033
4.50791
4.47528
4.44264
4.4102
4.37816
4.34669
4.316
4.28628
4.2577
4.23044
4.2047
4.18062
4.15841
4.13821
4.12019
4.10448
4.09119
4.08038
4.07253
4.06772
4.06552
4.06561
4.06613
4.0676
4.0709
4.07766
4.08773
4.0993
4.11134
4.12328
4.1351
4.14632
4.15685
4.1666
4.17506
4.18241
4.18836
4.19305
4.19663
4.19923
4.20088
4.20175
4.20213
4.2021
4.202
4.20172
4.20117
4.20118
4.20142
4.20278
6.14825
5.51348
5.03686
4.74675
4.59903
4.48919
4.38107
4.2822
4.20654
4.16026
4.14158
4.14281
4.14986
4.16783
4.20193
4.23593
4.27233
4.31297
4.3579
4.40613
4.45623
4.50667
4.5562
4.60365
4.64814
4.68872
4.72475
4.75581
4.78242
4.80426
4.82132
4.83375
4.8417
4.84506
4.84486
4.84377
4.84073
4.83388
4.81994
4.80109
4.78021
4.75796
4.73429
4.70908
4.68234
4.65419
4.62482
4.59444
4.56326
4.53149
4.49933
4.46696
4.4346
4.40243
4.37067
4.33947
4.30908
4.27964
4.25138
4.22445
4.19905
4.17534
4.15351
4.13374
4.11616
4.10092
4.08833
4.07822
4.07103
4.06689
4.06575
4.06596
4.06678
4.06879
4.07307
4.08108
4.09143
4.10325
4.1158
4.12849
4.14087
4.15253
4.16323
4.17284
4.18124
4.18823
4.19401
4.19836
4.20145
4.20322
4.20418
4.20441
4.20434
4.20408
4.20345
4.20225
4.20109
4.20101
4.20124
4.20269
6.45207
5.917
5.4619
5.1177
4.88594
4.72211
4.58822
4.47199
4.37635
4.30606
4.26204
4.24132
4.24155
4.2454
4.25723
4.2824
4.3149
4.35034
4.38796
4.42833
4.47113
4.51531
4.55969
4.60308
4.64419
4.68228
4.71659
4.74652
4.77214
4.79298
4.80926
4.82112
4.82869
4.83158
4.83134
4.83022
4.82725
4.82071
4.80751
4.78944
4.76865
4.74609
4.72209
4.69675
4.67009
4.64218
4.61313
4.58309
4.55227
4.52085
4.48904
4.45703
4.42504
4.39325
4.36186
4.33108
4.30108
4.27209
4.24426
4.2178
4.1929
4.16972
4.14847
4.12932
4.11251
4.09785
4.08611
4.07665
4.0701
4.06721
4.06707
4.06742
4.06859
4.07134
4.07701
4.08598
4.0968
4.10896
4.12193
4.13506
4.14776
4.15963
4.17037
4.17983
4.1879
4.1946
4.19989
4.20378
4.20622
4.20738
4.20738
4.20727
4.20689
4.20601
4.20427
4.20235
4.20064
4.20014
4.20032
4.20167
6.69409
6.24229
5.82503
5.46676
5.18752
4.97798
4.81322
4.67633
4.562
4.47077
4.40381
4.36048
4.3381
4.33333
4.33528
4.34268
4.35966
4.3879
4.41901
4.45277
4.48879
4.52645
4.56496
4.6034
4.64062
4.67589
4.70811
4.73657
4.76096
4.78108
4.79682
4.80762
4.81461
4.81712
4.81684
4.81567
4.81267
4.80621
4.79326
4.77591
4.7555
4.73291
4.70874
4.68328
4.65667
4.62896
4.60022
4.57058
4.54017
4.50919
4.47782
4.44628
4.41475
4.38345
4.35256
4.3223
4.29285
4.26442
4.23719
4.21135
4.1871
4.16463
4.14411
4.12576
4.10969
4.09608
4.08506
4.07642
4.07089
4.06937
4.06955
4.07025
4.07205
4.07589
4.08325
4.09286
4.10413
4.1166
4.12976
4.14301
4.15576
4.16759
4.17817
4.18736
4.19498
4.20125