/*--------------------------------*- C++ -*----------------------------------*\
| =========                 |                                                 |
| \\      /  F ield         | OpenFOAM: The Open Source CFD Toolbox           |
|  \\    /   O peration     | Version:  2412                                  |
|   \\  /    A nd           | Website:  www.openfoam.com                      |
|    \\/     M anipulation  |                                                 |
\*---------------------------------------------------------------------------*/
FoamFile
{
    version     2.0;
    format      ascii;
    arch        "LSB;label=32;scalar=64";
    class       surfaceScalarField;
    location    "12";
    object      phi;
}
// * * * * * * * * * * * * * * * * * * * * * * * * * * * * * * * * * * * * * //

dimensions      [1 0 -1 0 0 0 0];

oriented        oriented;

internalField   nonuniform List<scalar> 
13790
(
0.00292496
-1.81729e-07
0.00274585
8.94911e-07
0.00280881
3.20742e-06
0.00281143
5.09801e-06
0.00280796
5.93409e-06
0.00280321
6.49589e-06
0.00279652
7.16689e-06
0.00278834
8.08304e-06
0.00277879
9.07272e-06
0.00276815
1.02486e-05
0.00275668
1.15582e-05
0.00274418
1.29332e-05
0.00273031
1.43703e-05
0.00271489
1.58906e-05
0.00269763
1.75106e-05
0.00267866
1.92389e-05
0.00265805
2.10828e-05
0.00263558
2.30428e-05
0.00261105
2.51198e-05
0.00258418
2.73143e-05
0.0025549
2.96269e-05
0.00252325
3.20654e-05
0.00248902
3.46374e-05
0.00245187
3.73493e-05
0.00241156
4.02076e-05
0.00236807
4.32226e-05
0.00232139
4.64054e-05
0.0022715
4.97668e-05
0.0022183
5.33213e-05
0.00216133
5.70734e-05
0.0021002
6.1022e-05
0.00203476
6.5172e-05
0.00196471
6.95259e-05
0.00188988
7.40734e-05
0.0018104
7.88213e-05
0.00172605
8.37713e-05
0.00163662
8.8891e-05
0.00154206
9.41814e-05
0.00144187
9.96027e-05
0.00133609
0.000105074
0.00122496
0.000110602
0.00110787
0.000116085
0.000984565
0.000121315
0.000856648
0.00012627
0.000724679
0.000131143
0.000588502
0.000135852
0.000447522
0.000140225
0.000302127
0.000143744
0.000152283
0.00014733
0.000150128
0.00303344
4.86267e-09
0.00284751
9.07477e-07
0.00291198
7.52278e-06
0.0029161
1.01553e-05
0.00291325
1.13287e-05
0.00290726
1.28821e-05
0.00289953
1.45924e-05
0.00289057
1.64908e-05
0.00288071
1.87301e-05
0.0028699
2.12227e-05
0.00285819
2.38348e-05
0.00284531
2.65525e-05
0.00283092
2.94053e-05
0.0028149
3.24449e-05
0.00279697
3.57045e-05
0.0027773
3.9199e-05
0.00275593
4.29396e-05
0.00273262
4.69232e-05
0.0027072
5.115e-05
0.00267936
5.5619e-05
0.00264904
6.03309e-05
0.00261627
6.5301e-05
0.00258078
7.05428e-05
0.00254224
7.6069e-05
0.0025004
8.18916e-05
0.0024553
8.80319e-05
0.00240692
9.45151e-05
0.00235524
0.000101363
0.00230013
0.000108605
0.0022411
0.000116252
0.00217772
0.0001243
0.00210985
0.000132757
0.00203718
0.000141634
0.00195954
0.000150908
0.00187708
0.000160592
0.00178955
0.000170695
0.00169673
0.00018115
0.00159856
0.000191956
0.00149451
0.000203038
0.00138463
0.000214231
0.00126913
0.000225547
0.00114738
0.000236787
0.00101909
0.00024754
0.000885909
0.000257744
0.000748496
0.0002677
0.000606792
0.000277217
0.000460304
0.000285919
0.000309371
0.000292951
0.000154875
0.000299221
0.000302782
0.00314615
1.14963e-07
0.00295317
1.12358e-06
0.00301969
1.29051e-05
0.00302216
1.56136e-05
0.00301827
1.74509e-05
0.0030138
1.95294e-05
0.00300719
2.21939e-05
0.00299884
2.52832e-05
0.00298871
2.85361e-05
0.00297715
3.21857e-05
0.00296464
3.61396e-05
0.0029511
4.03158e-05
0.00293621
4.47247e-05
0.0029197
4.94203e-05
0.00290122
5.44396e-05
0.00288089
5.98019e-05
0.00285877
6.55277e-05
0.00283465
7.1617e-05
0.00280835
7.80745e-05
0.00277955
8.49012e-05
0.0027482
9.20991e-05
0.00271429
9.9692e-05
0.00267758
0.000107699
0.00263769
0.00011614
0.0025944
0.000125033
0.0025477
0.000134409
0.00249762
0.00014431
0.00244413
0.000154769
0.00238709
0.00016583
0.002326
0.000177513
0.00226038
0.00018981
0.0021901
0.000202737
0.00211484
0.000216309
0.00203441
0.000230495
0.00194896
0.000245315
0.00185824
0.000260783
0.00176201
0.000276801
0.00166019
0.000293367
0.00155222
0.000310366
0.00143815
0.000327557
0.00131818
0.000344954
0.00119161
0.000362258
0.00105816
0.000378852
0.000919515
0.000394619
0.000776408
0.000409917
0.000628854
0.000424417
0.000476423
0.000437522
0.000319545
0.000448033
0.000159512
0.000456551
0.000459993
0.00326319
1.089e-07
0.00306296
1.63472e-06
0.00313266
1.73219e-05
0.00313631
2.11495e-05
0.00313332
2.32482e-05
0.0031276
2.62628e-05
0.00311972
2.99969e-05
0.00311039
3.40908e-05
0.00309982
3.87049e-05
0.00308814
4.37841e-05
0.00307552
4.91671e-05
0.00306172
5.48226e-05
0.00304638
6.07855e-05
0.00302933
6.71341e-05
0.00301019
7.39187e-05
0.00298911
8.11688e-05
0.00296616
8.89151e-05
0.00294115
9.7158e-05
0.00291392
0.000105905
0.00288417
0.00011516
0.0028518
0.000124924
0.00281679
0.000135229
0.00277885
0.000146096
0.00273763
0.00015755
0.00269287
0.000169614
0.00264461
0.00018233
0.0025929
0.000195759
0.00253766
0.000209948
0.00247874
0.000224953
0.00241563
0.000240809
0.00234781
0.000257506
0.00227517
0.00027506
0.00219737
0.000293507
0.00211419
0.000312795
0.00202579
0.000332952
0.00193191
0.000354012
0.00183227
0.000375834
0.00172679
0.00039842
0.00161487
0.000421627
0.00149654
0.000445124
0.00137198
0.000468931
0.00124045
0.000492655
0.00110164
0.000515449
0.000957295
0.000537128
0.000808189
0.000558095
0.000654401
0.00057783
0.000495595
0.000595454
0.000332184
0.000609572
0.000165736
0.000620198
0.000623359
0.00338445
1.47914e-07
0.00317686
2.0473e-06
0.0032492
2.23612e-05
0.0032519
2.70233e-05
0.00324728
2.97193e-05
0.00324255
3.32375e-05
0.00323583
3.79745e-05
0.00322736
4.33891e-05
0.00321687
4.91477e-05
0.00320455
5.54862e-05
0.00319103
6.22955e-05
0.00317643
6.94982e-05
0.00316048
7.71193e-05
0.00314291
8.52373e-05
0.00312328
9.39041e-05
0.00310163
0.000103149
0.00307796
0.000113011
0.00305206
0.000123491
0.00302388
0.000134607
0.00299315
0.000146369
0.00295981
0.000158781
0.00292382
0.000171888
0.00288478
0.000185712
0.00284228
0.000200276
0.00279609
0.000215611
0.00274626
0.000231766
0.00269286
0.000248821
0.00263586
0.000266845
0.00257508
0.000285912
0.00251
0.000306068
0.0024401
0.000327312
0.00236516
0.000349655
0.00228491
0.000373149
0.00219907
0.000397741
0.00210777
0.000423449
0.00201078
0.000450332
0.00190776
0.000478228
0.0017986
0.00050712
0.00168271
0.000536846
0.00156004
0.000567001
0.00143078
0.000597596
0.00129414
0.000628142
0.00114973
0.000657572
0.000999357
0.000685582
0.000843867
0.000712607
0.00068332
0.000737969
0.00051746
0.000760416
0.000346973
0.000778117
0.000173108
0.000791151
0.000793995
0.00351028
1.57569e-07
0.00329511
2.52489e-06
0.00337057
2.69185e-05
0.00337423
3.26802e-05
0.00337096
3.58609e-05
0.00336548
4.02253e-05
0.00335758
4.60685e-05
0.00334807
5.2541e-05
0.00333694
5.97616e-05
0.0033244
6.76895e-05
0.0033108
7.60756e-05
0.00329599
8.48932e-05
0.00327963
9.41982e-05
0.00326153
0.000104093
0.00324132
0.000114646
0.00321902
0.0001259
0.00319457
0.000137904
0.00316778
0.00015066
0.00313861
0.00016419
0.0031069
0.000178513
0.0030726
0.000193644
0.00303562
0.00020963
0.00299552
0.000226495
0.00295181
0.000244264
0.00290421
0.000262964
0.00285285
0.000282658
0.00279784
0.000303448
0.00273915
0.000325418
0.00267663
0.000348668
0.00260968
0.000373256
0.00253775
0.000399179
0.00246063
0.000426465
0.00237799
0.000455178
0.00228954
0.000485257
0.00219542
0.000516738
0.00209535
0.000549692
0.00198899
0.000583929
0.0018762
0.000619441
0.00175631
0.000656041
0.00162925
0.000693242
0.00149519
0.000731053
0.00135326
0.000768905
0.00120299
0.000805479
0.00104623
0.000840337
0.000883874
0.000873924
0.000716093
0.00090533
0.000542438
0.000933137
0.000363612
0.000954942
0.00018163
0.000970106
0.000973045
0.00364075
1.78994e-07
0.00341761
2.96523e-06
0.0034962
3.17498e-05
0.00349954
3.87193e-05
0.00349435
4.24754e-05
0.0034892
4.74724e-05
0.00348237
5.43065e-05
0.00347396
6.20506e-05
0.0034634
7.05897e-05
0.00345069
7.99329e-05
0.00343642
8.98773e-05
0.00342079
0.000100381
0.00340367
0.000111487
0.00338502
0.000123292
0.00336443
0.000135864
0.00334175
0.000149245
0.00331673
0.000163488
0.0032891
0.000178598
0.00325894
0.000194607
0.00322622
0.000211551
0.00319095
0.000229455
0.00315298
0.000248381
0.00311181
0.000268355
0.00306693
0.000289404
0.00301806
0.000311561
0.00296533
0.000334897
0.00290889
0.000359536
0.00284866
0.000385577
0.00278445
0.000413132
0.00271565
0.000442279
0.00264166
0.000473023
0.0025623
0.000505399
0.00247728
0.0005395
0.00238625
0.000575263
0.00228936
0.000612727
0.00218629
0.000652004
0.00207664
0.000692871
0.00196026
0.000735332
0.00183639
0.000779195
0.00170492
0.000823874
0.00156596
0.000869391
0.00141859
0.000915101
0.0012622
0.00095945
0.00109865
0.00100177
0.0009289
0.00104257
0.000753
0.00108076
0.000570881
0.00111427
0.000383126
0.00114067
0.000191242
0.00115887
0.0011616
0.0037761
2.00621e-07
0.00354477
3.37249e-06
0.00362686
3.63649e-05
0.0036306
4.46417e-05
0.00362526
4.91448e-05
0.00362021
5.47075e-05
0.00361345
6.25241e-05
0.0036052
7.14492e-05
0.0035946
8.13577e-05
0.00358173
9.21821e-05
0.00356722
0.000103778
0.00355124
0.000116088
0.0035336
0.000129125
0.00351434
0.000142963
0.00349317
0.000157665
0.00346993
0.000173269
0.00344431
0.000189835
0.00341596
0.000207373
0.00338499
0.000225929
0.00335134
0.000245555
0.00331501
0.000266282
0.0032759
0.000288191
0.00323351
0.000311318
0.00318735
0.000335697
0.00313718
0.000361377
0.00308314
0.000388439
0.00302536
0.000417026
0.00296373
0.00044725
0.00289796
0.000479228
0.0028275
0.000513057
0.00275169
0.000548759
0.00267037
0.000586366
0.0025832
0.000626015
0.00248978
0.000667643
0.00239027
0.000711302
0.00228434
0.000757149
0.00217152
0.000804948
0.00205163
0.000854703
0.00192386
0.000906245
0.00178796
0.000958892
0.00164405
0.00101267
0.0014911
0.00106689
0.00132833
0.00111974
0.00115756
0.00117032
0.000979823
0.00121912
0.000795213
0.00126483
0.000603292
0.00130524
0.000405022
0.00133689
0.000202599
0.00135806
0.0013614
0.00391648
2.17975e-07
0.00367665
3.81962e-06
0.00376176
4.11759e-05
0.00376621
5.07367e-05
0.00376124
5.58583e-05
0.00375457
6.23811e-05
0.00374669
7.13345e-05
0.00373751
8.15305e-05
0.00372684
9.29182e-05
0.00371441
0.000105301
0.00370039
0.000118516
0.00368468
0.000132552
0.00366698
0.000147441
0.00364735
0.000163257
0.00362562
0.000180058
0.0036018
0.000197874
0.00357572
0.000216777
0.00354698
0.000236782
0.00351556
0.000257941
0.00348125
0.000280317
0.00344397
0.000303939
0.00340368
0.000328894
0.00336
0.000355234
0.00331255
0.000383004
0.00326122
0.000412258
0.00320612
0.000443105
0.00314732
0.000475713
0.00308464
0.000510215
0.00301772
0.000546729
0.00294596
0.000585374
0.00286863
0.000626147
0.00278552
0.000669111
0.00269639
0.000714454
0.00260081
0.00076214
0.00249889
0.000812213
0.00239031
0.000864896
0.00227452
0.00091995
0.00215128
0.000977379
0.00201973
0.00103706
0.0018795
0.00109822
0.00173062
0.00116089
0.00157198
0.00122437
0.00140258
0.00128661
0.00122415
0.00134641
0.00103771
0.00140429
0.000843351
0.00145857
0.000640931
0.00150663
0.000430967
0.0015447
0.000215387
0.00157024
0.00157387
0.00406209
2.3798e-07
0.00381343
4.24267e-06
0.00390222
4.59141e-05
0.00390712
5.67246e-05
0.00390229
6.25256e-05
0.00389573
6.99273e-05
0.00388786
8.01103e-05
0.00387859
9.16438e-05
0.00386788
0.000104552
0.00385541
0.000118569
0.00384127
0.00013347
0.00382537
0.000149283
0.00380747
0.000166074
0.0037876
0.000183928
0.00376546
0.000202897
0.00374107
0.000222998
0.00371437
0.000244303
0.00368502
0.000266831
0.00365301
0.000290635
0.00361816
0.000315791
0.00358028
0.000342341
0.00353925
0.000370379
0.00349477
0.00039997
0.00344654
0.000431188
0.00339442
0.000464118
0.00333848
0.000498879
0.00327867
0.000535619
0.0032147
0.000574458
0.00314623
0.00061553
0.00307271
0.000658974
0.00299356
0.000704869
0.00290863
0.000753291
0.00281767
0.000804475
0.00272015
0.000858404
0.00261611
0.000915127
0.00250516
0.00097493
0.00238668
0.00103758
0.00226038
0.00110309
0.00212527
0.00117141
0.00198085
0.00124168
0.00182708
0.00131397
0.00166272
0.00138758
0.00148649
0.00146029
0.00129996
0.00153046
0.00110422
0.00159867
0.000898938
0.00166321
0.000684073
0.00172047
0.000460655
0.00176592
0.00023096
0.00179639
0.00180175
0.00421312
2.58188e-07
0.00395527
4.65811e-06
0.00404788
5.06278e-05
0.00405322
6.26467e-05
0.00404853
6.90984e-05
0.00404219
7.73237e-05
0.00403453
8.87199e-05
0.00402542
0.000101612
0.00401481
0.000116073
0.00400237
0.000131778
0.00398817
0.000148448
0.00397215
0.000166128
0.00395405
0.000184908
0.00393391
0.000204878
0.00391144
0.000226091
0.0038866
0.000248553
0.00385939
0.000272333
0.00382946
0.000297455
0.0037968
0.000323965
0.00376132
0.000351954
0.00372281
0.000381474
0.00368113
0.000412626
0.00363597
0.00044549
0.0035871
0.000480158
0.00353442
0.000516741
0.00347788
0.000555384
0.00341725
0.000596244
0.00335217
0.000639439
0.00328235
0.000685119
0.00320739
0.000733455
0.00312677
0.000784568
0.00304037
0.000838567
0.00294795
0.000895731
0.00284885
0.000956087
0.00274304
0.00101968
0.00263013
0.00108687
0.00250932
0.00115746
0.00238029
0.00123147
0.00224196
0.00130896
0.00209362
0.00138902
0.00193515
0.00147171
0.00176514
0.00155647
0.00158201
0.00164085
0.00138695
0.00172292
0.00118104
0.00180307
0.000964139
0.00187923
0.000735671
0.00194791
0.00049638
0.00200302
0.000248703
0.00204043
0.00204722
0.00436977
2.76947e-07
0.00410239
5.06564e-06
0.00419903
5.52559e-05
0.00420497
6.84339e-05
0.0042005
7.54967e-05
0.00419438
8.45325e-05
0.00418694
9.71617e-05
0.00417801
0.000111458
0.0041675
0.000127521
0.00415508
0.000144966
0.00414082
0.000163461
0.00412469
0.000183061
0.00410644
0.000203878
0.0040861
0.000226008
0.00406342
0.000249504
0.00403834
0.000274371
0.00401082
0.000300675
0.00398053
0.000328441
0.00394745
0.000357714
0.0039115
0.000388588
0.00387252
0.000421127
0.00383031
0.000455439
0.00378459
0.000491608
0.00373517
0.000529753
0.00368192
0.000569997
0.0036248
0.000612511
0.00356351
0.00065748
0.00349761
0.000705031
0.00342687
0.000755332
0.00335091
0.000808603
0.00326929
0.000864989
0.00318188
0.000924641
0.00308839
0.000987892
0.00298817
0.00105481
0.00288104
0.00112546
0.00276657
0.00120028
0.00264392
0.00127912
0.00251264
0.00136205
0.00237157
0.00144923
0.00221976
0.00153977
0.00205694
0.00163375
0.00188155
0.00173074
0.00169157
0.00182832
0.0014877
0.00192401
0.00127095
0.00201821
0.0010404
0.00210888
0.000796227
0.00219105
0.000538807
0.00225823
0.000271199
0.00230429
0.00231508
0.00453225
2.94151e-07
0.00425497
5.46316e-06
0.00435586
5.97482e-05
0.00436254
7.39786e-05
0.00435847
8.15999e-05
0.00435262
9.1478e-05
0.00434544
0.000105388
0.00433674
0.000121127
0.00432645
0.000138846
0.00431415
0.00015808
0.00429988
0.00017845
0.00428372
0.000200022
0.00426536
0.000222918
0.00424488
0.000247243
0.00422206
0.000273056
0.0041968
0.000300352
0.00416911
0.000329206
0.00413862
0.000359639
0.00410529
0.0003917
0.00406908
0.00042549
0.0040298
0.000461077
0.00398727
0.000498573
0.00394122
0.000538073
0.00389145
0.000579706
0.00383784
0.000623628
0.00378035
0.000670013
0.00371864
0.000719089
0.00365226
0.000770994
0.00358097
0.000825917
0.00350449
0.000884123
0.00342229
0.000945812
0.00333432
0.00101114
0.0032403
0.00108054
0.0031394
0.00115412
0.00303149
0.00123194
0.00291607
0.00131459
0.00279216
0.00140194
0.0026593
0.00149415
0.00251613
0.00159156
0.00236149
0.00169327
0.00219494
0.00179948
0.00201464
0.00190996
0.00181829
0.00202231
0.00160552
0.00213377
0.00137753
0.00224438
0.00113305
0.00235222
0.000870892
0.00245221
0.000591648
0.00253548
0.000297846
0.00259434
0.00260917
0.00470079
3.06389e-07
0.00441321
5.84355e-06
0.00451855
6.41354e-05
0.00452622
7.89828e-05
0.0045228
8.7216e-05
0.00451737
9.80349e-05
0.00451056
0.000113291
0.00450215
0.000130528
0.00449211
0.000149953
0.00448003
0.000171036
0.00446593
0.000193344
0.00444983
0.000216936
0.00443144
0.000241955
0.00441089
0.000268507
0.00438797
0.000296659
0.00436261
0.000326404
0.0043348
0.000357814
0.00430422
0.000390922
0.00427083
0.000425772
0.00423457
0.000462475
0.00419524
0.000501109
0.00415262
0.000541787
0.00410642
0.000584615
0.00405655
0.000629734
0.00400286
0.000677323
0.00394528
0.000727573
0.00388355
0.000780728
0.00381707
0.000836979
0.00374566
0.000896486
0.00366909
0.000959606
0.00358686
0.00102657
0.00349884
0.00109757
0.00340484
0.0011731
0.00330395
0.00125338
0.00319589
0.00133846
0.00308028
0.00142901
0.00295592
0.00152513
0.00282229
0.00162688
0.00267802
0.00173496
0.00252157
0.00184856
0.00235224
0.00196788
0.00216798
0.00209312
0.001966
0.00222217
0.0017446
0.0023519
0.00150475
0.00248228
0.00124427
0.00261133
0.000962117
0.00273339
0.000657222
0.00283805
0.000333387
0.00291429
0.0029391
0.00487563
2.76668e-07
0.0045773
6.25749e-06
0.00468715
6.8034e-05
0.00469645
8.32276e-05
0.0046938
9.22566e-05
0.004689
0.00010409
0.00468271
0.000120748
0.00467474
0.000139552
0.00466503
0.000160746
0.00465324
0.000183748
0.0046393
0.000208052
0.00462335
0.000233712
0.00460507
0.000260893
0.00458457
0.000289693
0.00456174
0.000320201
0.00453642
0.000352402
0.00450869
0.000386366
0.00447815
0.000422142
0.00444474
0.000459765
0.00440853
0.000499359
0.00436928
0.000541016
0.00432679
0.000584842
0.0042808
0.000630964
0.00423115
0.000679535
0.00417775
0.000730745
0.00412046
0.000784818
0.00405904
0.000842004
0.00399293
0.000902528
0.00392183
0.000966576
0.00384573
0.00103452
0.00376401
0.0011067
0.00367658
0.0011833
0.0035833
0.0012649
0.0034832
0.00135182
0.00337587
0.00144413
0.00326095
0.00154265
0.00313722
0.00164758
0.00300402
0.00175911
0.0028599
0.00187818
0.00270295
0.00200419
0.00253228
0.00213753
0.00234561
0.00227873
0.00213963
0.00242626
0.00191113
0.00257707
0.00166057
0.00273052
0.00138429
0.00288611
0.00107913
0.00303731
0.00074367
0.00317183
0.00037897
0.00327529
0.00331387
0.00505712
2.10599e-07
0.00474748
6.66687e-06
0.00486208
7.05504e-05
0.00487317
8.67923e-05
0.00487172
9.66375e-05
0.00486784
0.000109485
0.00486231
0.000127587
0.00485498
0.000148033
0.00484575
0.00017109
0.00483433
0.000196099
0.00482066
0.000222476
0.00480498
0.000250257
0.00478689
0.000279631
0.00476651
0.000310701
0.00474386
0.000343566
0.00471868
0.000378217
0.00469108
0.000414711
0.00466079
0.000453123
0.00462767
0.000493488
0.0045918
0.000535935
0.00455291
0.000580571
0.00451074
0.000627489
0.00446512
0.00067684
0.00441595
0.000728782
0.00436311
0.000783542
0.00430653
0.000841346
0.00424586
0.00090247
0.0041806
0.000967156
0.00411044
0.00103564
0.00403534
0.00110826
0.00395488
0.00118552
0.00386877
0.00126759
0.00377705
0.00135507
0.00367863
0.00144853
0.00357311
0.00154793
0.00346009
0.00165427
0.0033383
0.00176796
0.003207
0.00188926
0.00306472
0.00201945
0.00290937
0.00215823
0.00273953
0.00230626
0.00255264
0.0024645
0.00234484
0.00263235
0.00211128
0.00280704
0.00185098
0.00298839
0.00155901
0.00317621
0.00123128
0.00336447
0.000858359
0.00354219
0.000444313
0.00368527
0.00375412
0.00524562
1.47841e-07
0.00492376
6.91229e-06
0.00504398
7.15423e-05
0.00505666
8.91501e-05
0.00505671
9.99786e-05
0.00505423
0.00011391
0.00504978
0.000133557
0.00504341
0.000155745
0.00503484
0.000180812
0.00502395
0.000207956
0.00501067
0.000236499
0.00499527
0.000266454
0.00497751
0.000298051
0.0049574
0.000331409
0.00493502
0.000366625
0.0049101
0.000403707
0.00488277
0.0004427
0.00485286
0.000483694
0.00482022
0.000526747
0.00478489
0.000571979
0.00474658
0.000619506
0.00470506
0.000669432
0.00466014
0.00072191
0.00461181
0.000777117
0.00456002
0.000835318
0.00450449
0.000896735
0.00444508
0.00096163
0.0043812
0.00103035
0.00431247
0.00110304
0.00423909
0.00118017
0.00416062
0.00126227
0.00407666
0.00134956
0.00398741
0.0014427
0.00389192
0.00154234
0.00378932
0.00164863
0.00367963
0.00176243
0.00356142
0.00188467
0.00343392
0.00201546
0.00329574
0.00215655
0.00314442
0.00230811
0.00297845
0.00247095
0.00279513
0.00264673
0.00258935
0.00283632
0.00235663
0.00303645
0.00209217
0.00325015
0.00178897
0.00347741
0.00143572
0.00371635
0.00102308
0.0039534
0.00053893
0.00416613
0.00428869
0.00544134
1.15832e-07
0.00510614
6.90866e-06
0.00523308
7.09661e-05
0.00524752
8.97803e-05
0.00524919
0.000101675
0.00524851
0.000116814
0.00524566
0.00013821
0.00524061
0.000162389
0.00523298
0.000189706
0.00522279
0.000219162
0.00521005
0.000249975
0.00519506
0.000282169
0.00517772
0.000316028
0.00515798
0.000351684
0.00513597
0.000389241
0.0051115
0.000428728
0.0050846
0.000470164
0.00505526
0.000513674
0.0050233
0.000559333
0.00498864
0.000607247
0.00495112
0.000657568
0.00491042
0.000710391
0.00486649
0.000765863
0.0048194
0.000824211
0.00476904
0.000885671
0.00471514
0.000950511
0.00465748
0.00101899
0.00459556
0.00109147
0.00452899
0.00116815
0.00445801
0.0012495
0.00438234
0.00133611
0.00430162
0.0014283
0.0042159
0.00152664
0.00412446
0.00163209
0.00402647
0.00174469
0.00392174
0.00186552
0.00380916
0.00199559
0.00368767
0.00213543
0.00355629
0.00228668
0.00341245
0.00245057
0.00325428
0.00262773
0.00308027
0.00281923
0.00288433
0.00303062
0.00265682
0.00326109
0.00239338
0.00351063
0.00208604
0.00378214
0.00172112
0.00408109
0.00126542
0.00440616
0.000699789
0.00472784
0.00498397
0.00564442
1.17519e-07
0.00529494
6.66672e-06
0.00542943
6.88126e-05
0.00544631
8.82907e-05
0.00544997
0.000100982
0.00545131
0.000117504
0.00545039
0.000141035
0.00544703
0.000167552
0.00544065
0.000197526
0.00543143
0.00022953
0.0054194
0.000262744
0.00540504
0.000297246
0.00538826
0.000333399
0.00536894
0.000371359
0.00534745
0.000411251
0.00532346
0.000453104
0.00529707
0.000496928
0.00526846
0.000542873
0.0052373
0.000591025
0.00520369
0.000641505
0.00516741
0.000694467
0.00512807
0.000750022
0.00508567
0.000808338
0.0050402
0.000869631
0.0049916
0.000934175
0.00493968
0.00100221
0.00488422
0.00107402
0.00482484
0.00114994
0.00476113
0.00123031
0.00469339
0.00131545
0.00462155
0.00140615
0.0045449
0.00150278
0.00446402
0.00160574
0.00437805
0.00171636
0.00428601
0.00183458
0.00418812
0.00196166
0.00408341
0.00209845
0.00397081
0.00224645
0.00384985
0.0024061
0.00372023
0.00257867
0.00357675
0.00276951
0.00341457
0.00298003
0.00323227
0.00321117
0.00302391
0.00346693
0.0027805
0.00375107
0.00248775
0.004072
0.00212523
0.00444167
0.0016546
0.00487557
0.000993007
0.00538651
0.0059726
0.00585502
1.39341e-07
0.00549064
6.21797e-06
0.00563342
6.50419e-05
0.00565349
8.39922e-05
0.00566039
9.69899e-05
0.00566431
0.000115163
0.00566556
0.000141458
0.00566388
0.000170897
0.0056589
0.000204003
0.00565076
0.000238904
0.0056396
0.00027472
0.00562583
0.000311659
0.00560957
0.00035017
0.00559085
0.000390474
0.00556996
0.000432683
0.00554677
0.000476827
0.00552121
0.000522952
0.00549341
0.000571191
0.00546326
0.000621681
0.0054306
0.00067456
0.0053954
0.000729942
0.00535759
0.000787998
0.00531702
0.000848923
0.00527387
0.000912909
0.00522795
0.000980249
0.00517881
0.00105122
0.00512623
0.001126
0.00507015
0.001205
0.00501006
0.00128864
0.00494624
0.00137711
0.00487916
0.00147133
0.00480795
0.00157176
0.0047329
0.0016787
0.00465395
0.00179352
0.00457006
0.00191644
0.00448058
0.00204898
0.00438669
0.00219045
0.00428843
0.00234285
0.00418183
0.00251093
0.00406358
0.0026953
0.00393569
0.0028957
0.00379753
0.00311653
0.00364478
0.00336273
0.00346964
0.00363941
0.0032649
0.00395241
0.00302197
0.00431182
0.0027182
0.00474485
0.00229318
0.00529845
0.00163591
0.00603997
0.00760434
0.0084659
1.67482e-07
0.0079365
5.14677e-06
0.00815061
5.53958e-05
0.00818312
7.17044e-05
0.0082
8.53975e-05
0.00821085
0.000106952
0.00821669
0.000137862
0.00821743
0.000172214
0.00821289
0.000210349
0.0082037
0.000249725
0.00819027
0.000289408
0.00817313
0.00032985
0.00815256
0.000371662
0.00812856
0.000415184
0.00810145
0.000460499
0.00807142
0.000507612
0.00803849
0.000556619
0.00800259
0.000607698
0.00796382
0.00066103
0.00792198
0.000716786
0.00787677
0.000775086
0.00782862
0.000836089
0.00777754
0.000900087
0.00772305
0.000967189
0.00766578
0.00103767
0.00760475
0.00111192
0.00753944
0.00118995
0.00747056
0.00127233
0.00739722
0.00135944
0.00731987
0.00145149
0.00723939
0.00154929
0.00715483
0.00165338
0.00706677
0.0017641
0.00697525
0.00188248
0.00688103
0.00200802
0.00678435
0.00214279
0.00668137
0.00229054
0.00657122
0.00245012
0.0064576
0.00262185
0.00634173
0.00280851
0.00622075
0.00301394
0.00609467
0.00323994
0.00596395
0.00349109
0.00582911
0.00377225
0.00568994
0.00408763
0.00555189
0.00444421
0.00545455
0.00483848
0.00549227
0.00526117
0.0058922
0.00563809
0.00545245
0.00803919
0.00846664
1.19342e-07
0.00793646
2.74879e-06
0.00816739
3.23312e-05
0.00821105
4.83368e-05
0.00823481
6.46225e-05
0.00825209
9.20694e-05
0.00826206
0.000130449
0.00826502
0.000171648
0.00826142
0.00021604
0.00825278
0.000260016
0.00824018
0.00030328
0.00822413
0.000346922
0.00820484
0.000391717
0.00818246
0.000438337
0.00815732
0.000486381
0.00812969
0.000535982
0.00809981
0.000587306
0.00806758
0.000640641
0.0080329
0.0006962
0.00799572
0.000754173
0.00795592
0.000814719
0.00791396
0.000877971
0.00786977
0.000944247
0.00782298
0.00101363
0.00777382
0.00108642
0.00772195
0.00116289
0.0076671
0.00124327
0.00760996
0.00132785
0.00755022
0.00141723
0.00748783
0.0015115
0.00742351
0.00161152
0.00735744
0.00171695
0.00729047
0.00182829
0.00722219
0.0019479
0.00715026
0.00207689
0.00707522
0.00221453
0.00700211
0.00236058
0.00693068
0.00251831
0.0068617
0.0026877
0.00679539
0.00287213
0.00673624
0.00307013
0.00668522
0.00328842
0.00665099
0.00352301
0.00663919
0.00378135
0.00666615
0.00405833
0.00675884
0.00434782
0.00695104
0.00464069
0.00734163
0.00486668
0.00796883
0.00501051
0.00466867
0.00875221
0.0084666
1.19223e-07
0.00793671
-1.8516e-07
0.00818329
-5.3472e-06
0.00824613
5.90088e-06
0.00828438
2.89608e-05
0.0083106
6.80231e-05
0.00832524
0.000118415
0.00832891
0.000170406
0.00832571
0.000221338
0.00831792
0.00026943
0.00830649
0.000316058
0.00829175
0.000362898
0.00827395
0.000410634
0.00825332
0.000459788
0.00822981
0.000510585
0.00820413
0.000562291
0.00817669
0.000615514
0.00814729
0.000670666
0.00811596
0.000727974
0.0080829
0.000787648
0.0080478
0.000849866
0.00801095
0.000914753
0.00797244
0.000982585
0.00793203
0.00105348
0.00789005
0.00112768
0.00784654
0.00120544
0.00780128
0.00128704
0.00775493
0.00137268
0.00770761
0.00146284
0.00766019
0.00155705
0.00761331
0.00165631
0.00756548
0.00176268
0.00751594
0.00187551
0.00746675
0.00199442
0.00742077
0.00211999
0.00737776
0.00225446
0.00733803
0.0023971
0.00730308
0.00255001
0.00727495
0.00271253
0.0072571
0.0028869
0.00725171
0.00307249
0.00726763
0.00326941
0.00730793
0.00348014
0.00739171
0.00369493
0.00752494
0.00392273
0.00774028
0.00412999
0.008049
0.00432881
0.00845957
0.0044516
0.0089735
0.00449266
0.00423438
0.00940625
0.00846495
1.3799e-06
0.0079432
-1.08031e-05
0.00823733
-9.10963e-05
0.00832887
-6.52304e-05
0.00837707
-1.69049e-05
0.00839977
4.772e-05
0.00840718
0.000113768
0.00840577
0.00017429
0.00840021
0.000229181
0.00839208
0.00027923
0.00838129
0.00032851
0.00836741
0.000378322
0.00835083
0.000428622
0.00833204
0.0004797
0.00831134
0.000532021
0.00828876
0.000585367
0.00826435
0.000640154
0.00823861
0.000696718
0.00821164
0.000755385
0.00818352
0.00081634
0.00815408
0.000879799
0.00812329
0.00094589
0.00809114
0.00101483
0.00805744
0.00108677
0.00802227
0.00116185
0.0079861
0.00124037
0.00794934
0.00132226
0.0079127
0.00140763
0.0078767
0.00149725
0.00783976
0.00159235
0.00780201
0.00169198
0.00776625
0.00179589
0.00773376
0.00190526
0.00770458
0.00202064
0.00767941
0.00214202
0.00766061
0.00227016
0.00764879
0.00240575
0.00764729
0.00254836
0.00765649
0.0027001
0.00768242
0.00285769
0.00772546
0.00302633
0.00779544
0.00319632
0.00789499
0.00337771
0.00803589
0.00355132
0.0082284
0.00372817
0.00847511
0.00388068
0.00879618
0.00400594
0.0091651
0.00407969
0.00960806
0.00404681
0.00391884
0.00992025
0.00845468
1.05054e-05
0.00798448
-6.66841e-05
0.00838068
-0.000287286
0.0085662
-0.000226678
0.00861298
-5.86884e-05
0.00860701
5.6949e-05
0.00859358
0.00013008
0.00857987
0.000190539
0.00856864
0.000242679
0.00855634
0.000293021
0.00854048
0.000345285
0.00852171
0.000397866
0.00850076
0.0004503
0.00847851
0.000502656
0.00845549
0.000555493
0.00843155
0.000609899
0.00840642
0.000665847
0.0083804
0.00072345
0.00835359
0.0007829
0.00832622
0.000844476
0.00829826
0.000908419
0.0082697
0.000974835
0.00824075
0.00104395
0.00821144
0.00111577
0.00818215
0.00119042
0.00815321
0.00126825
0.00812427
0.00135
0.0080951
0.00143545
0.00806629
0.00152439
0.00803994
0.00161698
0.00801591
0.00171404
0.00799421
0.00181528
0.0079752
0.00192138
0.00796075
0.00203169
0.00795149
0.00214766
0.00795013
0.00226777
0.00795778
0.00239445
0.00797782
0.00252467
0.00801213
0.00266237
0.00806495
0.00280145
0.00813959
0.00294846
0.00824007
0.00309259
0.00837395
0.00324072
0.00854131
0.00338059
0.00875625
0.00351076
0.00901105
0.00362339
0.00931302
0.00370176
0.00965119
0.00373935
0.00999023
0.00370562
0.00359344
0.0103135
0.00852163
1.76668e-05
0.00825381
-0.000398321
0.00881663
-0.000625177
0.0089153
-0.000298664
0.00889427
-2.91174e-05
0.00883291
0.000120792
0.0088025
0.000162642
0.0087834
0.000211845
0.0087748
0.000253267
0.00876137
0.000308013
0.00874347
0.00036434
0.00872336
0.000418892
0.00870213
0.000472197
0.0086803
0.000525081
0.00865742
0.000578706
0.00863347
0.000634252
0.00860828
0.000691373
0.00858213
0.000750139
0.00855479
0.000810722
0.0085267
0.000873286
0.00849767
0.000938076
0.00846806
0.00100481
0.00843837
0.00107389
0.00840835
0.00114577
0.00837764
0.00122062
0.00834726
0.0012977
0.00831874
0.00137743
0.00829307
0.00145994
0.00826994
0.0015462
0.00825022
0.00163526
0.00823394
0.0017286
0.00822249
0.00182477
0.00821573
0.00192576
0.00821519
0.00202939
0.0082214
0.00213826
0.0082363
0.00224944
0.00826128
0.00236588
0.00829835
0.00248396
0.00835075
0.00260647
0.00841948
0.00272928
0.00851095
0.00285347
0.00862429
0.00297612
0.00876864
0.00309317
0.00894122
0.00320486
0.00914932
0.00329943
0.00939119
0.00337893
0.00966375
0.00342646
0.00996274
0.00343808
0.0102602
0.00340573
0.00330581
0.0105461
0.00817173
3.17674e-06