/*--------------------------------*- C++ -*----------------------------------*\
| =========                 |                                                 |
| \\      /  F ield         | OpenFOAM: The Open Source CFD Toolbox           |
|  \\    /   O peration     | Version:  2412                                  |
|   \\  /    A nd           | Website:  www.openfoam.com                      |
|    \\/     M anipulation  |                                                 |
\*---------------------------------------------------------------------------*/
FoamFile
{
    version     2.0;
    format      ascii;
    arch        "LSB;label=32;scalar=64";
    class       volScalarField;
    location    "12";
    object      T;
}
// * * * * * * * * * * * * * * * * * * * * * * * * * * * * * * * * * * * * * //

dimensions      [0 0 0 1 0 0 0];

internalField   nonuniform List<scalar> 
7000
(
1.31784
2.6475
2.70995
2.67098
2.66086
2.63997
2.63654
2.63951
2.64248
2.6458
2.64789
2.64909
2.65038
2.65176
2.65348
2.65557
2.65747
2.65938
2.66129
2.66335
2.66576
2.66818
2.67059
2.67316
2.67614
2.67946
2.68289
2.68632
2.68943
2.69233
2.69546
2.69886
2.70233
2.70631
2.71031
2.71378
2.71732
2.7203
2.72286
2.72609
2.72843
2.73034
2.73461
2.74018
2.74254
2.74167
2.74013
2.74232
2.75231
2.78184
1.31787
2.64759
2.71044
2.67104
2.65949
2.63996
2.63785
2.64133
2.64428
2.64708
2.64864
2.64947
2.65058
2.6519
2.6536
2.65568
2.65757
2.65949
2.66141
2.66347
2.66586
2.66823
2.67063
2.67321
2.67623
2.67959
2.68302
2.6864
2.68946
2.6923
2.6954
2.6988
2.70229
2.70627
2.71029
2.71376
2.71731
2.72028
2.72284
2.72606
2.72838
2.73029
2.73457
2.74011
2.74243
2.74153
2.73997
2.74218
2.75218
2.78151
1.31789
2.64763
2.71012
2.67064
2.6615
2.6406
2.63643
2.63906
2.64164
2.645
2.64737
2.64883
2.65027
2.6517
2.65344
2.65553
2.65744
2.65939
2.66132
2.66338
2.66576
2.66811
2.6705
2.67307
2.67607
2.67944
2.68287
2.68625
2.68929
2.69211
2.69519
2.69858
2.70207
2.70605
2.71008
2.71355
2.71709
2.72007
2.72263
2.72585
2.72816
2.73008
2.73437
2.73989
2.7422
2.74128
2.73972
2.74196
2.75202
2.78135
1.31783
2.64733
2.70995
2.67116
2.65984
2.63973
2.63721
2.64054
2.64355
2.64655
2.64831
2.64925
2.65037
2.6516
2.65321
2.65526
2.65719
2.65919
2.66117
2.66323
2.66558
2.66789
2.67026
2.67283
2.67583
2.67922
2.68262
2.68595
2.68897
2.69175
2.6948
2.69822
2.70167
2.70563
2.70967
2.71312
2.71664
2.71962
2.72217
2.72537
2.72769
2.7296
2.73388
2.73942
2.74172
2.74081
2.73925
2.74145
2.75155
2.78079
1.31781
2.64716
2.70967
2.67037
2.66131
2.64083
2.63634
2.63882
2.64105
2.64423
2.64671
2.64832
2.64985
2.65128
2.65291
2.65493
2.65682
2.65888
2.66097
2.66309
2.66542
2.66762
2.66985
2.67235
2.67532
2.67872
2.68218
2.68553
2.68855
2.69135
2.69435
2.69772
2.70118
2.70506
2.70907
2.71254
2.716
2.71898
2.72153
2.72469
2.72698
2.72887
2.7331
2.73864
2.74098
2.74007
2.73859
2.74085
2.75075
2.78009
1.31776
2.64678
2.70923
2.67119
2.66001
2.63954
2.63658
2.63971
2.64265
2.64576
2.64772
2.64882
2.64999
2.65121
2.65268
2.65454
2.65637
2.65846
2.66063
2.66284
2.66516
2.6673
2.66943
2.67183
2.67479
2.67822
2.6817
2.68506
2.68805
2.69077
2.69374
2.69705
2.70044
2.70432
2.7083
2.71173
2.71519
2.71814
2.72066
2.72379
2.72608
2.72791
2.73204
2.73758
2.73998
2.73915
2.73741
2.73961
2.74986
2.77883
1.3177
2.64641
2.70891
2.67036
2.66071
2.64084
2.63621
2.6386
2.64056
2.64347
2.64586
2.64757
2.6493
2.65084
2.65231
2.65398
2.65563
2.65767
2.65995
2.66227
2.66465
2.66674
2.66883
2.6712
2.67412
2.6775
2.68087
2.6841
2.68701
2.68967
2.69262
2.69598
2.69941
2.70328
2.70729
2.71069
2.71413
2.71709
2.71955
2.72265
2.72492
2.72669
2.73067
2.73623
2.7387
2.73787
2.73635
2.73829
2.74794
2.77769
1.31764
2.64593
2.70839
2.6704
2.66048
2.64063
2.63596
2.63827
2.64024
2.64319
2.64562
2.64738
2.64918
2.65087
2.65241
2.65403
2.65555
2.65748
2.65968
2.66194
2.66433
2.66651
2.66869
2.67115
2.6741
2.67744
2.6807
2.68375
2.68651
2.68906
2.69186
2.69511
2.6984
2.70215
2.7061
2.70945
2.71283
2.71578
2.71817
2.72122
2.72349
2.72517
2.72897
2.73451
2.73709
2.73634
2.73447
2.73646
2.7465
2.77534
1.31756
2.64536
2.70773
2.67109
2.65906
2.64032
2.63626
2.63891
2.64067
2.64272
2.64406
2.64493
2.64615
2.64761
2.64917
2.65093
2.65253
2.65441
2.65653
2.65875
2.6613
2.66386
2.66649
2.66944
2.67275
2.67626
2.67957
2.68257
2.68525
2.68771
2.69041
2.69365
2.69696
2.70065
2.70459
2.70793
2.71124
2.71417
2.71651
2.71946
2.72173
2.72331
2.72688
2.73239
2.73507
2.73449
2.73255
2.73392
2.74322
2.77352
1.31748
2.64473
2.70702
2.67126
2.65872
2.6399
2.63588
2.63856
2.64034
2.64231
2.64355
2.6443
2.64537
2.6466
2.64794
2.64958
2.6511
2.65283
2.65474
2.65668
2.6589
2.66117
2.66365
2.6664
2.6695
2.67279
2.67597
2.67902
2.68196
2.68483
2.68798
2.69156
2.69507
2.69883
2.70278
2.70608
2.70935
2.71223
2.71448
2.71736
2.71958
2.72106
2.72433
2.72982
2.7326
2.73191
2.73022
2.73192
2.7412
2.76972
1.31738
2.64399
2.70624
2.67141
2.65837
2.63948
2.63539
2.63803
2.63981
2.64177
2.64302
2.64378
2.64482
2.64604
2.64732
2.64892
2.65043
2.65208
2.65396
2.65581
2.65783
2.65993
2.66217
2.66467
2.66742
2.67029
2.67314
2.6761
2.67915
2.6823
2.68568
2.68945
2.69305
2.69677
2.70069
2.70394
2.70708
2.70995
2.71208
2.71483
2.71703
2.71836
2.72132
2.72665
2.72957
2.72916
2.72664
2.72761
2.7364
2.76696
1.31728
2.64316
2.70535
2.67161
2.65792
2.63901
2.63486
2.63746
2.63919
2.64114
2.64236
2.64313
2.64416
2.64537
2.64664
2.64817
2.64965
2.65126
2.65308
2.6549
2.65684
2.65881
2.66097
2.6633
2.66586
2.66851
2.67115
2.67396
2.67701
2.68015
2.68358
2.6873
2.69087
2.69448
2.69826
2.70144
2.70446
2.70723
2.70927
2.71183
2.71395
2.71515
2.71764
2.72282
2.72587
2.72551
2.72383
2.7247
2.73318
2.76122
1.31716
2.64222
2.70436
2.67187
2.65738
2.63847
2.63426
2.63684
2.63853
2.64039
2.64161
2.64238
2.64337
2.6446
2.64583
2.64734
2.64877
2.65031
2.65208
2.65384
2.6557
2.65761
2.65966
2.6619
2.66432
2.66683
2.66931
2.67201
2.67496
2.67806
2.68135
2.68504
2.68841
2.69184
2.69552
2.69849
2.70142
2.70406
2.7059
2.70834
2.71035
2.71135
2.7134
2.71821
2.72128
2.72083
2.71789
2.71822
2.72578
2.75668
1.31702
2.64117
2.70325
2.67222
2.65679
2.63781
2.63357
2.63613
2.6378
2.63961
2.64077
2.64148
2.64246
2.64367
2.64489
2.64638
2.64777
2.64929
2.65097
2.65264
2.6544
2.6562
2.65818
2.66035
2.66263
2.66503
2.66737
2.66989
2.67278
2.67574
2.67893
2.6824
2.68569
2.68883
2.69232
2.69518
2.69781
2.70042
2.70207
2.70417
2.70601
2.70681
2.70831
2.71262
2.71588
2.71596
2.71372
2.7133
2.72053
2.74831
1.31688
2.64001
2.70189
2.67272
2.6562
2.63707
2.63276
2.63526
2.63694
2.63871
2.63984
2.64058
2.64145
2.64267
2.64382
2.64524
2.6466
2.648
2.64967
2.6513
2.65298
2.65472
2.65658
2.65861
2.66076
2.66296
2.66521
2.66753
2.67031
2.67319
2.67614
2.67951
2.68253
2.68545
2.68865
2.69137
2.69374
2.69615
2.69756
2.69934
2.70104
2.7016
2.70245
2.70573
2.70865
2.70811
2.7046
2.70461
2.70948
2.73958
1.31677
2.63892
2.69964
2.67373
2.65569
2.63631
2.63186
2.6343
2.63595
2.63768
2.63881
2.63951
2.64032
2.64152
2.64264
2.64397
2.64533
2.64665
2.6482
2.64974
2.65127
2.65293
2.65472
2.65665
2.65868
2.66076
2.66278
2.66502
2.66754
2.67033
2.67307
2.67615
2.67904
2.68156
2.68459
2.68693
2.68911
2.69121
2.69242
2.69377
2.69498
2.69526
2.69559
2.69775
2.70092
2.70102
2.69802
2.69395
2.69996
2.72631
1.31672
2.63807
2.6965
2.6748
2.65533
2.63562
2.63091
2.63329
2.6348
2.63656
2.63757
2.63832
2.63908
2.64022
2.64131
2.64256
2.6439
2.64516
2.6466
2.64801
2.64941
2.65097
2.65263
2.65449
2.65631
2.65818
2.66013
2.66207
2.66451
2.66713
2.66961
2.67242
2.67512
2.67728
2.67982
2.68214
2.68374
2.68572
2.68646
2.68736
2.68817
2.68789
2.68719
2.68801
2.68926
2.6882
2.68374
2.68187
2.68172
2.70995
1.31672
2.63744
2.69286
2.67549
2.6549
2.63502
2.62998
2.63221
2.6336
2.63527
2.63623
2.63695
2.63769
2.63875
2.63984
2.64099
2.64225
2.64347
2.64473
2.64604
2.64736
2.64879
2.65043
2.65211
2.65376
2.65541
2.65716
2.65892
2.66112
2.66356
2.66582
2.66832
2.67064
2.67257
2.67462
2.67651
2.67781
2.67918
2.67981
2.67995
2.67989
2.67955
2.67809
2.67765
2.67759
2.67674
2.67121
2.66036
2.66304
2.68182
1.31675
2.63688
2.68914
2.67575
2.65403
2.63429
2.62905
2.63117
2.63236
2.63391
2.63474
2.63546
2.63607
2.63713
2.6382
2.63925
2.64056
2.64168
2.64285
2.64408
2.64515
2.6464
2.64781
2.64926
2.65077
2.65225
2.65383
2.65544
2.65739
2.65961
2.66158
2.66362
2.66587
2.66708
2.66894
2.67037
2.67128
2.67205
2.67203
2.67175
2.67048
2.66909
2.6654
2.66325
2.66036
2.65617
2.64957
2.63937
2.62562
2.64119
1.31675
2.63623
2.68569
2.6757
2.65275
2.63303
2.62782
2.62997
2.63103
2.6325
2.63322
2.63385
2.63447
2.63542
2.63639
2.63733
2.6384
2.63948
2.64055
2.64166
2.64286
2.64405
2.6453
2.64659
2.64764
2.64882
2.6501
2.65159
2.65312
2.65524
2.65695
2.6585
2.66034
2.6614
2.66241
2.66333
2.66404
2.66406
2.66368
2.66249
2.6612
2.65825
2.65489
2.64854
2.64426
2.6375
2.62313
2.59914
2.57588
2.52896
1.31672
2.63528
2.68193
2.67508
2.65158
2.63126
2.62577
2.62788
2.62887
2.63034
2.63097
2.63143
2.63192
2.63262
2.63346
2.63429
2.63517
2.63606
2.63705
2.63798
2.63909
2.6403
2.64133
2.64238
2.6435
2.64414
2.64543
2.64654
2.64774
2.64933
2.65062
2.65159
2.65282
2.65316
2.65373
2.65356
2.65309
2.65228
2.65023
2.64814
2.64353
2.63991
2.63193
2.625
2.61191
2.60034
2.58192
2.54319
2.4721
2.36978
1.31659
2.63385
2.67919
2.67314
2.64982
2.62937
2.6232
2.62517
2.62588
2.62725
2.62793
2.62826
2.62874
2.62934
2.62998
2.63072
2.6314
2.63211
2.63285
2.63368
2.63456
2.6356
2.63634
2.63724
2.63803
2.63879
2.63964
2.64062
2.64121
2.64214
2.64274
2.64313
2.64374
2.64375
2.64365
2.64337
2.64238
2.64107
2.6389
2.6352
2.63112
2.62331
2.61594
2.60107
2.58717
2.56159
2.53268
2.49184
2.40659
2.30844
1.31649
2.63296
2.67817
2.67208
2.64831
2.62726
2.62049
2.62207
2.62281
2.62421
2.62485
2.6251
2.62537
2.62579
2.62633
2.62699
2.62763
2.62817
2.62886
2.62946
2.63011
2.63089
2.63154
2.63226
2.63299
2.63359
2.63418
2.63481
2.63505
2.63538
2.63528
2.63493
2.63445
2.63338
2.63232
2.63006
2.62834
2.62456
2.62194
2.61587
2.61154
2.6025
2.59309
2.57993
2.55913
2.5384
2.49639
2.45818
2.38665
2.3097
1.31642
2.63216
2.67757
2.67113
2.64666
2.62471
2.61741
2.61913
2.61987
2.62141
2.62195
2.62196
2.622
2.62212
2.62235
2.62271
2.62316
2.62364
2.62397
2.6243
2.62449
2.6248
2.62504
2.62542
2.62589
2.6265
2.62696
2.62761
2.62783
2.62804
2.62803
2.62786
2.62745
2.62639
2.6252
2.62278
2.61974
2.6157
2.60987
2.60408
2.5942
2.58628
2.57032
2.55853
2.5332
2.51339
2.47708
2.43624
2.38407
2.32125
1.31611
2.6332
2.68981
2.67162
2.64674
2.62274
2.61479
2.61733
2.61819
2.61994
2.62072
2.62088
2.62102
2.62118
2.6213
2.62142
2.62141
2.62134
2.62119
2.62091
2.62056
2.62014
2.61975
2.61924
2.6189
2.61843
2.61808
2.61735
2.61697
2.61607
2.61547
2.61442
2.61352
2.61252
2.611
2.60946
2.6063
2.60343
2.59733
2.59238
2.5816
2.57366
2.55724
2.54295
2.521
2.49502
2.46603
2.42622
2.38384
2.33678
1.30072
2.57941
2.68987
2.67606
2.6534
2.62967
2.62243
2.62536
2.62621
2.62794
2.62792
2.62761
2.62728
2.6268
2.62643
2.62589
2.62537
2.62468
2.62392
2.62317
2.62214
2.62136
2.62034
2.61953
2.6185
2.61791
2.61664
2.61562
2.6138
2.61232
2.60977
2.60794
2.60467
2.60265
2.59874
2.59636
2.59139
2.58825
2.58126
2.5766
2.56681
2.55829
2.54521
2.52965
2.5119
2.48757
2.46126
2.42761
2.38921
2.34848
1.722
2.4588
2.72123
2.69716
2.67916
2.66837
2.66882
2.6704
2.67212
2.67227
2.67121
2.66947
2.66797
2.66581
2.66389
2.66142
2.65895
2.65616
2.65325
2.65019
2.64671
2.64319
2.63955
2.63577
2.63148
2.62726
2.62261
2.6195
2.61555
2.61323
2.60934
2.60693
2.60234
2.59919
2.59366
2.58943
2.58311
2.57717
2.57019
2.56163
2.55367
2.54157
2.53145
2.51495
2.50044
2.47871
2.45721
2.4287
2.39824
2.36467
1.73421
2.4529
2.71616
2.69345
2.67224
2.66296
2.66678
2.66829
2.67113
2.67211
2.67216
2.67197
2.6715
2.67105
2.66998
2.66911
2.6672
2.66597
2.66338
2.66179
2.65851
2.65659
2.65272
2.65048
2.64628
2.64389
2.63894
2.63532
2.62898
2.62394
2.61688
2.61142
2.60523
2.59995
2.59424
2.58784
2.58168
2.57334
2.56606
2.55538
2.54628
2.53319
2.52121
2.50555
2.48948
2.47067
2.44957
2.4266
2.40058
2.37391
1.73059
2.45904
2.71879
2.69431
2.6691
2.65919
2.66406
2.66613
2.6693
2.67065
2.6709
2.67093
2.67089
2.67074
2.67025
2.66972
2.6686
2.66792
2.66636
2.66532
2.6631
2.66174
2.65883
2.65708
2.65341
2.65123
2.64704
2.64394
2.63914
2.63489
2.62953
2.62356
2.61654
2.60838
2.60044
2.59149
2.58386
2.57439
2.56613
2.55559
2.54515
2.53282
2.51963
2.50491
2.48854
2.47088
2.45102
2.42919
2.40567
2.38235
1.73322
2.45324
2.71471
2.68953
2.66632
2.65628
2.66085
2.6628
2.66589
2.66727
2.66763
2.66781
2.66792
2.66799
2.66789
2.66769
2.66707
2.66655
2.66538
2.66461
2.66298
2.66176
2.65985
2.65809
2.65595
2.65342
2.65097
2.64754
2.64455
2.64006
2.63634
2.63059
2.62573
2.61862
2.61197
2.60291
2.59384
2.58295
2.57218
2.56018
2.5483
2.53543
2.52189
2.50706
2.49129
2.47346
2.45577
2.43557
2.4148
2.39379
1.7427
2.43574
2.70341
2.67803
2.66258
2.65341
2.65518
2.65792
2.66067
2.66201
2.66237
2.66235
2.66228
2.66218
2.6619
2.66166
2.6611
2.66072
2.65998
2.65929
2.65851
2.65741
2.65641
2.65486
2.65352
2.65138
2.64956
2.64676
2.64425
2.64042
2.63714
2.63226
2.62798
2.62183
2.61612
2.60855
2.60111
2.59173
2.58201
2.57046
2.55824
2.54419
2.53007
2.51418
2.49877
2.48132
2.46378
2.44473
2.42518
2.40588
1.73697
2.43033
2.70058
2.67129
2.66478
2.65204
2.6519
2.6541
2.65637
2.65777
2.65843
2.65838
2.65825
2.6581
2.65777
2.65747
2.65696
2.65636
2.65581
2.65492
2.6544
2.65331
2.65262
2.65124
2.65034
2.64858
2.64718
2.645
2.64298
2.64002
2.63704
2.63297
2.62895
2.62378
2.61843
2.61192
2.60508
2.59704
2.5886
2.57883
2.56847
2.55644
2.54386
2.52934
2.51421
2.49767
2.48052
2.46236
2.44355
2.42523
1.35618
2.46161
2.67569
2.66548
2.64354
2.62074
2.6132
2.61725
2.61903
2.62175
2.6232
2.6241
2.62485
2.62543
2.62605
2.62654
2.627
2.62724
2.62727
2.62721
2.62699
2.62676
2.62641
2.62558
2.62514
2.62427
2.62369
2.62283
2.62216
2.62127
2.62058
2.61922
2.61773
2.6155
2.61255
2.60819
2.60307
2.5967
2.58944
2.58113
2.57209
2.56185
2.55105
2.53897
2.52601
2.51182
2.49676
2.48065
2.46371
2.44714
1.35961
2.47187
2.68347
2.67468
2.65035
2.62099
2.6111
2.61177
2.61356
2.61575
2.61625
2.61665
2.61677
2.61678
2.617
2.6174
2.61775
2.61803
2.6183
2.61844
2.61842
2.61833
2.61807
2.61768
2.61696
2.61578
2.61468
2.61298
2.61136
2.60908
2.60698
2.60426
2.60169
2.59849
2.59554
2.59237
2.58882
2.58487
2.58025
2.57491
2.56846
2.56062
2.55148
2.54124
2.53023
2.51835
2.50579
2.49231
2.47799
2.46395
1.34906
2.40868
2.66601
2.66755
2.64809
2.62157
2.61148
2.61147
2.61211
2.61253
2.61212
2.61116
2.61023
2.60906
2.6084
2.60762
2.60717
2.60651
2.60609
2.60554
2.60515
2.60463
2.60423
2.60365
2.60313
2.60245
2.60177
2.60083
2.59979
2.59824
2.5965
2.59426
2.5917
2.58876
2.58531
2.58167
2.57747
2.57297
2.56782
2.56223
2.55618
2.54995
2.54317
2.5358
2.52756
2.51773
2.50699
2.49558
2.48356
2.47187
1.74197
2.39365
2.67147
2.65958
2.64977
2.63604
2.63065
2.63062
2.63021
2.62965
2.62838
2.62686
2.62488
2.62279
2.621
2.61898
2.61725
2.61516
2.61335
2.61127
2.60944
2.6074
2.60554
2.60348
2.60166
2.59967
2.59791
2.59585
2.59375
2.59153
2.58937
2.58681
2.5842
2.5812
2.57794
2.5742
2.57017
2.56557
2.56069
2.55504
2.54913
2.54242
2.53551
2.52768
2.51948
2.51124
2.50254
2.49294
2.48266
2.47247
1.34666
2.3928
2.65758
2.66448
2.64818
2.62271
2.61415
2.61243
2.61376
2.6137
2.6132
2.61263
2.61122
2.60989
2.6088
2.6075
2.60631
2.60476
2.60337
2.6016
2.60024
2.59864
2.5973
2.5957
2.59417
2.59206
2.59014
2.58776
2.58572
2.58317
2.58087
2.57807
2.57534
2.5722
2.56923
2.56573
2.56228
2.55819
2.55408
2.54921
2.54409
2.53819
2.53192
2.52499
2.51748
2.50946
2.50086
2.49202
2.48253
2.47337
1.34798
2.40418
2.66565
2.67045
2.65019
2.62116
2.61
2.60954
2.61061
2.611
2.61083
2.61
2.60889
2.60769
2.60689
2.60584
2.60501
2.60371
2.6026
2.60102
2.59931
2.59721
2.59498
2.59242
2.58982
2.58704
2.58413
2.58113
2.57789
2.57465
2.5711
2.56768
2.56411
2.56043
2.55656
2.55264
2.5486
2.54438
2.54006
2.53558
2.5309
2.52616
2.52085
2.51553
2.50958
2.50333
2.49647
2.48897
2.481
2.47313
1.34743
2.40024
2.66333
2.66883
2.6479
2.61828
2.6064
2.60603
2.60688
2.60747
2.6071
2.60606
2.6049
2.60358
2.60262
2.60165
2.60085
2.5999
2.59896
2.59789
2.59676
2.59528
2.59374
2.59188
2.58978
2.58753
2.58493
2.58219
2.57909
2.57576
2.57214
2.5683
2.56411
2.55985
2.55526
2.55053
2.54553
2.54038
2.53497
2.52945
2.52366
2.51781
2.51169
2.50548
2.49904
2.49244
2.48558
2.479
2.47179
2.46558
1.34462
2.37747
2.64645
2.66139
2.64237
2.61428
2.60255
2.60096
2.60124
2.6012
2.60051
2.59927
2.59769
2.59619
2.59489
2.59365
2.59241
2.59125
2.59005
2.58884
2.58771
2.58647
2.58531
2.58411
2.58289
2.58154
2.57995
2.57822
2.57617
2.57392
2.57127
2.56819
2.56484
2.56117
2.55713
2.55273
2.54794
2.54283
2.53729
2.53157
2.52549
2.51923
2.51276
2.50613
2.49929
2.4924
2.48517
2.47785
2.47032
2.46321
1.74896
2.37284
2.64503
2.6415
2.62702
2.61253
2.60725
2.60711
2.60672
2.60585
2.60429
2.60284
2.60106
2.59924
2.59759
2.59587
2.5942
2.59251
2.59081
2.58908
2.58735
2.58556
2.58379
2.582
2.58026
2.57845
2.57665
2.57464
2.57265
2.57041
2.56815
2.56569
2.56298
2.55994
2.55657
2.55276
2.54864
2.54411
2.53923
2.53394
2.52833
2.5224
2.51614
2.50952
2.50272
2.49555
2.48839
2.48092
2.4733
2.46604
1.34686
2.3876
2.6516
2.65989
2.63986
2.6087
2.59812
2.59674
2.59863
2.59917
2.59872
2.59763
2.59644
2.59472
2.59305
2.59158
2.58961
2.5874
2.58548
2.58296
2.58038
2.57801
2.5753
2.57288
2.57036
2.56817
2.56595
2.56384
2.56171
2.55932
2.55689
2.55428
2.55174
2.54888
2.54615
2.54303
2.53995
2.53645
2.53292
2.52889
2.52472
2.51998
2.51494
2.50933
2.50349
2.49735
2.49092
2.48429
2.4773
2.47064
1.35059
2.40969
2.65447
2.64873
2.62674
2.59658
2.58654
2.58702
2.58919
2.59078
2.59063
2.5899
2.58897
2.58813
2.58782
2.58763
2.58721
2.58619
2.5849
2.58342
2.58188
2.58042
2.57891
2.57729
2.5751
2.57252
2.56951
2.56627
2.56309
2.55989
2.55676
2.55343
2.55002
2.54642
2.54276
2.5389
2.53495
2.53081
2.52652
2.52209
2.51744
2.51272
2.50796
2.50303
2.49794
2.49253
2.4869
2.481
2.47486
2.46895
1.78047
2.36483
2.63596
2.61885
2.61276
2.59497
2.58925
2.5895
2.59148
2.59311
2.593
2.59212
2.59019
2.58841
2.58748
2.58709
2.58686
2.58642
2.58549
2.58433
2.58327
2.58222
2.58136
2.58036
2.57959
2.57842
2.57715
2.57534
2.57313
2.57054
2.56769
2.56466
2.56131
2.55769
2.55363
2.54941
2.54474
2.54008
2.53504
2.52992
2.52445
2.51873
2.51285
2.50683
2.50083
2.49479
2.48868
2.48253
2.4762
2.47024
1.81218
2.34187
2.62214
2.60786
2.60542
2.59247
2.58437
2.58425
2.58529
2.58742
2.58753
2.58606
2.58241
2.57899
2.57676
2.57561
2.57486
2.57337
2.57076
2.56782
2.56507
2.56312
2.56168
2.56067
2.55947
2.55807
2.55637
2.55469
2.55329
2.55215
2.55119
2.55033
2.54939
2.54821
2.54685
2.54487
2.54252
2.53954
2.53636
2.53286
2.52924
2.52525
2.52097
2.51628
2.51112
2.50557
2.49967
2.4935
2.4871
2.48099
1.76904
2.37571
2.6482
2.61935
2.6136
2.59915
2.59374
2.59481
2.59644
2.59748
2.59733
2.59655
2.59455
2.59156
2.58886
2.58686
2.58527
2.58335
2.58065
2.5774
2.57418
2.57119
2.56883
2.56664
2.56409
2.56072
2.55729
2.55388
2.55072
2.54771
2.5448
2.54175
2.5385
2.53502
2.53135
2.52787
2.52457
2.5215
2.51851
2.5155
2.51234
2.50918
2.50582
2.50238
2.49871
2.49486
2.4908
2.48645
2.48187
2.47741
1.28564
2.49172
2.6437
2.64138
2.61642
2.58387
2.5737
2.57433
2.57751
2.58028
2.58147
2.58137
2.58102
2.58083
2.58072
2.58066
2.58051
2.58011
2.57919
2.57728
2.57511
2.57263
2.57034
2.56833
2.56647
2.56419
2.56186
2.55848
2.55506
2.55184
2.54853
2.54526
2.5417
2.53801
2.53383
2.52959
2.52516
2.52096
2.5166
2.51248
2.50841
2.50424
2.49997
2.49553
2.491
2.48632
2.4816
2.47687
2.47202
2.46757
1.77242
2.36425
2.63727
2.61675
2.60967
2.59266
2.58798
2.58919
2.58983
2.5913
2.59092
2.59011
2.58893
2.58812
2.58742
2.58677
2.58604
2.58482
2.58359
2.58189
2.58034
2.57876
2.57717
2.57555
2.574
2.57236
2.57052
2.56802
2.56517
2.56201
2.55889
2.55591
2.55294
2.54981
2.5465
2.54269
2.53857
2.53408
2.52947
2.52473
2.51979
2.51479
2.50967
2.50434
2.49891
2.4934
2.48778
2.48229
2.4767
2.47154
1.77631
2.36121
2.6339
2.61448
2.6079
2.59027
2.58483
2.58563
2.5872
2.58902
2.58927
2.58866
2.58715
2.58567
2.58453
2.58371
2.58249
2.58093
2.57909
2.57706
2.57517
2.57346
2.57179
2.56994
2.56781
2.56549
2.5632
2.56102
2.5589
2.55703
2.55515
2.55313
2.55086
2.5483
2.54552
2.5424
2.53902
2.53541
2.53168
2.52778
2.52388
2.51971
2.51552
2.51094
2.50628
2.50136
2.49631
2.49109
2.4858
2.48078
1.28483
2.48729
2.64159
2.63825
2.61237
2.57535
2.56288
2.5635
2.56714
2.57157
2.57356
2.57365
2.57322
2.57182
2.57056
2.57016
2.57012
2.57013
2.57008
2.56981
2.56888
2.56674
2.56473
2.56233
2.56011
2.55861
2.55662
2.55493
2.55284
2.55061
2.54792
2.5452
2.5424
2.53961
2.53686
2.53407
2.5312
2.52813
2.5249
2.52132
2.51778
2.51372
2.50996
2.50561
2.5016
2.49699
2.49268
2.48789
2.48338
2.47881
1.79439
2.36498
2.62767
2.60193
2.59786
2.58603
2.58134
2.58152
2.5812
2.58172
2.58185
2.58287
2.58341
2.58335
2.58276
2.58132
2.57983
2.57882
2.5783
2.57786
2.57714
2.57585
2.57413
2.57218
2.5702
2.56848
2.5668
2.56527
2.56331
2.56117
2.55847
2.55561
2.55249
2.54937
2.54612
2.54291
2.53943
2.53593
2.53212
2.52804
2.52399
2.51947
2.51528
2.51059
2.50622
2.50138
2.49677
2.49172
2.48687
2.482
1.83835
2.34759
2.6036
2.58222
2.57945
2.57783
2.57642
2.57218
2.56811
2.56589
2.56619
2.5684
2.57071
2.57132
2.57076
2.5682
2.56554
2.56427
2.56386
2.56372
2.5635
2.56278
2.56097
2.55881
2.55667
2.55505
2.55368
2.55263
2.55127
2.54983
2.54784
2.54595
2.54375
2.54197
2.53989
2.5382
2.53585
2.53357
2.53067
2.52756
2.52417
2.52051
2.51692
2.51289
2.50923
2.50496
2.50118
2.49673
2.49267
2.48841
1.85453
2.33812
2.59369
2.57635
2.57694
2.57705
2.5753
2.56821
2.56207
2.5592
2.55986
2.56348
2.567
2.56777
2.56672
2.5628
2.55947
2.55824
2.55812
2.55822
2.55818
2.55752
2.55524
2.55219
2.54959
2.54758
2.54622
2.54525
2.54359
2.54154
2.53861
2.5358
2.53278
2.53058
2.52799
2.52594
2.52312
2.52037
2.51701
2.51363
2.51007
2.50645
2.50303
2.49929
2.49601
2.49208
2.48868
2.48451
2.48085
2.47691
1.82014
2.34695
2.59681
2.58411
2.58343
2.57901
2.57106
2.56385
2.56067
2.55995
2.56164
2.56568
2.56717
2.567
2.56463
2.56081
2.55877
2.55811
2.55797
2.55786
2.55747
2.55597
2.55302
2.5503
2.548
2.54665
2.54544
2.54421
2.5423
2.53967
2.53666
2.53395
2.53119
2.52925
2.52678
2.52445
2.52123
2.51788
2.51401
2.51019
2.50626
2.50252
2.49856
2.49458
2.49037
2.48577
2.4813
2.47619
2.47165
2.46682
1.34522
2.37828
2.63663
2.63581
2.61354
2.58115
2.56678
2.56388
2.56497
2.56576
2.56677
2.56684
2.56677
2.56643
2.56546
2.56397
2.56264
2.56141
2.56021
2.55924
2.55853
2.55737
2.55562
2.55375
2.55145
2.54923
2.54719
2.54526
2.54336
2.54132
2.5387
2.53606
2.53292
2.53011
2.52707
2.52424
2.521
2.51769
2.51382
2.51004
2.50569
2.5016
2.49714
2.4928
2.48838
2.48357
2.47902
2.47376
2.46902
2.46383
1.34551
2.38203
2.64844
2.65646
2.63117
2.59249
2.57381
2.57388
2.57543
2.57825
2.57943
2.5791
2.57837
2.57697
2.57539
2.57441
2.57369
2.57317
2.57248
2.57167
2.57042
2.56893
2.56716
2.56531
2.56362
2.56188
2.56035
2.55891
2.55739
2.55593
2.5541
2.55206
2.54966
2.54701
2.54423
2.54139
2.53848
2.53561
2.53241
2.52918
2.52546
2.52161
2.51751
2.51312
2.50887
2.5042
2.49988
2.49508
2.49067
2.48594
1.34427
2.37003
2.63027
2.63589
2.61358
2.57901
2.56441
2.56478
2.56656
2.56845
2.56878
2.56827
2.56706
2.56576
2.56462
2.5639
2.56336
2.5628
2.56197
2.56081
2.55929
2.5575
2.55569
2.55384
2.55239
2.55099
2.54987
2.54876
2.54758
2.54623
2.54465
2.54271
2.54074
2.53842
2.53627
2.53387
2.53159
2.52912
2.52654
2.52365
2.52058
2.51701
2.51344
2.50931
2.50546
2.50117
2.4972
2.49295
2.48896
2.48487
1.7883
2.33155
2.60978
2.60813
2.59472
2.56482
2.55574
2.55625
2.55993
2.56703
2.56966
2.56929
2.5661
2.56152
2.55878
2.55826
2.55863
2.55881
2.55855
2.55714
2.55382
2.55045
2.54793
2.54631
2.54517
2.54431
2.54355
2.54231
2.54031
2.53804
2.53581
2.53396
2.5323
2.53093
2.52964
2.52793
2.52611
2.52353
2.52088
2.51776
2.51476
2.51148
2.50837
2.50486
2.50141
2.49741
2.49349
2.48904
2.4847
2.48035
1.81042
2.31795
2.61155
2.5978
2.5907
2.56903
2.55871
2.55829
2.56044
2.56706
2.57101
2.57121
2.56927
2.56405
2.56009
2.55887
2.55898
2.559
2.55871
2.55728
2.55366
2.54967
2.54671
2.54473
2.54334
2.54234
2.54117
2.53947
2.53651
2.53377
2.53122
2.52909
2.52755
2.52615
2.5243
2.52227
2.51944
2.51631
2.51326
2.50991
2.50706
2.50375
2.50046
2.4966
2.4925
2.48786
2.48319
2.47812
2.47326
2.46836
1.79706
2.34082
2.62277
2.59324
2.58916
2.57686
2.5695
2.56926
2.56933
2.57163
2.57442
2.57574
2.57599
2.57521
2.57221
2.56883
2.56676
2.56567
2.56478
2.56386
2.56258
2.56007
2.55687
2.55388
2.55155
2.54982
2.54845
2.54747
2.54577
2.54349
2.54133
2.53868
2.53642
2.53451
2.53236
2.53081
2.52849
2.526
2.52312
2.51974
2.51646
2.51303
2.50958
2.50605
2.50226
2.49814
2.49387
2.48901
2.4844
2.47943
2.17716
2.34219
2.77396
2.87383
2.9411
2.88266
2.87838
2.87649
2.86863
2.86709
2.86947
2.87191
2.87372
2.87536
2.87764
2.87981
2.88235
2.88463
2.88689
2.88838
2.88927
2.88967
2.88958
2.88783
2.88394
2.88024
2.87602
2.87113
2.86597
2.86037
2.85372
2.84756
2.8403
2.83321
2.82546
2.81755
2.80993
2.80143
2.79248
2.78366
2.77473
2.76587
2.75706
2.74842
2.73958
2.73091
2.72207
2.71387
2.70502
2.69717
2.68862
2.68108
2.67321
2.66574
2.65843
2.65158
2.64454
2.6385
2.63217
2.62672
2.62156
2.61668
2.61256
2.60886
2.60537
2.60277
2.60021
2.59864
2.59687
2.59632
2.59539
2.59522
2.59507
2.59499
2.59519
2.59569
2.59661
2.59748
2.59824
2.59891
2.59942
2.59958
2.59952
2.59933
2.59879
2.5983
2.59698
2.59608
2.59386
2.59233
2.5899
2.5876
2.58555
2.5827
2.58085
2.57717
2.57471
2.57114
2.56883
2.56245
2.17875
2.25659
2.45174
2.63479
2.71015
2.76386
2.80161
2.83376
2.8516
2.86608
2.87088
2.88044
2.88054
2.87947
2.87597
2.87175
2.86731
2.86196
2.8555
2.84753
2.83951
2.83177
2.82426
2.81739
2.80883
2.79964
2.78884
2.77773
2.76628
2.75492
2.74359
2.73289
2.72168
2.71114
2.70057
2.6909
2.68054
2.66996
2.65829
2.64695
2.63562
2.62413
2.61266
2.60113
2.58952
2.57857
2.56748
2.55684
2.54618
2.53547
2.52493
2.51492
2.50522
2.49653
2.48813
2.48055
2.47305
2.46579
2.45864
2.45147
2.44478
2.43809
2.4321
2.42687
2.42194
2.41828
2.4155
2.41311
2.41224
2.41237
2.41292
2.41416
2.41627
2.4186
2.4215
2.42531
2.42963
2.43423
2.43845
2.44297
2.44707
2.45145
2.45504
2.45863
2.46178
2.46482
2.46707
2.46981
2.47205
2.47435
2.47641
2.47836
2.48048
2.48265
2.48462
2.48612
2.48699
2.48738
2.48732
2.485
2.21801
2.20212
2.26297
2.35062
2.40884
2.45981
2.49808
2.53018
2.55709
2.57576
2.5913
2.60067
2.60958
2.61028
2.60877
2.60554
2.59883
2.5914
2.58275
2.57351
2.5643
2.55484
2.54579
2.53691
2.52838
2.52029
2.51246
2.50519
2.49832
2.49239
2.4864
2.48114
2.47587
2.47125
2.46658
2.46221
2.4578
2.45315
2.44795
2.4429
2.4379
2.4328
2.42766
2.42249
2.41703
2.41151
2.40585
2.39989
2.39423
2.38822
2.38222
2.37605
2.36946
2.36291
2.35624
2.34953
2.343
2.33628
2.32963
2.32291
2.31616
2.30967
2.30343
2.29772
2.29235
2.28802
2.28365
2.28025
2.27757
2.27427
2.27298
2.27106
2.26966
2.26843
2.26761
2.26765
2.26804
2.26849
2.26924
2.27016
2.2706
2.27165
2.27218
2.27328
2.27367
2.2746
2.27499
2.27549
2.27572
2.27625
2.27646
2.2769
2.27711
2.27761
2.27794
2.2788
2.27936
2.28102
2.28148
2.28263
2.25144
2.21051
2.20467
2.23027
2.2616
2.28605
2.30241
2.31625
2.3282
2.33923
2.34824
2.35551
2.36168
2.36626
2.36867
2.36925
2.36917
2.36898
2.36845
2.36791
2.36733
2.36591
2.36456
2.36303
2.36115
2.35894
2.35642
2.3537
2.35051
2.34725
2.3436
2.33982
2.33544
2.3309
2.32628
2.32212
2.31803
2.31366
2.30886
2.30397
2.2992
2.29446
2.28969
2.28498
2.2802
2.27556
2.27102
2.26651
2.26233
2.2582
2.25445
2.25087
2.24787
2.24483
2.24248
2.23984
2.23786
2.23553
2.23384
2.23182
2.23023
2.22865
2.227
2.22578
2.2242
2.22336
2.22189
2.22149
2.22041
2.22039
2.22038
2.22027
2.22023
2.22021
2.22041
2.22089
2.22175
2.22257
2.22343
2.22401
2.2245
2.22482
2.22482
2.22471
2.22441
2.22359
2.22303
2.22188
2.22046
2.219
2.21738
2.21581
2.21427
2.21285
2.21147
2.21043
2.20925
2.20898
2.20847
2.20729
2.26648
2.23344
2.2097
2.20109
2.20828
2.21302
2.21552
2.21628
2.21782
2.22007
2.22336
2.22622
2.22868
2.23105
2.23433
2.23682
2.23892
2.2416
2.24368
2.24676
2.24914
2.25201
2.25424
2.25659
2.25826
2.25974
2.26104
2.26129
2.26123
2.26089
2.26011
2.25894
2.25731
2.25556
2.25359
2.25169
2.24948
2.24671
2.24336
2.23964
2.23587
2.23188
2.22784
2.22358
2.21933
2.21491
2.21064
2.20622
2.20197
2.19775
2.19364
2.18978
2.18597
2.18274
2.17925
2.17674
2.17358
2.17169
2.16895
2.16759
2.16546
2.16446
2.16302
2.16238
2.16143
2.1612
2.16076
2.16081
2.16082
2.16134
2.16185
2.16228
2.16265
2.16307
2.16393
2.16481
2.16596
2.16711
2.1682
2.1691
2.16993
2.17044
2.17087
2.17105
2.17098
2.17076
2.17012
2.16965
2.16869
2.1677
2.1663
2.16534
2.164
2.16311
2.16189
2.161
2.15997
2.1593
2.15872
2.15648
2.28854
2.24503
2.22234
2.2015
2.19146
2.18448
2.17859
2.17244
2.16738
2.16331
2.16136
2.16032
2.16068
2.16092
2.16196
2.16338
2.16638
2.16808
2.17158
2.17366
2.17781
2.18048
2.18457
2.18712
2.19076
2.19271
2.19551
2.19657
2.19839
2.19905
2.19934
2.19923
2.19885
2.19815
2.19715
2.19618
2.19484
2.1929
2.19041
2.18745
2.18426
2.18082
2.17728
2.17348
2.16966
2.16566
2.16159
2.15746
2.15315
2.14895
2.14451
2.14039
2.13612
2.1321
2.12832
2.12449
2.12136
2.11804
2.11552
2.11309
2.11121
2.10982
2.10887
2.10843
2.10852
2.1089
2.10958
2.11117
2.11224
2.11454
2.11672
2.11856
2.12049
2.12229
2.12415
2.12633
2.12815
2.12994
2.13158
2.13283
2.13398
2.13474
2.1353
2.13564
2.13585
2.1358
2.13564
2.13522
2.1348
2.13426
2.13322
2.13248
2.13163
2.13074
2.12984
2.12887
2.12808
2.12727
2.12688
2.12442
2.31271
2.27139
2.23769
2.21403
2.19382
2.17918
2.16676
2.1564
2.14682
2.13917
2.13307
2.12917
2.12676
2.12586
2.12536
2.1258
2.12698
2.12937
2.13174
2.13462
2.13744
2.14064
2.14373
2.14686
2.15004
2.15249
2.15539
2.15699
2.15929
2.16001
2.16167
2.16173
2.16186
2.16177
2.16155
2.16128
2.16074
2.15969
2.15809
2.15604
2.15373
2.15116
2.14844
2.14556
2.1425
2.13926
2.13577
2.1321
2.1283
2.12417
2.12026
2.11586
2.11184
2.10757
2.10345
2.09954
2.0956
2.09211
2.08867
2.08564
2.08296
2.08049
2.07876
2.07729
2.07633
2.07631
2.07658
2.07753
2.0786
2.0809
2.08341
2.08598
2.08857
2.09182
2.095
2.09821
2.10155
2.10434
2.10712
2.10948
2.11132
2.11283
2.1138
2.11442
2.11447
2.11433
2.11399
2.11334