/*--------------------------------*- C++ -*----------------------------------*\
| =========                 |                                                 |
| \\      /  F ield         | OpenFOAM: The Open Source CFD Toolbox           |
|  \\    /   O peration     | Version:  2412                                  |
|   \\  /    A nd           | Website:  www.openfoam.com                      |
|    \\/     M anipulation  |                                                 |
\*---------------------------------------------------------------------------*/
FoamFile
{
    version     2.0;
    format      ascii;
    arch        "LSB;label=32;scalar=64";
    class       volVectorField;
    location    "12";
    object      U;
}
// * * * * * * * * * * * * * * * * * * * * * * * * * * * * * * * * * * * * * //

dimensions      [0 1 -1 0 0 0 0];

internalField   nonuniform List<vector> 
7000
(
(2.60172 -6.25907e-05 0)
(1.64728 0.000175626 0)
(0.515622 0.000253099 0)
(0.555334 0.000393636 0)
(0.657552 0.000490978 0)
(0.724926 0.000550144 0)
(0.738939 0.000591372 0)
(0.732651 0.000634964 0)
(0.723228 0.000686008 0)
(0.715966 0.000756197 0)
(0.711927 0.00084575 0)
(0.708834 0.000948028 0)
(0.705244 0.00105889 0)
(0.700871 0.00117696 0)
(0.69586 0.00130214 0)
(0.690332 0.00143463 0)
(0.684297 0.00157466 0)
(0.677719 0.00172247 0)
(0.670552 0.00187834 0)
(0.662765 0.00204254 0)
(0.654328 0.00221539 0)
(0.645215 0.00239725 0)
(0.635402 0.00258865 0)
(0.624862 0.00279031 0)
(0.613566 0.00300313 0)
(0.601486 0.00322812 0)
(0.588592 0.00346611 0)
(0.574856 0.00371783 0)
(0.56025 0.00398395 0)
(0.544746 0.00426498 0)
(0.528311 0.00456165 0)
(0.510911 0.0048748 0)
(0.492515 0.00520494 0)
(0.473089 0.00555265 0)
(0.452599 0.00591837 0)
(0.431028 0.00630197 0)
(0.408351 0.00670339 0)
(0.38455 0.00712243 0)
(0.359631 0.00755811 0)
(0.333566 0.00800934 0)
(0.306377 0.00847429 0)
(0.27817 0.00894881 0)
(0.248884 0.00942921 0)
(0.218396 0.00991453 0)
(0.186838 0.0104081 0)
(0.154562 0.0109064 0)
(0.121905 0.0114085 0)
(0.0891198 0.011897 0)
(0.0536233 0.0124917 0)
(0.022375 0.0131826 0)
(2.60185 -5.337e-05 0)
(1.64747 0.000348434 0)
(0.515394 0.000758913 0)
(0.555249 0.00100311 0)
(0.657566 0.00118657 0)
(0.725041 0.00138794 0)
(0.739138 0.00158481 0)
(0.732855 0.00180575 0)
(0.723375 0.00205409 0)
(0.716035 0.00233444 0)
(0.711918 0.00263274 0)
(0.708761 0.0029393 0)
(0.705127 0.00325563 0)
(0.700729 0.003588 0)
(0.695706 0.00394194 0)
(0.690174 0.00432024 0)
(0.684141 0.00472358 0)
(0.677567 0.00515172 0)
(0.670406 0.00560417 0)
(0.662625 0.00608062 0)
(0.654194 0.00658113 0)
(0.645087 0.00710611 0)
(0.63528 0.00765656 0)
(0.624746 0.0082338 0)
(0.613455 0.0088395 0)
(0.601378 0.00947541 0)
(0.588489 0.0101428 0)
(0.574757 0.0108429 0)
(0.560156 0.0115767 0)
(0.544657 0.012345 0)
(0.528228 0.0131486 0)
(0.510831 0.0139881 0)
(0.492437 0.0148632 0)
(0.473011 0.0157731 0)
(0.452517 0.0167166 0)
(0.430938 0.0176901 0)
(0.408249 0.01869 0)
(0.384429 0.0197113 0)
(0.359482 0.0207466 0)
(0.33338 0.0217876 0)
(0.306142 0.0228231 0)
(0.277871 0.0238368 0)
(0.248506 0.0248134 0)
(0.217922 0.0257411 0)
(0.186252 0.0266124 0)
(0.153845 0.0274084 0)
(0.121035 0.0281171 0)
(0.0881344 0.0286916 0)
(0.0526385 0.0293154 0)
(0.0217298 0.029942 0)
(2.60198 4.33248e-05 0)
(1.64774 0.000389898 0)
(0.515491 0.00146915 0)
(0.555088 0.00178992 0)
(0.657318 0.00208231 0)
(0.724696 0.00243009 0)
(0.738666 0.00279354 0)
(0.732364 0.00316506 0)
(0.722964 0.00356014 0)
(0.715744 0.00399934 0)
(0.711746 0.0044744 0)
(0.708689 0.00497779 0)
(0.705132 0.00551074 0)
(0.70079 0.00607864 0)
(0.695808 0.0066861 0)
(0.690305 0.00733518 0)
(0.684296 0.00802606 0)
(0.677741 0.00875833 0)
(0.6706 0.00953152 0)
(0.662838 0.0103455 0)
(0.654427 0.0112006 0)
(0.645341 0.0120978 0)
(0.635556 0.0130391 0)
(0.625044 0.0140269 0)
(0.613777 0.0150643 0)
(0.601725 0.0161543 0)
(0.588861 0.0172994 0)
(0.575156 0.0185018 0)
(0.560583 0.0197638 0)
(0.545112 0.021087 0)
(0.528711 0.0224732 0)
(0.511342 0.0239238 0)
(0.492974 0.0254384 0)
(0.473573 0.0270163 0)
(0.4531 0.0286554 0)
(0.431538 0.0303503 0)
(0.40886 0.0320952 0)
(0.385042 0.0338823 0)
(0.360088 0.0356998 0)
(0.333965 0.0375344 0)
(0.306689 0.0393678 0)
(0.278359 0.041174 0)
(0.248914 0.0429287 0)
(0.218233 0.0446091 0)
(0.186442 0.0461901 0)
(0.153887 0.0476347 0)
(0.120894 0.0489218 0)
(0.087841 0.0499982 0)
(0.0522765 0.0510487 0)
(0.0214451 0.051948 0)
(2.60214 5.76345e-05 0)
(1.6482 0.000524391 0)
(0.516041 0.00219002 0)
(0.555419 0.00256566 0)
(0.657667 0.00292466 0)
(0.725111 0.00338392 0)
(0.739189 0.00389114 0)
(0.732942 0.00442285 0)
(0.723548 0.00499668 0)
(0.716298 0.0056357 0)
(0.712242 0.00632701 0)
(0.709123 0.00705705 0)
(0.705514 0.00782508 0)
(0.701139 0.00863832 0)
(0.696141 0.00950418 0)
(0.690637 0.0104272 0)
(0.684635 0.0114092 0)
(0.678097 0.0124502 0)
(0.670977 0.0135501 0)
(0.663242 0.0147087 0)
(0.65486 0.0159264 0)
(0.645807 0.0172046 0)
(0.636056 0.0185453 0)
(0.625581 0.019952 0)
(0.614353 0.0214287 0)
(0.602344 0.0229797 0)
(0.589526 0.0246089 0)
(0.575871 0.0263195 0)
(0.56135 0.0281148 0)
(0.545934 0.0299975 0)
(0.529588 0.0319704 0)
(0.512276 0.0340359 0)
(0.493965 0.0361941 0)
(0.474618 0.0384439 0)
(0.454197 0.0407827 0)
(0.432681 0.043204 0)
(0.41004 0.0456998 0)
(0.38625 0.0482599 0)
(0.361309 0.0508685 0)
(0.335184 0.0535075 0)
(0.307882 0.0561519 0)
(0.2795 0.0587667 0)
(0.249975 0.0613179 0)
(0.21919 0.0637703 0)
(0.187265 0.0660774 0)
(0.154537 0.0681817 0)
(0.121323 0.0700479 0)
(0.0880646 0.0716224 0)
(0.0523398 0.073079 0)
(0.0213969 0.0742194 0)
(2.60239 6.4963e-05 0)
(1.64882 0.000698936 0)
(0.516513 0.00286745 0)
(0.555394 0.0033339 0)
(0.657605 0.00378985 0)
(0.725031 0.00439825 0)
(0.739015 0.00508948 0)
(0.732735 0.00581127 0)
(0.723394 0.00657922 0)
(0.716242 0.00741776 0)
(0.71229 0.0083166 0)
(0.709265 0.0092653 0)
(0.705738 0.0102657 0)
(0.701431 0.0113268 0)
(0.696489 0.0124571 0)
(0.691032 0.0136619 0)
(0.685073 0.0149434 0)
(0.678574 0.0163019 0)
(0.671493 0.0177377 0)
(0.663798 0.0192507 0)
(0.655459 0.0208416 0)
(0.646452 0.0225118 0)
(0.63675 0.0242643 0)
(0.626328 0.0261031 0)
(0.615157 0.0280333 0)
(0.603209 0.0300607 0)
(0.590458 0.0321903 0)
(0.576874 0.0344271 0)
(0.56243 0.0367755 0)
(0.547097 0.0392396 0)
(0.530838 0.0418233 0)
(0.513615 0.0445296 0)
(0.495394 0.0473588 0)
(0.476135 0.0503098 0)
(0.455798 0.0533793 0)
(0.434358 0.0565592 0)
(0.411785 0.0598397 0)
(0.388048 0.0632072 0)
(0.363141 0.0666421 0)
(0.337029 0.0701216 0)
(0.30971 0.0736128 0)
(0.281275 0.0770706 0)
(0.251663 0.0804503 0)
(0.220757 0.0837015 0)
(0.188667 0.0867517 0)
(0.155721 0.0895206 0)
(0.122224 0.0919548 0)
(0.0886837 0.0939891 0)
(0.0526902 0.0957944 0)
(0.0214877 0.097126 0)
(2.60271 8.12558e-05 0)
(1.64966 0.00086992 0)
(0.51733 0.00357761 0)
(0.55572 0.00416319 0)
(0.657964 0.00473212 0)
(0.725482 0.00546302 0)
(0.739593 0.00630809 0)
(0.733398 0.00718434 0)
(0.724105 0.00812233 0)
(0.716962 0.00915465 0)
(0.712982 0.0102688 0)
(0.709914 0.0114518 0)
(0.706347 0.0127036 0)
(0.702015 0.014032 0)
(0.697067 0.0154452 0)
(0.691618 0.0169489 0)
(0.68568 0.0185462 0)
(0.679214 0.0202384 0)
(0.672176 0.022026 0)
(0.664531 0.0239095 0)
(0.656249 0.0258898 0)
(0.647305 0.0279686 0)
(0.637672 0.0301492 0)
(0.627323 0.0324367 0)
(0.61623 0.0348373 0)
(0.604365 0.0373581 0)
(0.591702 0.0400054 0)
(0.578214 0.0427855 0)
(0.563872 0.0457047 0)
(0.548648 0.0487687 0)
(0.532504 0.0519832 0)
(0.5154 0.0553525 0)
(0.497298 0.0588779 0)
(0.478159 0.0625587 0)
(0.457938 0.0663913 0)
(0.436607 0.0703664 0)
(0.414132 0.0744723 0)
(0.390476 0.0786931 0)
(0.365629 0.083005 0)
(0.339549 0.0873804 0)
(0.312225 0.0917788 0)
(0.28374 0.0961439 0)
(0.254032 0.100419 0)
(0.222982 0.104536 0)
(0.190688 0.108394 0)
(0.157466 0.11188 0)
(0.123608 0.114922 0)
(0.0896819 0.117446 0)
(0.0532809 0.119606 0)
(0.0216876 0.121121 0)
(2.60313 8.78109e-05 0)
(1.65072 0.00104311 0)
(0.51813 0.0042519 0)
(0.55577 0.00493689 0)
(0.657994 0.00559927 0)
(0.725553 0.00647605 0)
(0.739617 0.00750506 0)
(0.733403 0.00858732 0)
(0.724182 0.00975703 0)
(0.717162 0.0110332 0)
(0.71331 0.0123932 0)
(0.71036 0.0138226 0)
(0.706896 0.0153252 0)
(0.702651 0.0169138 0)
(0.697771 0.0186012 0)
(0.692381 0.0203962 0)
(0.686495 0.0223038 0)
(0.680081 0.0243265 0)
(0.673098 0.0264657 0)
(0.665517 0.0287218 0)
(0.657308 0.031096 0)
(0.648445 0.0335901 0)
(0.638901 0.036208 0)
(0.628648 0.0389551 0)
(0.617656 0.0418388 0)
(0.605897 0.0448668 0)
(0.593346 0.0480465 0)
(0.579976 0.0513857 0)
(0.565758 0.0548928 0)
(0.550665 0.0585757 0)
(0.534658 0.0624426 0)
(0.517695 0.0664996 0)
(0.49974 0.0707488 0)
(0.480749 0.0751901 0)
(0.460674 0.0798197 0)
(0.439484 0.0846276 0)
(0.417139 0.0896014 0)
(0.393596 0.094723 0)
(0.368837 0.0999651 0)
(0.342812 0.105296 0)
(0.3155 0.110668 0)
(0.286968 0.116013 0)
(0.257157 0.121262 0)
(0.22594 0.126328 0)
(0.193399 0.131077 0)
(0.159831 0.135363 0)
(0.125519 0.13908 0)
(0.0910974 0.142145 0)
(0.0541384 0.144703 0)
(0.0219804 0.146452 0)
(2.60364 0.00010165 0)
(1.65201 0.00120527 0)
(0.519197 0.00494979 0)
(0.556026 0.00580132 0)
(0.658278 0.00659929 0)
(0.725948 0.00759504 0)
(0.740091 0.00876797 0)
(0.733948 0.0100045 0)
(0.72483 0.011345 0)
(0.717919 0.0128106 0)
(0.714161 0.0143961 0)
(0.711288 0.0160862 0)
(0.707892 0.0178758 0)
(0.703705 0.0197695 0)
(0.698879 0.0217749 0)
(0.693537 0.0238989 0)
(0.687697 0.0261471 0)
(0.681331 0.0285235 0)
(0.674403 0.0310317 0)
(0.666884 0.0336742 0)
(0.658748 0.036454 0)
(0.649968 0.0393748 0)
(0.640519 0.0424419 0)
(0.630369 0.0456619 0)
(0.61949 0.0490431 0)
(0.607852 0.0525941 0)
(0.595429 0.0563233 0)
(0.582195 0.0602396 0)
(0.568124 0.0643533 0)
(0.553185 0.0686743 0)
(0.537341 0.0732139 0)
(0.52055 0.0779804 0)
(0.502772 0.0829775 0)
(0.483962 0.0882066 0)
(0.46407 0.0936655 0)
(0.443058 0.0993442 0)
(0.42088 0.10523 0)
(0.397486 0.111304 0)
(0.372848 0.117535 0)
(0.346907 0.12389 0)
(0.319625 0.130312 0)
(0.291057 0.136722 0)
(0.261139 0.143037 0)
(0.229733 0.149152 0)
(0.196899 0.154895 0)
(0.162911 0.160083 0)
(0.128035 0.164573 0)
(0.0929718 0.168264 0)
(0.0552933 0.171275 0)
(0.0224113 0.1733 0)
(2.60423 0.000111248 0)
(1.65352 0.00136756 0)
(0.520404 0.00563409 0)
(0.556226 0.00662083 0)
(0.658445 0.0075269 0)
(0.726178 0.00865847 0)
(0.740337 0.00999781 0)
(0.734135 0.0114236 0)
(0.724946 0.0129838 0)
(0.717964 0.0146841 0)
(0.714149 0.0165202 0)
(0.711244 0.0184779 0)
(0.707852 0.0205506 0)
(0.703708 0.0227416 0)
(0.698957 0.0250582 0)
(0.693713 0.0275075 0)
(0.687989 0.0300956 0)
(0.681752 0.0328279 0)
(0.674964 0.0357096 0)
(0.667597 0.0387454 0)
(0.659625 0.0419401 0)
(0.651022 0.0452995 0)
(0.641762 0.0488297 0)
(0.631815 0.052538 0)
(0.62115 0.0564321 0)
(0.609737 0.0605206 0)
(0.597548 0.0648142 0)
(0.584556 0.0693242 0)
(0.570729 0.0740629 0)
(0.556038 0.0790429 0)
(0.540444 0.0842758 0)
(0.523901 0.0897737 0)
(0.506371 0.0955444 0)
(0.487808 0.101591 0)
(0.468159 0.107914 0)
(0.447381 0.114505 0)
(0.425424 0.121351 0)
(0.402229 0.128434 0)
(0.377757 0.135722 0)
(0.351939 0.143177 0)
(0.324719 0.150738 0)
(0.296131 0.158315 0)
(0.266106 0.165809 0)
(0.234491 0.173098 0)
(0.201314 0.17997 0)
(0.166821 0.186191 0)
(0.131265 0.191574 0)
(0.0954077 0.195995 0)
(0.0567927 0.19955 0)
(0.0229612 0.201919 0)
(2.60493 0.000120851 0)
(1.6553 0.00153531 0)
(0.521807 0.00633901 0)
(0.55649 0.00747884 0)
(0.658746 0.00852326 0)
(0.72664 0.00984254 0)
(0.740909 0.0113918 0)
(0.734791 0.0130243 0)
(0.7257 0.0148059 0)
(0.718803 0.0167326 0)
(0.715057 0.0187984 0)
(0.712208 0.0209978 0)
(0.708868 0.0233313 0)
(0.704774 0.0258046 0)
(0.700073 0.0284243 0)
(0.694881 0.0311963 0)
(0.689211 0.0341253 0)
(0.683032 0.0372164 0)
(0.67631 0.0404753 0)
(0.66902 0.0439078 0)
(0.661139 0.0475204 0)
(0.652646 0.0513205 0)
(0.643516 0.0553162 0)
(0.633722 0.0595162 0)
(0.623236 0.0639296 0)
(0.61203 0.0685663 0)
(0.600074 0.0734382 0)
(0.587338 0.0785583 0)
(0.573784 0.0839415 0)
(0.559376 0.0896032 0)
(0.544075 0.0955577 0)
(0.527834 0.10182 0)
(0.510611 0.108399 0)
(0.492358 0.115303 0)
(0.473017 0.122532 0)
(0.452538 0.130083 0)
(0.430866 0.137945 0)
(0.40793 0.146103 0)
(0.383681 0.154524 0)
(0.358038 0.163169 0)
(0.330922 0.171973 0)
(0.302342 0.180837 0)
(0.272222 0.189649 0)
(0.240385 0.198267 0)
(0.206817 0.206437 0)
(0.171728 0.213875 0)
(0.135346 0.220332 0)
(0.0984968 0.225637 0)
(0.058729 0.229848 0)
(0.023713 0.232623 0)
(2.60574 0.000131947 0)
(1.65735 0.00169678 0)
(0.523393 0.00703203 0)
(0.556749 0.00830413 0)
(0.659044 0.00946001 0)
(0.727129 0.0109256 0)
(0.741525 0.0126585 0)
(0.735513 0.0144846 0)
(0.726559 0.0164884 0)
(0.719789 0.0186607 0)
(0.716156 0.0209891 0)
(0.71341 0.0234688 0)
(0.710168 0.0261015 0)
(0.706171 0.0288919 0)
(0.701567 0.0318451 0)
(0.696472 0.0349659 0)
(0.6909 0.0382586 0)
(0.684821 0.0417277 0)
(0.678201 0.0453792 0)
(0.671018 0.0492198 0)
(0.663252 0.0532573 0)
(0.654884 0.0575013 0)
(0.645893 0.0619623 0)
(0.636256 0.0666519 0)
(0.625949 0.0715828 0)
(0.614946 0.0767682 0)
(0.603219 0.0822215 0)
(0.590737 0.0879583 0)
(0.577462 0.0939961 0)
(0.563357 0.100353 0)
(0.548379 0.107049 0)
(0.532479 0.114099 0)
(0.515611 0.121517 0)
(0.497724 0.129311 0)
(0.478752 0.137489 0)
(0.458639 0.14605 0)
(0.437321 0.154987 0)
(0.414716 0.164289 0)
(0.390761 0.173928 0)
(0.365358 0.183865 0)
(0.338405 0.194034 0)
(0.30988 0.20433 0)
(0.279693 0.214626 0)
(0.247635 0.224768 0)
(0.213641 0.234453 0)
(0.177866 0.243335 0)
(0.140507 0.251093 0)
(0.102443 0.257495 0)
(0.0611876 0.262546 0)
(0.0246472 0.265844 0)
(2.60666 0.000142387 0)
(1.65969 0.00185622 0)
(0.525192 0.00772296 0)
(0.557034 0.00912755 0)
(0.659378 0.0104027 0)
(0.727689 0.0120284 0)
(0.74223 0.0139655 0)
(0.736326 0.0160067 0)
(0.727511 0.0182496 0)
(0.720861 0.0206771 0)
(0.717333 0.0232728 0)
(0.714691 0.0260333 0)
(0.711555 0.028963 0)
(0.707671 0.0320681 0)
(0.703188 0.0353537 0)
(0.69822 0.0388243 0)
(0.692782 0.0424839 0)
(0.686846 0.0463369 0)
(0.680377 0.0503892 0)
(0.673352 0.0546477 0)
(0.665754 0.0591208 0)
(0.657564 0.0638192 0)
(0.648762 0.068755 0)
(0.639328 0.0739421 0)
(0.629241 0.0793955 0)
(0.618476 0.0851319 0)
(0.60701 0.0911687 0)
(0.594812 0.0975259 0)
(0.581847 0.104225 0)
(0.568077 0.111288 0)
(0.553461 0.118737 0)
(0.537946 0.126592 0)
(0.521484 0.13487 0)
(0.50402 0.143584 0)
(0.485483 0.152749 0)
(0.465809 0.162367 0)
(0.444924 0.172441 0)
(0.422734 0.182963 0)
(0.399158 0.193912 0)
(0.374083 0.205254 0)
(0.347377 0.216926 0)
(0.318977 0.228823 0)
(0.288777 0.240804 0)
(0.256525 0.252716 0)
(0.222077 0.264197 0)
(0.185524 0.274841 0)
(0.147006 0.28423 0)
(0.107462 0.292029 0)
(0.0643877 0.298156 0)
(0.0259177 0.302125 0)
(2.6077 0.000151962 0)
(1.66234 0.002013 0)
(0.52721 0.00840052 0)
(0.557344 0.00992475 0)
(0.659749 0.0113085 0)
(0.728326 0.0130866 0)
(0.743036 0.0152216 0)
(0.737255 0.0174728 0)
(0.728595 0.0199532 0)
(0.722078 0.0226382 0)
(0.718666 0.0255083 0)
(0.716137 0.0285601 0)
(0.713119 0.0317992 0)
(0.70936 0.0352319 0)
(0.705009 0.0388628 0)
(0.700183 0.0426956 0)
(0.694899 0.0467341 0)
(0.689126 0.0509827 0)
(0.682834 0.0554474 0)
(0.676 0.0601355 0)
(0.668607 0.065056 0)
(0.660636 0.0702203 0)
(0.652069 0.075642 0)
(0.642886 0.0813368 0)
(0.633067 0.0873225 0)
(0.622591 0.0936188 0)
(0.611435 0.100247 0)
(0.599572 0.107232 0)
(0.586967 0.1146 0)
(0.573584 0.122377 0)
(0.559382 0.130589 0)
(0.54431 0.139262 0)
(0.528317 0.148419 0)
(0.511346 0.15808 0)
(0.493322 0.168266 0)
(0.474172 0.178989 0)
(0.453814 0.190258 0)
(0.432141 0.202077 0)
(0.409055 0.214434 0)
(0.384422 0.227306 0)
(0.358078 0.240638 0)
(0.329914 0.25433 0)
(0.2998 0.268242 0)
(0.267421 0.282216 0)
(0.232539 0.295843 0)
(0.195152 0.308655 0)
(0.155305 0.320114 0)
(0.113946 0.329757 0)
(0.0685267 0.337346 0)
(0.0275456 0.342233 0)
(2.60886 0.000160766 0)
(1.6653 0.00216582 0)
(0.529455 0.00906405 0)
(0.557676 0.0106704 0)
(0.660167 0.012162 0)
(0.729062 0.0141028 0)
(0.743974 0.0164491 0)
(0.738339 0.0189238 0)
(0.729862 0.0216569 0)
(0.723494 0.0246142 0)
(0.72021 0.0277709 0)
(0.717805 0.0311235 0)
(0.714916 0.0346784 0)
(0.711294 0.0384427 0)
(0.707088 0.0424211 0)
(0.702418 0.0466174 0)
(0.6973 0.0510356 0)
(0.69171 0.0556804 0)
(0.685616 0.0605583 0)
(0.678997 0.0656773 0)
(0.671836 0.0710472 0)
(0.664117 0.0766805 0)
(0.655822 0.0825921 0)
(0.646932 0.0887996 0)
(0.637428 0.0953231 0)
(0.627291 0.102185 0)
(0.616498 0.109411 0)
(0.605025 0.117029 0)
(0.59284 0.125071 0)
(0.579906 0.133568 0)
(0.566186 0.142553 0)
(0.551628 0.152056 0)
(0.536181 0.162109 0)
(0.519788 0.172739 0)
(0.502371 0.183977 0)
(0.48385 0.195846 0)
(0.464137 0.208367 0)
(0.44311 0.22156 0)
(0.420654 0.235425 0)
(0.396617 0.249957 0)
(0.370798 0.265121 0)
(0.343032 0.280834 0)
(0.313157 0.296968 0)
(0.280778 0.313361 0)
(0.245534 0.3296 0)
(0.207293 0.345135 0)
(0.16595 0.359291 0)
(0.122425 0.371438 0)
(0.0740856 0.381066 0)
(0.0298247 0.387264 0)
(2.61016 0.000157268 0)
(1.66862 0.00232221 0)
(0.53192 0.00968901 0)
(0.558013 0.0113372 0)
(0.660647 0.0129392 0)
(0.729918 0.0150525 0)
(0.745065 0.0176202 0)
(0.739599 0.0203271 0)
(0.731331 0.0233198 0)
(0.725129 0.0265571 0)
(0.721987 0.0300082 0)
(0.719719 0.0336689 0)
(0.716972 0.0375466 0)
(0.713502 0.041649 0)
(0.709457 0.045981 0)
(0.704958 0.0505463 0)
(0.700026 0.0553491 0)
(0.694636 0.0603944 0)
(0.68876 0.0656893 0)
(0.68238 0.0712425 0)
(0.675479 0.0770646 0)
(0.668042 0.0831692 0)
(0.660053 0.0895728 0)
(0.651495 0.0962949 0)
(0.64235 0.103358 0)
(0.632599 0.110787 0)
(0.622224 0.118613 0)
(0.611199 0.126867 0)
(0.599496 0.135585 0)
(0.58708 0.144806 0)
(0.573916 0.154567 0)
(0.559955 0.164908 0)
(0.545146 0.175867 0)
(0.529431 0.187482 0)
(0.512734 0.199796 0)
(0.494968 0.212848 0)
(0.476041 0.226672 0)
(0.455823 0.241307 0)
(0.434177 0.256779 0)
(0.410935 0.273106 0)
(0.385863 0.290286 0)
(0.358738 0.308266 0)
(0.329344 0.32695 0)
(0.297206 0.346186 0)
(0.261808 0.365601 0)
(0.222816 0.384596 0)
(0.179899 0.402348 0)
(0.133792 0.417995 0)
(0.0816707 0.430637 0)
(0.0329692 0.438822 0)
(2.61159 0.000130044 0)
(1.67226 0.00248314 0)
(0.534582 0.0101805 0)
(0.558357 0.0119119 0)
(0.661209 0.0136317 0)
(0.730919 0.0159189 0)
(0.746339 0.0187155 0)
(0.741066 0.0216669 0)
(0.733038 0.0249329 0)
(0.727025 0.0284636 0)
(0.724038 0.0322205 0)
(0.72192 0.0361978 0)
(0.719329 0.0404039 0)
(0.716024 0.0448478 0)
(0.712153 0.049535 0)
(0.707841 0.0544693 0)
(0.703111 0.0596555 0)
(0.69794 0.0650995 0)
(0.692304 0.0708091 0)
(0.686185 0.076794 0)
(0.67957 0.083066 0)
(0.672446 0.08964 0)
(0.664797 0.0965338 0)
(0.656608 0.103769 0)
(0.647864 0.11137 0)
(0.638548 0.119366 0)
(0.628642 0.127789 0)
(0.618126 0.136677 0)
(0.606971 0.14607 0)
(0.595148 0.156013 0)
(0.582621 0.166549 0)
(0.569349 0.177728 0)
(0.555279 0.189597 0)
(0.540358 0.202206 0)
(0.524511 0.215611 0)
(0.50765 0.229868 0)
(0.48968 0.245033 0)
(0.470465 0.261171 0)
(0.449859 0.278337 0)
(0.427673 0.296587 0)
(0.403649 0.315963 0)
(0.377502 0.336472 0)
(0.348946 0.358077 0)
(0.317427 0.380653 0)
(0.282266 0.403972 0)
(0.242827 0.427421 0)
(0.19842 0.449997 0)
(0.149425 0.470683 0)
(0.0925383 0.487977 0)
(0.0377036 0.499546 0)
(2.61318 9.25513e-05 0)
(1.6762 0.00261228 0)
(0.537337 0.0104598 0)
(0.558729 0.0123511 0)
(0.661859 0.0142105 0)
(0.732082 0.0166746 0)
(0.747823 0.0197082 0)
(0.742777 0.0229175 0)
(0.735023 0.0264771 0)
(0.729219 0.0303214 0)
(0.726402 0.0344012 0)
(0.724444 0.0387088 0)
(0.722022 0.0432542 0)
(0.718895 0.0480479 0)
(0.715214 0.0530959 0)
(0.711103 0.0584026 0)
(0.706591 0.0639731 0)
(0.701657 0.069814 0)
(0.696281 0.0759345 0)
(0.690448 0.0823455 0)
(0.684146 0.0890603 0)
(0.677364 0.0960954 0)
(0.670088 0.103471 0)
(0.662308 0.111209 0)
(0.654008 0.119338 0)
(0.645175 0.12789 0)
(0.635794 0.1369 0)
(0.625846 0.14641 0)
(0.615309 0.156466 0)
(0.604154 0.167119 0)
(0.592352 0.17842 0)
(0.579866 0.190426 0)
(0.566647 0.203195 0)
(0.552648 0.216791 0)
(0.537798 0.231285 0)
(0.522013 0.246756 0)
(0.505199 0.263281 0)
(0.487226 0.280957 0)
(0.467936 0.299881 0)
(0.447137 0.320159 0)
(0.424554 0.341885 0)
(0.399861 0.36517 0)
(0.372674 0.390105 0)
(0.34241 0.416539 0)
(0.308232 0.444554 0)
(0.268995 0.473697 0)
(0.223601 0.502981 0)
(0.171679 0.531146 0)
(0.108909 0.556162 0)
(0.0452345 0.573875 0)
(2.61489 6.58948e-05 0)
(1.68037 0.00266362 0)
(0.540095 0.0105099 0)
(0.559114 0.0125788 0)
(0.662578 0.0145986 0)
(0.733414 0.0172544 0)
(0.749549 0.0205414 0)
(0.744778 0.0240249 0)
(0.737344 0.0278971 0)
(0.731773 0.0320674 0)
(0.729137 0.0364758 0)
(0.727351 0.0411146 0)
(0.725111 0.0459979 0)
(0.722175 0.0511385 0)
(0.718696 0.056544 0)
(0.714801 0.062219 0)
(0.710519 0.0681696 0)
(0.705838 0.0744037 0)
(0.70074 0.0809316 0)
(0.695212 0.0877658 0)
(0.689247 0.0949208 0)
(0.682834 0.102414 0)
(0.675965 0.110266 0)
(0.668629 0.118502 0)
(0.660816 0.127151 0)
(0.652515 0.136248 0)
(0.643713 0.145833 0)
(0.634396 0.155952 0)
(0.624546 0.166656 0)
(0.614139 0.178001 0)
(0.603153 0.190046 0)
(0.591557 0.202856 0)
(0.57931 0.216503 0)
(0.566371 0.231063 0)
(0.552681 0.246626 0)
(0.538163 0.263291 0)
(0.522733 0.281166 0)
(0.506273 0.300385 0)
(0.488634 0.321086 0)
(0.469618 0.343468 0)
(0.448975 0.367656 0)
(0.4264 0.393821 0)
(0.401298 0.422356 0)
(0.373171 0.453388 0)
(0.341182 0.487071 0)
(0.303623 0.52334 0)
(0.258609 0.561763 0)
(0.204683 0.601197 0)
(0.135271 0.639576 0)
(0.0585176 0.670542 0)
(2.61667 5.83317e-05 0)
(1.6847 0.00262252 0)
(0.542837 0.0103262 0)
(0.559506 0.012534 0)
(0.663347 0.0147027 0)
(0.734903 0.0175874 0)
(0.751526 0.0211956 0)
(0.7471 0.0250231 0)
(0.740037 0.0292818 0)
(0.734717 0.033834 0)
(0.732268 0.0386103 0)
(0.730663 0.0436089 0)
(0.728614 0.04885 0)
(0.725884 0.0543496 0)
(0.722622 0.0601165 0)
(0.718956 0.0661559 0)
(0.714924 0.0724754 0)
(0.710515 0.0790858 0)
(0.705717 0.0859999 0)
(0.70052 0.0932327 0)
(0.694917 0.100801 0)
(0.688905 0.108724 0)
(0.682474 0.117024 0)
(0.675619 0.12573 0)
(0.668333 0.134871 0)
(0.66061 0.144487 0)
(0.65244 0.154619 0)
(0.643814 0.165317 0)
(0.63472 0.176637 0)
(0.625142 0.188641 0)
(0.615063 0.201395 0)
(0.604463 0.214971 0)
(0.593312 0.229454 0)
(0.581578 0.244933 0)
(0.56922 0.261517 0)
(0.556174 0.279329 0)
(0.542379 0.298493 0)
(0.527732 0.319226 0)
(0.512141 0.341649 0)
(0.49539 0.365969 0)
(0.477184 0.39263 0)
(0.457477 0.421933 0)
(0.435772 0.454301 0)
(0.411248 0.490349 0)
(0.383046 0.530536 0)
(0.349551 0.575519 0)
(0.308138 0.626005 0)
(0.255645 0.682337 0)
(0.181779 0.744465 0)
(0.0854299 0.807898 0)
(2.61846 6.61742e-05 0)
(1.68908 0.00249755 0)
(0.545602 0.00990318 0)
(0.559943 0.0121321 0)
(0.664205 0.0143342 0)
(0.736625 0.0173982 0)
(0.753857 0.0213368 0)
(0.749865 0.0255244 0)
(0.743239 0.0301892 0)
(0.73818 0.0351297 0)
(0.735915 0.0402699 0)
(0.734484 0.0456237 0)
(0.732622 0.0512237 0)
(0.730089 0.0570901 0)
(0.727034 0.0632308 0)
(0.723591 0.0696496 0)
(0.719805 0.0763539 0)
(0.715674 0.0833562 0)
(0.711188 0.090671 0)
(0.706342 0.0983141 0)
(0.701131 0.106303 0)
(0.695551 0.114657 0)
(0.6896 0.123401 0)
(0.683271 0.132563 0)
(0.676563 0.142177 0)
(0.669472 0.152282 0)
(0.661994 0.162927 0)
(0.654124 0.174163 0)
(0.645859 0.18605 0)
(0.637191 0.198657 0)
(0.628112 0.212054 0)
(0.618617 0.226324 0)
(0.608687 0.241561 0)
(0.598308 0.257867 0)
(0.587458 0.275368 0)
(0.576084 0.294253 0)
(0.5642 0.314552 0)
(0.551685 0.336502 0)
(0.538382 0.360492 0)
(0.524448 0.386777 0)
(0.509712 0.415816 0)
(0.493824 0.448141 0)
(0.476539 0.484227 0)
(0.457393 0.525073 0)
(0.435746 0.571928 0)
(0.410366 0.626575 0)
(0.37879 0.69178 0)
(0.337204 0.77249 0)
(0.272108 0.879735 0)
(0.148789 1.0488 0)
(2.62055 8.22783e-05 0)
(1.69424 0.00224755 0)
(0.548951 0.00909676 0)
(0.560515 0.0113701 0)
(0.665323 0.0137169 0)
(0.738954 0.0172033 0)
(0.757028 0.0217657 0)
(0.753598 0.0265987 0)
(0.747524 0.0319206 0)
(0.742766 0.0374421 0)
(0.740726 0.0430823 0)
(0.739543 0.0488814 0)
(0.737962 0.054895 0)
(0.735732 0.0611587 0)
(0.732993 0.0676816 0)
(0.729888 0.0744707 0)
(0.726476 0.0815413 0)
(0.722765 0.0889155 0)
(0.718753 0.0966153 0)
(0.714437 0.104661 0)
(0.709816 0.113072 0)
(0.704891 0.121872 0)
(0.699662 0.131085 0)
(0.694129 0.14074 0)
(0.688293 0.150874 0)
(0.682158 0.161526 0)
(0.675726 0.172746 0)
(0.669001 0.184589 0)
(0.661992 0.197115 0)
(0.654705 0.210396 0)
(0.647151 0.224507 0)
(0.639342 0.239533 0)
(0.631282 0.255595 0)
(0.622991 0.272798 0)
(0.614545 0.291195 0)
(0.605755 0.311022 0)
(0.596603 0.332548 0)
(0.587537 0.355932 0)
(0.578538 0.381583 0)
(0.569355 0.409905 0)
(0.560071 0.441256 0)
(0.550794 0.476321 0)
(0.541709 0.515979 0)
(0.533095 0.561512 0)
(0.52547 0.614781 0)
(0.520029 0.678561 0)
(0.519395 0.757272 0)
(0.531724 0.858187 0)
(0.587701 0.992546 0)
(0.659849 1.18974 0)
(2.62267 7.57436e-05 0)
(1.69963 0.00155215 0)
(0.55321 0.00642017 0)
(0.562277 0.0083141 0)
(0.667993 0.010579 0)
(0.743397 0.0144723 0)
(0.762561 0.0197638 0)
(0.759718 0.0253889 0)
(0.754102 0.0315363 0)
(0.74941 0.0377966 0)
(0.747369 0.0441045 0)
(0.746259 0.0505346 0)
(0.74483 0.0571537 0)
(0.742787 0.0640248 0)
(0.740249 0.0711235 0)
(0.737374 0.0784505 0)
(0.734245 0.0860306 0)
(0.730883 0.0938969 0)
(0.727284 0.102079 0)
(0.723447 0.1106 0)
(0.719373 0.119483 0)
(0.715067 0.128752 0)
(0.710535 0.138435 0)
(0.70578 0.148563 0)
(0.700807 0.159176 0)
(0.695626 0.170314 0)
(0.690246 0.182028 0)
(0.684682 0.194372 0)
(0.678951 0.207409 0)
(0.673075 0.22121 0)
(0.667075 0.235878 0)
(0.661014 0.251442 0)
(0.654916 0.267989 0)
(0.648661 0.285726 0)
(0.64243 0.304814 0)
(0.636555 0.32536 0)
(0.630922 0.347701 0)
(0.625544 0.372053 0)
(0.620668 0.398627 0)
(0.616458 0.427816 0)
(0.613199 0.4602 0)
(0.611353 0.496427 0)
(0.6116 0.537427 0)
(0.61505 0.58437 0)
(0.623552 0.638936 0)
(0.640446 0.703358 0)
(0.671765 0.78051 0)
(0.726502 0.873877 0)
(0.837153 0.983378 0)
(0.985823 1.09874 0)
(2.62371 6.20706e-05 0)
(1.70231 0.000898346 0)
(0.555676 0.00386545 0)
(0.564098 0.00604172 0)
(0.671378 0.00895355 0)
(0.749197 0.0140623 0)
(0.769794 0.0206407 0)
(0.76765 0.0273964 0)
(0.762479 0.0343147 0)
(0.757773 0.0410337 0)
(0.755722 0.0476674 0)
(0.754715 0.0543894 0)
(0.7535 0.0612799 0)
(0.751686 0.0684191 0)
(0.749322 0.0757947 0)
(0.746641 0.0833613 0)
(0.743764 0.0911651 0)
(0.740721 0.0992614 0)
(0.737499 0.107689 0)
(0.734091 0.116475 0)
(0.730505 0.125645 0)
(0.726752 0.135223 0)
(0.722846 0.145237 0)
(0.718799 0.15572 0)
(0.714623 0.166706 0)
(0.710334 0.178234 0)
(0.705951 0.190346 0)
(0.701496 0.203103 0)
(0.697003 0.216562 0)
(0.692543 0.230729 0)
(0.688058 0.245705 0)
(0.683541 0.261654 0)
(0.679284 0.27863 0)
(0.675424 0.296761 0)
(0.671862 0.316278 0)
(0.668719 0.337272 0)
(0.666188 0.359869 0)
(0.664453 0.384356 0)
(0.663778 0.411016 0)
(0.664547 0.440203 0)
(0.667278 0.472377 0)
(0.67265 0.508084 0)
(0.68174 0.547979 0)
(0.696063 0.592867 0)
(0.717982 0.643564 0)
(0.751046 0.701023 0)
(0.800773 0.765519 0)
(0.87308 0.836035 0)
(0.985824 0.907807 0)
(1.12188 0.961223 0)
(2.62449 4.77965e-05 0)
(1.70429 -0.00191943 0)
(0.560404 -0.00640604 0)
(0.570246 -0.00491683 0)
(0.679294 -0.00110013 0)
(0.759394 0.00665977 0)
(0.780833 0.0159153 0)
(0.778452 0.0249828 0)
(0.772675 0.0334527 0)
(0.767358 0.0412012 0)
(0.765088 0.0486747 0)
(0.764119 0.0561661 0)
(0.763069 0.0637543 0)
(0.761499 0.0714934 0)
(0.759325 0.0794203 0)
(0.756808 0.0874726 0)
(0.754204 0.0957135 0)
(0.751527 0.104203 0)
(0.748735 0.112985 0)
(0.745809 0.122093 0)
(0.742755 0.131556 0)
(0.739589 0.141405 0)
(0.73633 0.151673 0)
(0.732997 0.162395 0)
(0.729609 0.173611 0)
(0.726188 0.185369 0)
(0.722777 0.197685 0)
(0.719418 0.210585 0)
(0.716038 0.22416 0)
(0.712728 0.238497 0)
(0.709771 0.25363 0)
(0.70714 0.26971 0)
(0.704796 0.28684 0)
(0.702928 0.305048 0)
(0.70166 0.324445 0)
(0.70113 0.34521 0)
(0.701564 0.367493 0)
(0.703227 0.391507 0)
(0.706466 0.417461 0)
(0.711736 0.445652 0)
(0.719652 0.476322 0)
(0.731028 0.509847 0)
(0.74698 0.546509 0)
(0.768994 0.586615 0)
(0.79916 0.63026 0)
(0.840343 0.677179 0)
(0.895991 0.726397 0)
(0.969035 0.775221 0)
(1.07034 0.819461 0)
(1.18363 0.845353 0)
(2.6198 0.00238446 0)
(1.69327 -0.00750602 0)
(0.564936 -0.0161797 0)
(0.586562 -0.0102344 0)
(0.699824 -0.00253664 0)
(0.783125 0.00746442 0)
(0.804698 0.0174073 0)
(0.800851 0.0268688 0)
(0.793173 0.0353106 0)
(0.786464 0.0431431 0)
(0.783533 0.0508249 0)
(0.782205 0.0585107 0)
(0.780864 0.0662437 0)
(0.779056 0.0740572 0)
(0.776634 0.0820149 0)
(0.77387 0.0901704 0)
(0.771093 0.098569 0)
(0.768307 0.107245 0)
(0.765464 0.116233 0)
(0.762545 0.125563 0)
(0.759561 0.135264 0)
(0.756537 0.145364 0)
(0.753499 0.155892 0)
(0.750481 0.166866 0)
(0.747524 0.178297 0)
(0.744616 0.190244 0)
(0.741739 0.202768 0)
(0.739045 0.21587 0)
(0.736668 0.229598 0)
(0.734576 0.244074 0)
(0.73282 0.259326 0)
(0.731515 0.275354 0)
(0.730748 0.292268 0)
(0.730659 0.310171 0)
(0.731413 0.329152 0)
(0.733188 0.34934 0)
(0.736226 0.370856 0)
(0.740813 0.393852 0)
(0.747334 0.418447 0)
(0.756244 0.444825 0)
(0.768157 0.473096 0)
(0.78388 0.503389 0)
(0.804338 0.53574 0)
(0.830846 0.570031 0)
(0.864886 0.605995 0)
(0.908397 0.642802 0)
(0.963621 0.679176 0)
(1.03218 0.712775 0)
(1.11866 0.740621 0)
(1.21179 0.754386 0)
(2.61047 0.00871464 0)
(1.66016 -0.0746441 0)
(0.59975 -0.0756487 0)
(0.628684 -0.0474399 0)
(0.735203 -0.00828818 0)
(0.813863 0.0136834 0)
(0.832859 0.0238517 0)
(0.827546 0.0325784 0)
(0.818725 0.0398937 0)
(0.811716 0.0479304 0)
(0.808568 0.0564127 0)
(0.80693 0.0648469 0)
(0.805278 0.073124 0)
(0.803215 0.0812728 0)
(0.800687 0.0894243 0)
(0.797909 0.0977547 0)
(0.795097 0.106287 0)
(0.792252 0.115038 0)
(0.789337 0.124041 0)
(0.786341 0.133332 0)
(0.783278 0.142952 0)
(0.780185 0.152913 0)
(0.777083 0.163254 0)
(0.773979 0.174038 0)
(0.77098 0.185287 0)
(0.768205 0.197004 0)
(0.765616 0.209238 0)
(0.763246 0.222054 0)
(0.761232 0.235469 0)
(0.759641 0.24952 0)
(0.758547 0.264278 0)
(0.758064 0.279794 0)
(0.758322 0.296126 0)
(0.75947 0.313345 0)
(0.761678 0.331514 0)
(0.765138 0.35071 0)
(0.770102 0.371008 0)
(0.776842 0.392486 0)