/*--------------------------------*- C++ -*----------------------------------*\
| =========                 |                                                 |
| \\      /  F ield         | OpenFOAM: The Open Source CFD Toolbox           |
|  \\    /   O peration     | Version:  2412                                  |
|   \\  /    A nd           | Website:  www.openfoam.com                      |
|    \\/     M anipulation  |                                                 |
\*---------------------------------------------------------------------------*/
FoamFile
{
    version     2.0;
    format      ascii;
    arch        "LSB;label=32;scalar=64";
    class       volScalarField;
    location    "18";
    object      Ma;
}
// * * * * * * * * * * * * * * * * * * * * * * * * * * * * * * * * * * * * * //

dimensions      [0 0 0 0 0 0 0];

internalField   nonuniform List<scalar> 
7000
(
2.25612
0.994414
0.300685
0.338437
0.401065
0.442406
0.450617
0.446146
0.439791
0.434878
0.432032
0.429759
0.427159
0.424071
0.420599
0.416823
0.412757
0.408378
0.403666
0.398605
0.393183
0.387386
0.381199
0.374607
0.367593
0.36014
0.35223
0.343844
0.334963
0.325565
0.315631
0.305139
0.294069
0.2824
0.270113
0.25719
0.243616
0.229379
0.21447
0.198888
0.182638
0.165732
0.148195
0.130058
0.111373
0.0921958
0.0725953
0.0528518
0.0319232
0.0155262
2.25618
0.994476
0.300483
0.338271
0.40091
0.442258
0.450469
0.446002
0.439652
0.434747
0.431905
0.429635
0.427039
0.423955
0.420488
0.416717
0.412656
0.408283
0.403577
0.398523
0.393108
0.387319
0.381141
0.374558
0.367555
0.360114
0.352217
0.343845
0.334978
0.325597
0.315681
0.30521
0.294162
0.282517
0.270257
0.257363
0.243821
0.22962
0.214751
0.199214
0.183015
0.166169
0.148706
0.130664
0.112107
0.0931203
0.0738234
0.0546602
0.0351574
0.0220592
2.2563
0.994673
0.300615
0.338306
0.40094
0.442291
0.450503
0.446041
0.43971
0.434815
0.431988
0.429722
0.427137
0.424058
0.420605
0.416842
0.412796
0.408433
0.403745
0.398703
0.393308
0.387534
0.38138
0.374817
0.367842
0.360425
0.352561
0.344219
0.335393
0.32605
0.316182
0.305759
0.294768
0.283184
0.270994
0.258177
0.244723
0.23062
0.215863
0.200456
0.184408
0.167746
0.150504
0.132749
0.114569
0.0961196
0.0776381
0.059844
0.0430416
0.0335749
2.25648
0.994979
0.300886
0.338384
0.401021
0.44239
0.450606
0.446158
0.439841
0.434974
0.432156
0.42991
0.427332
0.424276
0.420834
0.417097
0.413063
0.40873
0.404057
0.399049
0.393674
0.38794
0.38181
0.375293
0.368349
0.360987
0.353162
0.344886
0.336109
0.326845
0.31704
0.306709
0.295799
0.284327
0.27224
0.259558
0.246238
0.232302
0.217722
0.202528
0.186724
0.170351
0.153467
0.136152
0.118559
0.100899
0.0835548
0.0674618
0.0533043
0.0461838
2.25673
0.99541
0.301236
0.338453
0.401106
0.442511
0.450735
0.446309
0.440003
0.435178
0.432371
0.430158
0.427589
0.424567
0.421139
0.41744
0.413427
0.409134
0.404487
0.399525
0.394184
0.388501
0.382416
0.375957
0.369071
0.361775
0.354023
0.345824
0.337139
0.327965
0.318275
0.308052
0.297285
0.285944
0.274034
0.261516
0.248414
0.234688
0.220384
0.20547
0.190021
0.174042
0.157644
0.140925
0.124077
0.107412
0.0913764
0.0770337
0.0651106
0.0594984
2.25706
0.995983
0.30168
0.338525
0.401202
0.442657
0.450905
0.44648
0.440233
0.435414
0.432666
0.430451
0.427939
0.424918
0.421553
0.417861
0.413916
0.409635
0.405065
0.400121
0.394866
0.389211
0.383223
0.376806
0.370029
0.362791
0.355164
0.347044
0.338501
0.329434
0.319905
0.309824
0.299243
0.288087
0.276394
0.264117
0.251274
0.237858
0.223875
0.209366
0.194338
0.178899
0.163093
0.147121
0.13117
0.115616
0.100989
0.0883021
0.0781909
0.0736245
2.25747
0.996709
0.302223
0.338601
0.401309
0.442835
0.451109
0.446712
0.440494
0.435726
0.433006
0.430836
0.428348
0.425378
0.422041
0.418409
0.414497
0.410286
0.405754
0.400893
0.395684
0.390128
0.384196
0.377897
0.371189
0.364094
0.356553
0.348603
0.34017
0.331305
0.321919
0.312076
0.301679
0.290803
0.279352
0.267401
0.254878
0.241851
0.228286
0.214252
0.199778
0.184944
0.169893
0.154756
0.139838
0.125483
0.11224
0.101083
0.0924486
0.0886306
2.25799
0.997602
0.302875
0.338682
0.40143
0.443045
0.451357
0.446992
0.440814
0.4361
0.433421
0.431298
0.42885
0.425932
0.422644
0.41907
0.415216
0.411071
0.406609
0.401825
0.396701
0.391234
0.385407
0.379212
0.372635
0.365662
0.358283
0.350477
0.342245
0.333551
0.324413
0.314779
0.304688
0.294072
0.282993
0.271373
0.259297
0.246698
0.233672
0.220197
0.206381
0.192288
0.178055
0.163902
0.150059
0.136963
0.125081
0.115269
0.107848
0.104629
2.2586
0.998672
0.303646
0.33877
0.401566
0.443291
0.451654
0.447322
0.441205
0.436541
0.433922
0.431844
0.429456
0.426588
0.423368
0.419854
0.416078
0.412004
0.407633
0.402935
0.397917
0.392555
0.386853
0.380788
0.374359
0.367546
0.360344
0.352736
0.344714
0.336266
0.327379
0.318051
0.308258
0.298022
0.287303
0.276157
0.264525
0.252509
0.240047
0.227283
0.214194
0.200963
0.187676
0.174552
0.161903
0.150033
0.139459
0.130895
0.124498
0.121723
2.25933
0.999932
0.304543
0.338868
0.40172
0.44358
0.452002
0.447724
0.441657
0.437073
0.434503
0.432498
0.43016
0.427373
0.424213
0.420789
0.417086
0.413114
0.40883
0.40425
0.39934
0.394118
0.388548
0.382647
0.376382
0.369764
0.362763
0.355391
0.347617
0.339452
0.33087
0.321883
0.31247
0.302645
0.292398
0.281745
0.270702
0.259282
0.247551
0.23552
0.223328
0.211007
0.198792
0.1868
0.175345
0.16479
0.155447
0.147998
0.142497
0.140153
2.26017
1.00139
0.305577
0.338977
0.401896
0.443913
0.452413
0.44818
0.442206
0.437681
0.435198
0.433248
0.430999
0.428275
0.425215
0.421866
0.418274
0.414393
0.410237
0.405769
0.401008
0.395922
0.390529
0.384797
0.37874
0.372331
0.365579
0.358464
0.350989
0.34314
0.33492
0.326322
0.317347
0.308001
0.298285
0.288224
0.277824
0.267135
0.25618
0.245046
0.233788
0.222553
0.211446
0.200711
0.190526
0.18123
0.173173
0.166815
0.162142
0.160107
2.26113
1.00307
0.306755
0.339101
0.402097
0.444301
0.452889
0.448733
0.442829
0.43841
0.435988
0.434139
0.431954
0.429339
0.426356
0.42313
0.419629
0.415888
0.411842
0.407536
0.402911
0.398016
0.39279
0.387283
0.381434
0.375291
0.368798
0.362
0.354844
0.347376
0.33955
0.331411
0.322923
0.31413
0.305016
0.295623
0.285965
0.276082
0.266035
0.255866
0.245705
0.235606
0.22578
0.216335
0.207548
0.199616
0.192773
0.187498
0.183639
0.182033
2.26221
1.00497
0.308086
0.339244
0.402327
0.44474
0.453443
0.449358
0.443572
0.439238
0.436921
0.435149
0.433073
0.430546
0.427685
0.424561
0.4212
0.417579
0.413696
0.409534
0.405102
0.400382
0.395385
0.390093
0.384517
0.378638
0.372472
0.365997
0.359235
0.352165
0.344814
0.337164
0.32925
0.321059
0.31264
0.303986
0.295167
0.28619
0.27715
0.268085
0.259106
0.250325
0.241841
0.233873
0.226524
0.220074
0.214656
0.210555
0.207578
0.206276
2.26342
1.00708
0.309569
0.339397
0.402602
0.445235
0.454077
0.450088
0.444421
0.440202
0.437981
0.436316
0.434342
0.431935
0.429189
0.426202
0.422972
0.419511
0.415784
0.411812
0.407565
0.403072
0.3983
0.39328
0.387976
0.382425
0.376591
0.370512
0.364155
0.357563
0.350709
0.343635
0.336333
0.32884
0.32117
0.313363
0.305459
0.297509
0.289575
0.281741
0.274087
0.266738
0.259815
0.253432
0.247791
0.24294
0.239034
0.236299
0.234377
0.233725
2.26475
1.00942
0.311209
0.339557
0.402928
0.445795
0.454806
0.450932
0.445398
0.441313
0.439195
0.437651
0.435787
0.433514
0.430895
0.428057
0.424977
0.421687
0.41814
0.414367
0.410339
0.406082
0.401576
0.396838
0.391859
0.386645
0.381206
0.375533
0.369659
0.363559
0.357291
0.35082
0.344226
0.337474
0.33066
0.323767
0.316895
0.310066
0.303375
0.296897
0.290729
0.28498
0.279776
0.275247
0.27149
0.268679
0.266708
0.265735
0.265203
0.26517
2.26621
1.012
0.313015
0.339757
0.403292
0.446443
0.455651
0.451905
0.446548
0.442586
0.440602
0.439167
0.437447
0.435297
0.432839
0.430142
0.427247
0.424122
0.420791
0.417219
0.413446
0.409433
0.40523
0.400791
0.396173
0.391327
0.386318
0.3811
0.375737
0.370199
0.364542
0.358764
0.352907
0.347007
0.341087
0.335235
0.32946
0.323892
0.318555
0.313596
0.309088
0.305166
0.301939
0.299536
0.298095
0.297594
0.298093
0.299522
0.301166
0.302692
2.2678
1.0148
0.314976
0.339986
0.403713
0.447196
0.456635
0.453041
0.447886
0.444057
0.442216
0.440899
0.439332
0.437319
0.435029
0.432492
0.429786
0.426854
0.423743
0.420405
0.416891
0.413165
0.409268
0.405178
0.400926
0.396506
0.391937
0.387235
0.382407
0.377493
0.372492
0.367466
0.362417
0.357423
0.352506
0.347745
0.343212
0.338972
0.335163
0.331844
0.329192
0.327327
0.326406
0.32653
0.327932
0.330672
0.334539
0.339646
0.344745
0.348744
2.26948
1.01779
0.317081
0.340251
0.404202
0.448084
0.457787
0.454387
0.449433
0.445781
0.44406
0.442899
0.441461
0.439624
0.437484
0.435144
0.432613
0.429911
0.42701
0.423944
0.420687
0.417283
0.413704
0.409997
0.406134
0.402169
0.398079
0.393919
0.389681
0.385414
0.381138
0.376893
0.372734
0.368692
0.364863
0.361284
0.358078
0.355323
0.353137
0.351702
0.351078
0.351525
0.353218
0.356429
0.361347
0.368087
0.37692
0.387654
0.399389
0.409994
2.27125
1.02094
0.319305
0.340568
0.404784
0.44913
0.459146
0.455966
0.451246
0.447766
0.446179
0.445165
0.443881
0.442214
0.440252
0.438105
0.435783
0.433303
0.430655
0.427852
0.424901
0.421811
0.418601
0.41527
0.411854
0.408343
0.404791
0.401183
0.39759
0.393999
0.390497
0.387083
0.383854
0.380842
0.378139
0.375837
0.374015
0.37286
0.372439
0.37294
0.374605
0.377723
0.382646
0.389515
0.398944
0.411272
0.42697
0.447132
0.471015
0.498625
2.27307
1.02419
0.321585
0.34095
0.405496
0.450393
0.460792
0.457856
0.453421
0.450087
0.448646
0.44775
0.446636
0.445117
0.443352
0.441377
0.439283
0.437018
0.434641
0.432106
0.429478
0.426718
0.423892
0.420968
0.418007
0.414995
0.411983
0.408983
0.406037
0.403187
0.400463
0.397951
0.395671
0.393752
0.392225
0.391263
0.390904
0.391334
0.392718
0.395405
0.399611
0.405707
0.413914
0.425075
0.439643
0.459183
0.485109
0.520626
0.571958
0.66494
2.27514
1.02791
0.3241
0.341209
0.406285
0.45198
0.462932
0.460368
0.45628
0.453175
0.451892
0.451219
0.450319
0.449078
0.447558
0.445898
0.444091
0.442194
0.440164
0.438063
0.435855
0.433611
0.431292
0.428979
0.426634
0.424346
0.422081
0.41994
0.417901
0.416072
0.414454
0.413161
0.412234
0.411791
0.411934
0.412706
0.414269
0.417036
0.421227
0.426919
0.434612
0.444583
0.457856
0.474843
0.497632
0.527641
0.569626
0.631189
0.729875
0.881544
2.27735
1.03188
0.327111
0.342163
0.408017
0.45485
0.466522
0.464337
0.460569
0.457521
0.45628
0.455697
0.454957
0.453892
0.452591
0.451156
0.449631
0.448028
0.446359
0.444632
0.442871
0.441087
0.439313
0.437557
0.435867
0.434248
0.432766
0.431427
0.43032
0.429454
0.428947
0.428817
0.429182
0.430065
0.431703
0.434292
0.438007
0.442925
0.449492
0.457817
0.468616
0.482333
0.499839
0.522654
0.551825
0.591393
0.643951
0.718084
0.829047
0.96724
2.27864
1.0342
0.328987
0.343223
0.410181
0.458598
0.471249
0.469563
0.466122
0.463096
0.46189
0.461425
0.46085
0.459963
0.458851
0.457622
0.456331
0.454994
0.453624
0.452233
0.450847
0.449484
0.448173
0.446937
0.445815
0.444834
0.444043
0.443481
0.443212
0.443301
0.44376
0.444665
0.446251
0.448659
0.45188
0.456171
0.461606
0.4686
0.477216
0.488186
0.501522
0.518523
0.539244
0.565802
0.599087
0.641756
0.697425
0.767819
0.864246
0.967604
2.27979
1.03632
0.332303
0.346924
0.415048
0.465016
0.478264
0.47645
0.47266
0.469285
0.468005
0.467644
0.467233
0.466521
0.465615
0.464616
0.46361
0.462583
0.46157
0.460557
0.459594
0.458673
0.45785
0.457125
0.45656
0.45617
0.456025
0.456137
0.456555
0.457365
0.458739
0.460721
0.463371
0.46686
0.471254
0.476857
0.483698
0.492286
0.502641
0.515424
0.530913
0.549743
0.572871
0.600737
0.635361
0.677153
0.728977
0.791035
0.868951
0.950054
2.27624
1.02994
0.334465
0.356843
0.427483
0.479857
0.493367
0.490572
0.485572
0.481323
0.479664
0.479107
0.478533
0.477663
0.476602
0.475507
0.474442
0.473416
0.472439
0.471525
0.470698
0.469986
0.469406
0.469006
0.468808
0.468845
0.469115
0.469783
0.470861
0.472464
0.474557
0.477345
0.480793
0.48519
0.490502
0.497095
0.505001
0.514577
0.52611
0.539817
0.556381
0.575946
0.599508
0.62741
0.660626
0.700112
0.746388
0.800783
0.864297
0.928901
2.28217
1.02278
0.358929
0.382396
0.448516
0.49842
0.510342
0.506595
0.500855
0.49647
0.494767
0.494077
0.493377
0.492428
0.491361
0.490283
0.48925
0.488253
0.487314
0.486432
0.485654
0.484979
0.484464
0.484078
0.483946
0.484099
0.484643
0.485506
0.486894
0.488739
0.491289
0.494431
0.498516
0.503378
0.50949
0.516615
0.525383
0.53549
0.547733
0.561863
0.578671
0.598219
0.62109
0.647837
0.678689
0.714649
0.755622
0.802509
0.855721
0.909296
1.87638
0.772117
0.273425
0.344133
0.417707
0.441217
0.441148
0.437172
0.433528
0.433431
0.435606
0.438495
0.441497
0.444541
0.447683
0.450931
0.454252
0.457596
0.460937
0.464253
0.46753
0.470709
0.473854
0.476994
0.480188
0.483368
0.486659
0.489981
0.493602
0.497412
0.501711
0.506406
0.511833
0.517937
0.52505
0.533195
0.542635
0.553585
0.566113
0.580765
0.597334
0.616733
0.638501
0.663835
0.692118
0.724596
0.760594
0.801074
0.845895
0.890655
1.86894
0.771497
0.282321
0.355373
0.428297
0.447778
0.443329
0.43598
0.430317
0.428416
0.428324
0.428726
0.429326
0.43023
0.431578
0.433359
0.435618
0.438226
0.441304
0.444732
0.448618
0.452688
0.457165
0.461815
0.466846
0.472006
0.477541
0.483277
0.489363
0.495696
0.502422
0.509503
0.517056
0.525201
0.533992
0.543748
0.554344
0.566372
0.579561
0.594636
0.611284
0.630268
0.651311
0.675074
0.701416
0.730733
0.76305
0.798188
0.836599
0.874289
1.86798
0.770189
0.284461
0.365095
0.443593
0.463689
0.457527
0.448165
0.441153
0.438413
0.437509
0.436909
0.436319
0.435915
0.435826
0.436096
0.436724
0.437726
0.439258
0.441241
0.443728
0.446648
0.450161
0.454176
0.458797
0.463953
0.469672
0.475936
0.48272
0.490101
0.49797
0.506567
0.51565
0.525611
0.536027
0.547478
0.559534
0.572812
0.586979
0.60266
0.619586
0.638325
0.658743
0.681249
0.705788
0.732605
0.761652
0.792864
0.826489
0.859028
1.86947
0.773469
0.290255
0.367313
0.443666
0.464287
0.459089
0.450583
0.443999
0.441629
0.441149
0.440969
0.440751
0.440639
0.440722
0.441026
0.441613
0.442519
0.443706
0.445188
0.446989
0.449224
0.451863
0.455074
0.458759
0.46314
0.468052
0.473773
0.480047
0.487246
0.494992
0.503756
0.51306
0.523437
0.534447
0.546585
0.559494
0.573598
0.588595
0.604855
0.622219
0.640963
0.661052
0.682706
0.705894
0.730748
0.757204
0.785306
0.815106
0.843764
1.87257
0.780139
0.297932
0.361264
0.429032
0.450287
0.448025
0.441972
0.436358
0.434478
0.434512
0.435042
0.435629
0.436343
0.437235
0.438405
0.439865
0.441549
0.443419
0.445526
0.44787
0.450532
0.45349
0.456859
0.460596
0.464873
0.469588
0.474998
0.480924
0.487698
0.495076
0.503403
0.512441
0.52249
0.533359
0.545275
0.558101
0.572022
0.586962
0.603067
0.620295
0.638782
0.658431
0.679377
0.701504
0.724982
0.749598
0.77533
0.802354
0.8282
1.88115
0.786724
0.300193
0.349045
0.41215
0.441221
0.444212
0.439532
0.43438
0.432092
0.431844
0.432366
0.433083
0.434002
0.435098
0.436431
0.438026
0.439882
0.441995
0.444391
0.447065
0.450072
0.453382
0.457081
0.461118
0.465636
0.470541
0.476043
0.482003
0.488678
0.495922
0.503982
0.512749
0.522408
0.532895
0.544364
0.556743
0.570165
0.584563
0.600057
0.616576
0.634228
0.652932
0.672787
0.693692
0.715681
0.738611
0.762441
0.787266
0.810923
2.26325
1.10632
0.407433
0.399251
0.459412
0.508118
0.519418
0.514529
0.507606
0.501552
0.49803
0.495554
0.493439
0.491417
0.489386
0.487412
0.485684
0.484192
0.483042
0.482192
0.481761
0.48171
0.482162
0.483094
0.484572
0.486636
0.489318
0.492678
0.496716
0.501526
0.507081
0.513496
0.520737
0.528931
0.538024
0.548151
0.55924
0.57141
0.584586
0.598871
0.614165
0.630563
0.647943
0.666357
0.685716
0.706011
0.727142
0.749028
0.771747
0.793362
2.27269
1.12825
0.391915
0.377182
0.450041
0.510778
0.529192
0.528316
0.524094
0.520289
0.518844
0.518467
0.518449
0.518407
0.51799
0.517359
0.516684
0.516052
0.515482
0.515004
0.514634
0.514437
0.514432
0.514701
0.515282
0.51625
0.517643
0.519573
0.522034
0.525182
0.52897
0.53358
0.538939
0.54522
0.552361
0.560489
0.569585
0.579736
0.590935
0.603206
0.616579
0.631002
0.6465
0.662981
0.680412
0.698728
0.717834
0.737635
0.758197
0.777768
2.29759
1.17698
0.434496
0.384047
0.447132
0.50344
0.521932
0.522966
0.521143
0.519959
0.520378
0.521611
0.523406
0.525208
0.526616
0.527816
0.528939
0.530087
0.531234
0.532414
0.533599
0.534842
0.536133
0.537535
0.539046
0.540742
0.542637
0.544807
0.547296
0.550173
0.553503
0.557339
0.561776
0.56685
0.572673
0.579264
0.586732
0.595073
0.604375
0.614625
0.625857
0.63805
0.651224
0.665372
0.680458
0.69646
0.713277
0.730754
0.74898
0.766367
1.90079
0.805095
0.305933
0.316878
0.373988
0.414877
0.429167
0.433002
0.435832
0.439489
0.444426
0.450178
0.456621
0.463121
0.469303
0.475305
0.481273
0.48724
0.493186
0.499075
0.504899
0.510641
0.516315
0.521904
0.52744
0.532905
0.538359
0.54378
0.549256
0.554782
0.560423
0.566232
0.572266
0.578597
0.585273
0.592398
0.599994
0.608184
0.616957
0.626445
0.636608
0.647581
0.659279
0.671803
0.685043
0.699013
0.713648
0.728975
0.744993
0.760311
2.30611
1.19412
0.449855
0.386703
0.440703
0.492284
0.509293
0.509357
0.50621
0.503732
0.502472
0.502286
0.50274
0.503136
0.503458
0.503963
0.504788
0.506065
0.507761
0.50992
0.512494
0.515536
0.518999
0.522927
0.527242
0.532002
0.537087
0.542591
0.548352
0.554489
0.560875
0.567616
0.574596
0.581935
0.589528
0.59751
0.6058
0.614527
0.623633
0.633229
0.643288
0.653889
0.66502
0.676711
0.688972
0.701786
0.71516
0.729005
0.74341
0.757133
2.31136
1.20412
0.433156
0.369776
0.438412
0.500692
0.522161
0.523579
0.521359
0.519888
0.520015
0.521145
0.522873
0.524377
0.525401
0.526247
0.52708
0.528028
0.529101
0.530389
0.531897
0.533711
0.535818
0.538302
0.54115
0.544425
0.54812
0.552274
0.556887
0.561971
0.567528
0.573541
0.580022
0.586941
0.594334
0.602139
0.61041
0.619068
0.628195
0.637696
0.647673
0.658018
0.668854
0.680058
0.691749
0.703804
0.716317
0.729152
0.742435
0.75504
2.31409
1.20995
0.437331
0.371817
0.441541
0.505418
0.527813
0.529501
0.527337
0.525989
0.526462
0.527977
0.530248
0.532441
0.53416
0.535688
0.537214
0.538845
0.540576
0.542437
0.544424
0.54657
0.548891
0.551418
0.554186
0.557218
0.560559
0.56422
0.568256
0.572664
0.577504
0.582759
0.58849
0.594663
0.601332
0.608458
0.616084
0.624167
0.632736
0.641755
0.651234
0.66115
0.671492
0.682249
0.693383
0.704905
0.716747
0.728925
0.741429
0.753321
2.31707
1.21767
0.463719
0.387901
0.447148
0.506288
0.528863
0.532102
0.531226
0.530856
0.531749
0.533677
0.536215
0.538514
0.540541
0.542444
0.544402
0.546443
0.548621
0.550901
0.553332
0.555882
0.558608
0.561479
0.564556
0.567814
0.571317
0.575042
0.579055
0.583339
0.587956
0.592901
0.598222
0.603919
0.610023
0.61654
0.623486
0.630877
0.638706
0.646996
0.655714
0.66489
0.674474
0.684493
0.694881
0.705659
0.716753
0.728163
0.739908
0.751087
1.90565
0.813637
0.324833
0.323676
0.376465
0.41436
0.427254
0.430303
0.432599
0.435945
0.440721
0.446636
0.453368
0.460191
0.466906
0.473571
0.480309
0.487108
0.493976
0.500858
0.507758
0.51464
0.521518
0.528369
0.535215
0.542045
0.548885
0.555732
0.562611
0.569533
0.576515
0.583588
0.590762
0.598081
0.605549
0.61322
0.621087
0.629209
0.637573
0.646222
0.655148
0.664375
0.67389
0.683715
0.693827
0.704233
0.714911
0.725848
0.737096
0.747774
2.31217
1.20897
0.465236
0.403586
0.466274
0.527475
0.549418
0.550352
0.546206
0.542371
0.540161
0.538785
0.538187
0.537788
0.537052
0.536327
0.535759
0.535604
0.535791
0.536477
0.53759
0.539202
0.541284
0.543871
0.546931
0.550488
0.554502
0.558997
0.563919
0.569288
0.57505
0.58121
0.587719
0.594586
0.601771
0.609281
0.617086
0.625189
0.633569
0.642235
0.651172
0.660387
0.669868
0.679617
0.689614
0.699851
0.710314
0.720979
0.731908
0.742274
2.2942
1.16991
0.460328
0.422801
0.48589
0.546301
0.566202
0.566246
0.562525
0.559285
0.558526
0.558928
0.560012
0.561274
0.562144
0.562781
0.56337
0.564026
0.564759
0.56558
0.566499
0.567561
0.568811
0.570294
0.572041
0.574098
0.576481
0.579223
0.58234
0.585855
0.589769
0.594107
0.59887
0.604069
0.609698
0.615757
0.622235
0.629124
0.636411
0.64408
0.652114
0.660494
0.669198
0.678212
0.687528
0.697116
0.706972
0.71706
0.727432
0.737286
1.88786
0.805114
0.340915
0.355398
0.406358
0.443137
0.452874
0.452707
0.451774
0.452629
0.455946
0.460575
0.466118
0.472188
0.478281
0.484408
0.490628
0.496952
0.503331
0.509722
0.516086
0.522414
0.528692
0.534923
0.5411
0.547235
0.553336
0.559428
0.565529
0.571675
0.577885
0.584186
0.590606
0.597168
0.603897
0.610812
0.617935
0.625278
0.632855
0.640674
0.648748
0.657076
0.665668
0.674506
0.683587
0.692903
0.702436
0.712178
0.722167
0.731662
1.87402
0.796343
0.339633
0.356689
0.398324
0.426953
0.434867
0.434824
0.433818
0.433307
0.43404
0.435676
0.438233
0.441443
0.444937
0.448774
0.453033
0.457756
0.46292
0.468507
0.474475
0.480802
0.487443
0.494376
0.501553
0.508955
0.516534
0.524277
0.532143
0.540123
0.548187
0.55635
0.56458
0.572903
0.581291
0.589779
0.598346
0.607026
0.615812
0.62471
0.633719
0.642857
0.652123
0.66153
0.671077
0.680771
0.690609
0.700585
0.71074
0.720353
1.88892
0.806092
0.345171
0.373704
0.430954
0.466924
0.473664
0.46961
0.464525
0.461416
0.460461
0.460429
0.461018
0.461981
0.463019
0.464191
0.465623
0.467383
0.46951
0.472012
0.474916
0.478228
0.48198
0.486163
0.490797
0.495863
0.501375
0.507299
0.513639
0.520355
0.527454
0.534885
0.542651
0.550703
0.559038
0.567607
0.57641
0.585402
0.594579
0.603926
0.613443
0.6231
0.632902
0.642819
0.652861
0.663001
0.673251
0.683584
0.694071
0.703966
2.34089
1.12458
0.469294
0.447703
0.513253
0.57501
0.595643
0.595039
0.589738
0.58443
0.581414
0.5795
0.577929
0.576552
0.574994
0.573256
0.571479
0.569761
0.568147
0.566664
0.565337
0.564201
0.563283
0.562631
0.562273
0.562261
0.56261
0.56338
0.564565
0.566203
0.568323
0.570932
0.574056
0.577676
0.581818
0.586451
0.591594
0.597209
0.603305
0.609837
0.616803
0.624159
0.631887
0.639981
0.648395
0.657114
0.666099
0.675336
0.684834
0.693893
1.88938
0.807279
0.346293
0.363515
0.415848
0.456112
0.46859
0.4696
0.469056
0.469037
0.471327
0.474848
0.479056
0.483793
0.48862
0.493435
0.498278
0.503209
0.508186
0.513199
0.51819
0.523167
0.528092
0.532991
0.537834
0.542657
0.547437
0.552214
0.556992
0.561799
0.566643
0.571558
0.576543
0.58165
0.586878
0.592279
0.597843
0.603625
0.609606
0.615842
0.622304
0.629041
0.636027
0.643273
0.650765
0.658518
0.666509
0.674739
0.683222
0.691328
1.88912
0.807425
0.347605
0.364583
0.416121
0.454612
0.465064
0.464002
0.461129
0.458568
0.458101
0.458942
0.460526
0.462732
0.465153
0.467745
0.470615
0.473846
0.47744
0.481386
0.485654
0.490228
0.495086
0.500209
0.505578
0.511165
0.516951
0.522912
0.52903
0.535303
0.541707
0.548241
0.554894
0.561655
0.568521
0.575487
0.582555
0.589725
0.597003
0.604388
0.61189
0.619504
0.627244
0.635105
0.643102
0.651227
0.659493
0.667885
0.676453
0.684587
2.34291
1.12827
0.472978
0.449773
0.516511
0.580767
0.603234
0.603344
0.598263
0.59319
0.590402
0.588842
0.587709
0.586852
0.585846
0.584677
0.583448
0.582319
0.581278
0.580416
0.579673
0.57916
0.578812
0.57875
0.578905
0.579384
0.580147
0.581233
0.582659
0.584433
0.586562
0.589046
0.591885
0.595078
0.598623
0.60252
0.606762
0.61134
0.616246
0.621473
0.627005
0.632835
0.638947
0.645332
0.651973
0.658864
0.665986
0.673329
0.6809
0.688141
1.88982
0.808815
0.353581
0.381479
0.439713
0.479678
0.48965
0.487975
0.484932
0.483544
0.484971
0.487648
0.490997
0.494832
0.498735
0.502689
0.506753
0.510983
0.515348
0.519832
0.524395
0.529029
0.533713
0.538444
0.543214
0.548019
0.55286
0.557737
0.562662
0.567636
0.572669
0.577776
0.582957
0.588233
0.593604
0.599091
0.604691
0.610422
0.616282
0.622284
0.628434
0.634741
0.641206
0.647832
0.654622
0.661577
0.668697
0.67597
0.683427
0.690526
1.87523
0.799761
0.351283
0.378161
0.427548
0.459464
0.46712
0.465995
0.464314
0.463599
0.464125
0.465324
0.467223
0.469509
0.471861
0.474344
0.477053
0.480039
0.483308
0.48686
0.490683
0.494772
0.499117
0.503712
0.508544
0.513604
0.518878
0.524355
0.53002
0.53586
0.541866
0.548016
0.55432
0.560752
0.567323
0.574009
0.580825
0.587752
0.594802
0.601958
0.60923
0.616601
0.624083
0.631663
0.639354
0.647139
0.655034
0.663023
0.671157
0.678858
1.87421
0.799383
0.351799
0.375402
0.42244
0.454109
0.462331
0.461874
0.460758
0.460138
0.460407
0.461232
0.462714
0.464549
0.466396
0.468299
0.470356
0.472612
0.475086
0.477777
0.480695
0.483844
0.487233
0.490863
0.494741
0.498865
0.503239
0.507859
0.512728
0.517838
0.523192
0.52878
0.534601
0.540642
0.546901
0.553362
0.560023
0.566867
0.573895
0.581091
0.588456
0.595978
0.603656
0.611473
0.619426
0.627501
0.635709
0.644039
0.652527
0.660585
1.88907
0.809154
0.355006
0.362711
0.413326
0.452122
0.463069
0.46266
0.460872
0.459625
0.459661
0.460471
0.462008
0.46391
0.465736
0.467544
0.469461
0.471553
0.473838
0.476313
0.47898
0.481839
0.484896
0.488152
0.491613
0.49528
0.499157
0.503244
0.507547
0.512064
0.5168
0.521752
0.526924
0.532312
0.537919
0.543738
0.549773
0.556015
0.562466
0.569115
0.575963
0.582997
0.590214
0.597608
0.605181
0.612923
0.620826
0.628879
0.637104
0.644926
2.31247
1.20498
0.485683
0.43159
0.49267
0.556916
0.582926
0.586429
0.583767
0.581034
0.579743
0.579425
0.57991
0.580738
0.581273
0.581563
0.581792
0.582073
0.582447
0.582913
0.583476
0.584137
0.584912
0.585805
0.586833
0.588001
0.589322
0.590802
0.592456
0.594286
0.596309
0.598524
0.600948
0.60358
0.606434
0.609509
0.612818
0.616356
0.620136
0.624151
0.628414
0.632912
0.637659
0.64264
0.647867
0.653321
0.659007
0.664901
0.671032
0.676927
2.32271
1.22914
0.466374
0.405457
0.481526
0.557617
0.588812
0.593505
0.590875
0.588012
0.587021
0.587472
0.588758
0.590571
0.592252
0.593649
0.594978
0.59639
0.59794
0.599619
0.60142
0.60333
0.605356
0.607495
0.609755
0.612131
0.614632
0.617254
0.620004
0.622878
0.625887
0.629026
0.632304
0.635718
0.639277
0.642978
0.646832
0.650833
0.654993
0.659305
0.663782
0.668417
0.673222
0.67819
0.683329
0.68863
0.694098
0.699721
0.70552
0.711061
2.31286
1.20648
0.486912
0.432653
0.494445
0.55992
0.587002
0.591162
0.589113
0.587001
0.586429
0.587085
0.58859
0.590578
0.592376
0.59397
0.595542
0.597224
0.599051
0.601025
0.603133
0.605377
0.607753
0.61027
0.612925
0.615725
0.618667
0.621757
0.62499
0.628374
0.631901
0.635582
0.639407
0.643386
0.64751
0.651789
0.656214
0.660794
0.665518
0.670398
0.675422
0.680601
0.685923
0.691399
0.697015
0.702783
0.708689
0.714741
0.72095
0.72689
1.88896
0.809202
0.356203
0.364357
0.416418
0.457034
0.46914
0.469162
0.467579
0.466566
0.467211
0.468838
0.471322
0.474278
0.477214
0.480182
0.483292
0.486622
0.490168
0.493931
0.497887
0.502044
0.506381
0.510909
0.51561
0.520493
0.525539
0.530758
0.536129
0.541665
0.547344
0.553179
0.559148
0.565265
0.571508
0.577892
0.584394
0.59103
0.597778
0.604654
0.611636
0.618742
0.625946
0.633269
0.640684
0.648213
0.655833
0.663568
0.671429
0.678918
1.87418
0.800018
0.355412
0.380531
0.428603
0.46015
0.467676
0.466513
0.464774
0.463891
0.464108
0.464958
0.4665
0.468379
0.470212
0.472063
0.474028
0.476167
0.47848
0.480974
0.48364
0.486491
0.48952
0.492741
0.496146
0.499749
0.503539
0.507532
0.511714
0.516099
0.520675
0.525454
0.530422
0.535591
0.540946
0.5465
0.552233
0.558161
0.564263
0.570552
0.577008
0.583644
0.590439
0.597404
0.604519
0.611795
0.619211
0.626779
0.634503
0.641866
1.87703
0.803127
0.359509
0.395222
0.451599
0.484609
0.49054
0.48701
0.482825
0.480875
0.480862
0.481657
0.483067
0.48473
0.486328
0.487948
0.489692
0.491603
0.493678
0.495916
0.498308
0.500862
0.503574
0.506454
0.509496
0.512712
0.516094
0.519653
0.52338
0.527289
0.531368
0.535631
0.540065
0.544684
0.549474
0.55445
0.559597
0.564927
0.570427
0.576108
0.581956
0.587982
0.59417
0.600531
0.607049
0.613733
0.620566
0.627555
0.634699
0.641513
1.19174
1.0496
0.498166
0.190668
0.00996505
0.108582
0.159624
0.208066
0.229751
0.234198
0.222637
0.211226
0.200937
0.191392
0.179351
0.164891
0.147557
0.127627
0.105799
0.0826674
0.0588356
0.0351434
0.0157979
0.0233968
0.0471781
0.0714659
0.0956593
0.119354
0.142712
0.165621
0.188155
0.210241
0.231906
0.25306
0.273099
0.292213
0.311777
0.332166
0.352164
0.371347
0.389894
0.407908
0.425464
0.442537
0.459153
0.475273
0.490928
0.506077
0.520751
0.534908
0.548575
0.561707
0.574326
0.586381
0.59789
0.608796
0.619112
0.628776
0.637794
0.646103
0.653704
0.660533
0.666588
0.671811
0.676203
0.67972
0.682379
0.684165
0.68512
0.685391
0.685296
0.684873
0.683769
0.681494
0.678255
0.674782
0.671211
0.667606
0.664004
0.660516
0.657215
0.654205
0.651527
0.649248
0.647372
0.645931
0.644899
0.644275
0.644024
0.644076
0.644303
0.64471
0.645427
0.646599
0.648067
0.649643
0.651244
0.652942
0.654595
0.659347
1.12214
1.03646
0.806765
0.549816
0.502914
0.431684
0.381548
0.34071
0.310323
0.291774
0.260617
0.230476
0.210928
0.209211
0.216336
0.226897
0.239366
0.253306
0.268449
0.284335
0.300726
0.31723
0.333569
0.349785
0.366534
0.383557
0.400735
0.417868
0.434981
0.451943
0.468813
0.485472
0.501987
0.51825
0.533927
0.548869
0.563886
0.579633
0.595521
0.610775
0.625518
0.63992
0.654027
0.667835
0.681322
0.694474
0.707282
0.719734
0.731825
0.743541
0.754874
0.765806
0.776329
0.786416
0.796057
0.805221
0.813896
0.822041
0.829647
0.836663
0.843082
0.848848
0.853958
0.858355
0.862044
0.864974
0.867169
0.868597
0.8693
0.869417
0.869202
0.868659
0.867507
0.86535
0.862299
0.858955
0.855515
0.852052
0.848629
0.845323
0.842218
0.83939
0.8369
0.834787
0.833074
0.831769
0.830861
0.830335
0.830186
0.830286
0.830526
0.830938
0.831582
0.832635
0.833919
0.835328
0.836702
0.838159
0.839367
0.843172
1.07481
1.07585
1.00843
0.900257
0.831534
0.781452
0.74549
0.715395
0.690576
0.672514
0.657537
0.64328
0.633277
0.628203
0.62671
0.627011
0.628579
0.631051
0.634483
0.638805
0.643954
0.649766
0.656145
0.663005
0.670565
0.678743
0.687506
0.696672
0.706232
0.716043
0.726141
0.736396
0.746872
0.757424
0.767796
0.777745
0.787806
0.798594
0.809952
0.821057
0.831862
0.842494
0.853011
0.863426
0.873709
0.883843
0.893797
0.903563
0.913116
0.922447
0.93153
0.940356
0.948895
0.957134
0.965042
0.972602
0.979778
0.986554
0.992889
0.998765
1.00414
1.00899
1.01328
1.01699
1.02008
1.02254
1.02435
1.0255
1.02598
1.02597
1.02569
1.02511
1.02397
1.02198
1.01917
1.01607
1.01282
1.00958