/*--------------------------------*- C++ -*----------------------------------*\
| =========                 |                                                 |
| \\      /  F ield         | OpenFOAM: The Open Source CFD Toolbox           |
|  \\    /   O peration     | Version:  2412                                  |
|   \\  /    A nd           | Website:  www.openfoam.com                      |
|    \\/     M anipulation  |                                                 |
\*---------------------------------------------------------------------------*/
FoamFile
{
    version     2.0;
    format      ascii;
    arch        "LSB;label=32;scalar=64";
    class       volScalarField;
    location    "18";
    object      p;
}
// * * * * * * * * * * * * * * * * * * * * * * * * * * * * * * * * * * * * * //

dimensions      [1 -1 -2 0 0 0 0];

internalField   nonuniform List<scalar> 
7000
(
1.63877
3.7558
11.4534
11.5276
11.0972
10.6876
10.5688
10.5834
10.6244
10.6642
10.686
10.6998
10.7143
10.732
10.7523
10.7746
10.7984
10.8238
10.851
10.88
10.9108
10.9435
10.978
11.0144
11.0526
11.0926
11.1345
11.1781
11.2235
11.2706
11.3192
11.3693
11.4207
11.4733
11.5268
11.581
11.6356
11.6902
11.7445
11.7978
11.8498
11.8999
11.9473
11.9915
12.0317
12.0673
12.0977
12.1221
12.1398
12.1527
1.63907
3.75451
11.4529
11.527
11.0968
10.6873
10.5685
10.5831
10.6241
10.6638
10.6855
10.6993
10.7138
10.7315
10.7518
10.774
10.7978
10.8232
10.8503
10.8793
10.9101
10.9428
10.9772
11.0136
11.0517
11.0918
11.1336
11.1772
11.2225
11.2695
11.3181
11.3682
11.4196
11.4722
11.5257
11.5798
11.6344
11.689
11.7433
11.7967
11.8488
11.8989
11.9464
11.9907
12.031
12.0668
12.0972
12.1218
12.1395
12.1525
1.63896
3.75357
11.451
11.5262
11.0961
10.6865
10.5678
10.5824
10.6233
10.6629
10.6846
10.6983
10.7127
10.7303
10.7506
10.7728
10.7965
10.8218
10.8489
10.8778
10.9085
10.9411
10.9755
11.0117
11.0498
11.0897
11.1314
11.1749
11.2201
11.267
11.3154
11.3653
11.4166
11.469
11.5223
11.5764
11.6308
11.6853
11.7394
11.7928
11.8447
11.8948
11.9423
11.9865
12.0269
12.0626
12.0931
12.1177
12.1353
12.1482
1.63884
3.75229
11.4477
11.5251
11.0951
10.6854
10.5666
10.5812
10.622
10.6614
10.683
10.6966
10.711
10.7286
10.7487
10.7708
10.7944
10.8196
10.8466
10.8754
10.906
10.9384
10.9726
11.0087
11.0466
11.0863
11.1279
11.1711
11.2162
11.2628
11.311
11.3607
11.4117
11.4639
11.517
11.5708
11.625
11.6793
11.7332
11.7863
11.8381
11.888
11.9354
11.9796
12.0199
12.0556
12.086
12.1106
12.1281
12.141
1.63866
3.75041
11.4429
11.5237
11.0938
10.6838
10.5649
10.5794
10.6201
10.6594
10.6808
10.6943
10.7086
10.726
10.7461
10.768
10.7915
10.8166
10.8434
10.872
10.9024
10.9346
10.9686
11.0045
11.0421
11.0816
11.1228
11.1658
11.2105
11.2569
11.3048
11.3541
11.4048
11.4565
11.5093
11.5627
11.6166
11.6705
11.7241
11.7769
11.8284
11.8781
11.9253
11.9694
12.0097
12.0453
12.0758
12.1004
12.1178
12.1307
1.63844
3.74789
11.4367
11.5219
11.0922
10.6817
10.5626
10.5771
10.6176
10.6567
10.6779
10.6913
10.7054
10.7227
10.7426
10.7643
10.7876
10.8125
10.8391
10.8674
10.8976
10.9296
10.9633
10.9988
11.0362
11.0753
11.1162
11.1588
11.2031
11.249
11.2964
11.3453
11.3955
11.4467
11.499
11.5519
11.6052
11.6587
11.7118
11.7642
11.8153
11.8647
11.9117
11.9555
11.9956
12.0312
12.0616
12.0863
12.1037
12.1167
1.63818
3.74466
11.4287
11.5196
11.0901
10.6791
10.5597
10.5741
10.6145
10.6533
10.6743
10.6875
10.7014
10.7185
10.7382
10.7596
10.7827
10.8073
10.8336
10.8617
10.8916
10.9232
10.9566
10.9917
11.0286
11.0673
11.1077
11.1498
11.1936
11.239
11.2858
11.3341
11.3836
11.4342
11.4858
11.538
11.5907
11.6435
11.696
11.7478
11.7984
11.8473
11.8938
11.9374
11.9773
12.0128
12.0431
12.0678
12.0851
12.0985
1.63786
3.74066
11.4191
11.5169
11.0876
10.6759
10.5561
10.5704
10.6106
10.6491
10.6698
10.6827
10.6964
10.7133
10.7327
10.7539
10.7766
10.8009
10.8269
10.8546
10.8841
10.9153
10.9482
10.9829
11.0193
11.0575
11.0973
11.1388
11.1819
11.2266
11.2727
11.3202
11.3689
11.4187
11.4694
11.5208
11.5726
11.6245
11.6762
11.7272
11.7771
11.8253
11.8713
11.9144
11.954
11.9892
12.0194
12.0442
12.0615
12.0751
1.63749
3.73585
11.4075
11.5136
11.0846
10.672
10.5518
10.566
10.6058
10.644
10.6644
10.677
10.6905
10.707
10.7261
10.7469
10.7693
10.7932
10.8188
10.8461
10.8751
10.9058
10.9382
10.9723
11.0081
11.0456
11.0847
11.1255
11.1678
11.2116
11.2568
11.3033
11.3511
11.3998
11.4495
11.4998
11.5505
11.6013
11.6519
11.7019
11.7508
11.7982
11.8434
11.8858
11.9249
11.9598
11.9898
12.0145
12.0319
12.0458
1.63706
3.73018
11.3939
11.5097
11.0811
10.6675
10.5467
10.5607
10.6002
10.638
10.658
10.6703
10.6834
10.6995
10.7183
10.7387
10.7607
10.7841
10.8092
10.836
10.8645
10.8946
10.9263
10.9598
10.9948
11.0315
11.0698
11.1096
11.151
11.1937
11.2379
11.2833
11.3298
11.3773
11.4257
11.4747
11.524
11.5735
11.6227
11.6713
11.719
11.7651
11.8092
11.8508
11.889
11.9234
11.9531
11.9777
11.9951
12.0093
1.63657
3.7236
11.3782
11.5052
11.077
10.6622
10.5407
10.5544
10.5935
10.6309
10.6505
10.6624
10.675
10.6908
10.7091
10.7291
10.7505
10.7735
10.798
10.8242
10.852
10.8814
10.9124
10.9451
10.9793
11.015
11.0523
11.0911
11.1313
11.1729
11.2157
11.2597
11.3048
11.3509
11.3976
11.445
11.4926
11.5404
11.5879
11.6348
11.6807
11.7253
11.7679
11.8081
11.8453
11.8788
11.9078
11.9321
11.9495
11.9641
1.63602
3.71606
11.3602
11.5001
11.0723
10.6562
10.5337
10.5472
10.5858
10.6226
10.6418
10.6532
10.6654
10.6807
10.6984
10.7179
10.7388
10.7611
10.785
10.8105
10.8376
10.8662
10.8964
10.9281
10.9613
10.996
11.0321
11.0696
11.1085
11.1486
11.19
11.2324
11.2758
11.32
11.3649
11.4102
11.4558
11.5014
11.5468
11.5915
11.6353
11.6776
11.7182
11.7565
11.792
11.8241
11.8522
11.876
11.8931
11.9081
1.6354
3.70753
11.3398
11.4942
11.0669
10.6493
10.5258
10.5389
10.5769
10.6131
10.6317
10.6426
10.6543
10.669
10.6862
10.7051
10.7253
10.747
10.7702
10.7949
10.8211
10.8488
10.8779
10.9086
10.9406
10.9741
11.0089
11.045
11.0823
11.1208
11.1604
11.2009
11.2423
11.2844
11.327
11.37
11.4131
11.456
11.4987
11.5406
11.5815
11.621
11.6588
11.6944
11.7274
11.7574
11.7837
11.8064
11.8229
11.8386
1.63473
3.69795
11.3172
11.4874
11.0607
10.6415
10.5167
10.5295
10.5667
10.6022
10.6202
10.6306
10.6416
10.6558
10.6723
10.6904
10.71
10.7309
10.7532
10.777
10.8023
10.829
10.857
10.8864
10.9172
10.9492
10.9825
11.017
11.0526
11.0892
11.1267
11.165
11.2041
11.2436
11.2836
11.3237
11.3637
11.4035
11.4427
11.4811
11.5183
11.554
11.588
11.6197
11.6491
11.6757
11.6992
11.7198
11.735
11.7509
1.63401
3.68732
11.2922
11.4798
11.0537
10.6329
10.5064
10.5188
10.555
10.5898
10.6071
10.6168
10.6273
10.6407
10.6565
10.6739
10.6926
10.7127
10.7341
10.7569
10.7811
10.8066
10.8334
10.8615
10.8908
10.9212
10.9528
10.9854
11.019
11.0534
11.0886
11.1244
11.1607
11.1973
11.2341
11.2708
11.3072
11.3431
11.3781
11.412
11.4444
11.4751
11.5037
11.5301
11.5539
11.5751
11.5936
11.6104
11.6231
11.6393
1.63321
3.67572
11.2647
11.4714
11.046
10.6232
10.4949
10.5066
10.5418
10.5757
10.5923
10.6013
10.611
10.6237
10.6387
10.6553
10.6731
10.6922
10.7126
10.7343
10.7573
10.7815
10.807
10.8335
10.8612
10.8898
10.9195
10.95
10.9813
11.0133
11.0458
11.0787
11.1119
11.1451
11.1782
11.2109
11.2429
11.274
11.3039
11.3321
11.3584
11.3825
11.4039
11.4225
11.4381
11.4509
11.4614
11.4708
11.4781
11.4929
1.63236
3.66317
11.2349
11.4623
11.0377
10.6124
10.4819
10.4929
10.5268
10.5598
10.5756
10.5839
10.5928
10.6046
10.6188
10.6344
10.6513
10.6694
10.6886
10.7091
10.7308
10.7536
10.7775
10.8024
10.8282
10.8549
10.8824
10.9106
10.9393
10.9685
10.998
11.0277
11.0573
11.0866
11.1154
11.1434
11.1703
11.1957
11.2193
11.2406
11.2591
11.2743
11.286
11.2937
11.2968
11.2961
11.2927
11.2884
11.2844
11.2951
1.63146
3.6498
11.203
11.4525
11.0285
10.6005
10.4673
10.4775
10.5099
10.5418
10.5568
10.5643
10.5723
10.5833
10.5965
10.6111
10.627
10.6439
10.662
10.6812
10.7014
10.7227
10.7449
10.7679
10.7917
10.8163
10.8414
10.867
10.8929
10.919
10.9452
10.9711
10.9967
11.0216
11.0455
11.0681
11.0889
11.1076
11.1236
11.1362
11.1451
11.1489
11.1473
11.1403
11.1254
11.1035
11.0756
11.0449
11.0147
11.011
1.63052
3.63577
11.1696
11.442
11.0186
10.5872
10.4509
10.4602
10.4908
10.5216
10.5358
10.5424
10.5496
10.5596
10.5718
10.5854
10.6001
10.6159
10.6326
10.6504
10.6691
10.6887
10.709
10.73
10.7517
10.7738
10.7963
10.8191
10.8419
10.8647
10.8871
10.909
10.93
10.9499
10.9683
10.9847
10.9986
11.0094
11.0165
11.0185
11.0156
11.0061
10.9867
10.9576
10.9168
10.8625
10.7933
10.7113
10.6208
10.5654
1.62957
3.62138
11.1354
11.4309
11.0078
10.5723
10.4321
10.4403
10.4689
10.4984
10.5119
10.5177
10.524
10.533
10.5442
10.5568
10.5703
10.5848
10.6002
10.6164
10.6335
10.6512
10.6696
10.6885
10.7077
10.7273
10.747
10.7666
10.7861
10.8051
10.8234
10.8408
10.8569
10.8712
10.8834
10.8929
10.8991
10.9005
10.8978
10.8888
10.8702
10.842
10.8012
10.7449
10.6681
10.565
10.427
10.2461
10.0122
9.75785
1.62879
3.603
11.0948
11.4177
10.994
10.553
10.4073
10.4139
10.4397
10.4679
10.4805
10.4855
10.4906
10.4984
10.5083
10.5194
10.5315
10.5443
10.5579
10.5723
10.5872
10.6026
10.6185
10.6346
10.6509
10.6671
10.6833
10.699
10.7142
10.7285
10.7416
10.7532
10.7629
10.7702
10.7744
10.7743
10.7714
10.7626
10.7445
10.7178
10.68
10.6279
10.5572
10.461
10.3301
10.1477
9.88469
9.47948
8.78111
7.25886
1.628
3.58352
11.0516
11.4004
10.9749
10.5247
10.371
10.3757
10.3982
10.4257
10.4381
10.4426
10.4468
10.4534
10.462
10.4717
10.4822
10.4933
10.5049
10.517
10.5294
10.5421
10.555
10.5678
10.5805
10.5929
10.6047
10.6158
10.6258
10.6344
10.6414
10.6462
10.648
10.647
10.6428
10.6329
10.6159
10.5914
10.5577
10.512
10.4515
10.3712
10.2647
10.1225
9.92937
9.6617
9.27784
8.70887
7.86652
6.48006
1.62754
3.57223
11.0267
11.3888
10.9594
10.4963
10.3319
10.3341
10.3529
10.3801
10.3926
10.3964
10.3994
10.4047
10.4119
10.4202
10.429
10.4382
10.4477
10.4575
10.4674
10.4773
10.4871
10.4966
10.5056
10.5139
10.5213
10.5275
10.5323
10.5351
10.5353
10.5338
10.5289
10.5187
10.5033
10.4819
10.4529
10.4148
10.3651
10.3011
10.2187
10.1128
9.9755
9.7968
9.56145
9.24823
8.82794
8.26035
7.52842
6.55531
1.62691
3.56302
11.0034
11.3674
10.9314
10.4509
10.2769
10.2791
10.2994
10.3301
10.344
10.3476
10.3498
10.354
10.3602
10.3673
10.3746
10.382
10.3894
10.3969
10.4042
10.4113
10.418
10.4241
10.4294
10.4337
10.4367
10.438
10.4376
10.4355
10.4303
10.4208
10.4074
10.3891
10.3648
10.3336
10.2937
10.2433
10.1798
10.1004
10.001
9.8764
9.71991
9.5227
9.27361
8.95881
8.56372
8.07258
7.49213
6.76293
1.6276
3.59744
11.0648
11.3647
10.904
10.3852
10.1999
10.2052
10.2333
10.2712
10.2876
10.2912
10.2929
10.2965
10.3022
10.3083
10.3144
10.3203
10.326
10.3314
10.3365
10.3411
10.3449
10.348
10.3499
10.3504
10.3497
10.3474
10.3422
10.334
10.3226
10.3074
10.2875
10.2622
10.2303
10.1907
10.1416
10.0813
10.0074
9.91714
9.80689
9.67232
9.5081
9.30794
9.06454
8.77015
8.41753
7.9995
7.51849
6.96733
1.58986
3.70796
11.0696
11.2735
10.8231
10.3038
10.1308
10.1408
10.1773
10.2173
10.2337
10.2375
10.2395
10.2432
10.248
10.2529
10.2574
10.2615
10.2651
10.2682
10.2706
10.2724
10.2732
10.273
10.2718
10.269
10.2637
10.2564
10.2466
10.2337
10.2172
10.1966
10.1711
10.1397
10.1013
10.0549
9.99886
9.93143
9.8506
9.75388
9.63837
9.50064
9.33683
9.14259
8.91351
8.64511
8.33406
7.97767
7.57797
7.13021
1.55484
4.81551
11.221
10.9519
10.3116
10.0545
10.0499
10.0765
10.1239
10.1504
10.1601
10.1643
10.1686
10.1736
10.1788
10.1833
10.1872
10.1903
10.1927
10.1943
10.1949
10.1947
10.1937
10.1912
10.1867
10.1807
10.173
10.1629
10.1498
10.1333
10.1128
10.0878
10.0576
10.0214
9.97812
9.92673
9.86592
9.79412
9.70954
9.61015
9.49365
9.35748
9.1989
9.01502
8.80312
8.56078
8.28654
7.98037
7.64362
7.26905
1.55573
4.82251
11.1708
10.8827
10.239
9.99948
10.0095
10.0519
10.1003
10.1221
10.1281
10.1306
10.1337
10.1369
10.1395
10.1411
10.1418
10.1417
10.141
10.1392
10.1361
10.1322
10.1273
10.121
10.113
10.1031
10.0909
10.0762
10.0586
10.0379
10.0135
9.98482
9.95109
9.91122
9.86426
9.80939
9.74537
9.67097
9.58479
9.48518
9.37042
9.23859
9.08779
8.91606
8.7218
8.50357
8.26068
7.99261
7.70566
7.38955
1.56589
4.84161
11.2333
10.9026
10.1827
9.92202
9.93701
9.99157
10.0489
10.0734
10.0798
10.0825
10.0859
10.0892
10.0916
10.0926
10.0924
10.0915
10.0891
10.0849
10.0798
10.0735
10.0658
10.0564
10.0452
10.032
10.0164
9.9983
9.97733
9.95307
9.92485
9.89206
9.85411
9.8106
9.76081
9.70369
9.63831
9.56324
9.47729
9.37919
9.26778
9.14158
8.99942
8.83996
8.66223
8.46554
8.25022
8.01605
7.76689
7.49641
1.5562
4.81981
11.1574
10.8508
10.1586
9.8972
9.90916
9.95827
10.0145
10.0388
10.0444
10.0459
10.0479
10.0497
10.0504
10.05
10.0485
10.045
10.0402
10.0343
10.0272
10.0187
10.0086
9.99682
9.98299
9.96699
9.94854
9.92745
9.90331
9.87582
9.84444
9.80875
9.76827
9.72229
9.67019
9.61104
9.54414
9.46866
9.38381
9.2885
9.18179
9.06244
8.92945
8.78201
8.61981
8.44279
8.25115
8.04429
7.82584
7.59106
1.52701
4.76222
10.9498
10.7261
10.1499
9.90176
9.90258
9.93185
9.98051
10.0038
10.0096
10.0104
10.011
10.0113
10.0108
10.0091
10.0055
10.0004
9.99413
9.98673
9.9779
9.96751
9.95536
9.94136
9.92525
9.90696
9.88612
9.86261
9.83598
9.80601
9.77228
9.73438
9.69183
9.64406
9.59057
9.53071
9.46382
9.38917
9.30608
9.2137
9.11122
8.99809
8.87379
8.73787
8.58982
8.42934
8.25653
8.07354
7.8808
7.67477
1.51092
4.7167
10.8665
10.7311
10.2332
9.94036
9.8884
9.9067
9.9461
9.97023
9.97698
9.97671
9.97555
9.97324
9.97035
9.96652
9.96144
9.95507
9.94742
9.93844
9.92795
9.91586
9.90198
9.88625
9.8684
9.84832
9.82568
9.80035
9.77195
9.74022
9.70485
9.66542
9.62163
9.57295
9.5189
9.45898
9.3927
9.3195
9.23881
9.15
9.05252
8.9459
8.82974
8.70372
8.56771
8.4218
8.26634
8.10198
7.92998
7.74735
1.66795
3.29172
10.5043
11.0119
10.5962
10.0763
9.88807
9.892
9.91722
9.95029
9.96102
9.95986
9.95591
9.94956
9.94372
9.93779
9.93088
9.92262
9.91297
9.9019
9.88934
9.87512
9.8591
9.84129
9.82141
9.79927
9.77459
9.74726
9.71692
9.6834
9.64635
9.60544
9.56032
9.51061
9.45592
9.39591
9.33023
9.25843
9.18007
9.09473
9.00191
8.90131
8.79268
8.67576
8.55055
8.41719
8.27598
8.12742
7.97267
7.80925
1.67585
3.16802
10.4383
11.1638
10.7152
10.1112
9.86629
9.85338
9.87112
9.9033
9.91374
9.91188
9.90587
9.89653
9.8889
9.88237
9.87542
9.86721
9.85755
9.8464
9.83372
9.81937
9.80322
9.78507
9.7648
9.74222
9.71705
9.68918
9.65827
9.6242
9.58664
9.54539
9.5002
9.45078
9.39688
9.33809
9.27401
9.20428
9.12861
9.04658
8.95795
8.86257
8.7604
8.65158
8.53593
8.41353
8.28457
8.1495
8.00929
7.86181
1.64107
3.05343
9.90941
11.0075
10.6478
10.1088
9.88553
9.86461
9.87558
9.8939
9.89557
9.89162
9.88147
9.86811
9.85693
9.84723
9.83744
9.82668
9.8147
9.80147
9.7869
9.77087
9.7532
9.73371
9.71223
9.6886
9.6626
9.63399
9.60251
9.56798
9.53022
9.489
9.44406
9.39513
9.34196
9.28423
9.22167
9.15402
9.08105
9.00263
8.91869
8.82899
8.73334
8.63158
8.52362
8.40981
8.29099
8.16749
8.03979
7.90591
1.43568
4.54851
10.334
10.5108
10.2185
9.92392
9.81595
9.81332
9.8216
9.8321
9.83202
9.82849
9.81945
9.80749
9.79724
9.78811
9.77862
9.768
9.7561
9.74291
9.72836
9.7123
9.69458
9.67503
9.65351
9.62983
9.60385
9.5753
9.54401
9.5099
9.47271
9.43217
9.38811
9.3403
9.28852
9.23254
9.17215
9.10715
9.03739
8.96273
8.88304
8.7982
8.70815
8.6129
8.51284
8.40808
8.29851
8.18433
8.06657
7.94376
1.6334
3.00197
9.72423
10.8952
10.5806
10.0803
9.86073
9.8264
9.83175
9.83822
9.83546
9.82631
9.80963
9.79382
9.78022
9.76766
9.75483
9.74099
9.72597
9.70987
9.69269
9.6742
9.65423
9.63262
9.60918
9.5838
9.55631
9.52666
9.49469
9.46007
9.42261
9.3821
9.33839
9.29132
9.24067
9.18622
9.12779
9.06522
8.99836
8.9271
8.85134
8.77107
8.68627
8.59698
8.50336
8.40552
8.30361
8.19803
8.08935
7.97635
1.64226
2.93379
9.72546
11.0203
10.6392
10.048
9.79066
9.75708
9.76723
9.78289
9.7818
9.77466
9.75871
9.74162
9.72778
9.71565
9.7034
9.69031
9.67619
9.66082
9.64405
9.62584
9.60609
9.58468
9.56149
9.53635
9.50913
9.47968
9.44786
9.4135
9.37645
9.33657
9.29369
9.24758
9.19811
9.14517
9.08863
9.02838
8.96431
8.89633
8.82438
8.74841
8.66842
8.58446
8.49662
8.40503
8.3099
8.21167
8.11078
8.00598
1.64057
2.91449
9.67096
10.9987
10.6141
10.0079
9.74116
9.70597
9.71711
9.73544
9.73494
9.72871
9.71374
9.69614
9.68202
9.66996
9.65787
9.64481
9.63054
9.615
9.59812
9.57982
9.56002
9.53858
9.51539
9.49031
9.46322
9.43398
9.40247
9.36855
9.33209
9.29296
9.25101
9.20609
9.15808
9.10686
9.05237
8.9945
8.93319
8.86836
8.79997
8.72798
8.6524
8.5733
8.49079
8.40503
8.31606
8.22425
8.13005
8.03233
1.6262
2.92306
9.50285
10.858
10.5483
9.99725
9.74154
9.69358
9.69828
9.70657
9.70425
9.69571
9.6785
9.66178
9.64746
9.63437
9.62116
9.60712
9.59201
9.57576
9.55831
9.53955
9.51935
9.4976
9.47418
9.44897
9.42185
9.3927
9.36141
9.32785
9.2919
9.25342
9.21231
9.16849
9.12187
9.07238
9.01988
8.9643
8.90556
8.84366
8.77853
8.71018
8.63862
8.56392
8.48616
8.40547
8.32208
8.23609
8.14781
8.05621
1.3939
4.48119
10.033
10.3029
10.0224
9.73487
9.627
9.61784
9.62324
9.62982
9.62876
9.62355
9.61223
9.59953
9.58808
9.57723
9.56588
9.55344
9.53972
9.52467
9.50826
9.49043
9.4711
9.45019
9.4276
9.40322
9.37694
9.34866
9.31831
9.28579
9.25099
9.21381
9.17416
9.13197
9.08714
9.03961
8.98928
8.93608
8.88
8.82101
8.75911
8.69432
8.62664
8.55609
8.48272
8.40663
8.32802
8.24697
8.16382
8.07762
1.63142
2.94676
9.59018
10.8413
10.4975
9.9086
9.63496
9.59252
9.60281
9.62326
9.62485
9.62019
9.6078
9.59049
9.57556
9.56245
9.54923
9.53497
9.51941
9.50252
9.4844
9.46488
9.44399
9.42173
9.39803
9.37276
9.34578
9.31697
9.28623
9.25347
9.21866
9.18177
9.14274
9.10144
9.05779
9.01171
8.96314
8.91201
8.85827
8.80185
8.74274
8.68093
8.61645
8.54937
8.47978
8.40779
8.33352
8.25704
8.17858
8.09723
1.64165
3.07638
9.86334
10.7732
10.3909
9.77893
9.51688
9.49666
9.51398
9.54681
9.55629
9.55364
9.54529
9.53107
9.51859
9.50772
9.49666
9.48437
9.47062
9.45549
9.43915
9.42152
9.4024
9.38165
9.35919
9.33498
9.30903
9.28128
9.25167
9.22016
9.18669
9.15116
9.11349
9.07362
9.03147
8.987
8.94017
8.89093
8.83926
8.78514
8.72858
8.66962
8.60828
8.54452
8.47842
8.41004
8.3395
8.26689
8.19243
8.11525
1.40404
4.54511
10.1017
10.1576
9.85205
9.54477
9.44523
9.45053
9.46991
9.4899
9.49565
9.49414
9.48912
9.47968
9.47036
9.4613
9.45154
9.44045
9.42788
9.41386
9.39842
9.38151
9.36305
9.34297
9.32124
9.29783
9.27271
9.24584
9.21713
9.18655
9.15409
9.11969
9.08329
9.04483
9.00426
8.96152
8.9166
8.86943
8.82002
8.76834
8.71438
8.65813
8.59964
8.53899
8.47619
8.41132
8.34442
8.27555
8.20487
8.13161
1.38797
4.55487
9.9981
10.0236
9.78205
9.55
9.46765
9.465
9.47116
9.48057
9.48227
9.4802
9.47427
9.46425
9.45396
9.44355
9.43235
9.41997
9.40629
9.39133
9.37507
9.3575
9.33855
9.31817
9.2963
9.27289
9.24788
9.22124
9.19294
9.16292
9.13108
9.09738
9.06176
9.02418
8.98459
8.94297
8.89926
8.85341
8.80551
8.75564
8.70374
8.64976
8.59368
8.53555
8.47539
8.41322
8.34913
8.28324
8.2157
8.14576
1.42116
4.56829
10.2101
10.1804
9.79701
9.46156
9.36829
9.38025
9.41146
9.43596
9.44291
9.44155
9.43696
9.42837
9.41943
9.41032
9.40037
9.38909
9.37635
9.36216
9.34654
9.32944
9.31087
9.29083
9.26928
9.2462
9.22155
9.19529
9.16742
9.13789
9.10664
9.07363
9.03881
9.00218
8.96373
8.92344
8.88131
8.83734
8.79142
8.74347
8.69353
8.64164
8.58783
8.53211
8.4745
8.41504
8.3538
8.29081
8.2262
8.15912
1.53213
3.35122
9.88579
10.7054
10.3179
9.67553
9.3915
9.3656
9.38323
9.41911
9.4333
9.43228
9.42765
9.4179
9.40745
9.39745
9.38702
9.37538
9.36231
9.34779
9.3319
9.31464
9.29598
9.27588
9.25429
9.23118
9.20646
9.1801
9.15224
9.12275
9.09159
9.05872
9.02418
8.98794
8.94999
8.9103
8.86888
8.82568
8.7807
8.73391
8.68534
8.63504
8.58288
8.52891
8.47324
8.41591
8.35697
8.29646
8.23448
8.17035
1.39635
4.53359
10.0636
10.0933
9.79044
9.46544
9.34346
9.34188
9.35328
9.37475
9.3836
9.38291
9.37941
9.37179
9.36284
9.3541
9.34491
9.33457
9.32278
9.30954
9.29489
9.27883
9.26134
9.24238
9.22191
9.1999
9.17633
9.1512
9.12453
9.09629
9.06646
9.03506
9.00202
8.9673
8.93085
8.89267
8.85275
8.81111
8.76772
8.72259
8.67571
8.62707
8.57679
8.5249
8.47139
8.41628
8.35962
8.30145
8.24192
8.18049
1.39374
4.53071
10.0461
10.0804
9.77385
9.44605
9.32585
9.32615
9.33871
9.36147
9.37088
9.37
9.36596
9.35741
9.34775
9.33827
9.32832
9.31722
9.30472
9.29085
9.27565
9.25916
9.24135
9.2222
9.20169
9.17979
9.1565
9.13182
9.10562
9.07786
9.04852
9.01757
8.98505
8.95096
8.91532
8.87808
8.83923
8.79874
8.75662
8.71287
8.66748
8.62048
8.57188
8.52171
8.46998
8.41672
8.36195
8.30573
8.24813
8.18868
1.53032
3.33922
9.84635
10.6862
10.3003
9.63569
9.33168
9.29586
9.3124
9.3472
9.36245
9.36157
9.35703
9.34721
9.3364
9.32645
9.3164
9.30537
9.29295
9.27919
9.26409
9.2477
9.22997
9.21089
9.19042
9.16848
9.14522
9.12051
9.09432
9.06662
9.03741
9.00669
8.97447
8.94076
8.90555
8.8688
8.83053
8.79072
8.74937
8.70648
8.66206
8.61612
8.56867
8.51973
8.46932
8.41749
8.36424
8.30964
8.25379
8.19627
1.40776
4.54719
10.1161
10.0901
9.70523
9.35234
9.24207
9.25131
9.28058
9.30959
9.31922
9.31831
9.31444
9.30642
9.29778
9.28931
9.28028
9.27008
9.25852
9.24561
9.2314
9.2159
9.1991
9.18097
9.16149
9.14064
9.11841
9.09478
9.06971
9.0432
9.01521
8.9858
8.95493
8.92259
8.88876
8.85342
8.81658
8.77824
8.73842
8.69708
8.65421
8.60981
8.56392
8.51655
8.46774
8.4175
8.36584
8.31285
8.25862
8.20275
1.3927
4.55501
10.0051
9.97961
9.66712
9.38682
9.29828
9.30128
9.31344
9.32427
9.32483
9.32234
9.31575
9.30568
9.29566
9.28575
9.27525
9.26372
9.25103
9.23717
9.22215
9.20598
9.18862
9.17007
9.15028
9.12923
9.10691
9.08329
9.05835
9.03209
9.00449
8.9755
8.94509
8.91323
8.87992
8.84516
8.80892
8.77122
8.73206
8.69146
8.64945
8.60601
8.56115
8.51486
8.46718
8.4181
8.3677
8.31594
8.26287
8.20804
1.38472
4.54732
9.95647
9.94535
9.65719
9.38555
9.29325
9.29253
9.29868
9.3064
9.30647
9.30422
9.29809
9.2882
9.27828
9.26849
9.25816
9.24687
9.2345
9.22103
9.20646
9.19074
9.17385
9.15576
9.13643
9.11586
9.09401
9.07088
9.04643
9.02066
8.99354
8.96505
8.93517
8.90391
8.87125
8.8372
8.80176
8.76491
8.72665
8.68696
8.64585
8.60332
8.55939
8.51406
8.46738
8.41941
8.3701
8.31942
8.26741
8.21359
1.3768
4.50871
9.91673
10.0296
9.72944
9.40166
9.28041
9.27635
9.28495
9.2973
9.29941
9.29707
9.2904
9.27937
9.26868
9.25854
9.24808
9.23668
9.22417
9.21054
9.1958
9.17994
9.16293
9.14476
9.1254
9.10483
9.08303
9.05999
9.03569
9.0101
8.98322
8.95502
8.9255
8.89464
8.86243
8.82887
8.79394
8.75765
8.71998
8.68094
8.64053
8.59877
8.55567
8.51126
8.46551
8.41839
8.36996
8.32025
8.26931
8.21677
1.62604
2.96795
9.51854
10.616
10.2718
9.64598
9.33635
9.27041
9.27796
9.29615
9.30362
9.30137
9.29385
9.2795
9.26632
9.25501
9.24416
9.23263
9.22
9.20624
9.19139
9.17546
9.15844
9.1403
9.121
9.10051
9.07881
9.05589
9.03171
9.00628
8.97956
8.95155
8.92223
8.89159
8.85962
8.82631
8.79167
8.75568
8.71834
8.67966
8.63964
8.59829
8.55563
8.51166
8.4664
8.41986
8.3721
8.3232
8.2732
8.2218
1.63534
2.85254
9.48056
10.8199
10.4138
9.6754
9.30802
9.2299
9.24044
9.26638
9.28107
9.27986
9.27375
9.26041
9.24629
9.23472
9.22429
9.21339
9.20132
9.18803
9.17361
9.15811
9.14153
9.12383
9.10498
9.08497
9.06376
9.04134
9.0177
8.99281
8.96666
8.93924
8.91053
8.88052
8.84921
8.81658
8.78263
8.74735
8.71075
8.67282
8.63357
8.59301
8.55113
8.50794
8.46346
8.41772
8.37076
8.32263
8.27341
8.22284
1.6264
2.96107
9.50323
10.6065
10.2623
9.62983
9.31213
9.24438
9.25275
9.27335
9.28354
9.28167
9.27464
9.26027
9.24642
9.23471
9.22377
9.21228
9.19973
9.18605
9.17132
9.15557
9.13878
9.12092
9.10197
9.08189
9.06066
9.03825
9.01465
8.98985
8.96381
8.93654
8.908
8.87819
8.84711
8.81473
8.78105
8.74607
8.70979
8.6722
8.63331
8.59311
8.55163
8.50886
8.46482
8.41952
8.373
8.32526
8.27637
8.22593
1.37378
4.5054
9.89734
10.0098
9.70557
9.36357
9.23488
9.23041
9.23992
9.25448
9.25761
9.2554
9.24891
9.23796
9.22737
9.21745
9.20727
9.19623
9.18413
9.17096
9.15676
9.14153
9.12526
9.10791
9.08947
9.0699
9.04919
9.02731
9.00425
8.97998
8.9545
8.92778
8.89981
8.87058
8.84008
8.80829
8.77522
8.74084
8.70517
8.66819
8.62991
8.59032
8.54943
8.50725
8.4638
8.41909
8.37312
8.32588
8.27738
8.22713
1.37955
4.54069
9.92199
9.90476
9.60539
9.32841
9.24049
9.24278
9.25347
9.26345
9.2637
9.26112
9.25419
9.24337
9.23278
9.22252
9.21183
9.20025
9.18767
9.17409
9.15952
9.14395
9.12735
9.10971
9.09099
9.07116
9.05022
9.02814
9.00489
8.98047
8.95485
8.92802
8.89997
8.87067
8.84012
8.80831
8.77523
8.74088
8.70524
8.66833
8.63013
8.59064
8.54989
8.50786
8.46458
8.42005
8.37429
8.32732
8.27914
8.22944
1.40377
4.56191
10.0524
9.98532
9.59046
9.27442
9.19154
9.20313
9.23284
9.25328
9.25587
9.25322
9.24621
9.23585
9.22592
9.21625
9.20599
9.19474
9.18242
9.16907
9.15473
9.13937
9.12298
9.10553
9.08701
9.06738
9.04664
9.02475
9.0017
8.97748
8.95205
8.92542
8.89756
8.86846
8.83811
8.80649
8.77361
8.73945
8.70401
8.66729
8.62928
8.58999
8.54943
8.5076
8.46451
8.42017
8.37462
8.32786
8.27996
8.23068
3.04315
2.45696
3.00066
4.17839
4.12452
4.10847
4.04773
4.01004
3.99707
3.9997
4.02712
4.07051
4.10754
4.13827
4.17228
4.21501
4.26666
4.32474
4.38637
4.44928
4.51171
4.57246
4.63106
4.68802
4.73903
4.78443
4.82413
4.85861
4.88774
4.91182
4.93079
4.94491
4.95422
4.95901
4.9594
4.95778
4.95244
4.94113
4.92565
4.90786
4.88779
4.86542
4.84084
4.81434
4.78617
4.75662
4.72591
4.69432
4.66206
4.62936
4.59642
4.56347
4.53071
4.49833
4.46653
4.43552
4.40549
4.37663
4.34915
4.32324
4.29908
4.27688
4.25681
4.23903
4.22371
4.21098
4.20091
4.19357
4.18893
4.187
4.18712
4.18796
4.19049
4.19629
4.20759
4.2203
4.23338
4.2467
4.2601
4.27328
4.28589
4.2976
4.30814
4.31733
4.32504
4.33121
4.33584
4.33896
4.34071
4.34124
4.34116
4.34076
4.33967
4.33726
4.33321
4.32875
4.32419
4.31951
4.31452
4.31023
4.09534
3.55236
3.75461
4.23269
4.15057
4.09416
4.03508
3.9948
3.98299
3.99505
4.03588
4.08611
4.11787
4.13991
4.169
4.20991
4.26116
4.31916
4.38067
4.44346
4.50581
4.56671
4.62559
4.68228
4.73337
4.77877
4.8186
4.85318
4.88249
4.90668
4.92578
4.93999
4.94938
4.95418
4.95441
4.95322
4.94895
4.93894
4.92194
4.90351
4.88361
4.86157
4.83725
4.8109
4.78286
4.75341
4.72283
4.69134
4.65919
4.62658
4.59375
4.56088
4.52819
4.49588
4.46415
4.43319
4.40321
4.37439
4.34695
4.32106
4.29693
4.27475
4.2547
4.23695
4.22165
4.20896
4.19896
4.19172
4.18726
4.1858
4.18601
4.18696
4.18955
4.19529
4.20654
4.21952
4.23298
4.2466
4.26021
4.27356
4.28631
4.29814
4.30878
4.31804
4.32578
4.33196
4.33657
4.33968
4.34136
4.3418
4.3417
4.34129
4.34019
4.33781
4.33364
4.32905
4.32441
4.31979
4.31504
4.31238
5.22462
4.4633
4.23441
4.26625
4.24716
4.19493
4.11326
4.06042
4.04019
4.04258
4.05487
4.08383
4.11913
4.15051
4.18369
4.22437
4.27332
4.32887
4.38824
4.44917
4.50995
4.56942
4.62676
4.68132
4.73155
4.77644
4.81585
4.84995
4.87882
4.90259
4.92133
4.93517
4.94421
4.94858
4.9485
4.94741
4.94376
4.93512
4.91781
4.89839
4.87789
4.85573
4.83153
4.80535
4.77743
4.74809
4.71761
4.68623
4.6542
4.62171
4.589
4.55625
4.52367
4.49146
4.45983
4.42897
4.39908
4.37035
4.34299
4.31718
4.29313
4.27102
4.25104
4.23337
4.21818
4.2056
4.19577
4.18876
4.1847
4.18394
4.18423
4.18533
4.18809
4.19403
4.20519
4.21839
4.23233
4.24649
4.26055
4.27425
4.28729
4.29934
4.31015
4.31952
4.32731
4.33349
4.33804
4.34103
4.34268
4.34291
4.34277
4.34229
4.34108
4.33852
4.33426
4.32953
4.32477
4.32019
4.31562
4.31466
5.82805
5.09479
4.66174
4.46523
4.42649
4.361
4.26906
4.18878
4.13684
4.11629
4.11853
4.12943
4.15533
4.19234
4.22595
4.26087
4.30173
4.34944
4.40247
4.45854
4.51559
4.57214
4.62695
4.6793
4.72776
4.77155
4.81017
4.84352
4.8717
4.89486
4.91305
4.92638
4.93495
4.93875
4.93858
4.93745
4.93407
4.92629
4.91038
4.89025
4.86886
4.84627
4.82206
4.79608
4.76843
4.73936
4.70914
4.67803
4.64625
4.61402
4.58155
4.54904
4.5167
4.48472
4.45331
4.42266
4.39297
4.36444
4.33727
4.31165
4.28779
4.26586
4.24607
4.22859
4.2136
4.20125
4.19168
4.18508
4.18158
4.18152
4.1819
4.18321
4.18632
4.19284
4.20385
4.2171
4.23149
4.24627
4.26095
4.27516
4.28856
4.30089
4.31188
4.32136
4.3292
4.33536
4.33986
4.34279
4.34423
4.34421
4.34401
4.34339
4.34195
4.33901
4.33477
4.33
4.32513
4.32056
4.31622
4.31632
6.2311
5.59599
5.12118
4.83192
4.68314
4.57041
4.45925
4.35787
4.28037
4.23276
4.21279
4.21369
4.21989
4.23614
4.26864
4.30146
4.33774
4.37902
4.42514
4.47488
4.5267
4.57901
4.63038
4.67966
4.72581
4.76786
4.80522
4.83743
4.86461
4.88695
4.90434
4.91694
4.92487
4.9279
4.92764
4.92639
4.92303
4.91558
4.90051
4.88073
4.85891
4.83576
4.81125
4.78528
4.75783
4.72905
4.69915
4.66835
4.63688
4.60496
4.57279
4.54059
4.50855
4.47687
4.44576
4.4154
4.38601
4.35778
4.33091
4.30558
4.28201
4.26038
4.24089
4.22372
4.20905
4.19705
4.18792
4.18182
4.17906
4.17917
4.17979
4.18147
4.18517
4.19261
4.20338
4.21651
4.23113
4.24641
4.26166
4.27638
4.29017
4.30275
4.3139
4.32345
4.33131
4.33743
4.34186
4.34466
4.34574
4.34566
4.34532
4.34446
4.34263
4.33936
4.33513
4.33035
4.3254
4.32083
4.31682
4.31713
6.53819
6.003
5.54824
5.20435
4.97135
4.80505
4.66814
4.54903
4.451
4.37886
4.33346
4.31148
4.31112
4.31429
4.32494
4.34805
4.38039
4.41637
4.45513
4.49703
4.54168
4.58795
4.63438
4.67968
4.7227
4.76244
4.79805
4.82901
4.85515
4.87654
4.89301
4.90486
4.91212
4.91436
4.91403
4.91268
4.90923
4.90182
4.8872
4.86826
4.84657
4.8231
4.79827
4.77219
4.74489
4.71642
4.6869
4.65652
4.62548
4.59398
4.56223
4.53043
4.49881
4.46755
4.43686
4.40694
4.37798
4.35019
4.32375
4.29886
4.27574
4.25456
4.23552
4.21879
4.20459
4.19312
4.18456
4.17899
4.17705
4.17726
4.1781
4.18021
4.18466
4.19285
4.20367
4.21669
4.23133
4.24682
4.26241
4.27748
4.29157
4.30435
4.31559
4.32516
4.333
4.33911
4.34345
4.34608
4.34679
4.34667
4.34621
4.34513
4.34289
4.3394
4.33509
4.33027
4.32529
4.32074
4.31699
4.3174
6.78243
6.33182
5.91414
5.55496
5.27434
5.06264
4.89501
4.75516
4.63814
4.54466
4.47593
4.4311
4.40755
4.40157
4.40318
4.40983
4.42552
4.45396
4.48573
4.52098
4.55899
4.59886
4.63957
4.68014
4.71944
4.75636
4.78989
4.81935
4.84433
4.8647
4.8804
4.89149
4.89803
4.89949
4.89909
4.89762
4.894
4.88637
4.87223
4.85398
4.83268
4.80923
4.78426
4.75811
4.73091
4.70271
4.67359
4.64368
4.61312
4.58211
4.55086
4.51957
4.48846
4.45772
4.42756
4.39817
4.36976
4.34253
4.31666
4.29235
4.26981
4.24923
4.23079
4.21471
4.20113
4.19026
4.18229
4.17732
4.17623
4.17652
4.17758
4.18009
4.18531
4.19409
4.20516
4.21815
4.23263
4.248
4.26357
4.27869
4.29287
4.30571
4.31699
4.32657
4.33437
4.34038
4.34458
4.34707
4.34746