/*--------------------------------*- C++ -*----------------------------------*\
| =========                 |                                                 |
| \\      /  F ield         | OpenFOAM: The Open Source CFD Toolbox           |
|  \\    /   O peration     | Version:  2412                                  |
|   \\  /    A nd           | Website:  www.openfoam.com                      |
|    \\/     M anipulation  |                                                 |
\*---------------------------------------------------------------------------*/
FoamFile
{
    version     2.0;
    format      ascii;
    arch        "LSB;label=32;scalar=64";
    class       surfaceScalarField;
    location    "18";
    object      phi;
}
// * * * * * * * * * * * * * * * * * * * * * * * * * * * * * * * * * * * * * //

dimensions      [1 0 -1 0 0 0 0];

oriented        oriented;

internalField   nonuniform List<scalar> 
13790
(
0.00292375
-1.97204e-07
0.00274461
9.31101e-07
0.00280398
3.2543e-06
0.00280523
5.59081e-06
0.00279919
6.47825e-06
0.00279205
7.1703e-06
0.00278409
7.96314e-06
0.00277517
8.91333e-06
0.00276517
1.00012e-05
0.00275392
1.12458e-05
0.00274135
1.25781e-05
0.00272738
1.39595e-05
0.00271199
1.53924e-05
0.0026951
1.68936e-05
0.00267662
1.84759e-05
0.00265648
2.01449e-05
0.00263458
2.19039e-05
0.00261082
2.37575e-05
0.00258511
2.57114e-05
0.00255734
2.77734e-05
0.00252739
2.99514e-05
0.00249514
3.22543e-05
0.00246045
3.46911e-05
0.00242318
3.7272e-05
0.00238318
4.00069e-05
0.00234027
4.29071e-05
0.00229429
4.59832e-05
0.00224505
4.92465e-05
0.00219235
5.27075e-05
0.00213597
5.63763e-05
0.00207572
6.02619e-05
0.00201135
6.4371e-05
0.00194265
6.87087e-05
0.00186938
7.32753e-05
0.00179131
7.80681e-05
0.00170824
8.30759e-05
0.00161996
8.82834e-05
0.00152631
9.36614e-05
0.00142714
9.91758e-05
0.00132237
0.000104772
0.00121198
0.000110391
0.00109604
0.000115946
0.000974688
0.000121356
0.000848194
0.000126499
0.000716903
0.000131294
0.000581299
0.000135607
0.000441827
0.000139475
0.000299154
0.000142671
0.000152277
0.000146881
0.000152282
0.00303217
2.04185e-08
0.00284628
8.42611e-07
0.00290646
8.61901e-06
0.00290777
1.12951e-05
0.0029019
1.28183e-05
0.00289471
1.43858e-05
0.00288651
1.61592e-05
0.00287726
1.81622e-05
0.00286686
2.04024e-05
0.00285519
2.29185e-05
0.00284215
2.56112e-05
0.00282769
2.84166e-05
0.00281175
3.13355e-05
0.00279425
3.4396e-05
0.00277511
3.76195e-05
0.00275423
4.10189e-05
0.00273154
4.46005e-05
0.00270692
4.83752e-05
0.00268028
5.23538e-05
0.0026515
5.65533e-05
0.00262047
6.0988e-05
0.00258705
6.5678e-05
0.0025511
7.06397e-05
0.00251248
7.58959e-05
0.00247102
8.14651e-05
0.00242656
8.73719e-05
0.00237891
9.36365e-05
0.00232788
0.000100283
0.00227326
0.000107333
0.00221483
0.000114807
0.00215237
0.000122724
0.00208565
0.000131097
0.00201443
0.000139938
0.00193846
0.000149247
0.00185751
0.000159022
0.00177136
0.000169236
0.00167978
0.000179866
0.0015826
0.000190845
0.00147967
0.000202114
0.00137089
0.000213554
0.00125623
0.000225054
0.00113575
0.000236432
0.00100958
0.000247527
0.000877991
0.000258096
0.000741343
0.000267945
0.0006001
0.000276854
0.000454831
0.000284745
0.000306078
0.000291422
0.000154197
0.000298767
0.000306483
0.00314488
9.21626e-08
0.0029518
1.21257e-06
0.0030144
1.38938e-05
0.00301567
1.72852e-05
0.00300968
1.93063e-05
0.00300236
2.17347e-05
0.00299393
2.45855e-05
0.00298437
2.77174e-05
0.00297361
3.1171e-05
0.00296152
3.50048e-05
0.00294803
3.90975e-05
0.00293308
4.33684e-05
0.00291659
4.78285e-05
0.00289848
5.25031e-05
0.00287867
5.74309e-05
0.00285707
6.26188e-05
0.00283358
6.80912e-05
0.0028081
7.38503e-05
0.00278053
7.99293e-05
0.00275075
8.6336e-05
0.00271863
9.31119e-05
0.00268404
0.000100266
0.00264684
0.000107847
0.00260687
0.000115865
0.00256397
0.000124374
0.00251796
0.000133385
0.00246864
0.000142958
0.00241583
0.000153099
0.00235929
0.000163875
0.00229882
0.00017528
0.00223416
0.000187385
0.0021651
0.000200169
0.00209135
0.000213694
0.00201268
0.000227917
0.00192883
0.000242878
0.00183957
0.000258503
0.00174466
0.000274783
0.0016439
0.000291605
0.00153714
0.000308881
0.00142425
0.000326448
0.00130521
0.0003441
0.00118002
0.000361632
0.00104886
0.00037868
0.000911923
0.000395043
0.000769646
0.000410225
0.000622481
0.000424023
0.000471041
0.000436188
0.000316154
0.000446306
0.000158588
0.000456338
0.000465076
0.00326181
1.16199e-07
0.00306155
1.67012e-06
0.00312672
1.90977e-05
0.00312803
2.34798e-05
0.00312185
2.60017e-05
0.00311437
2.9255e-05
0.00310573
3.32197e-05
0.00309589
3.75554e-05
0.00308477
4.22928e-05
0.00307228
4.74923e-05
0.00305836
5.30205e-05
0.00304292
5.88066e-05
0.00302589
6.48554e-05
0.00300718
7.12069e-05
0.00298672
7.78922e-05
0.00296441
8.49379e-05
0.00294014
9.23568e-05
0.00291382
0.000100177
0.00288533
0.000108416
0.00285455
0.000117116
0.00282137
0.000126297
0.00278563
0.000136013
0.00274719
0.000146283
0.00270589
0.000157173
0.00266157
0.000168698
0.00261401
0.00018094
0.00256307
0.000193905
0.00250849
0.000207688
0.00245008
0.000222281
0.00238758
0.000237793
0.00232078
0.000254188
0.00224936
0.000271589
0.00217315
0.000289915
0.00209178
0.000309294
0.00200508
0.000329582
0.00191269
0.000350899
0.00181447
0.000373008
0.00171009
0.000395993
0.00159946
0.000419508
0.00148237
0.000443548
0.0013588
0.000467671
0.00122877
0.00049167
0.00109233
0.000515119
0.000949905
0.000537477
0.000801595
0.000558538
0.000648222
0.0005774
0.000490295
0.000594118
0.000328657
0.000607942
0.000164755
0.000620246
0.000629836
0.00338305
1.39625e-07
0.00317538
2.1596e-06
0.00324313
2.43284e-05
0.00324457
2.98063e-05
0.00323824
3.28711e-05
0.00323057
3.69549e-05
0.00322176
4.20344e-05
0.00321164
4.76642e-05
0.00320019
5.37455e-05
0.00318733
6.03552e-05
0.00317299
6.73582e-05
0.00315709
7.47097e-05
0.00313955
8.23957e-05
0.00312027
9.04842e-05
0.00309918
9.8982e-05
0.00307617
0.00010795
0.00305115
0.000117375
0.003024
0.000127325
0.00299463
0.000137791
0.00296289
0.000148857
0.00292867
0.000160519
0.00289181
0.000172875
0.00285218
0.000185921
0.00280959
0.000199766
0.00276388
0.000214413
0.00271485
0.000229973
0.0026623
0.000246456
0.00260602
0.000263973
0.00254576
0.000282541
0.00248131
0.000302252
0.00241237
0.000323138
0.00233871
0.000345249
0.00226
0.000368629
0.00217604
0.000393262
0.00208643
0.000419196
0.00199103
0.000446303
0.00188941
0.000474643
0.0017815
0.0005039
0.00166687
0.000534149
0.00154561
0.000564816
0.00141732
0.00059596
0.00128227
0.000626725
0.00114037
0.000657027
0.000991892
0.000685955
0.000837444
0.00071299
0.00067713
0.000737717
0.000512216
0.000759034
0.000343463
0.000776692
0.000172029
0.000791686
0.00080187
0.00350881
1.63344e-07
0.00329345
2.65547e-06
0.00336388
2.9603e-05
0.00336548
3.62357e-05
0.00335902
3.99009e-05
0.0033512
4.48175e-05
0.00334214
5.10891e-05
0.00333183
5.79739e-05
0.00332011
6.54684e-05
0.00330691
7.35489e-05
0.00329217
8.20986e-05
0.00327583
9.10462e-05
0.00325779
0.000100441
0.00323797
0.000110299
0.00321626
0.000120693
0.00319259
0.000131616
0.00316683
0.000143139
0.00313891
0.000155249
0.00310866
0.000168043
0.00307601
0.000181507
0.00304077
0.000195762
0.00300286
0.000210789
0.00296205
0.000226737
0.00291824
0.000243573
0.00287118
0.000261478
0.00282075
0.000280403
0.00276666
0.000300557
0.00270876
0.00032187
0.00264673
0.000344579
0.00258041
0.000368584
0.00250942
0.000394132
0.00243357
0.000421098
0.0023525
0.000449709
0.00226595
0.000479813
0.00217359
0.000511568
0.0020751
0.000544798
0.00197023
0.000579522
0.00185859
0.000615542
0.00174012
0.000652631
0.00161435
0.000690591
0.0014815
0.000728808
0.00134105
0.000767188
0.00119353
0.000804542
0.00103873
0.000840766
0.000877281
0.000874442
0.00070996
0.000905043
0.00053702
0.000931977
0.000360109
0.0009536
0.000180616
0.000971184
0.000982492
0.00363925
1.874e-07
0.0034159
3.15315e-06
0.00348914
3.49168e-05
0.00349094
4.27425e-05
0.0034844
4.70411e-05
0.00347644
5.28201e-05
0.00346724
6.02893e-05
0.0034567
6.85081e-05
0.00344472
7.74486e-05
0.0034312
8.70614e-05
0.00341611
9.71937e-05
0.00339935
0.000107806
0.00338084
0.000118943
0.00336049
0.00013065
0.00333822
0.000142971
0.0033139
0.000155937
0.00328745
0.000169585
0.00325874
0.000183957
0.00322769
0.0001991
0.00319412
0.000215076
0.00315795
0.000231938
0.00311897
0.000249771
0.00307709
0.000268624
0.00303205
0.000288609
0.00298377
0.000309766
0.00293193
0.000332242
0.00287644
0.000356051
0.00281694
0.000381382
0.00275331
0.000408209
0.00268513
0.000436767
0.0026123
0.000466968
0.00253431
0.000499091
0.00245107
0.000532957
0.00236202
0.000568871
0.00226704
0.00060655
0.00216559
0.000646256
0.00205751
0.000687607
0.00194233
0.000730728
0.00181984
0.000775131
0.00168977
0.000820671
0.0015518
0.000866778
0.00140618
0.000912811
0.00125238
0.000958344
0.00109116
0.00100199
0.000922275
0.00104333
0.000746685
0.00108064
0.000565524
0.00111314
0.000379425
0.0011397
0.000190143
0.00116047
0.00117264
0.00377455
2.11618e-07
0.00354289
3.64989e-06
0.00361909
4.02528e-05
0.00362112
4.92978e-05
0.00361454
5.4254e-05
0.00360648
6.09236e-05
0.00359716
6.96123e-05
0.00358645
7.92097e-05
0.00357425
8.96497e-05
0.00356047
0.00010084
0.00354505
0.000112611
0.00352792
0.000124936
0.00350899
0.000137873
0.00348816
0.000151476
0.00346535
0.000165789
0.00344044
0.000180846
0.00341334
0.000196688
0.00338393
0.000213366
0.0033521
0.000230935
0.00331771
0.000249465
0.00328062
0.000269026
0.0032407
0.000289699
0.00319776
0.000311569
0.00315164
0.000334729
0.00310213
0.00035928
0.00304906
0.000385316
0.00299215
0.000412962
0.00293124
0.0004423
0.00286597
0.000473483
0.00279618
0.00050656
0.00272144
0.000541715
0.00264161
0.00057893
0.00255613
0.00061844
0.00246492
0.000660092
0.0023673
0.000704176
0.00226321
0.000750348
0.00215194
0.000798889
0.00203342
0.000849249
0.001907
0.00090156
0.00177257
0.000955099
0.00162973
0.00100962
0.00147824
0.00106431
0.0013184
0.00111819
0.00114972
0.00117067
0.000973202
0.00121986
0.000788839
0.00126501
0.000597607
0.00130438
0.000401337
0.00133596
0.000201551
0.00136026
0.0013742
0.00391489
2.35849e-07
0.0036746
4.14244e-06
0.00375391
4.55807e-05
0.00375621
5.58633e-05
0.00374965
6.15007e-05
0.00374153
6.90812e-05
0.0037321
7.90385e-05
0.00372129
9.00184e-05
0.00370893
0.000102009
0.00369493
0.000114837
0.00367924
0.000128302
0.00366178
0.000142391
0.00364248
0.000157184
0.00362122
0.000172734
0.00359791
0.000189094
0.00357246
0.000206294
0.00354477
0.000224388
0.00351471
0.000243424
0.00348217
0.000263478
0.00344702
0.000284616
0.00340911
0.000306932
0.00336831
0.000330507
0.00332443
0.00035545
0.00327731
0.000381858
0.00322674
0.000409853
0.00317251
0.000439547
0.0031144
0.000471073
0.00305216
0.000504554
0.00298552
0.000540122
0.00291418
0.000577913
0.00283786
0.000618038
0.00275615
0.000660643
0.00266883
0.000705772
0.00257533
0.0007536
0.0024755
0.000804013
0.00236861
0.000857243
0.00225461
0.000912896
0.0021326
0.000971262
0.00200263
0.00103154
0.00186378
0.00109396
0.00171611
0.00115729
0.00155899
0.00122144
0.00139228
0.0012849
0.00121642
0.00134654
0.00103078
0.0014055
0.000836901
0.00145889
0.000635269
0.00150601
0.000427009
0.00154422
0.000214238
0.00157304
0.00158844
0.00406046
2.59739e-07
0.00381119
4.62677e-06
0.0038938
5.08531e-05
0.00389644
6.23879e-05
0.00388994
6.87204e-05
0.00388183
7.72411e-05
0.00387241
8.84598e-05
0.00386151
0.000100907
0.00384904
0.000114487
0.00383487
0.000128997
0.00381897
0.000144206
0.00380124
0.000160118
0.00378161
0.000176814
0.00375997
0.00019437
0.00373625
0.000212823
0.00371032
0.000232224
0.00368209
0.000252612
0.00365145
0.000274065
0.00361829
0.000296644
0.00358246
0.00032045
0.00354383
0.000345561
0.00350224
0.000372099
0.00345754
0.000400155
0.00340953
0.000429875
0.00335802
0.000461362
0.00330279
0.00049478
0.00324362
0.000530246
0.00318024
0.00056794
0.00311239
0.000607981
0.00303975
0.00065056
0.002962
0.000695787
0.0028788
0.000743853
0.00278975
0.000794832
0.00269446
0.000848891
0.00259244
0.000906042
0.00248333
0.00096636
0.00236645
0.00102978
0.00224157
0.00109615
0.00210777
0.00116534
0.00196502
0.00123671
0.00181221
0.00131011
0.00164955
0.0013841
0.00147605
0.00145841
0.00129188
0.00153072
0.00109755
0.00159983
0.00089239
0.00166406
0.000678296
0.00172011
0.000456703
0.00176581
0.000229847
0.0017999
0.0018183
0.00421146
2.83045e-07
0.00395286
5.0969e-06
0.00403897
5.60071e-05
0.00404202
6.88071e-05
0.00403564
7.58701e-05
0.00402759
8.53297e-05
0.00401818
9.7875e-05
0.00400732
0.000111754
0.00399483
0.00012698
0.00398059
0.00014324
0.00396453
0.000160261
0.00394661
0.000178044
0.00392672
0.000196703
0.00390478
0.000216307
0.00388069
0.000236912
0.00385437
0.000258551
0.00382569
0.000281291
0.00379456
0.000305193
0.00376086
0.000330351
0.00372446
0.000356854
0.00368521
0.000384813
0.00364297
0.00041434
0.00359756
0.000445564
0.00354882
0.000478621
0.00349653
0.000513656
0.00344049
0.00055083
0.00338044
0.000590298
0.00331614
0.000632245
0.0032473
0.000676829
0.0031736
0.000724259
0.00309472
0.000774677
0.00301027
0.000828307
0.00291986
0.000885252
0.00282303
0.000945729
0.00271931
0.00100976
0.00260816
0.00107752
0.00248906
0.00114889
0.00236132
0.0012239
0.00222445
0.00130222
0.00207756
0.00138361
0.00192032
0.00146735
0.00175165
0.00155279
0.00157155
0.00163851
0.00137891
0.00172337
0.00117399
0.00180476
0.00095771
0.00188034
0.000729817
0.00194801
0.000492286
0.00200334
0.0002475
0.00204469
0.0020658
0.00436809
3.03764e-07
0.00409979
5.54807e-06
0.00418964
6.09404e-05
0.00419318
7.50448e-05
0.00418701
8.2874e-05
0.00417913
9.32526e-05
0.0041699
0.000107108
0.00415912
0.000122523
0.00414666
0.000139439
0.0041324
0.000157501
0.00411628
0.000176378
0.00409823
0.000196099
0.00407817
0.000216761
0.004056
0.000238476
0.00403165
0.000261264
0.004005
0.000285201
0.00397598
0.000310313
0.00394445
0.000336721
0.00391033
0.000364471
0.00387346
0.000393724
0.00383374
0.000424537
0.00379098
0.000457105
0.00374505
0.000491496
0.00369574
0.000527943
0.00364287
0.000566523
0.0035862
0.000607504
0.00352553
0.000650974
0.00346055
0.000697231
0.00339101
0.000746371
0.00331656
0.000798718
0.00323688
0.000854366
0.00315154
0.000913649
0.00306015
0.00097665
0.00296222
0.00104367
0.0028572
0.00111478
0.00274457
0.00119017
0.0026236
0.00126986
0.0024937
0.0013538
0.00235395
0.00144198
0.00220375
0.00153381
0.00204193
0.00162917
0.00186803
0.0017267
0.00168074
0.00182581
0.00147989
0.00192422
0.00126434
0.0020203
0.001034
0.00211069
0.000790427
0.00219158
0.000534711
0.00225905
0.000270094
0.00230931
0.0023359
0.00453056
3.16384e-07
0.00425216
5.98532e-06
0.00434607
6.55064e-05
0.00435018
8.10288e-05
0.00434425
8.96876e-05
0.0043367
0.000100859
0.00432769
0.000116117
0.00431714
0.000133064
0.00430485
0.000151731
0.00429068
0.000171667
0.00427458
0.00019248
0.00425649
0.000214182
0.00423634
0.000236914
0.00421405
0.00026077
0.00418951
0.000285801
0.00416266
0.000312053
0.00413338
0.000339593
0.0041016
0.000368507
0.00406717
0.000398902
0.00403
0.000430892
0.00398993
0.000464608
0.00394685
0.000500192
0.00390055
0.000537799
0.0038509
0.000577598
0.00379765
0.000619772
0.00374065
0.000664515
0.00367959
0.000712037
0.00361427
0.000762557
0.00354433
0.000816311
0.00346953
0.000873532
0.00338941
0.000934487
0.00330367
0.000999401
0.00321175
0.00106857
0.00311326
0.00114217
0.00300751
0.00122053
0.00289399
0.0013037
0.00277185
0.00139201
0.00264039
0.00148528
0.00249865
0.00158372
0.00234558
0.0016869
0.00218026
0.0017945
0.0020011
0.00190587
0.00180744
0.00201947
0.00159745
0.00213422
0.00137091
0.00224685
0.00112696
0.00235464
0.000865178
0.00245337
0.000587442
0.00253679
0.00029662
0.00260014
0.00263253
0.00469911
3.27013e-07
0.00441018
6.38672e-06
0.00450833
6.97036e-05
0.00451318
8.65844e-05
0.00450775
9.60604e-05
0.00450063
0.000108047
0.00449202
0.000124731
0.0044818
0.000143275
0.00446977
0.000163757
0.00445579
0.000185649
0.00443981
0.000208451
0.00442179
0.000232204
0.00440166
0.000257044
0.00437933
0.000283101
0.00435474
0.000310395
0.00432778
0.000339011
0.00429839
0.000368981
0.00426646
0.000400445
0.00423189
0.000433466
0.00419456
0.00046823
0.00415435
0.000504814
0.0041111
0.000543444
0.00406469
0.000584215
0.0040149
0.000627393
0.00396158
0.000673093
0.00390448
0.00072162
0.00384341
0.000773117
0.00377806
0.000827916
0.00370817
0.000886202
0.00363339
0.000948317
0.00355338
0.0010145
0.0034677
0.00108509
0.0033759
0.00116038
0.00327744
0.00124064
0.00317172
0.00132626
0.00305803
0.0014174
0.00293561
0.00151444
0.00280346
0.00161743
0.00266064
0.00172655
0.00250581
0.00184173
0.0023377
0.00196261
0.00215481
0.00208877
0.0019551
0.00221919
0.00173731
0.00235201
0.00149871
0.00248546
0.00123858
0.00261477
0.000956568
0.00273539
0.000653253
0.0028401
0.000332509
0.00292089
0.00296505
0.00487395
3.47123e-07
0.00457407
6.70841e-06
0.00467661
7.35776e-05
0.00468244
9.14657e-05
0.00467788
0.000101643
0.00467131
0.000114694
0.00466326
0.000132775
0.00465353
0.000152998
0.00464186
0.000175428
0.00462818
0.000199328
0.00461244
0.000224185
0.0045946
0.000250046
0.00457459
0.000277051
0.00455235
0.000305342
0.00452781
0.00033494
0.00450089
0.000365931
0.00447151
0.000398358
0.0044396
0.000432358
0.00440505
0.000468024
0.00436776
0.000505523
0.00432759
0.000544987
0.00428444
0.000586599
0.00423811
0.000630541
0.00418851
0.000677004
0.00413537
0.000726238
0.00407857
0.000778425
0.00401778
0.000833904
0.00395287
0.000892832
0.00388343
0.000955655
0.00380925
0.0010225
0.00372985
0.00109392
0.00364493
0.00117001
0.0035539
0.00125141
0.00345632
0.00133823
0.00335148
0.00143112
0.00323866
0.00153023
0.003117
0.0016361
0.00298545
0.001749
0.00284283
0.00186917
0.00268768
0.00199689
0.00251826
0.00213203
0.00233269
0.00227435
0.00212875
0.00242314
0.0019036
0.00257716
0.00165511
0.00273396
0.00137936
0.00289053
0.00107441
0.00304035
0.000739527
0.00317498
0.000377685
0.00328273
0.00334274
0.0050553
3.61222e-07
0.00474405
6.97176e-06
0.00485154
7.6718e-05
0.00485851
9.55276e-05
0.00485489
0.000106376
0.00484916
0.000120499
0.00484184
0.000140096
0.00483276
0.000162067
0.00482166
0.000186532
0.00480844
0.000212546
0.00479306
0.000239566
0.00477551
0.000267585
0.00475574
0.000296824
0.00473372
0.000327367
0.00470934
0.000359315
0.0046826
0.000392673
0.00465338
0.00042758
0.00462166
0.000464084
0.00458729
0.000502396
0.00455023
0.000542578
0.00451033
0.000584898
0.0044675
0.000629424
0.00442156
0.000676484
0.00437242
0.000726157
0.00431983
0.00077883
0.00426366
0.000834602
0.00420365
0.000893915
0.00413958
0.00095691
0.00407118
0.00102406
0.00399809
0.00109559
0.00392005
0.00117197
0.00383651
0.00125355
0.00374718
0.00134076
0.00365128
0.00143413
0.00354842
0.00153398
0.00343759
0.00164107
0.00331808
0.00175561
0.00318866
0.00187843
0.00304804
0.0020098
0.00289463
0.00215031
0.00272635
0.00230032
0.0025407
0.00246001
0.00233469
0.00262915
0.00210492
0.00280694
0.0018463
0.00299258
0.00155513
0.0031817
0.0012262
0.00336929
0.000855716
0.00354546
0.000444097
0.00369435
0.00378685
0.00524339
3.693e-07
0.00492038
7.14461e-06
0.00503327
7.88532e-05
0.00504171
9.84314e-05
0.00503934
0.000109954
0.00503474
0.000125191
0.00502837
0.000146463
0.00502014
0.000170283
0.00500978
0.000196896
0.00499714
0.000225178
0.00498225
0.000254458
0.00496511
0.00028472
0.00494571
0.000316226
0.00492401
0.00034907
0.00489996
0.000383363
0.00487352
0.000419111
0.00484465
0.000456457
0.00481326
0.00049547
0.00477931
0.000536349
0.00474269
0.000579205
0.00470332
0.000624264
0.00466107
0.000671681
0.00461585
0.000721703
0.00456747
0.000774543
0.00451585
0.000830461
0.0044607
0.000889748
0.00440196
0.000952669
0.00433926
0.00101961
0.00427248
0.00109084
0.00420121
0.00116687
0.00412522
0.00124797
0.00404404
0.00133474
0.00395724
0.00142756
0.00386432
0.00152706
0.00376454
0.00163377
0.00365731
0.00174832
0.00354142
0.0018715
0.00341606
0.00200381
0.00327952
0.00214634
0.00313019
0.00229965
0.00296599
0.00246453
0.00278381
0.0026422
0.00257996
0.00283301
0.00235062
0.00303629
0.00208918
0.00325402
0.00178643
0.00348446
0.00143334
0.00372238
0.00101961
0.00395919
0.000538131
0.00417583
0.00432499
0.00543848
3.70303e-07
0.00510328
7.19738e-06
0.00522213
7.961e-05
0.0052325
9.97256e-05
0.00523183
0.00011194
0.00522871
0.000128402
0.00522366
0.000151511
0.00521651
0.000177425
0.00520703
0.000206386
0.0051951
0.000237101
0.00518082
0.000268736
0.0051642
0.000301334
0.00514529
0.000335137
0.00512403
0.000370331
0.00510044
0.000406957
0.00507444
0.000445107
0.00504606
0.000484841
0.0050152
0.000526336
0.00498185
0.0005697
0.00494589
0.000615165
0.0049073
0.00066286
0.00486592
0.000713058
0.00482171
0.00076592
0.00477449
0.000821762
0.00472417
0.00088079
0.00467057
0.000943356
0.0046135
0.00100974
0.00455281
0.00108031
0.00448822
0.00115545
0.00441953
0.00123556
0.00434636
0.00132115
0.00426848
0.00141263
0.00418533
0.00151071
0.00409657
0.00161582
0.0040015
0.00172886
0.00389944
0.00185038
0.00378956
0.00198138
0.00367052
0.00212286
0.00354135
0.00227553
0.00339935
0.00244166
0.00324343
0.00262046
0.00307136
0.00281427
0.00287658
0.00302779
0.00265172
0.00326116
0.00239132
0.00351443
0.00208585
0.00378994
0.00171795
0.00409029
0.00126604
0.0044111
0.000701218
0.00474066
0.00502621
0.00564082
3.50295e-07
0.00529301
7.10214e-06
0.00541858
7.84217e-05
0.00543148
9.87997e-05
0.00543306
0.000111797
0.00543186
0.000129705
0.00542842
0.000154946
0.00542261
0.000183225
0.00541412
0.000214877
0.00540301
0.000248202
0.00538943
0.000282317
0.00537347
0.000317291
0.00535516
0.000353448
0.00533451
0.000390982
0.00531151
0.000429962
0.00528617
0.000470444
0.00525845
0.000512558
0.00522837
0.000556418
0.00519583
0.000602235
0.00516085
0.000650146
0.0051233
0.000700414
0.00508317
0.000753187
0.0050403
0.00080879
0.00499469
0.000867383
0.00494611
0.000929367
0.00489456
0.000994919
0.00483977
0.00106453
0.00478168
0.0011384
0.00472003
0.00121711
0.00465466
0.00130094
0.00458528
0.00139053
0.00451159
0.00148633
0.00443332
0.00158899
0.00434991
0.00169923
0.00426106
0.00181771
0.00416589
0.00194557
0.00406405
0.00208322
0.00395397
0.00223295
0.0038356
0.0023939
0.0037087
0.00256857
0.0035667
0.00276248
0.00340573
0.00297524
0.00322571
0.00320782
0.00302099
0.00346589
0.00278103
0.0037544
0.00249005
0.00408092
0.0021283
0.00445205
0.00165427
0.00488513
0.000999249
0.00539568
0.00602547
0.00585085
1.94455e-07
0.00548953
7.1671e-06
0.00562301
7.44228e-05
0.00563951
9.45719e-05
0.00564403
0.000108842
0.00564541
0.000128428
0.005644
0.000156353
0.00563972
0.0001875
0.00563237
0.000222223
0.00562213
0.000258437
0.00560928
0.00029517
0.00559398
0.000332589
0.00557628
0.000371146
0.00555625
0.000411006
0.0055339
0.000452318
0.00550926
0.000495084
0.00548234
0.000539485
0.00545314
0.000585619
0.00542164
0.00063374
0.00538781
0.000683978
0.00535161
0.000736616
0.00531299
0.000791816
0.00527189
0.000849892
0.00522822
0.000911057
0.00518194
0.00097565
0.0051329
0.00104397
0.00508107
0.00111636
0.00502624
0.00119324
0.00496839
0.00127496
0.00490723
0.00136211
0.00484273
0.00145503
0.00477451
0.00155456
0.00470249
0.00166102
0.00462622
0.00177551
0.00454543
0.00189851
0.00445924
0.00203178
0.00436852
0.00217395
0.0042737
0.00232778
0.00416931
0.0024983
0.00405327
0.00268461
0.00392856
0.00288719
0.00379278
0.00311103
0.00364112
0.00335949
0.00346858
0.00363844
0.0032684
0.00395458
0.00302843
0.00432091
0.00272143
0.00475905
0.00229829
0.00530828
0.00164572
0.00604825
0.0076712
0.00846022
1.37564e-07
0.00793524
6.23111e-06
0.00813417
6.48096e-05
0.0081636
8.30789e-05
0.00817623
9.85059e-05
0.0081832
0.000121628
0.00818542
0.000154132
0.00818272
0.000190182
0.00817511
0.00022984
0.0081631
0.000270442
0.00814733
0.000310942
0.00812811
0.000351808
0.00810565
0.000393613
0.00807998
0.00043668
0.00805125
0.000481046
0.0080195
0.000526841
0.00798484
0.000574147
0.00794725
0.000623215
0.00790682
0.00067418
0.00786346
0.000727337
0.00781726
0.000782822
0.00776811
0.000840972
0.00771607
0.000901939
0.00766102
0.000966113
0.00760301
0.00103367
0.00754191
0.00110507
0.00747774
0.00118053
0.00741041
0.00126057
0.00733987
0.0013455
0.0072661
0.00143589
0.00718896
0.00153219
0.0071085
0.00163503
0.00702435
0.00174517
0.00693706
0.00186281
0.00684722
0.00198837
0.00675518
0.00212382
0.00665631
0.00227284
0.00655039
0.00243371
0.00644155
0.00260716
0.00633046
0.00279571
0.00621359
0.00300407
0.00609242
0.00323222
0.00596524
0.00348668
0.00583381
0.00376988
0.00570021
0.00408818
0.0055719
0.00444922
0.00548225
0.00484872
0.00550611
0.00528442
0.00591256
0.0056418
0.00547745
0.00810632
0.00846202
1.06585e-07
0.00793465
3.86984e-06
0.00814833
4.23906e-05
0.00818858
6.0956e-05
0.00821052
7.88958e-05
0.00822447
0.000107843
0.00823075
0.000147848
0.00823031
0.000190612
0.00822361
0.000236543
0.00821246
0.00028159
0.00819787
0.000325534
0.00818015
0.000369529
0.00815941
0.000414358
0.00813581
0.000460282
0.00810949
0.000507365
0.00808063
0.000555707
0.00804929
0.000605489
0.00801558
0.000656932
0.0079795
0.000710267
0.00794113
0.000765708
0.00790045
0.000823507
0.00785755
0.000883878
0.00781238
0.00094712
0.00776504
0.00101345
0.00771548
0.00108324
0.00766384
0.00115672
0.00761005
0.00123433
0.00755429
0.00131633
0.00749651
0.00140329
0.00743692
0.00149548
0.00737534
0.00159378
0.00731296
0.00169742
0.00725042
0.00180772
0.00718616
0.00192708
0.00711867
0.00205587
0.00704902
0.00219348
0.00698135
0.00234052
0.00691561
0.00249946
0.00685154
0.00267124
0.00678992
0.00285734
0.00673522
0.00305878
0.00668792
0.00327953
0.00665814
0.00351648
0.0066491
0.00377893
0.00668159
0.00405571
0.0067784
0.00435242
0.00698543
0.0046417
0.00738536
0.00488449
0.00800241
0.00502476
0.00467575
0.00880412
0.00846274
1.54243e-07
0.00793434
7.48734e-07
0.00816335
5.58825e-06
0.00822198
2.05363e-05
0.00825908
4.41458e-05
0.00828271
8.43833e-05
0.00829406
0.000136493
0.00829458
0.000190076
0.00828879
0.000242346
0.00827908
0.000291297
0.00826612
0.000338486
0.00825002
0.000385639
0.00823094
0.000433439
0.00820916
0.000482064
0.00818494
0.000531588
0.00815849
0.000582153
0.00812994
0.000634045
0.0080994
0.000687482
0.00806693
0.000742738
0.00803264
0.000799998
0.00799661
0.000859549
0.00795891
0.000921577
0.00791964
0.000986394
0.00787891
0.00105419
0.00783684
0.00112532
0.00779355
0.00120001
0.00774924
0.00127866
0.00770401
0.00136157
0.00765831
0.00144899
0.00761299
0.00154081
0.00756873
0.00163804
0.00752324
0.00174292
0.00747657
0.0018544
0.00743146
0.0019722
0.00738996
0.00209737
0.00735161
0.00223184
0.00731739
0.00237476
0.00728791
0.00252895
0.00726667
0.00269249
0.00725451
0.00286951
0.00725658
0.00305672
0.00727769
0.00325844
0.00732443
0.00346974
0.00741244
0.00369093
0.00755097
0.00391719
0.0077704
0.004133
0.00808341
0.0043287
0.00850972
0.00445819
0.00902974
0.00450475
0.00424751
0.00945799
0.00846134
1.30349e-06
0.00794061
-9.85342e-06
0.00821691
-7.84033e-05
0.00830503
-4.94009e-05
0.00835082
7.32665e-07
0.00837133
6.40393e-05
0.00837565
0.000132179
0.00837139
0.000194323
0.00836368
0.000250056
0.00835427
0.000300706
0.00834231
0.000350448
0.00832745
0.0004005
0.00831004
0.000450853
0.00829039
0.000501712
0.00826892
0.000553064
0.00824574
0.000605328
0.00822093
0.000658858
0.00819456
0.000713856
0.00816671
0.0007706
0.00813744
0.000829271
0.00810683
0.000890163
0.00807497
0.000953446
0.00804197
0.0010194
0.00800796
0.00108821
0.00797313
0.00116016
0.00793759
0.00123555
0.007902
0.00131425
0.00786698
0.00139661
0.00783233
0.00148365
0.00779689
0.00157625
0.00776146
0.00167349
0.00772885
0.00177553
0.00769989
0.00188336
0.00767424
0.00199787
0.0076532
0.00211841
0.00763813
0.00224691
0.0076308
0.00238209
0.00763352
0.00252623
0.007648
0.00267802
0.00767918
0.00283834
0.00772865
0.00300726
0.00780524
0.00318186
0.00791166
0.00336333
0.00805978
0.00354283
0.00825786
0.00371912
0.00851373
0.00387714
0.00883808
0.00400436
0.00921568
0.0040806
0.00966959
0.00405085
0.00392811
0.009989
0.00845145
9.93924e-06
0.00798009
-6.57266e-05
0.0083623
-0.000271068
0.008544
-0.000212998
0.00858706
-4.00229e-05
0.00857797
7.3294e-05
0.00856131
0.000148841
0.00854555
0.000210062
0.00853293
0.000262682
0.0085199
0.000313726
0.00850378
0.000366562
0.00848477
0.000419512
0.00846366
0.000471959
0.0084413
0.000524067
0.00841762
0.000576736
0.00839273
0.000630221
0.00836678
0.000684803
0.00833991
0.000740723
0.00831227
0.000798243
0.00828396
0.000857577
0.00825514
0.000918991
0.00822588
0.000982705
0.00819635
0.00104893
0.00816682
0.00111775
0.00813782
0.00118916
0.00810974
0.00126364
0.00808163
0.00134237
0.00805339
0.00142485
0.00802621
0.00151083
0.00800176
0.00160071
0.00797999
0.00169528
0.00796106
0.00179447
0.00794567
0.00189876
0.00793541
0.00200813
0.00793065
0.00212317
0.00793413
0.00224344
0.00794615
0.00237008
0.00797107
0.00250132
0.00800954
0.00263957
0.00806692
0.00278097
0.00814604
0.00292815
0.00825196
0.00307595
0.00839097
0.00322434
0.0085659
0.00336791
0.00878531
0.00349971
0.0090478
0.00361467
0.00935638
0.00369579
0.00970174
0.00373525
0.0100486
0.00370396
0.00359507
0.0103817
0.00851923
1.56687e-05
0.00824798
-0.000394722
0.00879281
-0.000604808
0.00889094
-0.00029109
0.00887239
-1.85059e-05
0.00880448
0.000141421
0.00877253
0.000180791
0.00875261
0.000229966
0.00874291
0.000272384
0.00872837
0.000328256
0.0087094
0.000385529
0.00868833
0.00044057
0.0086663
0.000493983
0.00864328
0.000547087
0.00861928
0.000600731
0.00859421
0.000655285
0.00856805
0.000710959
0.00854088
0.000767887
0.00851282
0.000826301
0.00848403
0.000886368
0.00845456
0.000948456
0.00842479
0.00101248
0.00839521
0.00107851
0.00836606
0.0011469
0.00833655
0.00121867
0.00830737
0.00129282
0.00828028
0.00136947
0.00825619
0.00144894
0.00823471
0.00153231
0.00821674
0.00161868
0.00820251
0.00170951
0.00819337
0.00180361
0.00818944
0.0019027
0.00819246
0.00200511
0.00820277
0.00211287
0.00822235
0.00222386
0.00825233
0.00234011
0.00829458
0.00245908
0.00835226
0.00258189
0.00842649
0.00270675
0.00852281
0.00283183
0.00864183
0.00295694
0.00879042
0.00307575
0.00896886
0.00318947
0.00918201
0.00328658
0.00942887
0.00336781
0.00970699
0.00341768
0.0100118
0.00343043
0.0103152
0.00340064
0.00330256
0.0106077
0.00816087