/*--------------------------------*- C++ -*----------------------------------*\
| =========                 |                                                 |
| \\      /  F ield         | OpenFOAM: The Open Source CFD Toolbox           |
|  \\    /   O peration     | Version:  2412                                  |
|   \\  /    A nd           | Website:  www.openfoam.com                      |
|    \\/     M anipulation  |                                                 |
\*---------------------------------------------------------------------------*/
FoamFile
{
    version     2.0;
    format      ascii;
    arch        "LSB;label=32;scalar=64";
    class       volScalarField;
    location    "18";
    object      T;
}
// * * * * * * * * * * * * * * * * * * * * * * * * * * * * * * * * * * * * * //

dimensions      [0 0 0 1 0 0 0];

internalField   nonuniform List<scalar> 
7000
(
1.3191
2.65677
2.71969
2.66987
2.66467
2.64795
2.64454
2.64728
2.64932
2.65154
2.65278
2.6538
2.65493
2.65628
2.65778
2.65941
2.66114
2.663
2.66497
2.66706
2.66929
2.67163
2.6741
2.67669
2.6794
2.68223
2.68518
2.68824
2.69141
2.69468
2.69804
2.70149
2.705
2.70858
2.7122
2.71584
2.71949
2.72311
2.72667
2.73016
2.73351
2.73672
2.7397
2.74248
2.74491
2.7471
2.74882
2.75028
2.75123
2.75174
1.31916
2.65698
2.71994
2.66997
2.66479
2.64808
2.64466
2.64741
2.64945
2.65165
2.6529
2.65391
2.65504
2.65639
2.65789
2.65951
2.66125
2.66309
2.66507
2.66716
2.66938
2.67172
2.67419
2.67677
2.67948
2.6823
2.68525
2.6883
2.69147
2.69473
2.69809
2.70153
2.70504
2.70861
2.71222
2.71586
2.71949
2.7231
2.72665
2.73012
2.73346
2.73666
2.73962
2.74238
2.74481
2.74695
2.74868
2.75004
2.75098
2.75129
1.31914
2.65689
2.71984
2.66995
2.66475
2.64802
2.6446
2.64736
2.64935
2.6516
2.6528
2.65385
2.65494
2.65633
2.65778
2.65944
2.66113
2.66302
2.66494
2.66707
2.66924
2.67162
2.67403
2.67666
2.67931
2.68218
2.68507
2.68816
2.69127
2.69457
2.69788
2.70135
2.70482
2.70841
2.712
2.71565
2.71927
2.72288
2.72645
2.7299
2.73327
2.73643
2.73944
2.74213
2.74459
2.74671
2.74842
2.74984
2.75067
2.75106
1.31912
2.65672
2.71965
2.66995
2.6647
2.64792
2.6445
2.64722
2.64928
2.65144
2.65271
2.65368
2.65484
2.65614
2.65767
2.65924
2.66101
2.66279
2.66481
2.66683
2.66911
2.67135
2.67389
2.67637
2.67916
2.68186
2.6849
2.68781
2.69108
2.69418
2.69766
2.70092
2.70457
2.70795
2.7117
2.71514
2.71892
2.72236
2.72603
2.72939
2.73279
2.73598
2.73891
2.74178
2.74403
2.74629
2.74793
2.74925
2.75027
2.75043
1.31908
2.65649
2.71942
2.66997
2.66466
2.64778
2.64439
2.647
2.64921
2.6512
2.65262
2.65343
2.65473
2.65588
2.65754
2.65896
2.66085
2.66249
2.66462
2.66651
2.66887
2.67102
2.67361
2.67602
2.67882
2.6815
2.6845
2.68744
2.69062
2.69381
2.69713
2.70055
2.70396
2.70758
2.71102
2.71477
2.71816
2.72196
2.72519
2.7289
2.73192
2.73532
2.73815
2.74094
2.74354
2.74537
2.74731
2.74865
2.7493
2.74985
1.31904
2.6562
2.71913
2.67001
2.6646
2.64765
2.6442
2.647
2.64886
2.65118
2.65223
2.65339
2.65431
2.65582
2.65709
2.65889
2.66037
2.6624
2.6641
2.66639
2.6683
2.67086
2.67299
2.67581
2.67815
2.68123
2.68378
2.68708
2.68985
2.69335
2.69633
2.69998
2.70315
2.70687
2.71023
2.71392
2.71744
2.72097
2.72458
2.7278
2.73137
2.73407
2.7374
2.73977
2.74242
2.74469
2.74601
2.74767
2.7486
2.74855
1.31899
2.65584
2.71877
2.67006
2.66454
2.64745
2.644
2.64673
2.64868
2.65088
2.65204
2.65305
2.65411
2.65545
2.65688
2.65847
2.66014
2.66193
2.66386
2.66587
2.66806
2.67027
2.67274
2.67514
2.67789
2.68047
2.68349
2.68622
2.68951
2.69236
2.69591
2.69886
2.7026
2.70565
2.70951
2.71265
2.7165
2.71973
2.7234
2.72667
2.72999
2.73328
2.73584
2.73887
2.74084
2.74322
2.74509
2.74615
2.74685
2.74757
1.31893
2.65541
2.71833
2.67013
2.66447
2.64721
2.64374
2.64644
2.64843
2.65054
2.65174
2.65268
2.65377
2.65504
2.6565
2.65803
2.65971
2.66145
2.66337
2.66535
2.6675
2.66972
2.67209
2.67456
2.67715
2.67987
2.68264
2.68561
2.68854
2.69177
2.6948
2.69827
2.70133
2.70501
2.70805
2.71187
2.71488
2.71869
2.72171
2.7253
2.72836
2.73149
2.73466
2.73695
2.73967
2.74141
2.743
2.74486
2.7457
2.74543
1.31886
2.65489
2.71781
2.67022
2.66438
2.64694
2.64343
2.64616
2.64804
2.65022
2.65131
2.65231
2.6533
2.65463
2.65598
2.65757
2.65914
2.66095
2.66275
2.66478
2.66682
2.66907
2.67134
2.67382
2.67632
2.679
2.68173
2.68461
2.68756
2.6906
2.69376
2.69691
2.70029
2.70345
2.70706
2.71011
2.71389
2.71673
2.72055
2.72321
2.72683
2.72942
2.73242
2.73534
2.73707
2.73983
2.7412
2.74218
2.74291
2.74389
1.31878
2.65428
2.7172
2.67032
2.66427
2.64659
2.64308
2.64568
2.64772
2.6497
2.65094
2.65175
2.65287
2.65402
2.6555
2.65691
2.6586
2.66022
2.66214
2.66398
2.66612
2.6682
2.67056
2.67286
2.67543
2.67794
2.68072
2.68344
2.6864
2.6893
2.69243
2.69548
2.69873
2.70192
2.70523
2.70853
2.71177
2.71518
2.71817
2.72165
2.72421
2.72765
2.72978
2.7328
2.7352
2.73647
2.73868
2.7403
2.7411
2.74055
1.31868
2.65358
2.71649
2.67043
2.66415
2.64622
2.64263
2.64534
2.64714
2.6493
2.6503
2.65128
2.65219
2.6535
2.65475
2.65631
2.65779
2.65955
2.66125
2.66323
2.66515
2.66734
2.66949
2.67189
2.67425
2.67684
2.67942
2.68218
2.68496
2.68787
2.69082
2.69385
2.69696
2.70006
2.70327
2.70639
2.70965
2.71272
2.71596
2.71884
2.72197
2.72449
2.7274
2.72937
2.732
2.73431
2.73501
2.73611
2.73679
2.73816
1.31857
2.65277
2.71568
2.67057
2.66402
2.64576
2.64216
2.6447
2.64671
2.64859
2.6498
2.65051
2.65162
2.65265
2.65412
2.65539
2.65708
2.65855
2.66045
2.66213
2.66425
2.66613
2.66847
2.67055
2.6731
2.67536
2.6781
2.68055
2.68345
2.68606
2.68909
2.69185
2.69497
2.69786
2.701
2.70398
2.70704
2.7101
2.71296
2.71607
2.71858
2.72163
2.72371
2.72632
2.72785
2.72976
2.73203
2.73327
2.73395
2.73302
1.31845
2.65186
2.71477
2.67073
2.66384
2.64527
2.64158
2.64418
2.64599
2.64799
2.64901
2.64984
2.65075
2.65191
2.65316
2.65457
2.65602
2.65764
2.65929
2.66112
2.66297
2.66501
2.66705
2.66929
2.67151
2.67394
2.67633
2.67893
2.68147
2.68423
2.68688
2.68977
2.6925
2.69548
2.69823
2.70127
2.70397
2.70698
2.7096
2.71241
2.71501
2.71731
2.72
2.72169
2.7241
2.72536
2.72591
2.72686
2.72739
2.72922
1.31832
2.65086
2.71368
2.67114
2.66341
2.64471
2.64092
2.64347
2.64528
2.64718
2.64821
2.64894
2.64988
2.65092
2.6522
2.65348
2.65498
2.65643
2.65814
2.65978
2.6617
2.66352
2.66564
2.66763
2.66994
2.67208
2.67456
2.67685
2.67947
2.6819
2.68461
2.68715
2.6899
2.69255
2.69527
2.69797
2.70063
2.70326
2.70586
2.70827
2.71072
2.71284
2.71471
2.71676
2.71778
2.71995
2.72148
2.72236
2.7227
2.72106
1.31819
2.64978
2.7124
2.67185
2.66271
2.64407
2.64019
2.64263
2.64449
2.64622
2.64732
2.6479
2.64888
2.64979
2.6511
2.65225
2.65375
2.6551
2.65677
2.65833
2.66017
2.66193
2.66391
2.66589
2.66798
2.67016
2.67234
2.67472
2.67695
2.67951
2.68175
2.68445
2.68669
2.68943
2.69167
2.69434
2.69659
2.69904
2.70126
2.70343
2.70549
2.70746
2.70919
2.71053
2.71188
2.7118
2.71217
2.71236
2.71295
2.71466
1.31804
2.64856
2.71105
2.6724
2.66208
2.64336
2.63933
2.64181
2.64345
2.64528
2.64617
2.64687
2.64763
2.64866
2.64972
2.65101
2.65224
2.65373
2.65512
2.65681
2.65835
2.66024
2.6619
2.66398
2.66576
2.66799
2.6699
2.67223
2.67426
2.67663
2.67879
2.68112
2.68341
2.68561
2.68799
2.68999
2.69236
2.69414
2.69625
2.69784
2.69943
2.70072
2.70195
2.70295
2.70349
2.70486
2.70447
2.70447
2.7032
2.7008
1.31787
2.64722
2.7096
2.67296
2.66139
2.64257
2.63836
2.6409
2.64228
2.64422
2.6449
2.64569
2.64625
2.64735
2.64824
2.64956
2.65064
2.65212
2.65338
2.65501
2.65645
2.65821
2.65983
2.66168
2.66347
2.66539
2.66734
2.66928
2.67136
2.6733
2.67546
2.67737
2.67953
2.68141
2.68342
2.6853
2.68701
2.68885
2.69015
2.69174
2.6927
2.69348
2.69379
2.69388
2.69321
2.6914
2.69069
2.68855
2.68793
2.68781
1.31769
2.64577
2.70804
2.67353
2.66065
2.64165
2.63731
2.63969
2.64115
2.64283
2.64365
2.64418
2.64489
2.64571
2.64676
2.64778
2.64902
2.65018
2.65159
2.65289
2.65447
2.65588
2.6576
2.65913
2.66096
2.66258
2.66448
2.66618
2.66808
2.66987
2.67169
2.67352
2.67519
2.67698
2.67843
2.68004
2.68125
2.6824
2.68345
2.68382
2.68461
2.68453
2.68416
2.68318
2.682
2.68035
2.67606
2.67249
2.66671
2.66067
1.3175
2.64423
2.70639
2.67411
2.65983
2.64063
2.63611
2.63837
2.63981
2.64135
2.64217
2.64259
2.64327
2.64399
2.64497
2.64592
2.64705
2.64817
2.64941
2.65069
2.65204
2.65347
2.65488
2.65645
2.65789
2.65957
2.66103
2.66277
2.66421
2.66597
2.66737
2.66903
2.67038
2.67181
2.67308
2.6741
2.6752
2.67556
2.6762
2.67604
2.67518
2.67441
2.67198
2.66986
2.6652
2.65986
2.6547
2.64495
2.63536
2.6227
1.31729
2.64263
2.70471
2.67468
2.6589
2.63952
2.63472
2.63704
2.63815
2.63983
2.6404
2.64097
2.6414
2.64228
2.64296
2.64407
2.6449
2.64614
2.6471
2.64845
2.64953
2.65096
2.65214
2.65362
2.65487
2.65634
2.65765
2.65904
2.66038
2.66162
2.66295
2.66396
2.66519
2.66589
2.66688
2.66718
2.66783
2.66771
2.66735
2.66649
2.66542
2.66276
2.66054
2.65524
2.65059
2.64061
2.62778
2.61087
2.58205
2.51102
1.31729
2.64177
2.70018
2.67518
2.65747
2.63774
2.63263
2.63474
2.63586
2.63725
2.63796
2.63823
2.63879
2.63931
2.64018
2.64088
2.6419
2.64271
2.64385
2.64474
2.64599
2.64693
2.64825
2.64922
2.65057
2.65152
2.65285
2.65373
2.65497
2.65574
2.65677
2.65737
2.65802
2.65833
2.65854
2.65822
2.65762
2.65672
2.65481
2.65277
2.64864
2.64505
2.63741
2.63133
2.61836
2.60614
2.5834
2.54725
2.48952
2.36397
1.31727
2.64079
2.69546
2.67535
2.65556
2.63537
2.62976
2.63183
2.63271
2.63413
2.63475
2.63504
2.63544
2.63597
2.63663
2.63734
2.6381
2.63891
2.63974
2.64063
2.64149
2.64243
2.64329
2.64425
2.64505
2.64599
2.64669
2.64755
2.64806
2.64877
2.64901
2.64951
2.64947
2.6493
2.64882
2.64825
2.64672
2.64545
2.64233
2.6399
2.63482
2.62887
2.62123
2.60779
2.59485
2.56845
2.54174
2.49165
2.41714
2.31786
1.31725
2.64012
2.69299
2.67519
2.65398
2.63308
2.62684
2.62867
2.62945
2.63087
2.63146
2.63168
2.63198
2.63242
2.63298
2.6336
2.63425
2.63495
2.63566
2.6364
2.63714
2.6379
2.63862
2.63935
2.64
2.64063
2.64114
2.64158
2.64184
2.64201
2.64184
2.64146
2.64092
2.63973
2.6385
2.63615
2.63407
2.63015
2.62703
2.62072
2.61609
2.60607
2.59859
2.58339
2.56666
2.54284
2.50642
2.46392
2.392
2.31834
1.31713
2.63898
2.69218
2.674
2.65204
2.63027
2.62358
2.62552
2.62636
2.62787
2.62839
2.62845
2.62855
2.62882
2.62906
2.62952
2.62982
2.63031
2.63064
2.63117
2.63153
2.63207
2.63245
2.63297
2.63334
2.6338
2.63411
2.63451
2.63462
2.63469
2.63458
2.63424
2.63366
2.63238
2.63111
2.62834
2.62601
2.62113
2.61672
2.6095
2.60127
2.59128
2.57728
2.56321
2.54107
2.51816
2.48438
2.4438
2.39085
2.32874
1.31687
2.6401
2.70385
2.67066
2.65205
2.62867
2.62146
2.62419
2.62515
2.62699
2.62747
2.62742
2.62738
2.62741
2.6275
2.6276
2.62766
2.62769
2.62767
2.62763
2.62755
2.62737
2.62721
2.62687
2.62659
2.62611
2.62573
2.62492
2.62443
2.62333
2.62268
2.6212
2.62033
2.6183
2.61699
2.61419
2.61162
2.60784
2.60266
2.59705
2.58806
2.57867
2.56468
2.54867
2.52839
2.50244
2.47338
2.43457
2.39192
2.34469
1.30177
2.5865
2.6984
2.67711
2.65961
2.63608
2.62919
2.63209
2.63315
2.63468
2.63454
2.63411
2.63344
2.6329
2.63231
2.63178
2.63114
2.63059
2.62993
2.62938
2.6287
2.62817
2.62744
2.62694
2.62606
2.62551
2.62427
2.62335
2.62149
2.62017
2.61749
2.6157
2.61216
2.60992
2.60542
2.60264
2.59695
2.5934
2.58634
2.58071
2.57189
2.56246
2.5506
2.5352
2.51794
2.4945
2.4688
2.43581
2.39817
2.35799
1.72056
2.46881
2.72863
2.70676
2.68427
2.67395
2.67447
2.67602
2.67742
2.67769
2.6765
2.67505
2.67342
2.67165
2.66967
2.66749
2.66507
2.66247
2.65964
2.65669
2.65347
2.65024
2.64668
2.64324
2.63925
2.63534
2.63091
2.6278
2.62396
2.62137
2.61773
2.61497
2.61075
2.60701
2.60188
2.59673
2.59069
2.5836
2.57676
2.56727
2.55916
2.54676
2.53626
2.52017
2.50541
2.48437
2.46311
2.43556
2.40585
2.37306
1.73247
2.4619
2.72312
2.70202
2.67733
2.66833
2.67222
2.67391
2.6766
2.67743
2.67762
2.67748
2.67722
2.67692
2.67624
2.67563
2.67431
2.67334
2.67131
2.67
2.66727
2.66554
2.66215
2.65983
2.65595
2.65328
2.64895
2.64474
2.63921
2.63371
2.62722
2.62096
2.61485
2.60876
2.60313
2.59602
2.59008
2.58125
2.57379
2.56294
2.55331
2.54019
2.52764
2.51198
2.49566
2.4768
2.45596
2.43304
2.40763
2.38155
1.72922
2.46745
2.7251
2.70232
2.67376
2.66427
2.6691
2.67153
2.67469
2.67581
2.67616
2.6763
2.67646
2.67644
2.67634
2.67609
2.67549
2.67509
2.67417
2.67345
2.67189
2.67079
2.66864
2.66679
2.66407
2.66129
2.65801
2.65424
2.65023
2.6452
2.64059
2.63399
2.62803
2.61897
2.61178
2.60161
2.5937
2.58339
2.57483
2.56358
2.55325
2.54039
2.52737
2.51214
2.49605
2.47775
2.45796
2.43617
2.41265
2.3897
1.73193
2.46073
2.72056
2.69682
2.67068
2.66102
2.66557
2.66781
2.67099
2.67224
2.67265
2.67293
2.67326
2.67356
2.67383
2.67386
2.67378
2.67352
2.67309
2.67238
2.67171
2.6704
2.66943
2.66741
2.6661
2.66339
2.66159
2.65788
2.65549
2.65057
2.64748
2.64121
2.63697
2.62942
2.62332
2.61412
2.60561
2.59424
2.58343
2.57063
2.55807
2.54432
2.5304
2.5151
2.49899
2.48139
2.4632
2.44315
2.42209
2.40138
1.74112
2.44257
2.70901
2.68446
2.66694
2.65756
2.6605
2.6622
2.66529
2.66635
2.66701
2.66709
2.66732
2.66744
2.66757
2.66757
2.66752
2.66734
2.66716
2.66669
2.66634
2.66555
2.66497
2.6637
2.66276
2.66071
2.65933
2.65635
2.65441
2.65039
2.6475
2.64253
2.63845
2.63246
2.6268
2.61949
2.61208
2.60304
2.59337
2.58215
2.57001
2.55609
2.54146
2.52539
2.50906
2.49131
2.47308
2.45378
2.43375
2.41424
1.73607
2.43613
2.70565
2.67691
2.66913
2.65588
2.65599
2.65799
2.66099
2.6621
2.66317
2.66327
2.66355
2.66374
2.6639
2.66398
2.66395
2.66385
2.6637
2.66335
2.66305
2.66238
2.66187
2.66076
2.65998
2.65826
2.65708
2.65457
2.65284
2.64952
2.64682
2.64262
2.63863
2.6335
2.62832
2.62192
2.61528
2.60738
2.59909
2.58948
2.57925
2.56753
2.55499
2.54085
2.52577
2.50931
2.49206
2.47372
2.45461
2.43598
1.35695
2.46716
2.67915
2.66847
2.64647
2.62382
2.61677
2.6208
2.62277
2.62565
2.62707
2.6281
2.6289
2.62991
2.63061
2.6317
2.63235
2.63332
2.63382
2.63464
2.63495
2.63568
2.6358
2.63597
2.63597
2.63586
2.63563
2.63503
2.63445
2.63324
2.63208
2.63016
2.62819
2.62519
2.62198
2.61739
2.61237
2.60599
2.59908
2.59082
2.58213
2.57203
2.5614
2.54955
2.53682
2.52291
2.50809
2.49223
2.47543
2.45897
1.36036
2.4767
2.68628
2.67706
2.65246
2.62347
2.61384
2.61466
2.61664
2.6186
2.61942
2.61951
2.61972
2.61975
2.62001
2.62035
2.62072
2.62104
2.62138
2.6216
2.62188
2.62196
2.62212
2.62203
2.62186
2.62146
2.62106
2.62018
2.61948
2.61799
2.61681
2.61461
2.61265
2.60972
2.60685
2.60332
2.59963
2.59519
2.59022
2.58458
2.57788
2.57031
2.56132
2.55141
2.54057
2.52891
2.51654
2.50333
2.48924
2.47544
1.34959
2.41243
2.66925
2.66952
2.6501
2.6237
2.61393
2.61398
2.61469
2.61524
2.61491
2.61405
2.6133
2.61226
2.6116
2.61091
2.61041
2.60976
2.60928
2.60864
2.60817
2.60753
2.60704
2.60636
2.60581
2.60502
2.60431
2.60347
2.60259
2.60149
2.60012
2.59856
2.59655
2.59436
2.59156
2.58857
2.5849
2.58099
2.57635
2.57124
2.56549
2.55937
2.55268
2.54537
2.53731
2.52796
2.51744
2.50635
2.49456
2.4832
1.74175
2.39646
2.67476
2.66121
2.65236
2.63845
2.63329
2.63354
2.6333
2.63301
2.63222
2.63099
2.62959
2.62793
2.62633
2.62474
2.62308
2.62135
2.61951
2.61765
2.61567
2.61369
2.61157
2.60949
2.60723
2.6051
2.60273
2.60062
2.59816
2.59572
2.59318
2.59053
2.58774
2.58469
2.58151
2.57787
2.57412
2.56973
2.56525
2.55995
2.55456
2.54825
2.54185
2.53452
2.52691
2.51887
2.51074
2.50171
2.49197
2.48238
1.34698
2.39537
2.66003
2.66576
2.64942
2.62413
2.61552
2.61417
2.61543
2.61569
2.61542
2.61506
2.61418
2.61325
2.61261
2.61174
2.61103
2.60996
2.60901
2.60767
2.60655
2.60517
2.60401
2.60251
2.60124
2.59938
2.59779
2.59529
2.59328
2.59056
2.58821
2.58513
2.58233
2.57878
2.57555
2.57162
2.56791
2.56352
2.55918
2.5542
2.54904
2.54326
2.53713
2.53048
2.52329
2.51569
2.50755
2.49912
2.49014
2.48152
1.3483
2.40624
2.66722
2.67123
2.65091
2.62217
2.6109
2.61071
2.61168
2.61239
2.61226
2.61157
2.61081
2.60982
2.60922
2.60848
2.60788
2.60699
2.60617
2.60504
2.60389
2.60223
2.60055
2.59839
2.59621
2.59371
2.59118
2.58839
2.58547
2.58237
2.57906
2.57567
2.5721
2.56855
2.56458
2.56067
2.55626
2.55198
2.54711
2.54241
2.53707
2.53195
2.52608
2.52038
2.51392
2.50753
2.50034
2.49305
2.48523
2.47788
1.34772
2.40189
2.66445
2.66927
2.64831
2.61887
2.60686
2.60671
2.60752
2.60843
2.60814
2.6073
2.60647
2.60537
2.60465
2.6039
2.60327
2.60248
2.60171
2.60078
2.59981
2.59866
2.59737
2.5959
2.59418
2.59228
2.59006
2.58769
2.58493
2.58205
2.57875
2.57535
2.57151
2.56764
2.56334
2.55896
2.55411
2.54916
2.5438
2.53828
2.53246
2.52644
2.52019
2.51366
2.50699
2.49999
2.49296
2.48548
2.47792
2.47055
1.34488
2.37888
2.64726
2.66148
2.64233
2.61448
2.60266
2.60122
2.60153
2.60176
2.60111
2.60034
2.599
2.59791
2.59682
2.59596
2.59491
2.594
2.59284
2.59181
2.59054
2.58942
2.58804
2.58681
2.58529
2.58387
2.58213
2.58042
2.57835
2.57625
2.57379
2.57119
2.5682
2.56495
2.56132
2.55741
2.55319
2.54862
2.54378
2.53849
2.533
2.52705
2.52092
2.51433
2.5076
2.50043
2.49319
2.48567
2.47805
2.47071
1.75139
2.37292
2.6454
2.64154
2.62807
2.61397
2.60909
2.60934
2.60932
2.60921
2.60863
2.60798
2.60675
2.60562
2.60434
2.60323
2.60186
2.60055
2.59898
2.59744
2.59565
2.59389
2.59191
2.58993
2.58775
2.58554
2.58315
2.5807
2.57807
2.57535
2.57254
2.56958
2.56652
2.5632
2.55977
2.55597
2.55206
2.54772
2.54318
2.53822
2.53299
2.52739
2.5216
2.51547
2.50915
2.5025
2.49563
2.48846
2.48096
2.47381
1.34698
2.38851
2.65241
2.65974
2.6392
2.60885
2.5975
2.59614
2.59776
2.59908
2.59893
2.59842
2.59783
2.59656
2.59589
2.59467
2.59393
2.59245
2.59149
2.58976
2.58822
2.58637
2.58455
2.58242
2.58034
2.57811
2.57603
2.57373
2.57158
2.56913
2.56659
2.5637
2.56074
2.55747
2.55411
2.55049
2.54675
2.54277
2.53868
2.53435
2.52984
2.52503
2.51994
2.5145
2.50875
2.50269
2.49636
2.48983
2.48298
2.47642
1.35067
2.41176
2.6547
2.64876
2.62683
2.59626
2.58549
2.58575
2.58754
2.58946
2.58981
2.58957
2.58911
2.58833
2.58782
2.5873
2.58684
2.58622
2.58556
2.58476
2.58388
2.58286
2.58171
2.58039
2.5789
2.57706
2.57497
2.57258
2.56995
2.56706
2.56406
2.56087
2.55754
2.55402
2.55035
2.54649
2.54247
2.53827
2.53389
2.52934
2.52461
2.5197
2.5147
2.50957
2.50422
2.49873
2.49297
2.48701
2.48076
2.47479
1.7713
2.37199
2.63817
2.61733
2.61098
2.59566
2.59293
2.59368
2.5948
2.59608
2.59583
2.59535
2.59501
2.59434
2.59378
2.59321
2.59263
2.59196
2.59125
2.59043
2.58955
2.58856
2.58748
2.58626
2.58493
2.58342
2.58176
2.57987
2.5778
2.57539
2.57266
2.56963
2.5663
2.5627
2.55883
2.55473
2.55038
2.54583
2.54106
2.53612
2.53094
2.52557
2.51991
2.51409
2.5081
2.50196
2.49576
2.48944
2.48301
2.47688
1.79787
2.35493
2.62616
2.60564
2.60245
2.59251
2.58913
2.58935
2.5896
2.59016
2.5899
2.58928
2.58865
2.58761
2.5866
2.58547
2.5843
2.58296
2.58158
2.58003
2.57846
2.57675
2.57507
2.57328
2.57154
2.56969
2.56788
2.56596
2.56406
2.5621
2.56023
2.55819
2.55622
2.55402
2.55181
2.5493
2.54672
2.54377
2.54045
2.53677
2.53287
2.5287
2.52429
2.51959
2.51465
2.50941
2.50388
2.49805
2.49195
2.48605
1.76268
2.38142
2.64982
2.61906
2.61327
2.59912
2.59595
2.59806
2.59953
2.60036
2.6001
2.59961
2.59856
2.59736
2.59608
2.59476
2.59333
2.59182
2.59018
2.58848
2.58667
2.58484
2.58274
2.58055
2.5781
2.57558
2.57281
2.57
2.56694
2.56388
2.56059
2.55734
2.55388
2.55038
2.54666
2.54295
2.539
2.5351
2.5312
2.52728
2.5232
2.51903
2.51466
2.51025
2.50565
2.50098
2.49611
2.49114
2.4859
2.48098
1.28613
2.49429
2.64458
2.64191
2.61665
2.58393
2.57186
2.5723
2.57494
2.57732
2.57858
2.5788
2.57903
2.57901
2.57894
2.57887
2.57871
2.5784
2.57793
2.57728
2.57645
2.5754
2.57425
2.57289
2.57142
2.56972
2.56799
2.56585
2.56361
2.56121
2.55859
2.55581
2.5527
2.54951
2.546
2.54243
2.53857
2.53465
2.53047
2.52626
2.52181
2.51735
2.51285
2.50812
2.50326
2.49818
2.493
2.4876
2.48209
2.47682
1.77193
2.36699
2.63922
2.61673
2.61042
2.59499
2.59005
2.59096
2.59138
2.59297
2.5926
2.59203
2.59158
2.5908
2.59005
2.5892
2.58844
2.58747
2.58654
2.58539
2.58429
2.58295
2.58165
2.58009
2.57856
2.57675
2.57496
2.57285
2.57054
2.56793
2.56514
2.56206
2.55898
2.55566
2.55233
2.54872
2.54509
2.54114
2.53717
2.53284
2.52852
2.52382
2.51896
2.51389
2.50873
2.50337
2.49793
2.49231
2.48658
2.4811
1.77333
2.36519
2.63713
2.6148
2.60855
2.59324
2.58828
2.58938
2.59044
2.59153
2.59207
2.59157
2.59114
2.59035
2.58949
2.58856
2.58758
2.58644
2.5852
2.58382
2.58235
2.58075
2.57907
2.57728
2.5754
2.57343
2.57135
2.56924
2.56718
2.56503
2.56285
2.56053
2.55802
2.55532
2.55242
2.54937
2.54614
2.54277
2.53921
2.53551
2.53161
2.52758
2.52333
2.51896
2.51437
2.50966
2.50474
2.49971
2.49445
2.48936
1.28554
2.49068
2.64189
2.63923
2.6135
2.57884
2.56589
2.56539
2.56792
2.56998
2.57094
2.57088
2.57074
2.57035
2.57004
2.56958
2.56928
2.56865
2.56821
2.56731
2.56667
2.56551
2.56463
2.56319
2.56207
2.56044
2.55881
2.55703
2.55513
2.55312
2.55099
2.54878
2.54646
2.54404
2.54151
2.53885
2.53603
2.53309
2.52999
2.52672
2.52329
2.51969
2.51595
2.51203
2.50797
2.50373
2.49936
2.49481
2.49013
2.4856
1.76689
2.37263
2.64033
2.60963
2.60321
2.58723
2.58417
2.58635
2.58725
2.58937
2.58913
2.58859
2.58814
2.5873
2.58652
2.58563
2.58478
2.58374
2.58269
2.58146
2.58022
2.57882
2.57738
2.5758
2.57414
2.57238
2.57049
2.5685
2.56637
2.56414
2.56176
2.55914
2.55639
2.55343
2.55034
2.54704
2.54364
2.54004
2.53635
2.53255
2.52866
2.52463
2.52049
2.51622
2.51181
2.50729
2.50262
2.49784
2.4929
2.48818
1.79481
2.35571
2.62373
2.59563
2.59163
2.57993
2.57665
2.57785
2.57816
2.57888
2.5787
2.57829
2.57784
2.57709
2.57638
2.57563
2.57483
2.57392
2.57295
2.57186
2.57069
2.56943
2.56808
2.56663
2.56509
2.56346
2.56174
2.55993
2.55803
2.55603
2.55394
2.55189
2.54972
2.54756
2.54524
2.54293
2.54042
2.53783
2.53501
2.53205
2.52885
2.52556
2.52206
2.51847
2.51468
2.51079
2.50669
2.50251
2.4981
2.49392
1.79942
2.3505
2.6187
2.59247
2.58883
2.57758
2.57376
2.57444
2.57462
2.57501
2.57487
2.57446
2.57397
2.57321
2.57243
2.57166
2.5708
2.56987
2.56883
2.56771
2.56647
2.56516
2.56372
2.5622
2.56054
2.5588
2.55692
2.55496
2.55286
2.55067
2.54834
2.54592
2.54337
2.54073
2.53795
2.5351
2.53212
2.52911
2.526
2.52284
2.51957
2.51623
2.51274
2.50917
2.50545
2.50165
2.4977
2.49365
2.48943
2.48543
1.77993
2.35571
2.61622
2.60277
2.59335
2.57691
2.57188
2.57235
2.57296
2.57359
2.57357
2.5731
2.57258
2.57175
2.57095
2.57017
2.56933
2.56841
2.5674
2.56631
2.56511
2.56384
2.56245
2.56098
2.5594
2.55772
2.55592
2.55403
2.552
2.54988
2.54762
2.54526
2.54275
2.54014
2.53739
2.53453
2.53152
2.52841
2.52515
2.52179
2.51829
2.51469
2.51096
2.50712
2.50315
2.49908
2.49487
2.49057
2.48611
2.48187
1.34474
2.37962
2.63777
2.63724
2.61504
2.58157
2.56735
2.56497
2.56627
2.56739
2.56734
2.56708
2.56639
2.56538
2.56449
2.56369
2.56287
2.56198
2.56099
2.55992
2.55874
2.55748
2.5561
2.55463
2.55304
2.55136
2.54955
2.54764
2.54559
2.54345
2.54116
2.53877
2.53623
2.53359
2.53079
2.5279
2.52484
2.52169
2.51836
2.51494
2.51135
2.50767
2.50381
2.49987
2.49575
2.49156
2.48719
2.48277
2.47817
2.47378
1.34598
2.38717
2.65267
2.6569
2.63085
2.59233
2.57478
2.57242
2.57406
2.57534
2.5758
2.57545
2.57462
2.57362
2.57257
2.57169
2.57082
2.56991
2.56888
2.56779
2.56659
2.56533
2.56396
2.56253
2.56098
2.55938
2.55764
2.55584
2.55392
2.55192
2.54978
2.54757
2.54522
2.54279
2.54021
2.53755
2.53474
2.53183
2.52878
2.52562
2.52231
2.51891
2.51534
2.51167
2.50784
2.50391
2.49982
2.49564
2.49129
2.48712
1.34509
2.37909
2.63615
2.6362
2.61329
2.57994
2.56477
2.56277
2.56413
2.56505
2.56546
2.56503
2.56433
2.5633
2.56237
2.56154
2.56074
2.55986
2.55892
2.55787
2.55677
2.55556
2.55431
2.55294
2.55152
2.54998
2.54838
2.54666
2.54488
2.54297
2.54099
2.53888
2.5367
2.53439
2.532
2.52947
2.52687
2.52411
2.52129
2.5183
2.51525
2.51203
2.50874
2.50529
2.50176
2.49806
2.4943
2.49036
2.48634
2.48241
1.7812
2.35402
2.61371
2.59947
2.58975
2.57187
2.5668
2.56716
2.56774
2.56879
2.56863
2.56809
2.5676
2.56673
2.56597
2.56516
2.56438
2.56346
2.56253
2.56145
2.56036
2.55912
2.55787
2.55646
2.55504
2.55345
2.55186
2.55009
2.5483
2.54634
2.54436
2.5422
2.54002
2.53764
2.53525
2.53267
2.53006
2.52726
2.52443
2.5214
2.51834
2.51508
2.51179
2.5083
2.50477
2.50104
2.49728
2.4933
2.48926
2.48532
1.80149
2.34696
2.61429
2.58711
2.58357
2.5723
2.5688
2.56988
2.57018
2.57062
2.57047
2.56996
2.5694
2.56852
2.56769
2.56681
2.56592
2.56491
2.56386
2.56268
2.56146
2.5601
2.55871
2.55717
2.55559
2.55386
2.5521
2.55016
2.5482
2.54605
2.54388
2.54152
2.53913
2.53656
2.53394
2.53114
2.5283
2.52527
2.5222
2.51894
2.51563
2.51214
2.50859
2.50486
2.50108
2.49712
2.4931
2.48891
2.48464
2.48049
1.78842
2.3606
2.62673
2.59512
2.58851
2.5744
2.57191
2.57394
2.57543
2.57636
2.57633
2.57583
2.57528
2.57446
2.57368
2.57287
2.57202
2.57105
2.57003
2.5689
2.56771
2.56641
2.56505
2.56357
2.56204
2.56037
2.55865
2.55678
2.55487
2.5528
2.55069
2.54841
2.54608
2.54359
2.54104
2.53832
2.53556
2.53261
2.52961
2.52644
2.5232
2.51979
2.51632
2.51267
2.50896
2.50508
2.50113
2.49701
2.49282
2.48875
2.17211
2.34464
2.76346
2.85959
2.88039
2.83267
2.82991
2.8289
2.8214
2.82013
2.8228
2.82437
2.82537
2.82618
2.82756
2.82885
2.83053
2.83222
2.83338
2.83417
2.83442
2.83437
2.83293
2.83195
2.82865
2.82623
2.82174
2.818
2.81276
2.80786
2.80183
2.79597
2.78929
2.78272
2.77576
2.76879
2.7615
2.75371
2.74542
2.73731
2.72898
2.7208
2.71238
2.70415
2.69574
2.68755
2.67924
2.6712
2.6631
2.65529
2.64747
2.63999
2.63255
2.62549
2.61852
2.61198
2.60559
2.59968
2.59399
2.58884
2.58397
2.57969
2.57578
2.5725
2.56965
2.56745
2.56573
2.56467
2.56407
2.564
2.56411
2.56442
2.56522
2.56659
2.56872
2.57089
2.57319
2.57543
2.57774
2.57989
2.58202
2.58388
2.58562
2.58704
2.5883
2.58923
2.58999
2.59043
2.59074
2.59081
2.59074
2.59056
2.59024
2.58957
2.58883
2.58786
2.58702
2.58596
2.58508
2.58216
2.18024
2.26003
2.45006
2.62838
2.69645
2.73761
2.76746
2.79367
2.80912
2.82209
2.83038
2.84049
2.84642
2.846
2.84206
2.83634
2.82848
2.82043
2.81072
2.80113
2.79049
2.78015
2.76922
2.7587
2.74748
2.73659
2.72512
2.71413
2.70264
2.69168
2.68026
2.66939
2.65811
2.64739
2.63653
2.62633
2.61591
2.60535
2.59447
2.58391
2.57364
2.56354
2.55362
2.54386
2.53428
2.5249
2.51571
2.50676
2.49801
2.48951
2.48125
2.47326
2.46553
2.45812
2.45099
2.44422
2.43776
2.43172
2.42603
2.42082
2.41598
2.4117
2.40784
2.40458
2.40178
2.39962
2.39794
2.39692
2.39637
2.39634
2.39655
2.39702
2.39803
2.39965
2.40202
2.40462
2.40731
2.41001
2.41268
2.41525
2.41766
2.41985
2.42177
2.4234
2.42471
2.42571
2.42639
2.42678
2.42689
2.42679
2.42661
2.42621
2.42578
2.4249
2.42406
2.42286
2.42194
2.4207
2.41989
2.41696
2.22674
2.21257
2.27132
2.35773
2.41114
2.45985
2.49369
2.52132
2.5429
2.55907
2.57121
2.58035
2.58724
2.58956
2.58876
2.58691
2.58275
2.57795
2.57223
2.56597
2.55907
2.55198
2.54449
2.53703
2.52914
2.52129
2.51301
2.5049
2.49646
2.48826
2.47976
2.47155
2.46303
2.45485
2.44657
2.43888
2.431
2.42294
2.41438
2.406
2.39787
2.38987
2.38198
2.37416
2.36645
2.35884
2.35137
2.34402
2.33684
2.32979
2.32295
2.31627
2.30981
2.30355
2.29755
2.29179
2.28634
2.28116
2.27634
2.27184
2.26774
2.26401
2.26073
2.25788
2.25551
2.25362
2.25224
2.25135
2.25098
2.25099
2.25124
2.25169
2.25261
2.25406
2.25626
2.25861
2.26114
2.2636
2.26609
2.26839
2.27064
2.27258
2.27437
2.27579
2.27702
2.27787
2.27853
2.27881
2.27895
2.27884
2.2787
2.2784
2.27805
2.2773
2.27659
2.27557
2.27482
2.27381
2.27332
2.27095
2.25955
2.22007
2.21567
2.24057
2.27132
2.29378
2.30903
2.32079
2.33133
2.34054
2.34819
2.35425
2.35893
2.36251
2.36406
2.36427
2.36421
2.36409
2.36388
2.36361
2.36313
2.3625
2.3618
2.36056
2.35908
2.35733
2.35511
2.35264
2.34976
2.34668
2.34321
2.33958
2.33555
2.33143
2.32716
2.32308
2.31879
2.31405
2.30869
2.30316
2.29766
2.29219
2.28666
2.2811
2.27546
2.26983
2.26415
2.25852
2.25288
2.24733
2.24181
2.23642
2.2311
2.22595
2.22091
2.21609
2.21143
2.20704
2.20286
2.199
2.1954
2.19218
2.18928
2.18681
2.1847
2.18307
2.18184
2.18112
2.18086
2.18097
2.18125
2.18169
2.18262
2.18398
2.18605
2.18824
2.19069
2.19302
2.19543
2.1976
2.19973
2.20153
2.20322
2.20452
2.20567
2.20642
2.20703
2.20726
2.20739
2.20728
2.20717
2.20691
2.2066
2.20592
2.20532
2.20442
2.20379
2.20293
2.20268
2.20064
2.2749
2.24085
2.21905
2.2115
2.21854
2.2232
2.22524
2.22586
2.22681
2.22866
2.23143
2.23374
2.23574
2.23758
2.24029
2.24261
2.2448
2.24728
2.24993
2.25281
2.25568
2.25851
2.2611
2.26339
2.2653
2.26671
2.26764
2.26815
2.26788
2.26732
2.26623
2.26476
2.26276
2.26048
2.25797
2.25549
2.25272
2.2494
2.24538
2.24101
2.23653
2.23198
2.22734
2.22261
2.21777
2.21286
2.20787
2.20286
2.19782
2.1928
2.18779
2.18286
2.17798
2.17322
2.16856
2.16407
2.15974
2.15563
2.15172
2.1481
2.14473
2.14171
2.13898
2.13666
2.13468
2.13317
2.13203
2.13143
2.13125
2.13138
2.13167
2.13213
2.13306
2.13445
2.13635
2.13844
2.14078
2.14307
2.14539
2.14751
2.14954
2.15128
2.15286
2.1541
2.15516
2.15586
2.1564
2.1566
2.15668
2.15657
2.15645
2.15616
2.15585
2.15514
2.15462
2.15372
2.15316
2.15234
2.1522
2.15021
2.2984
2.25455
2.23037
2.21049
2.20067
2.19382
2.18807
2.182
2.17714
2.17334
2.17159
2.17108
2.17166
2.17202
2.17312
2.17534
2.17792
2.1811
2.18405
2.18768
2.19107
2.19494
2.19828
2.20181
2.20457
2.2073
2.2091
2.21076
2.21147
2.21205
2.21183
2.21118
2.21002
2.2085
2.20678
2.20504
2.20296
2.20034
2.19703
2.19331
2.1894
2.18533
2.18118
2.1769
2.17255
2.16809
2.16356
2.15896
2.15433
2.14968
2.14504
2.14043
2.13588
2.13141
2.12705
2.12282
2.11875
2.11487
2.11119
2.10776
2.10459
2.10172
2.09917
2.09697
2.09513
2.09371
2.0927
2.0922
2.09211
2.09225
2.09254
2.09308
2.09403
2.09544
2.09721
2.09923
2.10145
2.1037
2.10593
2.10802
2.10996
2.11166
2.11314
2.11434
2.11532
2.116
2.11648
2.11667
2.1167
2.11659
2.11647
2.11615
2.11583
2.11511
2.11463
2.11374
2.11323
2.11244
2.11237
2.11044
2.32204
2.28201
2.24831
2.22351
2.20307
2.18811
2.17572
2.16523
2.15573
2.14825
2.14237
2.13885
2.13673
2.13633
2.13638
2.13694
2.1388
2.14165
2.14486
2.14827
2.15191
2.15571
2.15948
2.16321
2.16661
2.16977
2.17235
2.17456
2.17608
2.17724
2.17767
2.17781
2.17721
2.1763
2.17523
2.17407
2.17256
2.1705
2.16778
2.16463
2.16122
2.15759
2.15385
2.14997
2.146
2.14192
2.13776
2.13351
2.12922
2.12488
2.12055
2.11621
2.11193
2.1077
2.10358
2.09957
2.09571
2.09201
2.08852
2.08525
2.08225
2.07952
2.07711
2.07502
2.07331
2.072
2.07111
2.07071
2.07069
2.07084
2.07113
2.07173
2.07271
2.07416
2.07587
2.07784
2.07994
2.08213
2.08426
2.08632
2.08817
2.08985
2.09126
2.09245
2.09337
2.09406
2.09449
2.09467
2.09466