/*--------------------------------*- C++ -*----------------------------------*\
| =========                 |                                                 |
| \\      /  F ield         | OpenFOAM: The Open Source CFD Toolbox           |
|  \\    /   O peration     | Version:  2412                                  |
|   \\  /    A nd           | Website:  www.openfoam.com                      |
|    \\/     M anipulation  |                                                 |
\*---------------------------------------------------------------------------*/
FoamFile
{
    version     2.0;
    format      ascii;
    arch        "LSB;label=32;scalar=64";
    class       volVectorField;
    location    "18";
    object      U;
}
// * * * * * * * * * * * * * * * * * * * * * * * * * * * * * * * * * * * * * //

dimensions      [0 1 -1 0 0 0 0];

internalField   nonuniform List<vector> 
7000
(
(2.59119 -7.25267e-05 0)
(1.62085 0.000178447 0)
(0.495873 0.000209 0)
(0.552995 0.000350858 0)
(0.654689 0.000446717 0)
(0.719905 0.000524796 0)
(0.732792 0.00059266 0)
(0.725899 0.000662972 0)
(0.715834 0.000741449 0)
(0.708133 0.000831886 0)
(0.703664 0.000930551 0)
(0.700095 0.00103378 0)
(0.696009 0.00114076 0)
(0.691153 0.00125244 0)
(0.685688 0.00136984 0)
(0.67974 0.00149354 0)
(0.673327 0.00162383 0)
(0.666415 0.00176104 0)
(0.65897 0.00190558 0)
(0.650964 0.00205802 0)
(0.642375 0.00221897 0)
(0.63318 0.00238908 0)
(0.623355 0.00256907 0)
(0.612871 0.00275971 0)
(0.601699 0.00296182 0)
(0.58981 0.00317627 0)
(0.577171 0.00340397 0)
(0.563749 0.00364588 0)
(0.549508 0.00390298 0)
(0.534413 0.00417624 0)
(0.518425 0.00446664 0)
(0.501509 0.00477506 0)
(0.483624 0.00510238 0)
(0.464735 0.00544922 0)
(0.444804 0.00581619 0)
(0.423799 0.00620336 0)
(0.401689 0.0066108 0)
(0.378451 0.00703766 0)
(0.354067 0.00748303 0)
(0.32853 0.00794471 0)
(0.301843 0.00842033 0)
(0.274025 0.00890579 0)
(0.245112 0.00939716 0)
(0.215154 0.00988806 0)
(0.184228 0.010374 0)
(0.152423 0.010848 0)
(0.119826 0.011314 0)
(0.086857 0.0117559 0)
(0.0514912 0.0123447 0)
(0.022117 0.0131976 0)
(2.59132 -4.81253e-05 0)
(1.62102 0.000347566 0)
(0.495561 0.000828327 0)
(0.552734 0.00114017 0)
(0.65445 0.00137542 0)
(0.719679 0.00159756 0)
(0.732567 0.00180563 0)
(0.725678 0.00202099 0)
(0.715622 0.00225855 0)
(0.707931 0.00252839 0)
(0.703468 0.00282125 0)
(0.699903 0.00312755 0)
(0.69582 0.00344512 0)
(0.690969 0.00377622 0)
(0.685509 0.00412349 0)
(0.679567 0.00448831 0)
(0.673159 0.00487143 0)
(0.666254 0.00527351 0)
(0.658815 0.00569566 0)
(0.650815 0.00613913 0)
(0.642234 0.00660545 0)
(0.633047 0.00709608 0)
(0.623229 0.00761277 0)
(0.612753 0.00815715 0)
(0.60159 0.00873113 0)
(0.58971 0.00933644 0)
(0.57708 0.00997508 0)
(0.563667 0.0106487 0)
(0.549436 0.0113591 0)
(0.53435 0.0121077 0)
(0.518372 0.0128959 0)
(0.501464 0.0137242 0)
(0.483587 0.0145933 0)
(0.464703 0.0155022 0)
(0.444776 0.01645 0)
(0.423771 0.0174334 0)
(0.401658 0.018449 0)
(0.378411 0.01949 0)
(0.354012 0.020549 0)
(0.328451 0.0216149 0)
(0.30173 0.0226751 0)
(0.273866 0.023713 0)
(0.244891 0.0247109 0)
(0.214856 0.0256477 0)
(0.183832 0.0265028 0)
(0.151911 0.0272567 0)
(0.119168 0.0279068 0)
(0.0860711 0.0284271 0)
(0.0505447 0.0290781 0)
(0.0211903 0.029829 0)
(2.59145 4.76434e-05 0)
(1.62131 0.000392439 0)
(0.495768 0.00160559 0)
(0.552787 0.00198136 0)
(0.654492 0.00230571 0)
(0.719721 0.00267147 0)
(0.732609 0.00304101 0)
(0.725731 0.00341996 0)
(0.715697 0.00383015 0)
(0.708027 0.00428818 0)
(0.703578 0.00478297 0)
(0.700022 0.0053017 0)
(0.69595 0.00584144 0)
(0.691109 0.00640505 0)
(0.685662 0.00699651 0)
(0.679734 0.00761782 0)
(0.673341 0.00827062 0)
(0.66645 0.00895598 0)
(0.659026 0.00967613 0)
(0.651044 0.010433 0)
(0.64248 0.0112295 0)
(0.633312 0.012068 0)
(0.623514 0.0129518 0)
(0.61306 0.0138835 0)
(0.60192 0.014867 0)
(0.590065 0.0159048 0)
(0.577461 0.0170011 0)
(0.564075 0.0181583 0)
(0.549872 0.0193804 0)
(0.534815 0.0206694 0)
(0.518867 0.0220286 0)
(0.501989 0.0234589 0)
(0.484142 0.024962 0)
(0.465286 0.0265367 0)
(0.445386 0.0281818 0)
(0.424404 0.0298928 0)
(0.402308 0.0316634 0)
(0.379072 0.0334843 0)
(0.354674 0.0353419 0)
(0.329103 0.0372199 0)
(0.302357 0.039095 0)
(0.27445 0.0409427 0)
(0.24541 0.0427303 0)
(0.215287 0.0444258 0)
(0.184148 0.0459922 0)
(0.152087 0.0473947 0)
(0.119174 0.0486208 0)
(0.0859343 0.0496311 0)
(0.0502687 0.0506839 0)
(0.0207503 0.0516779 0)
(2.59162 5.41246e-05 0)
(1.62176 0.000535963 0)
(0.496196 0.00235193 0)
(0.55291 0.00281554 0)
(0.654614 0.0032384 0)
(0.719864 0.0037586 0)
(0.732757 0.0043051 0)
(0.725894 0.00486119 0)
(0.715888 0.00545406 0)
(0.70825 0.00610647 0)
(0.703824 0.00680813 0)
(0.700286 0.00754516 0)
(0.69623 0.00831376 0)
(0.69141 0.00911703 0)
(0.685984 0.00995957 0)
(0.680079 0.0108442 0)
(0.67371 0.0117732 0)
(0.666844 0.0127485 0)
(0.659447 0.0137729 0)
(0.651494 0.0148496 0)
(0.64296 0.0159822 0)
(0.633825 0.0171747 0)
(0.624062 0.0184311 0)
(0.613645 0.019756 0)
(0.602545 0.0211538 0)
(0.590732 0.0226295 0)
(0.578172 0.0241876 0)
(0.564833 0.0258333 0)
(0.550679 0.0275707 0)
(0.535674 0.0294046 0)
(0.519778 0.0313379 0)
(0.502953 0.0333743 0)
(0.485159 0.0355143 0)
(0.466356 0.037759 0)
(0.446506 0.0401046 0)
(0.42557 0.042548 0)
(0.403514 0.0450784 0)
(0.380309 0.0476859 0)
(0.35593 0.0503498 0)
(0.330361 0.0530494 0)
(0.303599 0.0557526 0)
(0.275651 0.0584231 0)
(0.246543 0.061019 0)
(0.21632 0.0634887 0)
(0.185048 0.0657881 0)
(0.15282 0.0678606 0)
(0.119705 0.0696777 0)
(0.0862819 0.0711862 0)
(0.0504179 0.0726119 0)
(0.0206062 0.073769 0)
(2.59187 6.7759e-05 0)
(1.62239 0.000716549 0)
(0.496748 0.00310498 0)
(0.55302 0.00368125 0)
(0.654742 0.0042132 0)
(0.720036 0.00488753 0)
(0.732943 0.00561118 0)
(0.726098 0.00635146 0)
(0.716129 0.00713576 0)
(0.708532 0.00798875 0)
(0.704139 0.00890253 0)
(0.700628 0.0098642 0)
(0.696598 0.010869 0)
(0.691807 0.0119204 0)
(0.686413 0.0130228 0)
(0.680542 0.0141804 0)
(0.674208 0.0153955 0)
(0.66738 0.0166715 0)
(0.660024 0.0180114 0)
(0.652113 0.0194201 0)
(0.643625 0.0209016 0)
(0.634538 0.0224618 0)
(0.624828 0.0241053 0)
(0.614467 0.0258389 0)
(0.603426 0.0276676 0)
(0.591676 0.0295988 0)
(0.579183 0.0316376 0)
(0.565914 0.0337916 0)
(0.551834 0.0360657 0)
(0.536906 0.0384668 0)
(0.521089 0.0409986 0)
(0.504345 0.0436661 0)
(0.486632 0.0464704 0)
(0.46791 0.0494127 0)
(0.448137 0.0524895 0)
(0.427273 0.0556953 0)
(0.405281 0.0590192 0)
(0.382127 0.0624448 0)
(0.357784 0.0659509 0)
(0.332231 0.0695053 0)
(0.305457 0.0730734 0)
(0.277465 0.0766017 0)
(0.248276 0.0800387 0)
(0.217929 0.0833147 0)
(0.186489 0.0863632 0)
(0.154052 0.0891186 0)
(0.120676 0.0915218 0)
(0.0870018 0.0934965 0)
(0.0508496 0.0952347 0)
(0.020624 0.0964843 0)
(2.59221 8.0047e-05 0)
(1.62323 0.000900699 0)
(0.497447 0.00385709 0)
(0.553135 0.00455955 0)
(0.654885 0.00520684 0)
(0.720247 0.00603563 0)
(0.733181 0.00694191 0)
(0.726361 0.00787145 0)
(0.716436 0.00885585 0)
(0.708889 0.00991828 0)
(0.704538 0.0110525 0)
(0.701062 0.0122466 0)
(0.697069 0.0134961 0)
(0.692316 0.0148042 0)
(0.686965 0.0161757 0)
(0.681138 0.0176152 0)
(0.674851 0.019126 0)
(0.668073 0.020712 0)
(0.660769 0.0223775 0)
(0.652914 0.0241281 0)
(0.644487 0.0259694 0)
(0.635465 0.0279079 0)
(0.625824 0.0299506 0)
(0.615537 0.0321046 0)
(0.604576 0.0343777 0)
(0.59291 0.0367775 0)
(0.580507 0.0393127 0)
(0.567334 0.0419906 0)
(0.553353 0.0448199 0)
(0.538529 0.047807 0)
(0.522821 0.0509593 0)
(0.506188 0.054281 0)
(0.488588 0.0577764 0)
(0.469977 0.0614453 0)
(0.450313 0.0652861 0)
(0.429552 0.0692909 0)
(0.407652 0.0734488 0)
(0.384577 0.0777388 0)
(0.36029 0.082136 0)
(0.334769 0.0866011 0)
(0.307991 0.091089 0)
(0.279955 0.0955404 0)
(0.250671 0.0998836 0)
(0.220175 0.104037 0)
(0.188525 0.107905 0)
(0.155817 0.111398 0)
(0.122107 0.114436 0)
(0.0880728 0.116908 0)
(0.0515103 0.118958 0)
(0.0207752 0.120279 0)
(2.59264 9.27088e-05 0)
(1.62431 0.00108702 0)
(0.498304 0.00461698 0)
(0.553256 0.00545341 0)
(0.655043 0.00622247 0)
(0.720498 0.00720949 0)
(0.733471 0.00830572 0)
(0.726684 0.00942922 0)
(0.716814 0.0106206 0)
(0.709326 0.0119009 0)
(0.705027 0.0132638 0)
(0.701598 0.0146979 0)
(0.69765 0.0161999 0)
(0.692946 0.0177728 0)
(0.687648 0.0194221 0)
(0.681878 0.0211523 0)
(0.67565 0.022968 0)
(0.668935 0.0248734 0)
(0.661698 0.0268745 0)
(0.653915 0.0289771 0)
(0.645564 0.0311889 0)
(0.636624 0.0335171 0)
(0.627071 0.0359704 0)
(0.616878 0.0385574 0)
(0.606017 0.0412877 0)
(0.594459 0.0441705 0)
(0.58217 0.0472163 0)
(0.569118 0.0504346 0)
(0.555265 0.0538355 0)
(0.540575 0.057428 0)
(0.525006 0.0612205 0)
(0.508517 0.0652201 0)
(0.491063 0.0694314 0)
(0.4726 0.0738566 0)
(0.453079 0.0784934 0)
(0.432457 0.083335 0)
(0.410684 0.0883681 0)
(0.387718 0.0935707 0)
(0.363517 0.0989127 0)
(0.338046 0.104349 0)
(0.311279 0.109826 0)
(0.283201 0.11527 0)
(0.253815 0.120598 0)
(0.22314 0.125708 0)
(0.191235 0.130481 0)
(0.158189 0.1348 0)
(0.124049 0.138542 0)
(0.0895478 0.141565 0)
(0.0524174 0.143975 0)
(0.0210225 0.1454 0)
(2.59317 0.000105489 0)
(1.62563 0.00127384 0)
(0.499331 0.00538266 0)
(0.553386 0.00635681 0)
(0.65522 0.00725129 0)
(0.720795 0.00840072 0)
(0.733822 0.00968957 0)
(0.727076 0.0110142 0)
(0.717272 0.0124208 0)
(0.709854 0.013927 0)
(0.705618 0.015526 0)
(0.702245 0.0172081 0)
(0.698355 0.0189706 0)
(0.693712 0.0208169 0)
(0.688479 0.0227526 0)
(0.682778 0.0247827 0)
(0.676623 0.0269123 0)
(0.669984 0.0291468 0)
(0.662829 0.0314929 0)
(0.655134 0.033958 0)
(0.646878 0.0365506 0)
(0.638039 0.0392796 0)
(0.628594 0.0421551 0)
(0.618517 0.0451875 0)
(0.607781 0.0483878 0)
(0.596354 0.0517678 0)
(0.584207 0.0553391 0)
(0.571304 0.0591141 0)
(0.55761 0.0631042 0)
(0.543086 0.0673214 0)
(0.527691 0.0717756 0)
(0.511381 0.076476 0)
(0.494112 0.0814297 0)
(0.475833 0.0866397 0)
(0.456497 0.0921067 0)
(0.436051 0.0978228 0)
(0.414445 0.103776 0)
(0.391626 0.109942 0)
(0.367544 0.116289 0)
(0.342154 0.122765 0)
(0.315417 0.129309 0)
(0.287305 0.135836 0)
(0.257808 0.142242 0)
(0.226933 0.148411 0)
(0.194721 0.15419 0)
(0.161266 0.159431 0)
(0.126587 0.163982 0)
(0.0914657 0.167644 0)
(0.0536146 0.170472 0)
(0.0214122 0.172035 0)
(2.59381 0.000118338 0)
(1.62721 0.00146028 0)
(0.500544 0.00615145 0)
(0.553528 0.00726569 0)
(0.655418 0.00828889 0)
(0.721142 0.00960491 0)
(0.734241 0.0110922 0)
(0.727547 0.0126232 0)
(0.717821 0.014252 0)
(0.710485 0.0159921 0)
(0.706322 0.0178355 0)
(0.703018 0.0197736 0)
(0.699197 0.0218048 0)
(0.694628 0.023933 0)
(0.689473 0.0261636 0)
(0.683854 0.0285022 0)
(0.677786 0.0309545 0)
(0.67124 0.033527 0)
(0.664184 0.0362274 0)
(0.656594 0.0390642 0)
(0.64845 0.0420473 0)
(0.639733 0.0451872 0)
(0.630419 0.0484955 0)
(0.620482 0.0519843 0)
(0.609895 0.0556668 0)
(0.598629 0.0595565 0)
(0.586653 0.0636676 0)
(0.573932 0.0680142 0)
(0.560431 0.072611 0)
(0.54611 0.0774713 0)
(0.530926 0.0826087 0)
(0.514837 0.088034 0)
(0.497793 0.0937578 0)
(0.479745 0.0997845 0)
(0.460637 0.106118 0)
(0.440416 0.11275 0)
(0.419021 0.119672 0)
(0.396393 0.126859 0)
(0.372471 0.134274 0)
(0.347199 0.141868 0)
(0.320521 0.149566 0)
(0.292393 0.157279 0)
(0.262786 0.164881 0)
(0.231685 0.172231 0)
(0.199119 0.179156 0)
(0.165165 0.185455 0)
(0.129838 0.190932 0)
(0.0939431 0.19534 0)
(0.0551441 0.198679 0)
(0.0219199 0.200434 0)
(2.59456 0.000131111 0)
(1.62908 0.00164506 0)
(0.501957 0.00691817 0)
(0.553685 0.008174 0)
(0.655644 0.00932813 0)
(0.721549 0.0108143 0)
(0.734736 0.0125039 0)
(0.728106 0.0142472 0)
(0.718474 0.0161059 0)
(0.711232 0.018088 0)
(0.707154 0.0201842 0)
(0.703931 0.0223867 0)
(0.700193 0.0246951 0)
(0.695711 0.0271135 0)
(0.690647 0.0296475 0)
(0.685125 0.032303 0)
(0.67916 0.0350867 0)
(0.672722 0.0380057 0)
(0.665782 0.041069 0)
(0.658317 0.0442864 0)
(0.650307 0.047669 0)
(0.641733 0.0512291 0)
(0.632573 0.0549798 0)
(0.622802 0.0589353 0)
(0.612393 0.0631108 0)
(0.601318 0.0675218 0)
(0.589545 0.0721851 0)
(0.577041 0.0771172 0)
(0.56377 0.0823358 0)
(0.549692 0.0878568 0)
(0.534764 0.0936974 0)
(0.518941 0.0998713 0)
(0.502173 0.106392 0)
(0.484406 0.113268 0)
(0.465581 0.120505 0)
(0.445638 0.128099 0)
(0.424511 0.136042 0)
(0.402128 0.144313 0)
(0.378421 0.152873 0)
(0.353313 0.161672 0)
(0.326736 0.170629 0)
(0.298617 0.179646 0)
(0.26891 0.188583 0)
(0.237574 0.197272 0)
(0.204603 0.205506 0)
(0.170066 0.213045 0)
(0.133934 0.219631 0)
(0.0970686 0.224942 0)
(0.0571054 0.228905 0)
(0.0226253 0.230911 0)
(2.59543 0.000143686 0)
(1.63125 0.00182641 0)
(0.503585 0.00767535 0)
(0.553862 0.00907434 0)
(0.655901 0.0103618 0)
(0.72202 0.0120202 0)
(0.735318 0.013917 0)
(0.728768 0.0158775 0)
(0.719246 0.0179731 0)
(0.71211 0.0202059 0)
(0.70813 0.0225638 0)
(0.705002 0.0250395 0)
(0.70136 0.0276334 0)
(0.696979 0.0303503 0)
(0.692022 0.033196 0)
(0.686612 0.0361767 0)
(0.680765 0.0392997 0)
(0.674454 0.0425732 0)
(0.667649 0.0460074 0)
(0.660328 0.0496133 0)
(0.652474 0.0534037 0)
(0.644067 0.0573922 0)
(0.635087 0.0615941 0)
(0.625509 0.0660253 0)
(0.615308 0.0707033 0)
(0.604456 0.075646 0)
(0.592923 0.0808729 0)
(0.580674 0.0864032 0)
(0.567675 0.0922576 0)
(0.553885 0.0984558 0)
(0.539261 0.105018 0)
(0.523756 0.111962 0)
(0.507319 0.119305 0)
(0.489892 0.127062 0)
(0.471413 0.135239 0)
(0.451814 0.143842 0)
(0.431022 0.152862 0)
(0.408956 0.162285 0)
(0.38553 0.172072 0)
(0.360653 0.182177 0)
(0.334232 0.192514 0)
(0.306175 0.202979 0)
(0.27639 0.21342 0)
(0.244817 0.223643 0)
(0.211404 0.233409 0)
(0.176189 0.242411 0)
(0.139119 0.25033 0)
(0.10105 0.256762 0)
(0.0595841 0.261533 0)
(0.0235149 0.26389 0)
(2.59643 0.00015567 0)
(1.63373 0.00200242 0)
(0.505441 0.00841151 0)
(0.554063 0.00995763 0)
(0.656195 0.0113822 0)
(0.722567 0.0132109 0)
(0.735997 0.0153187 0)
(0.729542 0.0175016 0)
(0.72015 0.0198424 0)
(0.713138 0.0223352 0)
(0.70927 0.024964 0)
(0.706249 0.0277217 0)
(0.702718 0.0306098 0)
(0.698453 0.0336334 0)
(0.693618 0.0367988 0)
(0.688337 0.0401123 0)
(0.682626 0.0435821 0)
(0.676459 0.0472175 0)
(0.669809 0.0510296 0)
(0.662654 0.055031 0)
(0.654978 0.059236 0)
(0.646764 0.0636599 0)
(0.637991 0.06832 0)
(0.628637 0.0732344 0)
(0.618677 0.0784227 0)
(0.608084 0.0839058 0)
(0.596828 0.0897055 0)
(0.584877 0.0958447 0)
(0.572195 0.102347 0)
(0.558743 0.109236 0)
(0.544477 0.116537 0)
(0.529349 0.124272 0)
(0.513305 0.132462 0)
(0.496286 0.141128 0)
(0.478226 0.150285 0)
(0.459049 0.159941 0)
(0.438675 0.170097 0)
(0.417011 0.180743 0)
(0.393956 0.19185 0)
(0.369397 0.203372 0)
(0.343217 0.21523 0)
(0.315291 0.22731 0)
(0.28549 0.239458 0)
(0.253701 0.251453 0)
(0.219827 0.263023 0)
(0.183841 0.273813 0)
(0.14564 0.283398 0)
(0.10611 0.291256 0)
(0.0627943 0.297077 0)
(0.0247288 0.299917 0)
(2.59755 0.000164547 0)
(1.63654 0.00217291 0)
(0.507536 0.0091088 0)
(0.554299 0.0108109 0)
(0.656531 0.0123807 0)
(0.723194 0.0143701 0)
(0.736786 0.0166941 0)
(0.730448 0.019106 0)
(0.721209 0.0217006 0)
(0.714336 0.0244636 0)
(0.710593 0.0273734 0)
(0.707694 0.0304223 0)
(0.704288 0.0336132 0)
(0.700155 0.0369518 0)
(0.695459 0.0404445 0)
(0.690322 0.0440982 0)
(0.684766 0.0479217 0)
(0.678763 0.0519252 0)
(0.672288 0.0561213 0)
(0.665322 0.060524 0)
(0.65785 0.0651492 0)
(0.649855 0.0700142 0)
(0.641319 0.0751379 0)
(0.632221 0.0805409 0)
(0.622536 0.0862454 0)
(0.61224 0.0922748 0)
(0.601304 0.0986542 0)
(0.589696 0.10541 0)
(0.577381 0.112569 0)
(0.564322 0.120161 0)
(0.550473 0.128213 0)
(0.535787 0.136756 0)
(0.520209 0.145815 0)
(0.503677 0.155419 0)
(0.48612 0.165589 0)
(0.467459 0.176345 0)
(0.447603 0.187695 0)
(0.426448 0.19964 0)
(0.403877 0.212162 0)
(0.379756 0.225223 0)
(0.353934 0.238756 0)
(0.326251 0.252651 0)
(0.296526 0.26675 0)
(0.264587 0.280822 0)
(0.230267 0.294548 0)
(0.193465 0.307517 0)
(0.153975 0.319207 0)
(0.112639 0.328941 0)
(0.0669415 0.336211 0)
(0.0262952 0.339759 0)
(2.59881 0.000169943 0)
(1.63968 0.00233467 0)
(0.509867 0.0097566 0)
(0.554574 0.0116163 0)
(0.656908 0.0133347 0)
(0.723899 0.0154776 0)
(0.737695 0.018028 0)
(0.731494 0.0206753 0)
(0.722435 0.0235326 0)
(0.71572 0.0265766 0)
(0.712117 0.0297777 0)
(0.709354 0.0331275 0)
(0.70609 0.0366299 0)
(0.702105 0.0402914 0)
(0.697563 0.0441185 0)
(0.69259 0.0481187 0)
(0.687206 0.0523013 0)
(0.681388 0.0566781 0)
(0.67511 0.0612626 0)
(0.668357 0.0660706 0)
(0.661115 0.0711195 0)
(0.653369 0.0764287 0)
(0.645101 0.0820192 0)
(0.636292 0.0879141 0)
(0.626921 0.0941378 0)
(0.616963 0.100717 0)
(0.606392 0.10768 0)
(0.595177 0.115057 0)
(0.583285 0.12288 0)
(0.570677 0.131181 0)
(0.557313 0.139995 0)
(0.543143 0.149358 0)
(0.528112 0.159304 0)
(0.512155 0.169869 0)
(0.495202 0.181085 0)
(0.477166 0.192982 0)
(0.457949 0.205583 0)
(0.437437 0.218901 0)
(0.415493 0.232937 0)
(0.391965 0.247668 0)
(0.366667 0.263046 0)
(0.339393 0.278977 0)
(0.309908 0.295314 0)
(0.27795 0.311824 0)
(0.243255 0.328175 0)
(0.205602 0.343886 0)
(0.164655 0.35831 0)
(0.12118 0.370572 0)
(0.0725094 0.379878 0)
(0.0284949 0.384489 0)
(2.60021 0.00017837 0)
(1.64315 0.00247649 0)
(0.512436 0.0103592 0)
(0.554894 0.0123554 0)
(0.657335 0.0142039 0)
(0.724699 0.016518 0)
(0.738745 0.0192924 0)
(0.732705 0.0221855 0)
(0.723856 0.0253228 0)
(0.717319 0.0286605 0)
(0.71387 0.0321635 0)
(0.711258 0.0358241 0)
(0.70815 0.0396472 0)
(0.704329 0.04364 0)
(0.699959 0.047809 0)
(0.695166 0.0521621 0)
(0.689974 0.0567093 0)
(0.68436 0.0614638 0)
(0.678303 0.0664402 0)
(0.671788 0.0716561 0)
(0.664803 0.0771306 0)
(0.657334 0.0828852 0)
(0.649368 0.0889428 0)
(0.640885 0.0953295 0)
(0.631868 0.102072 0)
(0.622292 0.109201 0)
(0.612134 0.116747 0)
(0.601365 0.124745 0)
(0.589955 0.133231 0)
(0.577867 0.142243 0)
(0.56506 0.151823 0)
(0.551486 0.162013 0)
(0.537093 0.172856 0)
(0.521816 0.184398 0)
(0.50558 0.196683 0)
(0.488299 0.209755 0)
(0.469866 0.223656 0)
(0.45016 0.238417 0)
(0.429029 0.254063 0)
(0.406295 0.2706 0)
(0.381744 0.288007 0)
(0.355118 0.306223 0)
(0.326117 0.325127 0)
(0.294386 0.344513 0)
(0.259523 0.364049 0)
(0.221134 0.383222 0)
(0.178643 0.401261 0)
(0.132614 0.417069 0)
(0.0800924 0.429411 0)
(0.0315268 0.435759 0)
(2.60174 0.000188213 0)
(1.64696 0.00259383 0)
(0.515271 0.0108907 0)
(0.555263 0.0129987 0)
(0.657835 0.014959 0)
(0.725634 0.0174596 0)
(0.739967 0.020464 0)
(0.73413 0.0236151 0)
(0.725523 0.0270489 0)
(0.71918 0.0306946 0)
(0.715897 0.034511 0)
(0.71345 0.0384916 0)
(0.710514 0.0426427 0)
(0.706872 0.0469724 0)
(0.702689 0.0514873 0)
(0.698094 0.0561962 0)
(0.693111 0.06111 0)
(0.687722 0.066243 0)
(0.681907 0.0716117 0)
(0.675654 0.0772352 0)
(0.668952 0.0831345 0)
(0.661791 0.0893332 0)
(0.654159 0.0958564 0)
(0.64604 0.102732 0)
(0.637416 0.109991 0)
(0.628268 0.117666 0)
(0.618574 0.125791 0)
(0.608309 0.134406 0)
(0.597443 0.143552 0)
(0.585944 0.153273 0)
(0.573773 0.163616 0)
(0.560887 0.174632 0)
(0.547232 0.186375 0)
(0.532748 0.198901 0)
(0.517361 0.21227 0)
(0.500984 0.226541 0)
(0.483508 0.241778 0)
(0.464806 0.25804 0)
(0.444716 0.275381 0)
(0.423042 0.293846 0)
(0.399539 0.313461 0)
(0.373903 0.334221 0)
(0.345757 0.356062 0)
(0.314641 0.378832 0)
(0.279984 0.402295 0)
(0.24113 0.425916 0)
(0.197199 0.448808 0)
(0.148344 0.469702 0)
(0.0910112 0.486722 0)
(0.036156 0.496131 0)
(2.60339 0.000194161 0)
(1.6511 0.0026838 0)
(0.518354 0.0113012 0)
(0.555684 0.013506 0)
(0.658421 0.0155735 0)
(0.72673 0.0182597 0)
(0.7414 0.0215183 0)
(0.735805 0.0249439 0)
(0.727476 0.0286909 0)
(0.721342 0.0326656 0)
(0.718237 0.0368155 0)
(0.715966 0.0411328 0)
(0.713214 0.045626 0)
(0.709765 0.0503041 0)
(0.705786 0.0551743 0)
(0.701404 0.0602455 0)
(0.696649 0.0655298 0)
(0.691505 0.0710427 0)
(0.685955 0.0768025 0)
(0.679989 0.0828302 0)
(0.673599 0.0891488 0)
(0.666778 0.0957839 0)
(0.659514 0.102764 0)
(0.651796 0.110118 0)
(0.643609 0.117882 0)
(0.634936 0.126089 0)
(0.625759 0.134781 0)
(0.616055 0.143999 0)
(0.6058 0.15379 0)
(0.594965 0.164204 0)
(0.583515 0.175297 0)
(0.571412 0.187126 0)
(0.558606 0.199757 0)
(0.545042 0.213259 0)
(0.530651 0.227708 0)
(0.515347 0.243186 0)
(0.499029 0.259777 0)
(0.481565 0.277575 0)
(0.462794 0.296674 0)
(0.442509 0.317174 0)
(0.42045 0.339147 0)
(0.396271 0.362706 0)
(0.369523 0.387877 0)
(0.339681 0.414538 0)
(0.305959 0.442734 0)
(0.267309 0.472052 0)
(0.222426 0.501655 0)
(0.170709 0.530099 0)
(0.107368 0.554913 0)
(0.0434827 0.570092 0)
(2.60514 0.000196801 0)
(1.65552 0.00273454 0)
(0.521663 0.0115429 0)
(0.55617 0.0138294 0)
(0.659119 0.0159983 0)
(0.72803 0.018873 0)
(0.743097 0.0224034 0)
(0.737784 0.026121 0)
(0.729776 0.0301989 0)
(0.723872 0.0345159 0)
(0.720955 0.0390065 0)
(0.718868 0.0436632 0)
(0.716312 0.0484984 0)
(0.713069 0.0535237 0)
(0.709305 0.0587476 0)
(0.705151 0.0641794 0)
(0.700639 0.0698328 0)
(0.695757 0.0757243 0)
(0.690492 0.0818743 0)
(0.684835 0.0883048 0)
(0.678783 0.095041 0)
(0.67233 0.10211 0)
(0.665469 0.109542 0)
(0.65819 0.11737 0)
(0.650482 0.12563 0)
(0.642332 0.134361 0)
(0.633725 0.143606 0)
(0.624644 0.153412 0)
(0.615068 0.16383 0)
(0.604975 0.174918 0)
(0.594335 0.186737 0)
(0.583116 0.199355 0)
(0.571278 0.212849 0)
(0.558771 0.227302 0)
(0.545536 0.242808 0)
(0.531497 0.259469 0)
(0.516562 0.277402 0)
(0.500611 0.296736 0)
(0.483494 0.317607 0)
(0.464994 0.340223 0)
(0.444885 0.364651 0)
(0.422815 0.391091 0)
(0.398177 0.419924 0)
(0.370522 0.451206 0)
(0.33896 0.485074 0)
(0.301915 0.521538 0)
(0.257462 0.560264 0)
(0.203867 0.600039 0)
(0.133826 0.638326 0)
(0.0565601 0.666367 0)
(2.60698 0.000195319 0)
(1.66016 0.00273513 0)
(0.525165 0.0115406 0)
(0.556747 0.0138937 0)
(0.659963 0.0161725 0)
(0.729581 0.0192642 0)
(0.745114 0.0231159 0)
(0.740127 0.0271849 0)
(0.732475 0.0316596 0)
(0.726808 0.0363722 0)
(0.724077 0.041244 0)
(0.722179 0.0462709 0)
(0.719827 0.0514708 0)
(0.716803 0.0568587 0)
(0.713269 0.0624431 0)
(0.709358 0.0682348 0)
(0.705108 0.0742494 0)
(0.70051 0.0805063 0)
(0.695553 0.0870281 0)
(0.690232 0.09384 0)
(0.684547 0.100969 0)
(0.678494 0.108446 0)
(0.67207 0.116303 0)
(0.665268 0.124576 0)
(0.658081 0.133303 0)
(0.650501 0.142527 0)
(0.642518 0.152294 0)
(0.63412 0.162656 0)
(0.625292 0.173669 0)
(0.616018 0.185394 0)
(0.606279 0.197902 0)
(0.596048 0.211269 0)
(0.585298 0.225582 0)
(0.573992 0.240939 0)
(0.562082 0.257454 0)
(0.549511 0.275249 0)
(0.536207 0.294458 0)
(0.522064 0.315305 0)
(0.507007 0.337875 0)
(0.49076 0.362419 0)
(0.47307 0.389367 0)
(0.453932 0.418945 0)
(0.43272 0.451639 0)
(0.408634 0.487946 0)
(0.380866 0.52832 0)
(0.347868 0.573486 0)
(0.306998 0.624267 0)
(0.255023 0.680997 0)
(0.1804 0.743048 0)
(0.0832311 0.803208 0)
(2.60887 0.000138064 0)
(1.66493 0.00273418 0)
(0.528759 0.0112008 0)
(0.55744 0.0135489 0)
(0.661014 0.0159248 0)
(0.731481 0.0192168 0)
(0.747582 0.0233923 0)
(0.742988 0.0278166 0)
(0.735735 0.0326919 0)
(0.730302 0.0377939 0)
(0.727745 0.0430344 0)
(0.726027 0.0484213 0)
(0.723877 0.0539834 0)
(0.721069 0.0597375 0)
(0.717763 0.065692 0)
(0.714097 0.0718571 0)
(0.710113 0.0782484 0)
(0.705807 0.0848861 0)
(0.701172 0.0917943 0)
(0.696206 0.098999 0)
(0.690911 0.106529 0)
(0.685286 0.114416 0)
(0.679332 0.122693 0)
(0.673046 0.1314 0)
(0.666424 0.140576 0)
(0.659465 0.150267 0)
(0.652161 0.160523 0)
(0.644508 0.171399 0)
(0.6365 0.182956 0)
(0.628127 0.195261 0)
(0.619379 0.208392 0)
(0.610244 0.222434 0)
(0.600707 0.237483 0)
(0.590748 0.253648 0)
(0.58034 0.271069 0)
(0.569432 0.289924 0)
(0.558044 0.310234 0)
(0.54601 0.332278 0)
(0.533223 0.356443 0)
(0.51986 0.382931 0)
(0.505642 0.412265 0)
(0.490272 0.444878 0)
(0.473497 0.481262 0)
(0.454825 0.522402 0)
(0.433612 0.569472 0)
(0.408686 0.624293 0)
(0.377656 0.689761 0)
(0.336617 0.77095 0)
(0.270954 0.878215 0)
(0.146442 1.04345 0)
(2.61125 7.74658e-05 0)
(1.67071 0.00260431 0)
(0.532467 0.0103771 0)
(0.557931 0.0128148 0)
(0.662134 0.015435 0)
(0.733813 0.0191912 0)
(0.75074 0.0239912 0)
(0.746696 0.0290523 0)
(0.739977 0.0345712 0)
(0.734836 0.0402407 0)
(0.732511 0.0459713 0)
(0.731064 0.0517986 0)
(0.729228 0.0577728 0)
(0.726762 0.0639209 0)
(0.723817 0.0702576 0)
(0.720536 0.0767973 0)
(0.716968 0.0835606 0)
(0.713117 0.0905732 0)
(0.708979 0.0978637 0)
(0.704556 0.105462 0)
(0.699854 0.113399 0)
(0.694878 0.121711 0)
(0.689634 0.130432 0)
(0.684124 0.139603 0)
(0.678354 0.149267 0)
(0.672327 0.159471 0)
(0.666046 0.170268 0)
(0.659518 0.181713 0)
(0.652746 0.193873 0)
(0.645737 0.20682 0)
(0.638497 0.220633 0)
(0.631033 0.235403 0)
(0.623348 0.251258 0)
(0.615468 0.268281 0)
(0.607457 0.286566 0)
(0.599087 0.306362 0)
(0.590407 0.327896 0)
(0.581896 0.35135 0)
(0.573411 0.377156 0)
(0.564729 0.405673 0)
(0.555971 0.437252 0)
(0.547222 0.4726 0)
(0.538673 0.512556 0)
(0.530551 0.558404 0)
(0.523396 0.61193 0)
(0.518386 0.675895 0)
(0.518241 0.754765 0)
(0.531167 0.855968 0)
(0.587145 0.990688 0)
(0.657229 1.18538 0)
(2.61376 5.92574e-05 0)
(1.67686 0.00194336 0)
(0.536989 0.00776762 0)
(0.55957 0.00993021 0)
(0.664781 0.0125133 0)
(0.738205 0.0166897 0)
(0.756209 0.0222217 0)
(0.752766 0.0280629 0)
(0.746507 0.0343954 0)
(0.741434 0.0407852 0)
(0.739125 0.0471637 0)
(0.737778 0.0536067 0)
(0.736121 0.060179 0)
(0.733878 0.0669074 0)
(0.731186 0.0738026 0)
(0.728193 0.0808795 0)
(0.724958 0.0881616 0)
(0.721491 0.0956771 0)
(0.717792 0.103457 0)
(0.713865 0.111532 0)
(0.709719 0.119937 0)
(0.705364 0.128707 0)
(0.700808 0.137881 0)
(0.69606 0.147502 0)
(0.691132 0.157614 0)
(0.686033 0.168268 0)
(0.680778 0.179519 0)
(0.675381 0.191426 0)
(0.669861 0.204056 0)
(0.664237 0.217488 0)
(0.658528 0.231826 0)
(0.652801 0.247086 0)
(0.647032 0.263387 0)
(0.641148 0.280945 0)
(0.635387 0.299891 0)
(0.629962 0.32036 0)
(0.624764 0.342696 0)
(0.619862 0.367097 0)
(0.615483 0.393754 0)
(0.611784 0.42312 0)
(0.60904 0.455716 0)
(0.607727 0.492196 0)
(0.608512 0.533475 0)
(0.612489 0.580704 0)
(0.62148 0.635547 0)
(0.638805 0.70016 0)
(0.670477 0.777463 0)
(0.725502 0.870889 0)
(0.836672 0.980467 0)
(0.984551 1.09505 0)
(2.61522 7.01247e-05 0)
(1.68042 0.00130547 0)
(0.53985 0.0054626 0)
(0.561319 0.00791516 0)
(0.668134 0.0111085 0)
(0.743971 0.016472 0)
(0.763422 0.0232716 0)
(0.76071 0.0302082 0)
(0.754922 0.0372714 0)
(0.749844 0.0440799 0)
(0.747544 0.0507565 0)
(0.746332 0.0574785 0)
(0.744881 0.0643259 0)
(0.742861 0.0713194 0)
(0.740405 0.0784653 0)
(0.737673 0.0857869 0)
(0.734739 0.0933173 0)
(0.731617 0.101092 0)
(0.72831 0.109143 0)
(0.724827 0.117505 0)
(0.72118 0.126211 0)
(0.717386 0.135297 0)
(0.713457 0.1448 0)
(0.709412 0.154762 0)
(0.705267 0.165224 0)
(0.701042 0.176235 0)
(0.696761 0.187846 0)
(0.692446 0.200125 0)
(0.688137 0.213123 0)
(0.683903 0.22687 0)
(0.67965 0.241482 0)
(0.675413 0.257102 0)
(0.671527 0.273791 0)
(0.668029 0.291713 0)
(0.664837 0.311064 0)
(0.662107 0.331925 0)
(0.660014 0.354469 0)
(0.658732 0.378961 0)
(0.658544 0.405692 0)
(0.659815 0.435004 0)
(0.663013 0.467355 0)
(0.668884 0.503263 0)
(0.678493 0.543389 0)
(0.69332 0.588497 0)
(0.715749 0.639444 0)
(0.749236 0.697073 0)
(0.799373 0.761655 0)
(0.87176 0.832239 0)
(0.984711 0.903866 0)
(1.12039 0.956706 0)
(2.61642 4.05306e-05 0)
(1.68349 -0.00153014 0)
(0.545215 -0.00483574 0)
(0.567293 -0.00303788 0)
(0.675906 0.00100579 0)
(0.754112 0.00905831 0)
(0.774441 0.0185934 0)
(0.771507 0.0278793 0)
(0.765124 0.0364688 0)
(0.759453 0.0442731 0)
(0.756975 0.0517675 0)
(0.755848 0.0592476 0)
(0.754563 0.0667914 0)
(0.752728 0.0744184 0)
(0.750484 0.0821239 0)
(0.74802 0.0899438 0)
(0.745417 0.0979234 0)
(0.742684 0.106104 0)
(0.739819 0.114524 0)
(0.73683 0.123219 0)
(0.733731 0.13223 0)
(0.730538 0.141594 0)
(0.727268 0.151354 0)
(0.723944 0.161548 0)
(0.720589 0.172224 0)
(0.717229 0.183442 0)
(0.713912 0.195223 0)
(0.710658 0.207609 0)
(0.707426 0.220704 0)
(0.704343 0.234585 0)
(0.70162 0.249302 0)
(0.699224 0.265022 0)
(0.697169 0.281834 0)
(0.695624 0.299756 0)
(0.69469 0.318939 0)
(0.694531 0.339543 0)
(0.695367 0.361734 0)
(0.697453 0.385713 0)
(0.701145 0.411705 0)
(0.706875 0.439965 0)
(0.715249 0.470775 0)
(0.727077 0.504465 0)
(0.743497 0.541315 0)
(0.766001 0.581603 0)
(0.796647 0.625412 0)
(0.838124 0.672464 0)
(0.894071 0.721701 0)
(0.967184 0.770533 0)
(1.06839 0.814743 0)
(1.18144 0.840307 0)
(2.6121 0.00229307 0)
(1.67347 -0.0067686 0)
(0.549799 -0.0137786 0)
(0.583102 -0.00800246 0)
(0.69616 -0.000376248 0)
(0.777936 0.00989797 0)
(0.798552 0.0200933 0)
(0.794135 0.0297423 0)
(0.785806 0.0382592 0)
(0.778761 0.0461226 0)
(0.775644 0.0538055 0)
(0.774161 0.0614644 0)
(0.772575 0.0691341 0)
(0.770433 0.0768465 0)
(0.767896 0.0846543 0)
(0.765205 0.0926104 0)
(0.762442 0.100759 0)
(0.759612 0.109138 0)
(0.756714 0.11778 0)
(0.753761 0.126719 0)
(0.75077 0.135988 0)
(0.747761 0.145618 0)
(0.744754 0.155644 0)
(0.741777 0.166097 0)
(0.738883 0.176989 0)
(0.736051 0.188379 0)
(0.733281 0.200346 0)
(0.730736 0.212909 0)
(0.728508 0.226135 0)
(0.726581 0.240129 0)
(0.725018 0.254923 0)
(0.723924 0.270543 0)
(0.723388 0.287102 0)
(0.723555 0.304692 0)
(0.724587 0.323415 0)
(0.726667 0.343406 0)
(0.730043 0.364782 0)
(0.734996 0.387695 0)
(0.7419 0.41228 0)
(0.751223 0.438687 0)
(0.763562 0.467043 0)
(0.779689 0.497456 0)
(0.80058 0.529943 0)
(0.827483 0.564389 0)
(0.861924 0.600448 0)
(0.905734 0.637362 0)
(0.961199 0.673793 0)
(1.02992 0.707408 0)
(1.11631 0.735278 0)
(1.20917 0.749028 0)
(2.60382 0.00792061 0)
(1.64325 -0.0735282 0)
(0.585119 -0.072582 0)
(0.623996 -0.0457536 0)
(0.731429 -0.00576495 0)
(0.809065 0.0165226 0)
(0.827077 0.0266305 0)
(0.821124 0.0352973 0)
(0.811613 0.0426678 0)
(0.804251 0.0507871 0)
(0.800874 0.0593207 0)
(0.799014 0.0677558 0)
(0.797032 0.0759689 0)
(0.794589 0.08404 0)
(0.791863 0.092106 0)
(0.78903 0.100246 0)
(0.786148 0.108508 0)
(0.783218 0.116933 0)
(0.780238 0.125563 0)
(0.777222 0.134447 0)
(0.77419 0.143631 0)
(0.771169 0.153142 0)
(0.768181 0.162995 0)
(0.765218 0.173244 0)
(0.762359 0.183954 0)
(0.759745 0.195135 0)
(0.757362 0.206843 0)
(0.75521 0.219135 0)
(0.753408 0.232033 0)
(0.75203 0.245591 0)
(0.751152 0.259882 0)
(0.750884 0.27497 0)
(0.751354 0.290915 0)
(0.752716 0.307799 0)
(0.755145 0.32568 0)
(0.758839 0.344647 0)
(0.764049 0.364767 0)
(0.771078 0.386122 0)
(0.780272 0.408781 0)