/*--------------------------------*- C++ -*----------------------------------*\
| =========                 |                                                 |
| \\      /  F ield         | OpenFOAM: The Open Source CFD Toolbox           |
|  \\    /   O peration     | Version:  2412                                  |
|   \\  /    A nd           | Website:  www.openfoam.com                      |
|    \\/     M anipulation  |                                                 |
\*---------------------------------------------------------------------------*/
FoamFile
{
    version     2.0;
    format      ascii;
    arch        "LSB;label=32;scalar=64";
    class       volScalarField;
    location    "13.5";
    object      Ma;
}
// * * * * * * * * * * * * * * * * * * * * * * * * * * * * * * * * * * * * * //

dimensions      [0 0 0 0 0 0 0];

internalField   nonuniform List<scalar> 
7000
(
2.26208
1.0048
0.307648
0.338628
0.4016
0.443903
0.452349
0.447977
0.441521
0.436495
0.433558
0.431244
0.42862
0.425499
0.422037
0.418245
0.414207
0.409819
0.405134
0.400088
0.3947
0.388919
0.382743
0.37615
0.369131
0.361687
0.353763
0.34536
0.336454
0.327037
0.31708
0.306567
0.295414
0.283675
0.271289
0.258284
0.244671
0.230364
0.215404
0.199751
0.183417
0.166432
0.148799
0.130566
0.111827
0.0925689
0.0728428
0.0530798
0.0321413
0.0155813
2.26213
1.00485
0.307368
0.33838
0.401224
0.443288
0.451805
0.447452
0.441133
0.436196
0.433295
0.431004
0.428407
0.425318
0.421885
0.418116
0.414094
0.409717
0.405043
0.400005
0.394624
0.388853
0.382685
0.376102
0.369097
0.361663
0.35375
0.345362
0.336472
0.327074
0.317134
0.306637
0.295504
0.283787
0.271429
0.258454
0.244872
0.230599
0.215677
0.200067
0.183782
0.166855
0.149294
0.131153
0.11254
0.0934702
0.0740531
0.0548782
0.0353684
0.0221148
2.26226
1.00505
0.307538
0.338483
0.401335
0.443422
0.451948
0.447612
0.441304
0.436371
0.433466
0.431165
0.428564
0.42547
0.422038
0.418267
0.414253
0.409878
0.405216
0.400185
0.394823
0.389065
0.38292
0.376356
0.369379
0.361968
0.354088
0.345731
0.33688
0.327521
0.31763
0.307183
0.296107
0.284452
0.272163
0.259268
0.245774
0.2316
0.216788
0.201306
0.18517
0.168423
0.151081
0.133223
0.114986
0.0964526
0.0778575
0.060055
0.0432362
0.0336373
2.26243
1.00535
0.307794
0.33853
0.401418
0.443467
0.451934
0.447527
0.441234
0.4364
0.433584
0.431327
0.428728
0.425635
0.422209
0.418467
0.414477
0.410145
0.405503
0.400515
0.395172
0.389459
0.383338
0.376821
0.369873
0.362517
0.354673
0.346383
0.33758
0.3283
0.318474
0.308117
0.297126
0.285581
0.273401
0.260641
0.247286
0.233276
0.218647
0.203371
0.187482
0.17102
0.154034
0.136618
0.118961
0.101223
0.0837687
0.0676663
0.0534894
0.0462589
2.26267
1.00577
0.308145
0.338644
0.401535
0.443664
0.452201
0.447885
0.441647
0.436813
0.433958
0.431698
0.429109
0.426045
0.422628
0.418901
0.414917
0.410595
0.405971
0.400998
0.395691
0.390008
0.383943
0.377467
0.370586
0.363282
0.355518
0.347295
0.33859
0.329392
0.319688
0.309432
0.298593
0.287174
0.275177
0.262584
0.249448
0.235656
0.221297
0.206312
0.190767
0.174709
0.158202
0.141382
0.124476
0.107724
0.0915926
0.0772376
0.0652912
0.0595887
2.26298
1.00632
0.308582
0.338696
0.401641
0.443773
0.45228
0.447914
0.441687
0.43693
0.434203
0.432007
0.429465
0.426409
0.42303
0.419323
0.415399
0.41111
0.406547
0.401607
0.396359
0.390723
0.384728
0.378316
0.371514
0.364284
0.356615
0.348489
0.339904
0.33083
0.321265
0.311166
0.300493
0.28928
0.277488
0.265157
0.252276
0.238808
0.224775
0.210194
0.195086
0.179552
0.163653
0.14757
0.131563
0.115928
0.101201
0.0885083
0.0783734
0.0737305
2.26337
1.00701
0.30912
0.338772
0.401772
0.443974
0.452481
0.448124
0.44186
0.437093
0.43442
0.432327
0.429893
0.426904
0.423569
0.419892
0.416009
0.411786
0.407284
0.402426
0.397234
0.391684
0.38576
0.37946
0.372741
0.365627
0.358047
0.350061
0.341601
0.332711
0.32331
0.31342
0.302947
0.291983
0.28045
0.268423
0.255875
0.242782
0.229177
0.215067
0.200514
0.185601
0.170439
0.155209
0.140224
0.125792
0.112461
0.10129
0.0926367
0.0887532
2.26386
1.00786
0.309748
0.338865
0.401881
0.44419
0.452747
0.448427
0.442216
0.437445
0.43476
0.432685
0.430326
0.427484
0.424268
0.420668
0.416822
0.412651
0.408202
0.403424
0.39831
0.392856
0.387034
0.380848
0.374251
0.367264
0.359827
0.351984
0.343705
0.334987
0.325814
0.316143
0.305951
0.295263
0.284074
0.272397
0.260273
0.247621
0.234546
0.220998
0.207107
0.192927
0.178607
0.164346
0.15045
0.137273
0.125305
0.115486
0.108043
0.104767
2.26445
1.00889
0.310495
0.338969
0.402034
0.444413
0.453035
0.448758
0.442608
0.437911
0.435252
0.433179
0.430809
0.427959
0.424771
0.421257
0.4175
0.413431
0.409069
0.404373
0.399352
0.39399
0.3883
0.382253
0.375826
0.368999
0.361758
0.35411
0.346062
0.337585
0.328677
0.319307
0.309435
0.299121
0.288322
0.277112
0.265464
0.253393
0.240904
0.228065
0.214909
0.201598
0.188207
0.175005
0.162285
0.150346
0.139696
0.131117
0.124704
0.121877
2.26513
1.01009
0.311364
0.339072
0.402213
0.444685
0.453375
0.449148
0.443067
0.438452
0.435857
0.43385
0.431526
0.42873
0.425595
0.422152
0.418474
0.414487
0.41023
0.40564
0.400748
0.395507
0.389953
0.384047
0.377793
0.371165
0.364141
0.356729
0.348921
0.340727
0.332089
0.323061
0.313539
0.303652
0.293329
0.282631
0.271588
0.26013
0.248378
0.236293
0.224027
0.211635
0.199325
0.187241
0.17574
0.165102
0.155685
0.14823
0.142713
0.140323
2.26592
1.01149
0.312363
0.339195
0.402407
0.445004
0.453775
0.449601
0.443611
0.43906
0.436552
0.434611
0.432375
0.429656
0.426615
0.423258
0.419686
0.415793
0.411653
0.407176
0.402424
0.397323
0.391927
0.386179
0.380106
0.373693
0.366908
0.359776
0.352257
0.34438
0.3361
0.327461
0.318398
0.308991
0.29922
0.289103
0.278703
0.267967
0.256989
0.245797
0.234473
0.223174
0.211972
0.201143
0.190917
0.181556
0.173427
0.167057
0.162369
0.160294
2.26682
1.01308
0.313497
0.339332
0.402629
0.445378
0.454244
0.450145
0.444239
0.439781
0.437343
0.435488
0.433337
0.430709
0.427772
0.424518
0.421061
0.417296
0.413275
0.408952
0.404338
0.399427
0.394193
0.388666
0.38279
0.376625
0.370106
0.363267
0.356086
0.348563
0.340691
0.332507
0.32395
0.315112
0.30595
0.296507
0.286835
0.276903
0.266818
0.256602
0.246368
0.236215
0.226305
0.216776
0.207932
0.199937
0.193034
0.187751
0.183881
0.182236
2.26784
1.01488
0.314771
0.339485
0.402883
0.445809
0.45479
0.450775
0.444976
0.440612
0.438267
0.436491
0.434446
0.431904
0.429081
0.425937
0.422617
0.418974
0.41512
0.410947
0.406515
0.401789
0.396774
0.391472
0.385857
0.379959
0.373748
0.367244
0.360433
0.353326
0.345909
0.338229
0.330245
0.322015
0.313557
0.304851
0.296017
0.286984
0.277908
0.268786
0.259752
0.250912
0.242355
0.234301
0.22693
0.220407
0.214926
0.21082
0.207823
0.206493
2.26897
1.01689
0.31619
0.339656
0.403174
0.446308
0.455428
0.451507
0.445839
0.441572
0.439334
0.437651
0.435713
0.433288
0.430577
0.427567
0.42436
0.420898
0.417177
0.41321
0.408955
0.404458
0.399667
0.394633
0.389297
0.383722
0.377847
0.371729
0.365328
0.35869
0.35178
0.344665
0.337306
0.329765
0.322061
0.314202
0.306274
0.298277
0.290297
0.282421
0.274703
0.267312
0.260322
0.253858
0.248171
0.243283
0.239315
0.236573
0.234661
0.233959
2.27021
1.0191
0.317754
0.339851
0.403506
0.446886
0.456166
0.452364
0.446834
0.442691
0.440554
0.438989
0.437157
0.434866
0.432269
0.429421
0.426345
0.42306
0.419506
0.41574
0.411706
0.407442
0.402921
0.398164
0.393154
0.38791
0.38244
0.376717
0.370811
0.364661
0.358337
0.351835
0.345169
0.338378
0.331522
0.32457
0.317679
0.310795
0.304066
0.297544
0.291328
0.285532
0.280272
0.275677
0.271884
0.269015
0.267
0.266022
0.265463
0.265416
2.27157
1.02152
0.319463
0.340078
0.403895
0.447557
0.457027
0.453358
0.447988
0.443982
0.44196
0.440513
0.438814
0.436649
0.4342
0.431499
0.428597
0.42548
0.422135
0.418568
0.414779
0.410765
0.406542
0.40209
0.397443
0.392566
0.387523
0.382264
0.376854
0.371291
0.365563
0.359762
0.353844
0.347886
0.341944
0.336025
0.330227
0.324611
0.319232
0.314222
0.309668
0.305705
0.302429
0.299957
0.298481
0.297961
0.298383
0.299816
0.301493
0.302957
2.27303
1.02413
0.321288
0.34034
0.404346
0.448331
0.45802
0.454502
0.449333
0.445455
0.443581
0.442254
0.440689
0.43867
0.436388
0.433832
0.431129
0.428182
0.425074
0.421715
0.418207
0.414455
0.410552
0.40644
0.402165
0.397716
0.393113
0.388375
0.383497
0.378559
0.373495
0.368442
0.363337
0.358295
0.353339
0.348528
0.343961
0.339676
0.335823
0.332478
0.329763
0.327873
0.326892
0.32696
0.32831
0.331034
0.334871
0.339942
0.345058
0.349035
2.27451
1.02678
0.323109
0.3405
0.404773
0.449142
0.459092
0.455766
0.450822
0.447111
0.445379
0.444197
0.442784
0.44093
0.438819
0.436451
0.433945
0.431208
0.428332
0.425222
0.42198
0.418539
0.414949
0.411222
0.407333
0.403345
0.399225
0.39504
0.390751
0.386476
0.382125
0.377868
0.373651
0.36956
0.365713
0.362062
0.358837
0.356034
0.353795
0.352325
0.351651
0.352064
0.353711
0.356854
0.361745
0.368455
0.377249
0.388009
0.399749
0.410322
2.27605
1.02954
0.32497
0.340674
0.405254
0.450052
0.460296
0.45718
0.452482
0.448942
0.447365
0.446338
0.44509
0.443411
0.441485
0.439312
0.437013
0.43452
0.431883
0.42908
0.426118
0.423042
0.419793
0.416468
0.413008
0.409479
0.405885
0.402261
0.398611
0.395017
0.39146
0.388014
0.384773
0.381688
0.378991
0.376634
0.374779
0.373598
0.373126
0.373598
0.375208
0.378279
0.383151
0.389983
0.399354
0.411686
0.427333
0.447496
0.471425
0.49901
2.27762
1.03237
0.326885
0.340913
0.405859
0.451176
0.461783
0.458905
0.454481
0.451108
0.449655
0.448767
0.447674
0.446168
0.444425
0.442462
0.440374
0.438133
0.435746
0.433237
0.430582
0.427851
0.425002
0.422085
0.419114
0.416088
0.413053
0.410044
0.407049
0.404179
0.401428
0.398858
0.396578
0.3946
0.39305
0.392063
0.391663
0.392071
0.39342
0.396044
0.400206
0.406261
0.41444
0.425559
0.440097
0.459616
0.485512
0.521048
0.572477
0.665418
2.27949
1.03576
0.329176
0.341231
0.406686
0.452769
0.463915
0.461393
0.457326
0.45416
0.452866
0.452182
0.451295
0.45006
0.448544
0.446895
0.445087
0.443207
0.441172
0.439087
0.436872
0.434635
0.432317
0.429996
0.427648
0.425359
0.423075
0.42094
0.418877
0.417042
0.415399
0.414084
0.413136
0.412679
0.412782
0.413547
0.415085
0.417804
0.42195
0.427623
0.435286
0.445222
0.458447
0.475404
0.498115
0.52815
0.570087
0.631697
0.730526
0.88243
2.28147
1.03939
0.331973
0.342225
0.408454
0.455658
0.467525
0.465389
0.461635
0.458539
0.457282
0.456689
0.455948
0.454889
0.453575
0.452145
0.450607
0.449012
0.447335
0.44561
0.443851
0.442059
0.440289
0.438525
0.436823
0.435206
0.433706
0.432369
0.43125
0.430376
0.429859
0.42972
0.430087
0.430963
0.432551
0.435118
0.438823
0.443721
0.450255
0.458565
0.469327
0.483041
0.500499
0.523321
0.552453
0.592008
0.644599
0.718764
0.829939
0.968534
2.28258
1.0414
0.333679
0.343384
0.410653
0.459444
0.47229
0.470652
0.467218
0.46415
0.462918
0.46244
0.461858
0.460971
0.45985
0.458615
0.457316
0.455967
0.454594
0.45319
0.451802
0.450426
0.449113
0.447868
0.446738
0.445752
0.444953
0.444392
0.44412
0.444198
0.444668
0.445585
0.447147
0.449542
0.452766
0.457067
0.46249
0.469478
0.478071
0.489017
0.50232
0.519286
0.539989
0.5665
0.599841
0.642463
0.698236
0.768734
0.865301
0.969153
2.28354
1.04318
0.336779
0.347061
0.415522
0.465878
0.479331
0.477582
0.47381
0.4704
0.469087
0.468708
0.468287
0.467566
0.46665
0.465639
0.46462
0.46358
0.462556
0.461529
0.460553
0.459617
0.458781
0.458043
0.457466
0.457061
0.456908
0.457023
0.457451
0.458224
0.459582
0.461577
0.464239
0.467737
0.472144
0.477749
0.484628
0.493174
0.503601
0.516308
0.531872
0.550614
0.573799
0.601596
0.636228
0.678088
0.729865
0.792205
0.870121
0.951738
2.27992
1.03658
0.339016
0.357275
0.428162
0.480894
0.494633
0.491956
0.487024
0.48275
0.48105
0.48047
0.47987
0.478974
0.47789
0.476764
0.475663
0.474597
0.473581
0.472629
0.471764
0.471014
0.470403
0.469967
0.469738
0.469758
0.470021
0.47065
0.471704
0.473299
0.475394
0.478184
0.481646
0.486036
0.491383
0.497948
0.505917
0.515464
0.527039
0.540758
0.557326
0.576964
0.600467
0.628514
0.661604
0.701292
0.747471
0.802084
0.865681
0.930476
2.28566
1.02884
0.363748
0.383585
0.449527
0.499607
0.511794
0.508199
0.50255
0.498121
0.496369
0.495647
0.494924
0.493952
0.492859
0.491749
0.490681
0.489641
0.488659
0.487729
0.486904
0.486175
0.485622
0.485193
0.484999
0.485077
0.485581
0.486421
0.487781
0.489602
0.492136
0.49527
0.499356
0.504223
0.510344
0.517487
0.526248
0.536416
0.548617
0.56284
0.579591
0.599258
0.622088
0.648957
0.67983
0.715871
0.756971
0.803902
0.857365
0.911036
1.8776
0.774636
0.277365
0.344661
0.416767
0.44115
0.441583
0.437616
0.433884
0.433671
0.435764
0.438613
0.441587
0.444635
0.447778
0.451058
0.454405
0.457801
0.461182
0.464555
0.467896
0.47115
0.474333
0.477503
0.480736
0.48397
0.487305
0.490669
0.494303
0.498147
0.502444
0.50718
0.512599
0.518756
0.525858
0.534073
0.543493
0.554522
0.567031
0.581757
0.598318
0.617772
0.639564
0.664942
0.693298
0.725842
0.76194
0.802556
0.84751
0.892512
1.86989
0.773551
0.285714
0.356077
0.427716
0.447725
0.443813
0.436763
0.430968
0.428919
0.428743
0.429099
0.429652
0.430508
0.431804
0.433542
0.435767
0.438357
0.441406
0.444823
0.448728
0.452827
0.457335
0.462027
0.467105
0.47234
0.477912
0.483731
0.489851
0.496274
0.503023
0.510193
0.517759
0.525989
0.534781
0.544621
0.555221
0.567327
0.580529
0.595676
0.612349
0.631391
0.652472
0.676294
0.702677
0.732097
0.764477
0.799772
0.838291
0.87618
1.86895
0.772258
0.287729
0.365854
0.443209
0.463863
0.458244
0.449206
0.44208
0.439209
0.438245
0.437627
0.437015
0.436578
0.436448
0.436676
0.437259
0.438197
0.439663
0.441609
0.444042
0.446958
0.450413
0.454456
0.459042
0.464262
0.469973
0.476328
0.483127
0.49061
0.498511
0.507207
0.51633
0.526392
0.536848
0.548387
0.560473
0.573822
0.588029
0.603761
0.620739
0.639533
0.659993
0.68258
0.707152
0.734061
0.763179
0.794516
0.828274
0.860973
1.87032
0.775299
0.29321
0.368017
0.443338
0.46444
0.459729
0.451515
0.444846
0.442363
0.441833
0.44164
0.441412
0.441286
0.441356
0.441642
0.442197
0.443069
0.444224
0.445678
0.447444
0.449646
0.452255
0.455441
0.45911
0.463486
0.468407
0.474151
0.480461
0.487711
0.495514
0.504355
0.51372
0.524194
0.535273
0.547506
0.560495
0.574685
0.589746
0.60609
0.623493
0.642316
0.662442
0.684172
0.707413
0.73234
0.758876
0.787068
0.816986
0.845764
1.87318
0.78162
0.300513
0.361802
0.42859
0.450291
0.448463
0.442546
0.436914
0.43497
0.434947
0.435454
0.436026
0.436724
0.437604
0.438755
0.440196
0.441863
0.44372
0.445812
0.448146
0.450797
0.453747
0.457111
0.460848
0.46513
0.469863
0.475296
0.481257
0.488082
0.49551
0.503919
0.513029
0.523174
0.534131
0.546149
0.559066
0.573098
0.588126
0.604345
0.621662
0.640264
0.659991
0.681029
0.703229
0.726798
0.751484
0.777314
0.804432
0.83039
1.88183
0.788164
0.302644
0.349416
0.411653
0.441247
0.444607
0.440045
0.43493
0.43257
0.432266
0.432753
0.433442
0.434337
0.435407
0.436705
0.438267
0.440088
0.442171
0.444539
0.44719
0.450176
0.453475
0.457168
0.461208
0.465733
0.470658
0.476188
0.482183
0.488912
0.49621
0.504346
0.51319
0.522946
0.53353
0.545115
0.557598
0.571146
0.585652
0.601268
0.617895
0.635661
0.654476
0.674443
0.695465
0.717566
0.740618
0.76456
0.7895
0.813268
2.26543
1.11053
0.410652
0.400264
0.460261
0.509323
0.520913
0.516171
0.509349
0.5033
0.499771
0.497302
0.495189
0.493169
0.491109
0.48909
0.487298
0.485735
0.484494
0.48355
0.483009
0.482855
0.483182
0.484015
0.485389
0.487359
0.48996
0.493253
0.497241
0.502017
0.507559
0.513979
0.521239
0.52948
0.538622
0.548828
0.560003
0.572275
0.585565
0.599965
0.615385
0.631904
0.649414
0.667946
0.687435
0.707848
0.729106
0.751114
0.773965
0.795706
2.27477
1.13233
0.394734
0.377866
0.450672
0.511753
0.53044
0.529674
0.525485
0.521711
0.520284
0.519923
0.519938
0.519932
0.51954
0.518917
0.518246
0.517599
0.517011
0.516497
0.516087
0.51583
0.515763
0.515954
0.516451
0.517334
0.518637
0.520484
0.522863
0.525948
0.529672
0.534253
0.539584
0.545869
0.553024
0.561185
0.57033
0.580538
0.591821
0.604173
0.617655
0.632187
0.647814
0.664418
0.681978
0.700423
0.719658
0.739591
0.760288
0.779989
2.2993
1.18064
0.437103
0.384702
0.447638
0.504149
0.522845
0.523956
0.522155
0.521004
0.521433
0.522669
0.524493
0.526307
0.52773
0.528935
0.530072
0.531224
0.53238
0.533562
0.534747
0.535983
0.537259
0.538642
0.540121
0.541783
0.543631
0.545753
0.548187
0.551008
0.554287
0.558071
0.562475
0.567512
0.573331
0.579911
0.587409
0.595776
0.605143
0.615457
0.626778
0.639055
0.652332
0.666587
0.681791
0.69792
0.714866
0.732472
0.750834
0.768349
1.90138
0.805947
0.307357
0.316911
0.373886
0.414756
0.429076
0.432897
0.435683
0.439297
0.444183
0.449936
0.456372
0.462844
0.469001
0.475007
0.480981
0.486983
0.492962
0.49891
0.504788
0.510601
0.516341
0.522004
0.52761
0.533139
0.538658
0.544127
0.549653
0.555209
0.560885
0.566704
0.572761
0.579096
0.585791
0.592921
0.600542
0.608753
0.617564
0.627096
0.637321
0.648361
0.660149
0.672759
0.686113
0.700178
0.714939
0.730381
0.746531
0.761961
2.30756
1.19727
0.452022
0.387229
0.441168
0.493017
0.510249
0.510445
0.507343
0.504908
0.50367
0.503517
0.503983
0.504341
0.504609
0.505035
0.505773
0.50695
0.508555
0.510616
0.513111
0.516062
0.519468
0.523324
0.527611
0.532325
0.537413
0.542896
0.548684
0.554819
0.561244
0.567993
0.575017
0.58237
0.590006
0.598005
0.606333
0.615084
0.624227
0.633858
0.643961
0.654611
0.665802
0.677556
0.689891
0.702786
0.716251
0.730187
0.744695
0.758507
2.31262
1.20681
0.434968
0.370194
0.438822
0.501325
0.522965
0.524449
0.522243
0.52079
0.520932
0.522116
0.523905
0.52542
0.526453
0.527293
0.528125
0.529052
0.5301
0.531338
0.532798
0.534547
0.536597
0.539012
0.541803
0.545016
0.548662
0.552769
0.557348
0.562409
0.567949
0.573967
0.580446
0.58739
0.594791
0.602638
0.610925
0.619633
0.628786
0.638338
0.648351
0.658748
0.669625
0.680886
0.692626
0.704746
0.717323
0.730225
0.743581
0.756251
2.31524
1.21242
0.439027
0.372245
0.441911
0.505936
0.528465
0.530204
0.528045
0.526706
0.52718
0.52875
0.531071
0.533275
0.534996
0.536531
0.53806
0.539691
0.541413
0.543262
0.54523
0.547356
0.549649
0.552148
0.55488
0.557878
0.561179
0.564807
0.568805
0.57319
0.577999
0.583246
0.588959
0.595141
0.601809
0.60896
0.616604
0.624721
0.633324
0.642382
0.65191
0.661872
0.672272
0.683079
0.69428
0.705851
0.717755
0.72998
0.742553
0.75449
2.31791
1.21946
0.465162
0.388454
0.447459
0.506638
0.529359
0.532676
0.531816
0.531464
0.532354
0.534336
0.536903
0.539207
0.541223
0.543133
0.545085
0.54713
0.549296
0.551576
0.55399
0.556536
0.559241
0.562104
0.565157
0.568401
0.571876
0.575586
0.579569
0.583838
0.588432
0.593364
0.598671
0.604362
0.610467
0.61699
0.623952
0.631365
0.63923
0.647549
0.656317
0.665534
0.675178
0.685247
0.695701
0.706529
0.717688
0.729149
0.740958
0.752184
1.9059
0.814027
0.32548
0.323843
0.376647
0.41453
0.427356
0.430295
0.432491
0.43574
0.44042
0.446303
0.452991
0.459729
0.466376
0.472998
0.479711
0.486498
0.493368
0.500265
0.507192
0.514113
0.521035
0.52794
0.534839
0.54173
0.548624
0.555536
0.562467
0.569449
0.576483
0.583608
0.590833
0.5982
0.605715
0.613432
0.621349
0.629514
0.637932
0.646636
0.65561
0.664892
0.674461
0.684348
0.694518
0.704995
0.715733
0.726743
0.738047
0.748788
2.31278
1.21033
0.466239
0.404001
0.466655
0.527969
0.550045
0.5511
0.547045
0.543314
0.541168
0.539843
0.539308
0.538953
0.538224
0.537487
0.53688
0.536677
0.536788
0.537391
0.538414
0.539932
0.541925
0.544422
0.547401
0.550881
0.55483
0.559267
0.564152
0.569484
0.575233
0.58138
0.587897
0.594772
0.601981
0.609517
0.617359
0.625503
0.633926
0.642641
0.651627
0.660902
0.67043
0.680243
0.690296
0.700602
0.711122
0.721847
0.732827
0.743247
2.29457
1.17066
0.460955
0.423097
0.486056
0.546495
0.566495
0.566572
0.562873
0.559683
0.55896
0.559398
0.560553
0.561891
0.562826
0.563513
0.564148
0.564842
0.565609
0.566456
0.567388
0.568443
0.569674
0.571123
0.572829
0.574832
0.577161
0.579841
0.5829
0.586356
0.590219
0.594511
0.599235
0.604405
0.610013
0.616065
0.622543
0.629449
0.636757
0.644462
0.652534
0.660965
0.669725
0.678799
0.688173
0.697814
0.707728
0.717876
0.728305
0.738213
1.88809
0.805407
0.341308
0.355511
0.406481
0.443226
0.452863
0.452563
0.451541
0.452312
0.455534
0.460065
0.46556
0.471585
0.477645
0.483738
0.48995
0.496278
0.502679
0.509101
0.515505
0.521877
0.528202
0.534487
0.540711
0.5469
0.553042
0.55918
0.565314
0.571493
0.577732
0.584064
0.590512
0.597103
0.603865
0.610811
0.617975
0.625355
0.632984
0.640848
0.64898
0.657366
0.666021
0.674922
0.684074
0.693465
0.703074
0.712882
0.72294
0.732495
1.87422
0.796584
0.339916
0.356828
0.39845
0.427062
0.434977
0.43496
0.43395
0.433442
0.434119
0.435671
0.438157
0.441275
0.444661
0.448371
0.452518
0.457126
0.462193
0.467678
0.473572
0.479823
0.486424
0.493314
0.500485
0.507873
0.515473
0.523229
0.531139
0.539155
0.54728
0.555495
0.563796
0.572181
0.580649
0.589209
0.597861
0.606624
0.615502
0.624494
0.633603
0.642832
0.652196
0.661696
0.671336
0.681119
0.691047
0.701113
0.711352
0.72105
1.88902
0.806223
0.345283
0.373803
0.431096
0.467127
0.47388
0.469789
0.464679
0.461586
0.460637
0.460604
0.461202
0.462159
0.463176
0.464302
0.465676
0.467365
0.469412
0.471823
0.474626
0.477833
0.481469
0.48555
0.490071
0.495046
0.500459
0.506311
0.51258
0.519256
0.526322
0.533748
0.541522
0.549603
0.557979
0.566612
0.57549
0.584576
0.593849
0.603311
0.612934
0.622726
0.632644
0.642701
0.652857
0.663132
0.673493
0.683955
0.694546
0.704554
2.34078
1.12439
0.469133
0.447604
0.513161
0.574968
0.595697
0.595153
0.589901
0.584653
0.5817
0.579845
0.57836
0.577069
0.575584
0.573915
0.572199
0.570544
0.568968
0.56754
0.566218
0.565118
0.564174
0.563526
0.563099
0.563056
0.563306
0.563991
0.565075
0.566604
0.568612
0.571105
0.574116
0.577628
0.581676
0.586221
0.5913
0.596859
0.602928
0.609445
0.616425
0.623806
0.63158
0.639729
0.648218
0.657018
0.6661
0.675435
0.685042
0.694201
1.88922
0.80714
0.346104
0.363498
0.415821
0.456036
0.468453
0.469364
0.468719
0.468633
0.470851
0.474315
0.478491
0.48321
0.488008
0.492821
0.497651
0.502598
0.507579
0.512625
0.517636
0.522654
0.527606
0.532543
0.537412
0.542263
0.547069
0.551861
0.55665
0.56145
0.566294
0.57119
0.576172
0.581247
0.586466
0.591831
0.597385
0.603137
0.609117
0.615339
0.621811
0.62855
0.635564
0.642829
0.650368
0.65816
0.666211
0.674497
0.683051
0.691222
1.88882
0.807106
0.347165
0.3645
0.416131
0.454646
0.465077
0.463931
0.461024
0.458392
0.457845
0.458622
0.460164
0.462327
0.464701
0.467253
0.470064
0.47324
0.476774
0.480675
0.484899
0.489439
0.494261
0.49935
0.504684
0.510239
0.516
0.521935
0.528033
0.534282
0.540671
0.547191
0.553832
0.560596
0.567464
0.574446
0.58153
0.588728
0.596032
0.603458
0.610996
0.618661
0.626446
0.634365
0.642416
0.650607
0.658933
0.667397
0.676027
0.684231
2.34243
1.12736
0.472244
0.449509
0.516381
0.580617
0.603074
0.603111
0.597986
0.592937
0.590161
0.588637
0.587566
0.586753
0.585801
0.584702
0.583547
0.58249
0.581515
0.580714
0.580024
0.579565
0.579262
0.579254
0.579453
0.579951
0.580717
0.581786
0.583175
0.584897
0.586961
0.589376
0.592141
0.595258
0.598728
0.602542
0.606705
0.611204
0.616042
0.621203
0.626688
0.632472
0.638559
0.644917
0.651551
0.658429
0.665557
0.672903
0.68049
0.687742
1.89074
0.809042
0.353006
0.381313
0.439798
0.479649
0.48941
0.487575
0.484434
0.482989
0.484336
0.486961
0.490286
0.494071
0.497915
0.50183
0.505885
0.510112
0.514489
0.518992
0.523577
0.528239
0.532953
0.537724
0.542535
0.547382
0.55226
0.55717
0.562119
0.567114
0.572163
0.577286
0.582479
0.58776
0.593134
0.59861
0.604206
0.609923
0.615779
0.621773
0.627924
0.63423
0.640702
0.647332
0.654134
0.6611
0.668229
0.675515
0.682982
0.690096
1.8775
0.800791
0.350776
0.377934
0.427697
0.45946
0.466799
0.465539
0.463796
0.463088
0.463563
0.464755
0.466625
0.468813
0.471065
0.47347
0.476139
0.479108
0.482371
0.485905
0.489693
0.493742
0.498047
0.502616
0.507431
0.512478
0.517735
0.523185
0.528822
0.534633
0.540615
0.546751
0.55304
0.559473
0.566038
0.572736
0.579553
0.5865
0.593561
0.600754
0.608054
0.615483
0.623011
0.630658
0.638405
0.646266
0.654221
0.66228
0.67047
0.678233
1.87732
0.800935
0.35126
0.375079
0.4225
0.453951
0.461838
0.461313
0.460206
0.459609
0.45983
0.460672
0.462078
0.46376
0.465477
0.467291
0.469317
0.471597
0.474103
0.476807
0.479681
0.482776
0.4861
0.48971
0.493576
0.497698
0.502035
0.506592
0.511368
0.516393
0.521667
0.527204
0.532978
0.53898
0.545182
0.551597
0.558198
0.565019
0.572026
0.579243
0.586634
0.594209
0.601935
0.609818
0.617824
0.625983
0.634262
0.64269
0.651266
0.659427
1.8913
0.810171
0.354388
0.362585
0.413235
0.45179
0.462541
0.462009
0.460228
0.459054
0.459066
0.459828
0.461275
0.463038
0.464768
0.466531
0.468453
0.470555
0.472838
0.475289
0.477919
0.480753
0.483791
0.487052
0.490502
0.49415
0.497973
0.501994
0.506217
0.510667
0.515336
0.520228
0.525327
0.530628
0.536138
0.541858
0.547801
0.553974
0.560369
0.566991
0.573814
0.580839
0.588057
0.595465
0.603062
0.610847
0.618794
0.626933
0.635228
0.643158
2.31156
1.20291
0.483978
0.431022
0.49231
0.556601
0.582555
0.586008
0.583221
0.580389
0.578988
0.578589
0.579046
0.579828
0.580357
0.580643
0.580921
0.581239
0.581681
0.582202
0.582832
0.58356
0.58441
0.585377
0.586492
0.587732
0.589128
0.590663
0.592358
0.594218
0.596251
0.598465
0.60087
0.603465
0.606263
0.609275
0.612497
0.615965
0.619651
0.623591
0.627758
0.632174
0.636822
0.641721
0.646849
0.652234
0.657826
0.663673
0.669728
0.675591
2.32172
1.22696
0.464784
0.404916
0.481157
0.5572
0.58827
0.592871
0.590123
0.587209
0.586173
0.58659
0.5879
0.589718
0.591417
0.592833
0.594216
0.595663
0.597269
0.59899
0.600849
0.602809
0.604904
0.607107
0.609451
0.611908
0.614492
0.617193
0.620005
0.622937
0.625978
0.629149
0.632438
0.635867
0.639421
0.643127
0.646959
0.65095
0.655072
0.659359
0.663788
0.668388
0.673137
0.678064
0.683142
0.688401
0.693806
0.699386
0.705118
0.710613
2.31226
1.20509
0.485645
0.431882
0.493783
0.559181
0.586228
0.590419
0.588351
0.586226
0.585633
0.586245
0.587774
0.589766
0.591551
0.593141
0.594732
0.596437
0.598299
0.600315
0.602478
0.604781
0.607221
0.609803
0.61252
0.615386
0.618385
0.621538
0.62482
0.628255
0.631818
0.635535
0.63938
0.643382
0.647516
0.65181
0.656236
0.660826
0.665547
0.670434
0.67545
0.680635
0.685948
0.691431
0.697038
0.702815
0.70871
0.714768
0.720962
0.726905
1.88981
0.810011
0.356203
0.364077
0.416321
0.45697
0.468876
0.468662
0.466855
0.465762
0.46634
0.467928
0.470395
0.473304
0.476161
0.479019
0.482043
0.485297
0.488806
0.492534
0.49647
0.50058
0.504869
0.509339
0.513993
0.518843
0.523865
0.529062
0.53441
0.539915
0.545562
0.551372
0.557324
0.563443
0.569698
0.576108
0.58264
0.589319
0.596103
0.603039
0.610071
0.617259
0.624539
0.631964
0.639477
0.647121
0.654849
0.662701
0.670674
0.678279
1.87573
0.801469
0.356196
0.380547
0.428417
0.460056
0.46745
0.466057
0.464102
0.463138
0.46328
0.464077
0.465604
0.467448
0.46921
0.470978
0.472847
0.4749
0.477178
0.479662
0.482352
0.4852
0.488222
0.491386
0.494747
0.498305
0.502075
0.506046
0.510203
0.514519
0.519028
0.523698
0.528586
0.533666
0.538961
0.544442
0.550122
0.55597
0.56201
0.56823
0.574634
0.581243
0.588018
0.595002
0.602131
0.609446
0.616899
0.624511
0.632288
0.639704
1.8782
0.80404
0.359488
0.394764
0.451054
0.484125
0.490087
0.486509
0.482219
0.480202
0.480106
0.480811
0.482174
0.483832
0.485386
0.486975
0.488665
0.490523
0.492565
0.494781
0.497194
0.499763
0.502508
0.505395
0.508434
0.511648
0.515026
0.518591
0.522334
0.526226
0.530297
0.534499
0.538888
0.543428
0.54817
0.553068
0.558172
0.563422
0.568859
0.574456
0.580218
0.586173
0.592279
0.598593
0.605053
0.611703
0.618497
0.625455
0.632562
0.639348
1.1939
1.05624
0.503921
0.191543
0.00548444
0.108446
0.159159
0.207857
0.229677
0.234182
0.222501
0.211441
0.201048
0.191327
0.179025
0.164332
0.146772
0.126663
0.104699
0.0814488
0.0575156
0.0338737
0.0150809
0.0248848
0.0489254
0.0733025
0.0975867
0.121349
0.144764
0.167727
0.190322
0.212439
0.234117
0.255286
0.275297
0.29441
0.31403
0.334492
0.354502
0.373716
0.392295
0.410374
0.428004
0.445179
0.461915
0.478176
0.493976
0.509311
0.524171
0.538546
0.552458
0.565844
0.578749
0.591103
0.60294
0.614198
0.624899
0.634977
0.644438
0.653233
0.661336
0.668727
0.675349
0.681206
0.686216
0.690411
0.693698
0.696134
0.69765
0.698311
0.698318
0.697923
0.697171
0.695642
0.692976
0.689355
0.68545
0.681404
0.67727
0.673158
0.669122
0.665314
0.661795
0.658667
0.655921
0.653655
0.651802
0.650492
0.649554
0.64912
0.649015
0.649305
0.649752
0.65033
0.651113
0.65227
0.653808
0.655621
0.657399
0.662583
1.12467
1.04098
0.811824
0.554253
0.505569
0.434218
0.383156
0.341624
0.310731
0.291877
0.260663
0.230528
0.21177
0.210662
0.218056
0.228815
0.241472
0.255624
0.270986
0.287059
0.303677
0.320384
0.336913
0.35341
0.370365
0.387621
0.404951
0.422256
0.439498
0.456562
0.473528
0.490249
0.50681
0.523091
0.538758
0.55369
0.56871
0.584497
0.600378
0.615613
0.630388
0.644819
0.658993
0.672917
0.686482
0.69981
0.712763
0.725413
0.73772
0.749677
0.761261
0.772497
0.783287
0.79372
0.803665
0.813187
0.822219
0.830747
0.838787
0.846217
0.853134
0.85935
0.864989
0.86989
0.874129
0.877611
0.88036
0.882331
0.883546
0.883949
0.883852
0.883403
0.882597
0.881115
0.878654
0.875298
0.871698
0.867871
0.864123
0.860256
0.856654
0.853088
0.84999
0.847098
0.844792
0.842838
0.841461
0.840353
0.839849
0.839573
0.839816
0.840264
0.840889
0.841603
0.842503
0.843679
0.845146
0.846699
0.848118
0.852087
1.07711
1.07968
1.01236
0.904968
0.834759
0.785162
0.748787
0.718522
0.69332
0.675225
0.660136
0.645935
0.635498
0.630421
0.6288
0.629095
0.630845
0.633573
0.63735
0.642003
0.647555
0.653702
0.660442
0.667623
0.675491
0.683935
0.692924
0.702296
0.711986
0.721967
0.732123
0.742497
0.753012
0.763598
0.773985
0.783928
0.794011
0.804811
0.816167
0.82726
0.838014
0.84867
0.859154
0.869648
0.879927
0.890178
0.900152
0.91008
0.919683
0.929247
0.938398
0.94751
0.956132
0.964696
0.972731
0.980656
0.988007
0.995189
1.00174
1.00806
1.0137
1.01904
1.02366
1.0279
1.03136
1.03436
1.03657
1.03822
1.0391
1.03934
1.0391
1.03865
1.03782
1.03643
1.03411
1.03108
1.02769
1.02416
1.02059
1.01708
1.01371
1.01056
1.00771
1.00529
1.00323
1.00159
1.00035