/*--------------------------------*- C++ -*----------------------------------*\
| =========                 |                                                 |
| \\      /  F ield         | OpenFOAM: The Open Source CFD Toolbox           |
|  \\    /   O peration     | Version:  2412                                  |
|   \\  /    A nd           | Website:  www.openfoam.com                      |
|    \\/     M anipulation  |                                                 |
\*---------------------------------------------------------------------------*/
FoamFile
{
    version     2.0;
    format      ascii;
    arch        "LSB;label=32;scalar=64";
    class       volScalarField;
    location    "13.5";
    object      p;
}
// * * * * * * * * * * * * * * * * * * * * * * * * * * * * * * * * * * * * * //

dimensions      [1 -1 -2 0 0 0 0];

internalField   nonuniform List<scalar> 
7000
(
1.63545
3.7087
11.3425
11.4983
11.0719
10.6574
10.5361
10.5506
10.5918
10.6324
10.6549
10.669
10.6839
10.7019
10.7227
10.7453
10.7696
10.7955
10.8232
10.8528
10.8843
10.9176
10.9528
10.9899
11.0289
11.0698
11.1125
11.157
11.2032
11.2512
11.3007
11.3517
11.404
11.4575
11.5119
11.5669
11.6223
11.6777
11.7327
11.7868
11.8394
11.8901
11.938
11.9827
12.0234
12.0594
12.09
12.1148
12.1327
12.1457
1.63577
3.70739
11.342
11.4978
11.0715
10.6569
10.5358
10.5503
10.5915
10.632
10.6544
10.6685
10.6834
10.7014
10.7221
10.7447
10.769
10.7949
10.8226
10.8521
10.8836
10.9169
10.9521
10.9891
11.0281
11.0689
11.1116
11.1561
11.2023
11.2502
11.2997
11.3507
11.4029
11.4564
11.5107
11.5657
11.6212
11.6765
11.7316
11.7857
11.8384
11.8891
11.9371
11.9819
12.0227
12.0588
12.0895
12.1145
12.1323
12.1454
1.63566
3.70645
11.3402
11.4969
11.0708
10.6562
10.5351
10.5496
10.5908
10.6311
10.6534
10.6675
10.6823
10.7003
10.721
10.7435
10.7677
10.7935
10.8212
10.8506
10.882
10.9152
10.9503
10.9873
11.0261
11.0668
11.1094
11.1537
11.1998
11.2476
11.2969
11.3478
11.3999
11.4532
11.5074
11.5623
11.6176
11.6728
11.7277
11.7817
11.8343
11.885
11.933
11.9777
12.0186
12.0546
12.0854
12.1104
12.1281
12.1411
1.63554
3.70526
11.337
11.4959
11.0698
10.6552
10.534
10.5485
10.5895
10.6297
10.6518
10.6659
10.6806
10.6985
10.7191
10.7415
10.7656
10.7914
10.8189
10.8482
10.8795
10.9125
10.9475
10.9843
11.023
11.0635
11.1059
11.15
11.1959
11.2435
11.2926
11.3432
11.3951
11.4481
11.5021
11.5567
11.6117
11.6668
11.7214
11.7752
11.8277
11.8782
11.9261
11.9708
12.0116
12.0476
12.0783
12.1033
12.1209
12.1339
1.63537
3.70346
11.3323
11.4946
11.0685
10.6536
10.5323
10.5468
10.5877
10.6277
10.6497
10.6636
10.6782
10.696
10.7165
10.7388
10.7627
10.7883
10.8157
10.8449
10.8759
10.9088
10.9435
10.9801
11.0185
11.0588
11.1009
11.1448
11.1903
11.2376
11.2864
11.3366
11.3881
11.4408
11.4944
11.5486
11.6033
11.658
11.7123
11.7658
11.818
11.8683
11.916
11.9606
12.0013
12.0373
12.068
12.093
12.1105
12.1236
1.63516
3.70107
11.3264
11.4927
11.0668
10.6516
10.5302
10.5445
10.5853
10.625
10.6469
10.6606
10.6751
10.6927
10.713
10.7351
10.7589
10.7843
10.8114
10.8404
10.8712
10.9038
10.9382
10.9745
11.0127
11.0526
11.0943
11.1378
11.1829
11.2297
11.2781
11.3278
11.3789
11.431
11.4841
11.5378
11.592
11.6462
11.7001
11.7531
11.8049
11.8549
11.9023
11.9467
11.9872
12.0232
12.0539
12.0788
12.0964
12.1095
1.63493
3.69793
11.3189
11.4903
11.0647
10.6491
10.5274
10.5416
10.5822
10.6217
10.6433
10.6568
10.6711
10.6885
10.7086
10.7305
10.754
10.7791
10.806
10.8347
10.8652
10.8974
10.9315
10.9674
11.0052
11.0447
11.0859
11.1289
11.1735
11.2197
11.2675
11.3166
11.367
11.4185
11.4709
11.524
11.5775
11.631
11.6842
11.7367
11.788
11.8374
11.8845
11.9285
11.9689
12.0046
12.0353
12.0603
12.0778
12.0912
1.63464
3.69409
11.3096
11.4875
11.0622
10.646
10.5239
10.5381
10.5783
10.6176
10.6389
10.6521
10.6662
10.6834
10.7032
10.7248
10.748
10.7728
10.7994
10.8277
10.8578
10.8896
10.9233
10.9587
10.9959
11.0349
11.0755
11.1179
11.1619
11.2074
11.2544
11.3028
11.3524
11.403
11.4546
11.5068
11.5594
11.612
11.6644
11.7161
11.7666
11.8154
11.8619
11.9055
11.9455
11.981
12.0115
12.0366
12.0541
12.0677
1.6343
3.68953
11.2985
11.4842
11.0592
10.6423
10.5197
10.5337
10.5737
10.6125
10.6335
10.6465
10.6603
10.6772
10.6966
10.7179
10.7408
10.7652
10.7914
10.8192
10.8489
10.8802
10.9133
10.9482
10.9848
11.0231
11.063
11.1046
11.1478
11.1925
11.2386
11.286
11.3346
11.3842
11.4347
11.4858
11.5373
11.5889
11.6402
11.6908
11.7404
11.7883
11.834
11.8769
11.9163
11.9515
11.9818
12.0068
12.0244
12.0383
1.63391
3.68413
11.2856
11.4802
11.0556
10.638
10.5148
10.5286
10.5681
10.6066
10.6272
10.6399
10.6533
10.6698
10.6889
10.7098
10.7322
10.7562
10.7819
10.8092
10.8383
10.8691
10.9015
10.9357
10.9716
11.0091
11.0482
11.0889
11.1311
11.1747
11.2197
11.266
11.3134
11.3618
11.4109
11.4607
11.5109
11.561
11.611
11.6602
11.7085
11.7552
11.7998
11.8417
11.8804
11.9151
11.945
11.97
11.9875
12.0017
1.63346
3.67789
11.2706
11.4756
11.0515
10.6329
10.5089
10.5225
10.5616
10.5995
10.6197
10.632
10.645
10.6612
10.6798
10.7003
10.7222
10.7457
10.7708
10.7975
10.826
10.856
10.8878
10.9211
10.9561
10.9927
11.0308
11.0704
11.1115
11.1539
11.1976
11.2425
11.2885
11.3353
11.3829
11.4311
11.4795
11.5279
11.5761
11.6237
11.6702
11.7153
11.7584
11.799
11.8366
11.8704
11.8997
11.9243
11.9418
11.9565
1.63295
3.67077
11.2535
11.4704
11.0467
10.6271
10.5021
10.5154
10.5539
10.5914
10.6111
10.6229
10.6355
10.6511
10.6693
10.6892
10.7106
10.7334
10.7579
10.784
10.8117
10.8409
10.8718
10.9043
10.9382
10.9737
11.0107
11.0491
11.0888
11.1298
11.172
11.2153
11.2595
11.3045
11.3502
11.3963
11.4427
11.489
11.535
11.5804
11.6247
11.6676
11.7087
11.7474
11.7833
11.8157
11.844
11.8681
11.8854
11.9004
1.63239
3.66274
11.2343
11.4645
11.0413
10.6204
10.4943
10.5072
10.5451
10.582
10.6012
10.6125
10.6246
10.6396
10.6572
10.6765
10.6973
10.7194
10.7432
10.7685
10.7953
10.8237
10.8535
10.8849
10.9177
10.952
10.9876
11.0246
11.0628
11.1021
11.1425
11.1839
11.2261
11.269
11.3124
11.3561
11.4
11.4436
11.4869
11.5294
11.5709
11.611
11.6492
11.6852
11.7186
11.7489
11.7754
11.7984
11.8151
11.8308
1.63177
3.65378
11.2129
11.4578
11.0352
10.6128
10.4854
10.4979
10.5349
10.5712
10.5898
10.6006
10.612
10.6264
10.6434
10.662
10.6821
10.7035
10.7264
10.7508
10.7767
10.804
10.8328
10.8629
10.8945
10.9273
10.9614
10.9967
11.0331
11.0706
11.1089
11.1481
11.1879
11.2283
11.269
11.3099
11.3507
11.3911
11.431
11.47
11.5077
11.544
11.5783
11.6105
11.6402
11.6671
11.6908
11.7117
11.7271
11.7431
1.6311
3.64392
11.1892
11.4505
11.0285
10.6043
10.4753
10.4873
10.5234
10.5589
10.5769
10.587
10.5978
10.6116
10.6278
10.6457
10.6649
10.6855
10.7074
10.7308
10.7556
10.7818
10.8093
10.8381
10.8682
10.8994
10.9318
10.9653
10.9997
11.0349
11.0709
11.1076
11.1447
11.1821
11.2196
11.2571
11.2942
11.3307
11.3664
11.4008
11.4338
11.465
11.4941
11.5208
11.5449
11.5664
11.5852
11.6022
11.6152
11.6314
1.63038
3.63319
11.1635
11.4424
11.021
10.5948
10.4638
10.4753
10.5103
10.5449
10.5622
10.5717
10.5818
10.5947
10.6102
10.6272
10.6456
10.6652
10.6861
10.7084
10.732
10.7569
10.783
10.8103
10.8387
10.8682
10.8987
10.93
10.9621
10.9949
11.0283
11.062
11.0959
11.1299
11.1638
11.1972
11.23
11.2617
11.2922
11.321
11.3478
11.3723
11.3942
11.4131
11.4291
11.4422
11.4529
11.4626
11.47
11.4849
1.6296
3.62164
11.136
11.4336
11.0127
10.5841
10.451
10.4618
10.4956
10.5292
10.5457
10.5544
10.5637
10.5759
10.5905
10.6066
10.624
10.6426
10.6624
10.6835
10.7058
10.7292
10.7538
10.7794
10.806
10.8335
10.8618
10.8907
10.9203
10.9503
10.9806
11.0111
11.0415
11.0715
11.1011
11.1298
11.1574
11.1835
11.2076
11.2294
11.2484
11.2642
11.2762
11.2843
11.2878
11.2873
11.2842
11.28
11.2763
11.2869
1.62905
3.60856
11.1069
11.4242
11.0034
10.5721
10.4366
10.4466
10.4789
10.5114
10.5271
10.535
10.5435
10.5548
10.5684
10.5836
10.5999
10.6173
10.636
10.6557
10.6766
10.6985
10.7213
10.7451
10.7697
10.795
10.8209
10.8473
10.874
10.901
10.9279
10.9546
10.9809
11.0066
11.0312
11.0545
11.076
11.0953
11.1119
11.1251
11.1344
11.1387
11.1375
11.1309
11.1163
11.0947
11.0669
11.0364
11.0064
11.0026
1.62849
3.59488
11.0768
11.4142
10.9932
10.5589
10.4204
10.4295
10.4601
10.4915
10.5063
10.5134
10.521
10.5314
10.544
10.5581
10.5733
10.5896
10.6069
10.6252
10.6445
10.6647
10.6857
10.7074
10.7298
10.7527
10.776
10.7996
10.8232
10.8467
10.8699
10.8925
10.9143
10.9349
10.954
10.9711
10.9857
10.9971
11.0048
11.0073
11.0048
10.9958
10.9769
10.9481
10.9076
10.8535
10.7844
10.7027
10.6124
10.5568
1.62795
3.58085
11.046
11.4036
10.9822
10.5441
10.402
10.41
10.4385
10.4687
10.4827
10.489
10.4957
10.5051
10.5167
10.5298
10.5438
10.5588
10.5747
10.5915
10.6091
10.6275
10.6465
10.6661
10.6861
10.7064
10.7268
10.7473
10.7675
10.7873
10.8064
10.8245
10.8413
10.8563
10.8692
10.8793
10.8861
10.8882
10.8859
10.8775
10.8596
10.8318
10.7913
10.7353
10.6586
10.5558
10.418
10.2372
10.0037
9.74863
1.62731
3.56412
11.0093
11.3908
10.9688
10.5252
10.3777
10.3841
10.4098
10.4387
10.4519
10.4572
10.4628
10.4709
10.4812
10.4928
10.5053
10.5187
10.5328
10.5477
10.5632
10.5792
10.5957
10.6125
10.6295
10.6465
10.6633
10.6798
10.6957
10.7107
10.7246
10.737
10.7474
10.7553
10.7602
10.7608
10.7583
10.7501
10.7329
10.7065
10.6692
10.6174
10.5471
10.4512
10.3205
10.1383
9.87542
9.47022
8.77166
7.24865
1.62667
3.54638
10.9701
11.3744
10.9505
10.4977
10.3422
10.3467
10.3691
10.3971
10.4101
10.4149
10.4195
10.4265
10.4354
10.4456
10.4566
10.4681
10.4802
10.4928
10.5058
10.5191
10.5326
10.5461
10.5594
10.5725
10.585
10.5968
10.6075
10.6169
10.6245
10.63
10.6326
10.632
10.6285
10.6195
10.6029
10.5789
10.5457
10.5005
10.4403
10.3604
10.2543
10.1122
9.91926
9.65182
9.26788
8.6986
7.85554
6.46714
1.62619
3.53724
10.9489
11.3638
10.9362
10.4703
10.304
10.306
10.3246
10.3522
10.3652
10.3694
10.3728
10.3784
10.386
10.3946
10.4039
10.4135
10.4235
10.4338
10.4442
10.4547
10.4651
10.4752
10.4848
10.4938
10.5019
10.5088
10.5142
10.5177
10.5187
10.5175
10.5134
10.5041
10.4891
10.4683
10.4398
10.4021
10.3529
10.2894
10.2072
10.1017
9.96461
9.78602
9.55073
9.23743
8.81689
8.2487
7.51586
6.54125
1.62569
3.52945
10.929
11.3435
10.9095
10.4261
10.25
10.2519
10.2719
10.3029
10.3173
10.3212
10.3237
10.3284
10.3349
10.3423
10.35
10.3579
10.3658
10.3737
10.3815
10.3891
10.3964
10.403
10.4089
10.4139
10.4175
10.4196
10.4195
10.4181
10.4138
10.405
10.3921
10.3744
10.3506
10.3199
10.2804
10.2304
10.1674
10.0884
9.98923
9.86489
9.70853
9.51131
9.26213
8.94704
8.55145
8.0595
7.4777
6.74683
1.62606
3.56605
10.9931
11.3416
10.8834
10.3623
10.1747
10.1794
10.2067
10.2447
10.2616
10.2655
10.2675
10.2715
10.2774
10.2839
10.2904
10.2967
10.3028
10.3087
10.3142
10.3193
10.3236
10.3272
10.3298
10.3309
10.3305
10.3288
10.3246
10.317
10.3062
10.2915
10.2722
10.2475
10.2161
10.1769
10.1283
10.0684
9.99485
9.90485
9.79482
9.66039
9.49622
9.29599
9.05237
8.7576
8.4044
7.98559
7.5037
6.95082
1.58756
3.68181
11.0022
11.2485
10.8018
10.2825
10.1068
10.116
10.1513
10.1915
10.2084
10.2125
10.2148
10.2187
10.2239
10.2291
10.2339
10.2383
10.2423
10.2458
10.2487
10.2509
10.2522
10.2524
10.2517
10.2496
10.2451
10.2383
10.229
10.2166
10.2008
10.1807
10.1557
10.1248
10.0871
10.041
9.98539
9.91834
9.83782
9.74134
9.626
9.48834
9.32451
9.13014
8.90081
8.63197
8.32034
7.96309
7.56245
7.1133
1.54765
4.79928
11.1649
10.917
10.2982
10.0358
10.0252
10.0507
10.0981
10.125
10.1351
10.1397
10.1442
10.1495
10.1549
10.1598
10.1639
10.1674
10.1702
10.1721
10.1731
10.1731
10.1726
10.1708
10.1669
10.1613
10.1541
10.1445
10.132
10.1161
10.0962
10.0718
10.0421
10.0064
9.96367
9.91272
9.85231
9.78086
9.69657
9.59738
9.48102
9.34488
9.18624
9.00218
8.79
8.54722
8.27241
7.96555
7.62776
7.25187
1.54908
4.80816
11.1196
10.8481
10.2227
9.98011
9.98749
10.026
10.0748
10.0976
10.1042
10.107
10.1103
10.1137
10.1165
10.1184
10.1193
10.1194
10.119
10.1177
10.1149
10.1112
10.1067
10.1008
10.0933
10.0839
10.0721
10.0579
10.0408
10.0206
9.99673
9.96864
9.93544
9.89608
9.84959
9.79513
9.7315
9.65744
9.57154
9.47215
9.35753
9.22573
9.07487
8.90295
8.70837
8.48972
8.24625
7.97745
7.68961
7.37228
1.55972
4.82774
11.1852
10.8706
10.1679
9.90356
9.91592
9.96644
10.024
10.0496
10.0565
10.0594
10.0629
10.0664
10.069
10.0702
10.0702
10.0695
10.0676
10.0637
10.0588
10.0528
10.0455
10.0365
10.0257
10.0128
9.99769
9.98002
9.95951
9.93571
9.90801
9.87571
9.83826
9.79522
9.7459
9.68922
9.62422
9.54944
9.46376
9.36582
9.25454
9.12842
8.98619
8.82662
8.64868
8.45158
8.23563
8.00073
7.75071
7.47915
1.5505
4.80734
11.1132
10.8207
10.1439
9.87941
9.88896
9.93439
9.99063
10.0157
10.0219
10.0235
10.0255
10.0275
10.0284
10.0281
10.0267
10.0236
10.0191
10.0134
10.0066
9.99839
9.9886
9.9771
9.96362
9.94799
9.92991
9.90922
9.88548
9.85843
9.82746
9.79226
9.7522
9.70664
9.65495
9.59617
9.52962
9.45448
9.36991
9.27484
9.1683
9.04896
8.91588
8.76823
8.60577
8.42839
8.23637
8.02884
7.8096
7.57386
1.52154
4.75136
10.9085
10.6969
10.1349
9.88474
9.88229
9.90989
9.95809
9.98171
9.98778
9.98867
9.98937
9.98969
9.98927
9.98771
9.98429
9.97938
9.97337
9.9662
9.95762
9.9475
9.93564
9.92195
9.90615
9.88819
9.86769
9.84454
9.81826
9.78869
9.75533
9.7178
9.67563
9.62823
9.57511
9.51559
9.44901
9.37465
9.29178
9.19956
9.09716
8.98408
8.85982
8.72382
8.57557
8.41482
8.24157
8.05802
7.86459
7.65773
1.50582
4.7066
10.828
10.7045
10.2195
9.92444
9.86868
9.8862
9.9246
9.94892
9.95597
9.95575
9.95463
9.95235
9.94947
9.94574
9.9408
9.93461
9.92715
9.91838
9.90813
9.89629
9.88268
9.86721
9.84965
9.82987
9.80753
9.78252
9.75442
9.72303
9.68799
9.64888
9.60541
9.55705
9.50331
9.44368
9.37768
9.30472
9.22423
9.13557
9.03819
8.93162
8.81546
8.68934
8.55313
8.40694
8.25109
8.08634
7.91384
7.73054
1.66599
3.27725
10.4611
10.9955
10.5836
10.0612
9.8698
9.87298
9.89705
9.93011
9.94101
9.93986
9.9359
9.92947
9.92363
9.91781
9.91104
9.90295
9.89349
9.88262
9.87027
9.85634
9.84057
9.82297
9.80336
9.78149
9.75709
9.73004
9.69998
9.66673
9.62996
9.58932
9.54445
9.49499
9.44053
9.3807
9.31519
9.24354
9.16532
9.0801
8.98737
8.8868
8.77814
8.66113
8.53577
8.40219
8.26071
8.1118
7.95664
7.79268
1.6741
3.1544
10.3979
11.1505
10.7042
10.0974
9.84964
9.83523
9.85264
9.88448
9.89472
9.8928
9.88664
9.87709
9.86937
9.86281
9.85593
9.84785
9.83834
9.82738
9.81491
9.80081
9.7849
9.76702
9.74702
9.72472
9.69984
9.67225
9.64163
9.60784
9.57053
9.52953
9.48456
9.43535
9.38164
9.32306
9.25916
9.18958
9.11402
9.03207
8.94342
8.84799
8.74574
8.63685
8.52109
8.39851
8.26931
8.13394
7.99338
7.84547
1.63989
3.04098
9.87249
10.9936
10.6365
10.0959
9.87066
9.84836
9.85901
9.87677
9.87799
9.87389
9.8634
9.84977
9.83849
9.82872
9.81891
9.80819
9.79629
9.78317
9.76875
9.75289
9.73542
9.71616
9.69493
9.67155
9.64582
9.61749
9.58629
9.55203
9.51452
9.47354
9.42882
9.3801
9.32711
9.26954
9.20711
9.13956
9.06664
8.98824
8.90431
8.81461
8.71891
8.61703
8.5089
8.39491
8.2759
8.15214
8.02413
7.88989
1.4319
4.54212
10.3061
10.4949
10.2043
9.91025
9.80182
9.79836
9.80629
9.81617
9.81582
9.81178
9.802
9.78984
9.77943
9.77017
9.7606
9.74995
9.73805
9.72491
9.71046
9.69455
9.67701
9.65767
9.63639
9.61298
9.58727
9.55901
9.52801
9.49418
9.45728
9.41703
9.37322
9.32564
9.27407
9.21826
9.15801
9.09312
9.02343
8.94879
8.86909
8.7842
8.69406
8.59866
8.49845
8.3935
8.28368
8.16926
8.05123
7.92812
1.63241
2.99138
9.69307
10.8837
10.5713
10.0694
9.84792
9.81224
9.8173
9.8232
9.82022
9.81055
9.79332
9.77719
9.7634
9.7507
9.73778
9.72392
9.70887
9.69276
9.67561
9.65721
9.63736
9.61591
9.59267
9.56751
9.54025
9.51085
9.47915
9.44483
9.40766
9.36744
9.324
9.27718
9.22676
9.17252
9.11426
9.05182
8.98505
8.91383
8.83806
8.75772
8.67281
8.5834
8.48961
8.39162
8.28945
8.18358
8.07464
7.96135
1.64143
2.92492
9.69903
11.0106
10.6308
10.0378
9.77856
9.7438
9.75368
9.76881
9.76751
9.75989
9.74315
9.72567
9.71158
9.69924
9.6868
9.67352
9.65932
9.64394
9.62721
9.60907
9.58943
9.56817
9.54515
9.52025
9.49328
9.46412
9.43261
9.39857
9.36184
9.32229
9.27973
9.23394
9.18476
9.13208
9.07578
9.01571
8.95177
8.88387
8.81196
8.73598
8.65592
8.57185
8.48384
8.39201
8.29663
8.19814
8.09698
7.99187
1.6398
2.90643
9.64663
10.9896
10.6062
9.99876
9.73053
9.69419
9.70504
9.72276
9.72202
9.71523
9.69935
9.68132
9.6669
9.65455
9.64219
9.62891
9.61449
9.59885
9.58193
9.56364
9.54388
9.52254
9.49949
9.4746
9.44773
9.41876
9.38755
9.35396
9.31785
9.27907
9.23749
9.19294
9.14528
9.0944
9.04021
8.98262
8.92154
8.85688
8.78858
8.71662
8.64102
8.56183
8.47916
8.39313
8.30401
8.21198
8.11752
8.01954
1.62559
2.91725
9.4845
10.8481
10.5406
9.98973
9.73265
9.68327
9.6876
9.69515
9.69256
9.68341
9.66537
9.64825
9.63363
9.62023
9.60671
9.5924
9.57707
9.56067
9.5431
9.52426
9.50404
9.48232
9.45898
9.43389
9.40694
9.37802
9.34699
9.31373
9.2781
9.23999
9.19927
9.15584
9.10963
9.06053
9.00839
8.95314
8.89473
8.83309
8.76817
8.69996
8.62848
8.55378
8.47597
8.39518
8.31162
8.2254
8.13685
8.04495
1.39219
4.4784
10.0207
10.2951
10.015
9.72696
9.6186
9.60902
9.61416
9.62005
9.61867
9.61282
9.60055
9.5875
9.57576
9.56456
9.55287
9.54011
9.52613
9.51086
9.49428
9.47631
9.45688
9.4359
9.4133
9.38896
9.36277
9.33464
9.30448
9.2722
9.23768
9.20084
9.16157
9.11978
9.07538
9.02828
8.9784
8.92562
8.86991
8.81128
8.74973
8.68521
8.61772
8.54726
8.47391
8.3978
8.31905
8.23782
8.15447
8.06804
1.63103
2.94214
9.57642
10.835
10.4922
9.90239
9.6283
9.58493
9.59492
9.61481
9.61589
9.61103
9.59817
9.58035
9.56505
9.55163
9.53814
9.52364
9.50785
9.4907
9.47242
9.45272
9.43163
9.40919
9.38534
9.35997
9.33294
9.30413
9.27346
9.24084
9.20622
9.16958
9.13085
9.0899
9.04666
9.00101
8.95288
8.90221
8.84892
8.79292
8.7342
8.67277
8.6086
8.54171
8.47222
8.40026
8.32599
8.24946
8.1709
8.08939
1.64131
3.07393
9.85519
10.7682
10.3864
9.77458
9.51144
9.49056
9.50772
9.54013
9.54918
9.54635
9.53761
9.52285
9.50994
9.49877
9.48744
9.47489
9.46087
9.44544
9.42874
9.41084
9.39148
9.37052
9.34787
9.3235
9.2974
9.26954
9.23988
9.20837
9.17497
9.13958
9.10212
9.06251
9.0207
8.97662
8.93021
8.88143
8.83023
8.77659
8.72048
8.66195
8.60099
8.53757
8.47173
8.40363
8.33324
8.2607
8.18624
8.10898
1.40323
4.54363
10.0962
10.1545
9.84933
9.54107
9.44129
9.44649
9.4656
9.48517
9.49047
9.48877
9.48332
9.47339
9.46367
9.45432
9.44428
9.43291
9.42006
9.40575
9.39001
9.37281
9.35407
9.33371
9.31169
9.28799
9.26261
9.2355
9.20661
9.17588
9.14333
9.10891
9.07257
9.03425
8.9939
8.95147
8.90691
8.86017
8.81122
8.76004
8.70659
8.65084
8.59284
8.53266
8.47031
8.40573
8.33909
8.27042
8.19987
8.12663
1.3874
4.55387
9.99473
10.0216
9.78003
9.54811
9.4656
9.46224
9.46805
9.47689
9.47816
9.47594
9.46969
9.45931
9.44874
9.43815
9.42678
9.41421
9.40034
9.38516
9.36867
9.35084
9.33161
9.31093
9.28873
9.26497
9.23962
9.21264
9.18401
9.15371
9.12165
9.08779
9.05208
9.01448
8.97496
8.93349
8.89001
8.84446
8.79693
8.74746
8.69605
8.64257
8.58702
8.52939
8.46973
8.40801
8.34429
8.2787
8.21139
8.1416
1.42096
4.56788
10.209
10.1794
9.79597
9.45955
9.36586
9.37779
9.40893
9.43311
9.43966
9.43813
9.4332
9.4243
9.41515
9.40591
9.3959
9.38459
9.37182
9.35759
9.34188
9.32468
9.30594
9.28567
9.26385
9.24044
9.21542
9.18876
9.16047
9.13053
9.09888
9.06551
9.0304
8.99358
8.95502
8.91472
8.87265
8.82886
8.7832
8.73562
8.68609
8.63465
8.58133
8.52612
8.46904
8.41009
8.34929
8.28669
8.22238
8.15553
1.53223
3.35182
9.88753
10.7055
10.3181
9.67565
9.39058
9.36389
9.38135
9.41687
9.43071
9.42958
9.42471
9.4146
9.40405
9.39405
9.38366
9.37213
9.35913
9.34473
9.32887
9.31162
9.29292
9.27272
9.25094
9.22759
9.20258
9.17586
9.14759
9.11763
9.08599
9.05266
9.01766
8.98101
8.94272
8.90279
8.86123
8.81802
8.77313
8.72651
8.67819
8.62822
8.57647
8.52298
8.46779
8.41095
8.35249
8.29242
8.23085
8.16703
1.39692
4.53449
10.0673
10.0956
9.79182
9.46631
9.34382
9.34174
9.3529
9.37378
9.38211
9.38128
9.37753
9.36957
9.36063
9.35196
9.34291
9.33274
9.32116
9.30812
9.29366
9.27775
9.26035
9.2414
9.22086
9.19868
9.17483
9.14927
9.1221
9.09334
9.06295
9.03095
8.99735
8.9621
8.92518
8.8866
8.84637
8.8045
8.761
8.71587
8.66911
8.62069
8.57071
8.51919
8.4661
8.41143
8.35523
8.29753
8.23843
8.17738
1.39474
4.53235
10.0526
10.0837
9.77677
9.44772
9.32728
9.32728
9.33927
9.36149
9.37041
9.36939
9.36511
9.35626
9.34663
9.33727
9.32751
9.31666
9.30447
9.29092
9.27605
9.25984
9.24225
9.22324
9.20275
9.18076
9.15726
9.13225
9.10562
9.07736
9.04744
9.01587
8.98268
8.94793
8.91163
8.87381
8.83447
8.79359
8.75119
8.70726
8.66182
8.61487
8.56642
8.51649
8.46506
8.41215
8.35777
8.30196
8.24477
8.18572
1.5307
3.34263
9.85655
10.691
10.304
9.63961
9.33469
9.29837
9.31468
9.34888
9.36338
9.3623
9.3574
9.34711
9.33628
9.3264
9.31651
9.30573
9.29366
9.28027
9.26559
9.24957
9.23217
9.21336
9.19304
9.17118
9.14784
9.12292
9.09639
9.06824
9.03849
9.00716
8.97429
8.93989
8.90398
8.86656
8.82766
8.7873
8.7455
8.70227
8.65761
8.61155
8.56408
8.51523
8.46498
8.4134
8.36046
8.3062
8.25071
8.19356
1.41022
4.54792
10.1285
10.1008
9.71178
9.35755
9.24741
9.25659
9.28553
9.31376
9.32257
9.32132
9.31681
9.30804
9.29929
9.29081
9.28185
9.27186
9.26061
9.24808
9.23427
9.21917
9.20275
9.18493
9.16569
9.14496
9.12274
9.09899
9.07366
9.04675
9.01824
8.98818
8.95658
8.92347
8.88887
8.85279
8.81524
8.77626
8.73587
8.69407
8.65087
8.60625
8.56023
8.51284
8.46411
8.41397
8.36252
8.3098
8.25586
8.20029
1.3965
4.55443
10.0213
9.99375
9.67643
9.39505
9.30662
9.30932
9.32061
9.33009
9.32984
9.32669
9.31903
9.3085
9.29821
9.28813
9.2776
9.2662
9.25377
9.24027
9.22566
9.2099
9.19295
9.17476
9.15528
9.13443
9.1122
9.08853
9.0634
9.0368
9.00874
8.97918
8.94811
8.91555
8.8815
8.84599
8.80904
8.77066
8.73088
8.68974
8.64727
8.60348
8.5584
8.512
8.4643
8.41526
8.36495
8.31335
8.26049
8.20588
1.38962
4.54575
9.97562
9.96243
9.66857
9.39571
9.30375
9.30218
9.30769
9.31376
9.31326
9.31001
9.30247
9.29213
9.28181
9.27168
9.26116
9.24986
9.23762
9.2244
9.21017
9.19485
9.17838
9.16068
9.1417
9.12138
9.09969
9.07658
9.05203
9.02601
8.99853
8.96956
8.9391
8.90718
8.87381
8.83903
8.80286
8.76533
8.72645
8.68621
8.64464
8.60174
8.55751
8.512
8.46525
8.41726
8.36797
8.31737
8.26548
8.2118
1.3812
4.50821
9.93573
10.0444
9.74176
9.41242
9.29065
9.28604
9.29424
9.30555
9.30659
9.30372
9.29606
9.2844
9.27322
9.26267
9.25193
9.24042
9.22794
9.21446
9.19997
9.18442
9.16777
9.14994
9.13088
9.11055
9.08891
9.06592
9.04155
9.01578
8.9886
8.95999
8.92995
8.8985
8.86564
8.83141
8.79581
8.75887
8.72061
8.68102
8.64014
8.59799
8.55458
8.5099
8.46393
8.41672
8.36828
8.31862
8.26778
8.21535
1.62663
2.97508
9.54011
10.6256
10.2796
9.65387
9.34473
9.27916
9.28677
9.30494
9.3118
9.30924
9.30102
9.28593
9.27218
9.26041
9.24918
9.23741
9.22469
9.21094
9.19618
9.18042
9.1636
9.14566
9.12656
9.10624
9.08465
9.06175
9.03752
9.01191
8.98492
8.95655
8.92678
8.89562
8.86308
8.82918
8.79393
8.75734
8.71944
8.68025
8.63978
8.59804
8.55506
8.51084
8.4654
8.41877
8.371
8.32213
8.27217
8.22088
1.63591
2.85983
9.50198
10.8297
10.4223
9.68451
9.31791
9.2403
9.25084
9.27665
9.29067
9.28924
9.28264
9.26848
9.25398
9.24202
9.2312
9.21997
9.20769
9.19428
9.17981
9.16432
9.14778
9.13015
9.11136
9.09137
9.07015
9.04765
9.02384
8.99871
8.97224
8.94442
8.91524
8.88471
8.85283
8.81962
8.78509
8.74924
8.7121
8.67367
8.63398
8.59302
8.55082
8.50738
8.46274
8.4169
8.36989
8.32176
8.27257
8.22207
1.62662
2.9665
9.51875
10.6183
10.273
9.64191
9.32543
9.25778
9.26604
9.28632
9.29588
9.29378
9.28618
9.27082
9.2564
9.24417
9.23269
9.22075
9.20784
9.1939
9.17899
9.1631
9.14621
9.12828
9.10924
9.08905
9.06767
9.04506
9.0212
8.99607
8.96964
8.94191
8.91286
8.8825
8.85083
8.81786
8.78359
8.74805
8.71123
8.67316
8.63383
8.59327
8.55149
8.50849
8.46428
8.41888
8.37229
8.32454
8.27566
8.22524
1.37408
4.5059
9.90647
10.0251
9.7211
9.37852
9.24902
9.24437
9.25388
9.26845
9.27148
9.26919
9.26243
9.25093
9.23978
9.22926
9.2185
9.20692
9.19435
9.18078
9.16623
9.1507
9.13415
9.11655
9.09784
9.07799
9.05697
9.03474
9.01128
8.98657
8.96059
8.93333
8.90478
8.87494
8.84381
8.8114
8.77772
8.74276
8.70655
8.66909
8.6304
8.59046
8.54929
8.50691
8.46331
8.4185
8.37247
8.32521
8.27669
8.22639
1.3793
4.54001
9.92929
9.91749
9.62243
9.34484
9.25717
9.26009
9.27173
9.28149
9.28137
9.27836
9.27064
9.2591
9.24774
9.23667
9.22517
9.21284
9.19958
9.1854
9.17029
9.15424
9.1372
9.11914
9.10002
9.0798
9.05845
9.03593
9.01221
8.98727
8.96109
8.93367
8.90499
8.87506
8.84387
8.81142
8.77772
8.74278
8.7066
8.6692
8.63059
8.59076
8.54973
8.5075
8.46408
8.41946
8.37365
8.32666
8.27847
8.22877
1.40444
4.56202
10.0616
9.99777
9.60627
9.29138
9.20944
9.22143
9.25165
9.27191
9.27415
9.27134
9.26388
9.25284
9.24212
9.23164
9.22056
9.2085
9.19543
9.18139
9.16641
9.15047
9.13353
9.11557
9.09655
9.07643
9.05519
9.03278
9.00919
8.9844
8.95837
8.93111
8.90259
8.87283
8.84182
8.80955
8.77604
8.7413
8.70532
8.66812
8.6297
8.59007
8.54924
8.50721
8.46398
8.41957
8.37398
8.32722
8.27934
8.23011
3.03217
2.43584
2.96649
4.1508
4.1
4.08436
4.02334
3.98554
3.97247
3.97508
4.00264
4.04562
4.08271
4.11426
4.14933
4.19312
4.24565
4.30439
4.36658
4.43
4.49292
4.55415
4.61342
4.67076
4.72217
4.76799
4.80811
4.84297
4.87243
4.89675
4.91587
4.93006
4.9394
4.94412
4.9444
4.94269
4.93712
4.92538
4.90956
4.89143
4.87102
4.84827
4.82332
4.79644
4.76788
4.73792
4.7068
4.67476
4.642
4.60876
4.5752
4.54154
4.50796
4.47464
4.44177
4.40954
4.37813
4.34774
4.31854
4.29075
4.26456
4.24015
4.21773
4.19747
4.17958
4.16421
4.15151
4.14161
4.1346
4.13039
4.12917
4.12945
4.13063
4.13381
4.14077
4.15298
4.16686
4.18143
4.19645
4.21173
4.2269
4.24158
4.25537
4.26794
4.27909
4.28878
4.29686
4.30346
4.30864
4.31239
4.31472
4.31566
4.31563
4.3154
4.31466
4.31288
4.30922
4.30447
4.29929
4.29496
4.08034
3.5271
3.72666
4.20478
4.12777
4.06927
4.0102
3.9705
3.95892
3.97101
4.0115
4.06091
4.0925
4.11572
4.14614
4.18818
4.24031
4.29896
4.36101
4.42432
4.48713
4.54854
4.60804
4.66509
4.71658
4.76234
4.80257
4.83747
4.86705
4.89145
4.91067
4.92493
4.93433
4.93907
4.93916
4.93792
4.93347
4.9231
4.90574
4.88702
4.86682
4.84445
4.81979
4.79308
4.76467
4.73482
4.70382
4.67188
4.63922
4.60606
4.57259
4.539
4.50549
4.47223
4.43943
4.40725
4.37589
4.34555
4.31641
4.28866
4.26251
4.23814
4.21575
4.19553
4.17766
4.16232
4.14966
4.13983
4.13292
4.12895
4.12816
4.12849
4.12976
4.13299
4.13993
4.15215
4.16628
4.18119
4.1965
4.212
4.22734
4.24217
4.25608
4.26877
4.27993
4.2895
4.29768
4.30436
4.30949
4.31315
4.31518
4.31596
4.3159
4.31559
4.31476
4.3129
4.30918
4.30458
4.2997
4.29707
5.20683
4.44128
4.20715
4.23921
4.22102
4.16989
4.08865
4.03634
4.01592
4.01819
4.03024
4.05894
4.09486
4.12655
4.16097
4.2028
4.25263
4.30888
4.36883
4.43029
4.49156
4.55152
4.60935
4.66434
4.71494
4.76015
4.79986
4.83421
4.86329
4.88721
4.90603
4.91988
4.92889
4.93319
4.93308
4.93191
4.92809
4.91913
4.90149
4.88191
4.8612
4.83877
4.81427
4.78774
4.75947
4.72974
4.69885
4.66701
4.63447
4.60142
4.56805
4.53457
4.50115
4.468
4.43529
4.40322
4.37196
4.34173
4.31269
4.28506
4.25901
4.23475
4.21247
4.19236
4.17461
4.15939
4.14688
4.13723
4.13057
4.12703
4.12685
4.12727
4.1287
4.13216
4.13941
4.15155
4.16588
4.18123
4.19704
4.21297
4.22863
4.24368
4.2577
4.27041
4.2818
4.29166
4.29983
4.30627
4.31106
4.31435
4.31601
4.31628
4.31615
4.3157
4.31461
4.3123
4.30845
4.30409
4.29934
4.29853
5.80948
5.07357
4.63623
4.43918
4.40053
4.33645
4.2453
4.16535
4.11327
4.09245
4.09461
4.10531
4.13089
4.16881
4.20352
4.23945
4.28117
4.32955
4.38317
4.43976
4.4973
4.55429
4.60952
4.66229
4.71105
4.75508
4.79394
4.82748
4.85583
4.8791
4.89735
4.91068
4.91923
4.923
4.92282
4.92165
4.91819
4.91022
4.89401
4.87379
4.85228
4.8295
4.80504
4.77876
4.75079
4.72135
4.69073
4.65915
4.62685
4.59404
4.5609
4.52765
4.49445
4.46152
4.42903
4.39718
4.36615
4.33615
4.30734
4.27993
4.25411
4.23009
4.20803
4.18816
4.17064
4.15568
4.14344
4.13411
4.12784
4.12499
4.1251
4.12576
4.12757
4.13154
4.1396
4.15145
4.16574
4.18149
4.1979
4.21445
4.23046
4.24576
4.2601
4.27313
4.28458
4.29429
4.30216
4.30822
4.31254
4.31531
4.3164
4.31635
4.31609
4.31538
4.31382
4.31079
4.30694
4.30283
4.29833
4.29843
6.21252
5.57543
5.09736
4.80672
4.65762
4.54565
4.43527
4.3344
4.25693
4.20925
4.18919
4.19011
4.19642
4.21299
4.24619
4.28002
4.31725
4.35928
4.40604
4.45632
4.50861
4.56134
4.6131
4.66273
4.70917
4.75146
4.78901
4.82138
4.84871
4.8711
4.88854
4.90111
4.90907
4.9121
4.91183
4.91056
4.90715
4.89961
4.88439
4.8645
4.84258
4.81929
4.79459
4.76836
4.74061
4.71147
4.68117
4.6499
4.6179
4.58537
4.55252
4.51955
4.48665
4.45401
4.42182
4.39028
4.35957
4.32989
4.30142
4.27436
4.24889
4.22522
4.20354
4.18404
4.1669
4.15234
4.14052
4.13166
4.12598
4.12391
4.12414
4.12508
4.12739
4.13223
4.14101
4.15274
4.16692
4.18283
4.19964
4.21656
4.23322
4.24894
4.26338
4.27631
4.2875
4.29687
4.30436
4.30999
4.31383
4.31596
4.31639
4.31624
4.31574
4.31457
4.31218
4.30875
4.30475
4.30074
4.29657
4.29684
6.51938
5.9825
5.52566
5.17989
4.94622
4.78021
4.64394
4.52548
4.42781
4.3558
4.3104
4.28842
4.28828
4.29159
4.30262
4.32652
4.3598
4.39662
4.43612
4.4786
4.52371
4.57036
4.61715
4.66277
4.70607
4.74602
4.7818
4.8129
4.83914
4.86057
4.87713
4.88884
4.89628
4.89854
4.8982
4.89683
4.89338
4.88598
4.87132
4.8523
4.83054
4.80696
4.78199
4.75569
4.72811
4.69929
4.66938
4.63852
4.60693
4.57481
4.54236
4.50979
4.47729
4.44507
4.41331
4.38222
4.35197
4.32277
4.29478
4.26822
4.24327
4.22013
4.19897
4.18002
4.16344
4.14945
4.1382
4.12998
4.12494
4.12382
4.12415
4.12534
4.12813
4.13388
4.14319
4.15518
4.16947
4.18548
4.20247
4.21964
4.23635
4.25204
4.26632
4.27895
4.28979
4.29876
4.30582
4.31098
4.3143
4.31574
4.3157
4.31542
4.31462
4.31289
4.30965
4.30587
4.30165
4.29766
4.29373
4.29411
6.7634
6.31089
5.89177
5.53137
5.24989
5.03795
4.87069
4.73144
4.61492
4.52175
4.45317
4.40846
4.38517
4.37948
4.38122
4.38823
4.40464
4.43401
4.46673
4.50263
4.54111
4.58137
4.62245
4.66335
4.70293
4.74007
4.77377
4.80335
4.82842
4.84885
4.86461
4.87564
4.88237
4.88386
4.88346
4.88198
4.8784
4.87086
4.85674
4.83844
4.81708
4.79354
4.76844
4.74208
4.71462
4.68608
4.65655
4.62614
4.59503
4.56338
4.53142
4.49934
4.46734
4.43565
4.40443
4.3739
4.34423
4.31563
4.28827
4.26235
4.23806
4.21559
4.19514
4.1769
4.16104
4.14776
4.13729
4.1298
4.12555
4.12536
4.12578
4.12719
4.13046
4.13715
4.14722
4.15953
4.17378
4.18956
4.20625
4.22312
4.23951
4.25487
4.2688
4.28105
4.29147
4.29996
4.30654