/*--------------------------------*- C++ -*----------------------------------*\
| =========                 |                                                 |
| \\      /  F ield         | OpenFOAM: The Open Source CFD Toolbox           |
|  \\    /   O peration     | Version:  2412                                  |
|   \\  /    A nd           | Website:  www.openfoam.com                      |
|    \\/     M anipulation  |                                                 |
\*---------------------------------------------------------------------------*/
FoamFile
{
    version     2.0;
    format      ascii;
    arch        "LSB;label=32;scalar=64";
    class       surfaceScalarField;
    location    "13.5";
    object      phi;
}
// * * * * * * * * * * * * * * * * * * * * * * * * * * * * * * * * * * * * * //

dimensions      [1 0 -1 0 0 0 0];

oriented        oriented;

internalField   nonuniform List<scalar> 
13790
(
0.00292441
-2.14051e-07
0.0027444
9.46139e-07
0.00280433
2.82428e-06
0.00280583
4.92281e-06
0.00280182
5.74738e-06
0.00279582
6.31234e-06
0.00278771
7.22998e-06
0.00277818
8.15638e-06
0.00276737
9.41709e-06
0.00275555
1.09421e-05
0.0027426
1.24129e-05
0.00272852
1.38153e-05
0.00271302
1.52024e-05
0.00269623
1.66278e-05
0.00267792
1.81327e-05
0.00265804
1.97306e-05
0.00263642
2.1436e-05
0.00261292
2.32451e-05
0.00258762
2.51691e-05
0.00256032
2.72082e-05
0.00253086
2.93716e-05
0.00249896
3.16618e-05
0.00246455
3.4091e-05
0.00242747
3.66672e-05
0.00238775
3.94041e-05
0.00234508
4.23198e-05
0.00229921
4.54145e-05
0.00225006
4.87072e-05
0.00219749
5.22073e-05
0.00214129
5.59256e-05
0.00208123
5.98715e-05
0.00201672
6.40526e-05
0.00194766
6.84441e-05
0.00187401
7.30775e-05
0.00179559
7.79213e-05
0.00171259
8.29863e-05
0.00162442
8.82695e-05
0.0015308
9.36895e-05
0.00143161
9.9254e-05
0.00132659
0.000104872
0.00121588
0.00011049
0.00109952
0.000116042
0.000977736
0.000121419
0.000850992
0.000126553
0.000719397
0.000131374
0.000583402
0.000135705
0.000443572
0.000139666
0.000300354
0.000143018
0.000152733
0.000147136
0.000152302
0.00303283
1.48009e-08
0.00284597
8.35539e-07
0.00290647
8.25872e-06
0.00290752
1.05591e-05
0.00290166
1.18366e-05
0.00289515
1.32295e-05
0.00288788
1.49173e-05
0.0028795
1.69136e-05
0.00286924
1.91926e-05
0.0028572
2.18683e-05
0.00284355
2.47054e-05
0.00282871
2.75829e-05
0.00281254
3.05135e-05
0.00279517
3.3544e-05
0.00277628
3.67202e-05
0.00275575
4.00568e-05
0.00273339
4.35822e-05
0.00270907
4.72976e-05
0.00268288
5.12326e-05
0.00265459
5.53931e-05
0.00262407
5.98017e-05
0.00259102
6.44681e-05
0.00255535
6.94137e-05
0.00251696
7.46614e-05
0.0024758
8.02356e-05
0.00243157
8.61718e-05
0.00238403
9.24745e-05
0.00233311
9.91827e-05
0.00227863
0.000106314
0.00222039
0.000113894
0.00215812
0.000121936
0.00209121
0.000130455
0.0020196
0.000139408
0.00194324
0.000148854
0.00186193
0.000158736
0.00177586
0.00016907
0.00168439
0.000179855
0.00158723
0.00019092
0.00148426
0.00020229
0.0013752
0.000213772
0.00126018
0.00022527
0.00113925
0.000236644
0.00101261
0.000247677
0.000880741
0.000258223
0.000743753
0.000268132
0.000602114
0.000277045
0.000456509
0.0002851
0.000307326
0.000291993
0.000154717
0.000299238
0.000306574
0.00314556
9.7244e-08
0.00295152
1.12241e-06
0.00301483
1.32615e-05
0.003016
1.6258e-05
0.00301007
1.80269e-05
0.00300359
2.01863e-05
0.00299611
2.27864e-05
0.00298747
2.58603e-05
0.00297675
2.93078e-05
0.00296414
3.3256e-05
0.00294992
3.75258e-05
0.00293451
4.1939e-05
0.00291773
4.64705e-05
0.0028997
5.11527e-05
0.00288009
5.60464e-05
0.0028588
6.11625e-05
0.00283561
6.65597e-05
0.0028104
7.22286e-05
0.00278325
7.82376e-05
0.00275395
8.45793e-05
0.00272235
9.13109e-05
0.00268815
9.84265e-05
0.00265124
0.00010598
0.0026115
0.000113983
0.0025689
0.000122499
0.00252312
0.000131552
0.00247392
0.000141182
0.00242122
0.000151416
0.00236483
0.000162313
0.00230457
0.000173884
0.0022401
0.000186179
0.00217084
0.00019919
0.00209669
0.000212882
0.00201761
0.000227323
0.00193341
0.000242442
0.00184424
0.000258265
0.00174944
0.000274776
0.00164871
0.00029174
0.00154189
0.000309166
0.00142867
0.000326803
0.00130925
0.00034445
0.00118356
0.000361978
0.00105189
0.000378951
0.000914662
0.000395251
0.000772002
0.00041055
0.000624439
0.000424297
0.000472711
0.000436655
0.000317394
0.000447093
0.000159133
0.000456972
0.000465246
0.00326253
1.10333e-07
0.00306123
1.58925e-06
0.00312694
1.82149e-05
0.00312836
2.22902e-05
0.00312232
2.44769e-05
0.00311484
2.74637e-05
0.00310648
3.11769e-05
0.00309725
3.53214e-05
0.00308705
3.99949e-05
0.00307524
4.52183e-05
0.00306128
5.08176e-05
0.00304538
5.66725e-05
0.00302767
6.27593e-05
0.00300862
6.91044e-05
0.00298811
7.57687e-05
0.00296601
8.27604e-05
0.00294206
9.01312e-05
0.00291603
9.78792e-05
0.00288802
0.000106061
0.00285776
0.000114702
0.00282514
0.000123839
0.00278983
0.000133516
0.00275171
0.000143754
0.00271064
0.000154629
0.00266663
0.000166163
0.0026193
0.000178459
0.00256847
0.000191497
0.002514
0.000205405
0.00245575
0.000220159
0.00239347
0.000235892
0.00232685
0.000252548
0.00225524
0.000270246
0.0021786
0.000288812
0.00209681
0.000308471
0.00200976
0.000328995
0.0019175
0.000350566
0.00181938
0.000373014
0.00171505
0.000396165
0.00160433
0.000419932
0.00148692
0.000444017
0.00136292
0.000468194
0.00123237
0.000492148
0.00109541
0.000515506
0.000952605
0.000537839
0.000803989
0.000558918
0.000650118
0.000577851
0.000491911
0.000594678
0.000329937
0.00060884
0.000165301
0.000621055
0.00063008
0.00338377
1.34646e-07
0.00317507
2.02716e-06
0.00324364
2.30071e-05
0.00324524
2.82244e-05
0.00323895
3.10994e-05
0.00323193
3.46228e-05
0.00322406
3.93674e-05
0.0032151
4.47689e-05
0.00320426
5.0717e-05
0.00319124
5.73109e-05
0.0031762
6.44095e-05
0.00315968
7.18903e-05
0.00314161
7.96958e-05
0.00312218
8.78418e-05
0.00310112
9.63638e-05
0.00307835
0.000105288
0.00305357
0.000114663
0.00302663
0.000124508
0.00299758
0.000134892
0.00296628
0.000145854
0.00293257
0.000157457
0.00289614
0.000169738
0.00285681
0.000182754
0.00281446
0.000196556
0.00276905
0.000211225
0.00272023
0.00022683
0.00266779
0.000243416
0.00261162
0.00026107
0.0025515
0.00027985
0.00248728
0.000299821
0.0024185
0.000321044
0.00234466
0.000343509
0.00226552
0.000367211
0.00218113
0.000392172
0.00209118
0.000418427
0.00199591
0.000445854
0.00189442
0.000474625
0.00178654
0.000504132
0.00167187
0.00053466
0.0015502
0.000565475
0.00142155
0.000596581
0.00128589
0.000627419
0.00114346
0.000657506
0.000994677
0.000686402
0.000839741
0.000713605
0.000679126
0.000738128
0.000513835
0.000759789
0.0003447
0.000777741
0.000172588
0.0007926
0.00080217
0.00350957
1.41283e-07
0.00329313
2.53704e-06
0.00336428
2.78302e-05
0.00336614
3.44013e-05
0.0033599
3.78451e-05
0.00335212
4.21522e-05
0.00334342
4.80013e-05
0.00333372
5.45519e-05
0.00332304
6.18124e-05
0.00331082
6.9825e-05
0.00329634
7.84142e-05
0.00327965
8.74872e-05
0.00326085
9.70062e-05
0.00324049
0.000106973
0.00321853
0.000117411
0.00319497
0.00012833
0.00316944
0.000139824
0.00314171
0.000151853
0.0031118
0.000164556
0.00307951
0.000177924
0.00304478
0.000192086
0.00300728
0.000207049
0.00296682
0.000222929
0.00292322
0.000239752
0.00287642
0.000257644
0.00282611
0.000276651
0.0027721
0.000296877
0.00271428
0.000318392
0.0026524
0.000341308
0.00258624
0.000365673
0.00251541
0.00039158
0.00243929
0.000419004
0.00235779
0.000447934
0.00227079
0.000478492
0.00217816
0.000510555
0.00207983
0.000544248
0.00197519
0.000579415
0.00186365
0.000615808
0.00174514
0.000653216
0.00161909
0.000691361
0.00148573
0.000729664
0.00134479
0.00076796
0.00119661
0.000805247
0.00104152
0.000841266
0.000879678
0.00087517
0.000711821
0.000905642
0.000538733
0.000932673
0.000361361
0.000954862
0.000181161
0.000972199
0.00098283
0.00364004
1.63267e-07
0.00341559
3.00154e-06
0.00348952
3.27831e-05
0.00349149
4.05452e-05
0.00348562
4.46271e-05
0.00347768
4.9884e-05
0.00346856
5.68751e-05
0.0034581
6.46963e-05
0.00344641
7.33441e-05
0.00343382
8.27937e-05
0.0034198
9.28572e-05
0.00340386
0.000103487
0.00338531
0.000114687
0.0033645
0.000126432
0.00334165
0.000138835
0.00331704
0.000151808
0.00329064
0.00016547
0.0032621
0.00017979
0.00323144
0.000194898
0.00319826
0.000210799
0.00316257
0.0002276
0.00312407
0.000245365
0.00308265
0.000264184
0.00303795
0.000284153
0.0029899
0.000305335
0.00293809
0.000327881
0.0028825
0.000351792
0.00282304
0.000377311
0.00275957
0.000404421
0.00269168
0.000433362
0.00261893
0.000464046
0.00254062
0.000496648
0.00245675
0.000530953
0.00236718
0.000567299
0.00227179
0.000605421
0.0021705
0.00064556
0.00206255
0.000687524
0.00194747
0.00073097
0.00182491
0.000775823
0.00169452
0.000821511
0.00155618
0.000867726
0.00140988
0.00091381
0.00125558
0.000959094
0.00109389
0.00100272
0.000924658
0.0010441
0.000748638
0.00108131
0.000567106
0.00111401
0.000380736
0.00114098
0.000190707
0.00116165
0.001173
0.00377536
1.9747e-07
0.00354257
3.42481e-06
0.00361954
3.781e-05
0.0036215
4.66258e-05
0.00361564
5.15062e-05
0.00360803
5.76037e-05
0.00359891
6.58406e-05
0.0035884
7.50193e-05
0.00357612
8.5145e-05
0.00356248
9.60988e-05
0.00354762
0.000107691
0.00353152
0.000119897
0.0035137
0.00013277
0.00349378
0.000146348
0.00347102
0.000160675
0.00344565
0.000175718
0.00341812
0.000191587
0.00338842
0.000208258
0.00335667
0.000225825
0.00332246
0.000244335
0.00328574
0.000263872
0.00324627
0.000284542
0.00320384
0.000306417
0.0031581
0.000329632
0.00310886
0.000354234
0.00305578
0.000380396
0.00299872
0.000408144
0.00293777
0.000437719
0.00287262
0.0004692
0.00280305
0.000502717
0.00272843
0.000538386
0.00264817
0.000576183
0.00256209
0.00061612
0.00247021
0.000658336
0.00237219
0.000702812
0.00226815
0.000749581
0.00215702
0.000798691
0.00203855
0.00084953
0.00191205
0.000902282
0.0017773
0.000956016
0.00163401
0.00101069
0.00148207
0.00106531
0.00132152
0.00111916
0.00115257
0.00117139
0.00097557
0.00122084
0.000790749
0.00126575
0.000599312
0.00130525
0.000402595
0.00133745
0.000202106
0.00136151
0.00137456
0.00391574
2.14322e-07
0.00367424
3.89245e-06
0.00375446
4.26795e-05
0.0037568
5.27878e-05
0.00375072
5.83825e-05
0.00374302
6.53399e-05
0.00373391
7.48412e-05
0.00372335
8.54366e-05
0.0037111
9.71188e-05
0.00369725
0.000109727
0.00368167
0.00012299
0.00366459
0.00013691
0.0036457
0.000151558
0.00362496
0.000167
0.00360201
0.0001833
0.00357678
0.000200446
0.00354932
0.000218534
0.00351939
0.00023756
0.00348698
0.000257637
0.00345187
0.000278785
0.00341404
0.000301115
0.00337348
0.0003247
0.00333007
0.00034969
0.00328338
0.000376179
0.00323304
0.000404285
0.00317874
0.000434122
0.00312038
0.000465802
0.00305807
0.000499489
0.00299149
0.000535402
0.0029203
0.000573625
0.00284403
0.000614301
0.00276194
0.000657487
0.00267398
0.000703105
0.00257995
0.00075148
0.00247976
0.00080239
0.00237312
0.000856197
0.00225935
0.0009126
0.00213758
0.000971443
0.00200756
0.00103234
0.00186844
0.00109493
0.00172039
0.00115848
0.00156261
0.00122259
0.00139548
0.00128579
0.00121912
0.00134752
0.0010332
0.00140641
0.000838888
0.00145972
0.000636899
0.001507
0.000428304
0.00154575
0.000214801
0.00157438
0.00158878
0.00406132
2.36393e-07
0.00381085
4.33154e-06
0.00389435
4.75374e-05
0.0038971
5.88645e-05
0.00389114
6.51484e-05
0.00388337
7.30814e-05
0.00387424
8.38244e-05
0.00386365
9.58623e-05
0.00385139
0.000109159
0.00383749
0.000123446
0.00382175
0.000138446
0.0038043
0.000154174
0.00378487
0.000170712
0.00376358
0.000188128
0.00374013
0.000206492
0.00371452
0.000225799
0.00368663
0.000246161
0.00365635
0.000267562
0.00362358
0.000290156
0.00358808
0.000313947
0.00354972
0.000339097
0.00350842
0.000365634
0.00346412
0.000393767
0.00341652
0.000423559
0.00336538
0.000455202
0.00331026
0.000488814
0.00325094
0.000524521
0.00318736
0.000562536
0.00311938
0.000602977
0.00304642
0.000646088
0.0029683
0.000691832
0.00288424
0.000740558
0.0027943
0.00079196
0.00269842
0.000846651
0.00259608
0.000904321
0.00248734
0.000965237
0.0023709
0.0010295
0.0022463
0.00109635
0.00211266
0.00116618
0.00196961
0.00123783
0.00181643
0.00131134
0.00165319
0.00138539
0.00147908
0.0014594
0.0012947
0.00153155
0.00109982
0.00160103
0.000894271
0.00166485
0.000679969
0.00172107
0.000457993
0.00176744
0.000230404
0.00180131
0.0018186
0.00421234
2.56899e-07
0.00395252
4.75719e-06
0.00403958
5.22518e-05
0.00404274
6.48166e-05
0.00403691
7.18277e-05
0.00402923
8.07118e-05
0.00402011
9.27657e-05
0.00400955
0.000106254
0.00399727
0.000121192
0.00398332
0.000137208
0.00396751
0.000153993
0.00394993
0.000171565
0.00393033
0.000190044
0.00390878
0.000209489
0.003885
0.000229993
0.00385903
0.000251517
0.0038307
0.000274217
0.0037999
0.000298053
0.00376659
0.000323214
0.00373056
0.000349701
0.00369166
0.000377701
0.00364972
0.00040725
0.00360464
0.000438555
0.00355614
0.000471706
0.00350422
0.000506893
0.00344839
0.000544308
0.00338845
0.000584056
0.00332413
0.000626403
0.00325515
0.00067145
0.00318113
0.000719456
0.00310179
0.000770468
0.0030166
0.000824828
0.0029253
0.00088234
0.00282792
0.000943527
0.00272375
0.00100822
0.00261274
0.00107658
0.00249382
0.00114879
0.00236615
0.00122424
0.00222927
0.00130315
0.00208206
0.00138479
0.00192446
0.00146864
0.00175519
0.00155418
0.00157441
0.00163956
0.00138155
0.00172417
0.0011764
0.00180583
0.000959601
0.00188125
0.000731427
0.00194901
0.000493565
0.00200502
0.000248073
0.00204615
0.00206605
0.00436898
2.75375e-07
0.00409945
5.16086e-06
0.00419031
5.67513e-05
0.00419398
7.0551e-05
0.00418839
7.83069e-05
0.00418088
8.8146e-05
0.00417191
0.000101544
0.00416143
0.000116548
0.00414919
0.000133168
0.00413524
0.000150964
0.00411934
0.000169576
0.00410169
0.000189044
0.00408193
0.000209497
0.00406022
0.000231037
0.00403625
0.000253709
0.00400998
0.000277499
0.00398141
0.000302579
0.0039502
0.000328895
0.00391649
0.000356666
0.00387997
0.0003859
0.00384065
0.000416769
0.00379817
0.000449387
0.00375256
0.00048388
0.00370344
0.000520466
0.00365078
0.000559212
0.00359438
0.000600463
0.00353378
0.000644261
0.00346888
0.000690932
0.00339921
0.000740616
0.00332442
0.00079354
0.00324441
0.000849861
0.00315849
0.000909929
0.00306648
0.00097361
0.00296811
0.00104146
0.00286263
0.00111332
0.00274988
0.00118936
0.00262881
0.00126989
0.00249867
0.00135425
0.00235876
0.00144294
0.00220812
0.00153503
0.00204592
0.00163045
0.00187151
0.00172809
0.0016836
0.0018269
0.00148232
0.00192507
0.00126649
0.00202137
0.00103586
0.00211144
0.000792035
0.00219256
0.000535993
0.00226077
0.000270655
0.00231082
0.00233607
0.00453146
2.92325e-07
0.00425185
5.53423e-06
0.00434674
6.09609e-05
0.00435104
7.59533e-05
0.00434583
8.44609e-05
0.00433859
9.5281e-05
0.00432986
0.000110066
0.00431957
0.000126631
0.00430747
0.000144993
0.00429364
0.000164626
0.00427772
0.000185135
0.00426007
0.000206552
0.00424021
0.00022906
0.00421828
0.000252687
0.00419417
0.000277587
0.00416777
0.000303656
0.00413897
0.000331149
0.00410757
0.000359975
0.00407365
0.000390386
0.00403677
0.000422377
0.00399712
0.000456153
0.00395433
0.00049183
0.00390837
0.000529557
0.00385891
0.000569557
0.00380583
0.000611927
0.00374897
0.000657002
0.00368799
0.000704866
0.00362269
0.000755874
0.00355271
0.00081016
0.00347758
0.000868054
0.0033972
0.00092966
0.00331101
0.000995449
0.00321854
0.00106534
0.00311972
0.00113982
0.00301349
0.00121903
0.00289971
0.00130287
0.00277728
0.00139203
0.0026454
0.00148572
0.00250328
0.00158465
0.00234976
0.00168804
0.00218399
0.00179574
0.00200433
0.00190716
0.00181004
0.00202051
0.00159997
0.00213483
0.00137306
0.00224796
0.00112869
0.00235542
0.000866712
0.00245424
0.000588597
0.00253858
0.000297219
0.00260155
0.00263261
0.00469998
3.07797e-07
0.00440991
5.8656e-06
0.00450912
6.4762e-05
0.00451422
8.08744e-05
0.00450954
9.01485e-05
0.00450273
0.000101993
0.00449435
0.000118226
0.00448438
0.000136382
0.00447253
0.000156544
0.0044589
0.00017809
0.00444314
0.00020057
0.0044255
0.000224005
0.00440573
0.000248611
0.00438375
0.000274371
0.00435958
0.000301515
0.00433292
0.000329942
0.00430407
0.000359819
0.00427254
0.000391211
0.00423847
0.000424212
0.00420153
0.00045901
0.0041617
0.000495659
0.00411877
0.000534416
0.00407266
0.000575345
0.00402309
0.000618759
0.00396996
0.000664719
0.00391301
0.000713614
0.00385197
0.000765532
0.00378662
0.000820831
0.00371665
0.000879728
0.00364162
0.000942522
0.00356132
0.00100942
0.00347529
0.00108089
0.00338297
0.00115695
0.00328416
0.00123809
0.00317797
0.0013246
0.00306388
0.00141641
0.00294109
0.0015143
0.00280838
0.00161775
0.00266514
0.00172728
0.00250974
0.00184278
0.00234121
0.00196366
0.00215786
0.00208996
0.00195753
0.00222013
0.00173935
0.00235259
0.00150077
0.00248617
0.00124026
0.00261547
0.00095808
0.00273609
0.000654675
0.00284166
0.000333
0.00292261
0.0029649
0.00487478
3.20624e-07
0.00457385
6.14352e-06
0.00467774
6.7971e-05
0.00468383
8.51119e-05
0.00467988
9.51928e-05
0.00467366
0.000108123
0.00466582
0.000125852
0.00465632
0.00014568
0.00464486
0.000167717
0.00463152
0.000191257
0.00461598
0.000215769
0.00459852
0.000241286
0.00457888
0.000268008
0.00455692
0.000296023
0.00453284
0.000325413
0.00450622
0.000356207
0.00447732
0.000388499
0.00444579
0.000422428
0.00441166
0.000458048
0.00437485
0.000495593
0.00433507
0.000535129
0.00429228
0.000576897
0.00424626
0.000621035
0.00419685
0.000667777
0.00414383
0.000717328
0.00408722
0.00076992
0.00402643
0.000825893
0.00396154
0.000885353
0.00389207
0.000948845
0.0038176
0.00101643
0.00373804
0.00108857
0.0036527
0.00116562
0.00356112
0.00124777
0.00346317
0.00133548
0.00335769
0.00142929
0.00324442
0.00152903
0.0031223
0.00163579
0.00299012
0.00174912
0.00284702
0.00186974
0.00269138
0.00199767
0.00252148
0.00213292
0.00233548
0.00227526
0.00213102
0.00242389
0.00190562
0.00257757
0.00165687
0.00273458
0.00138095
0.00289101
0.00107579
0.00304093
0.000740503
0.00317659
0.000378325
0.00328411
0.00334248
0.00505609
3.18342e-07
0.00474388
6.35978e-06
0.00485291
7.02959e-05
0.0048603
8.83817e-05
0.0048573
9.9383e-05
0.00485185
0.000113485
0.00484473
0.000132774
0.00483585
0.000154353
0.00482495
0.00017837
0.00481205
0.000203992
0.00479683
0.000230632
0.00477968
0.000258294
0.00476025
0.000287219
0.00473843
0.000317443
0.00471453
0.000349158
0.0046881
0.0003823
0.00465932
0.00041705
0.00462798
0.000453462
0.00459401
0.000491727
0.00455737
0.000531941
0.00451785
0.000574351
0.00447541
0.000619045
0.00442981
0.000666334
0.00438094
0.000716331
0.00432848
0.000769375
0.00427243
0.000825605
0.00421247
0.000885456
0.0041483
0.00094906
0.00407997
0.00101687
0.00400663
0.00108926
0.00392834
0.00116633
0.00384456
0.00124892
0.00375454
0.00133692
0.00365831
0.00143114
0.00355489
0.00153197
0.00344347
0.00163968
0.0033235
0.00175507
0.0031934
0.00187838
0.00305211
0.00201015
0.00289809
0.00215094
0.00272932
0.00230095
0.00254324
0.00246077
0.00233668
0.00262968
0.00210665
0.00280709
0.0018481
0.00299278
0.00155646
0.00318228
0.0012275
0.00336947
0.000857194
0.00354657
0.000444501
0.00369626
0.00378623
0.00524433
1.77314e-07
0.00491997
6.84629e-06
0.00503488
7.12201e-05
0.00504396
9.0256e-05
0.00504212
0.000102517
0.0050377
0.000117836
0.00503151
0.000138764
0.00502354
0.000162186
0.00501331
0.000188315
0.00500102
0.000216146
0.00498637
0.000245021
0.0049695
0.000274892
0.0049504
0.000306055
0.00492904
0.000338551
0.00490534
0.000372601
0.00487921
0.000408092
0.00485069
0.000445296
0.0048197
0.000484163
0.0047861
0.000525038
0.00474989
0.000567866
0.00471092
0.000613077
0.00466898
0.00066062
0.00462416
0.000710929
0.00457603
0.000764102
0.00452461
0.000820446
0.00446958
0.000880245
0.00441089
0.000943754
0.00434808
0.00101138
0.00428128
0.0010833
0.00420981
0.00116026
0.00413355
0.00124206
0.0040521
0.00132989
0.00396474
0.00142351
0.00387135
0.00152388
0.00377101
0.00163156
0.00366317
0.00174673
0.00354674
0.00187073
0.00342068
0.00200353
0.00328365
0.0021464
0.00313365
0.00230011
0.00296892
0.00246487
0.00278627
0.00264273
0.00258177
0.00283335
0.002352
0.00303628
0.00209049
0.00325379
0.00178794
0.00348445
0.00143442
0.00372268
0.00102062
0.00396002
0.000538732
0.00417737
0.0043242
0.0054399
1.41689e-07
0.0051023
6.87989e-06
0.00522323
7.12675e-05
0.00523397
9.09242e-05
0.00523375
0.000104061
0.00523091
0.000120634
0.0052261
0.00014335
0.0052193
0.000168798
0.00521002
0.000197231
0.00519844
0.000227455
0.00518444
0.000258684
0.00516816
0.000290866
0.00514961
0.000324328
0.00512883
0.000359163
0.00510572
0.000395552
0.0050802
0.000433414
0.00505223
0.000473021
0.00502182
0.000514343
0.00498885
0.000557721
0.0049532
0.000603158
0.00491501
0.000651007
0.00487382
0.00070138
0.00482999
0.000754511
0.00478301
0.00081075
0.00473292
0.000870197
0.00467952
0.000933334
0.00462264
0.00100032
0.00456188
0.00107166
0.00449738
0.00114749
0.00442846
0.00122863
0.00435499
0.00131493
0.00427689
0.00140748
0.00419306
0.00150649
0.00410398
0.00161237
0.00400826
0.00172655
0.00390553
0.00184863
0.00379512
0.00198048
0.0036752
0.00212249
0.0035453
0.00227545
0.00340269
0.00244191
0.00324603
0.00262082
0.00307341
0.0028147
0.00287837
0.00302774
0.00265324
0.00326086
0.00239251
0.00351416
0.00208684
0.00378975
0.00171921
0.00408985
0.00126708
0.00441206
0.000701562
0.00474222
0.00502498
0.00564293
1.29412e-07
0.00529101
6.77335e-06
0.00541864
7.0109e-05
0.00543162
8.99102e-05
0.00543346
0.000103661
0.0054325
0.000121557
0.0054293
0.000146321
0.0054239
0.000174026
0.00541569
0.000205071
0.00540504
0.000237854
0.00539195
0.000271522
0.00537643
0.00030606
0.00535855
0.000341854
0.00533835
0.000379017
0.00531581
0.000417746
0.00529084
0.000457962
0.00526366
0.000499928
0.00523402
0.000543674
0.00520216
0.000589456
0.00516764
0.000637437
0.00513079
0.000687792
0.00509107
0.000740864
0.00504857
0.0007967
0.00500326
0.000855778
0.00495476
0.000918209
0.0049033
0.000984386
0.00484863
0.00105462
0.00479044
0.00112934
0.00472881
0.00120874
0.0046634
0.0012936
0.00459361
0.00138405
0.00451995
0.00148074
0.00444112
0.00158456
0.00435735
0.00169547
0.00426821
0.00181509
0.00417229
0.00194365
0.00406996
0.00208203
0.00395921
0.00223239
0.00383993
0.00239383
0.00371217
0.00256877
0.00356986
0.00276232
0.00340855
0.00297522
0.00322761
0.00320787
0.00302209
0.00346563
0.002782
0.00375373
0.00249089
0.00408059
0.00212902
0.00445134
0.0016553
0.0048855
0.000999513
0.00539738
0.00602373
0.00585355
1.22627e-07
0.00548668
6.46325e-06
0.00562202
6.7172e-05
0.00563822
8.62581e-05
0.00564281
0.000100562
0.00564439
0.000119927
0.00564323
0.000147278
0.00563933
0.000177756
0.00563238
0.000211809
0.00562258
0.000247402
0.0056102
0.000283604
0.00559541
0.000320542
0.00557825
0.000358675
0.00555876
0.00039814
0.00553705
0.000439151
0.00551289
0.000481681
0.00548662
0.000525901
0.00545793
0.000571975
0.00542702
0.00062004
0.00539365
0.000670402
0.00535801
0.000723127
0.00532003
0.000778655
0.0052794
0.000837031
0.0052364
0.000898684
0.00519056
0.00096383
0.0051418
0.00103281
0.00509031
0.00110591
0.00503547
0.0011837
0.00497745
0.00126622
0.0049163
0.00135439
0.00485128
0.00144829
0.00478282
0.00154868
0.00471042
0.0016563
0.00463348
0.00177162
0.00455237
0.00189555
0.00446557
0.0020297
0.00437405
0.00217266
0.00427842
0.00232714
0.00417369
0.00249766
0.00405721
0.00268435
0.00393136
0.0028873
0.0037948
0.00311102
0.0036426
0.00335933
0.00346953
0.00363796
0.00326894
0.00395368
0.00302882
0.0043203
0.00272187
0.00475789
0.00229911
0.005308
0.0016463
0.00604962
0.0076692
0.00846408
1.10631e-07
0.00793074
5.58506e-06
0.00813317
5.82998e-05
0.00816239
7.53499e-05
0.00817484
9.03447e-05
0.00818198
0.000112832
0.00818444
0.000144604
0.00818219
0.000179832
0.00817503
0.000218722
0.0081634
0.00025861
0.00814818
0.000298503
0.00812945
0.000338802
0.00810769
0.00038011
0.00808262
0.000422735
0.00805466
0.000466713
0.0080236
0.000512228
0.00798975
0.000559305
0.0079529
0.000608282
0.00791321
0.000659197
0.00787062
0.000712454
0.00782507
0.000768101
0.00777675
0.000826538
0.00772533
0.000887906
0.00767092
0.000952559
0.00761373
0.00102072
0.00755316
0.00109286
0.00748962
0.00116907
0.00742283
0.00125009
0.00735252
0.00133594
0.00727891
0.00142742
0.00720152
0.00152476
0.00712076
0.00162866
0.00703635
0.00173986
0.00694819
0.00185878
0.00685753
0.00198521
0.00676484
0.00212132
0.00666545
0.00227093
0.00655887
0.00243258
0.00644867
0.00260671
0.00633629
0.00279559
0.00621838
0.00300406
0.00609584
0.00323244
0.00596746
0.00348664
0.00583456
0.00376991
0.00569996
0.00408746
0.00557114
0.00444868
0.00548083
0.00484771
0.00550515
0.00528336
0.00591282
0.00564146
0.00547667
0.00810444
0.00846555
1.18121e-07
0.00793043
3.11942e-06
0.00814766
3.65112e-05
0.00818793
5.36134e-05
0.00820997
7.06235e-05
0.00822406
9.87652e-05
0.0082306
0.000137888
0.00823053
0.000179705
0.0082243
0.000224751
0.00821362
0.000269044
0.00819957
0.000312337
0.00818224
0.000355722
0.00816211
0.000399991
0.00813898
0.000445427
0.00811318
0.000492066
0.00808488
0.000540074
0.00805416
0.000589587
0.00802115
0.000640884
0.00798565
0.000694156
0.00794804
0.00074965
0.00790794
0.000807626
0.00786567
0.000868265
0.00782113
0.000931932
0.00777418
0.000998776
0.00772519
0.00106918
0.00767399
0.00114344
0.00762061
0.00122186
0.00756534
0.00130486
0.00750781
0.00139284
0.00744846
0.00148615
0.007387
0.00158554
0.00732437
0.00169053
0.0072613
0.00180201
0.0071971
0.00192202
0.00712938
0.00205191
0.00705879
0.00219084
0.00699002
0.0023386
0.00692319
0.00249826
0.00685817
0.00267058
0.00679551
0.00285711
0.00673982
0.00305869
0.0066915
0.00327967
0.00666061
0.00351648
0.00665058
0.0037788
0.00668125
0.00405573
0.00677737
0.00435185
0.00698324
0.0046413
0.00738266
0.00488361
0.00800068
0.0050232
0.00467568
0.00880127
0.00846572
1.38327e-07
0.00793049
2.71005e-07
0.00816386
-9.64788e-07
0.00822279
1.3221e-05
0.0082598
3.59967e-05
0.00828343
7.53122e-05
0.00829499
0.000126279
0.0082959
0.000178713
0.0082905
0.000230016
0.0082811
0.000278169
0.00826851
0.000324641
0.00825272
0.000371121
0.00823409
0.000418307
0.00821283
0.000466383
0.00818909
0.00051543
0.0081632
0.000565618
0.00813514
0.000617224
0.00810517
0.000670468
0.00807324
0.000725649
0.0080395
0.000782927
0.00800401
0.000842636
0.00796684
0.00090492
0.00792812
0.000970147
0.0078878
0.00103847
0.00784618
0.00111025
0.00780329
0.00118569
0.00775939
0.0012652
0.00771462
0.00134908
0.00766902
0.0014378
0.00762378
0.00153075
0.00757962
0.00162904
0.00753469
0.0017348
0.00748843
0.00184757
0.00744282
0.00196684
0.00740082
0.00209307
0.0073621
0.00222861
0.00732711
0.00237258
0.00729686
0.00252745
0.00727429
0.00269204
0.00726103
0.00286922
0.00726134
0.00305723
0.00728117
0.00325868
0.00732606
0.00347046
0.00741292
0.00369096
0.00755011
0.00391745
0.00776798
0.00413297
0.00808063
0.00432787
0.00850553
0.00445807
0.00902572
0.00450261
0.00424625
0.00945476
0.00846414
1.41564e-06
0.00793702
-1.04914e-05
0.0082164
-8.42964e-05
0.00830478
-5.67001e-05
0.00835214
-8.85346e-06
0.00837286
5.47641e-05
0.00837763
0.000121443
0.00837394
0.000182326
0.0083666
0.000237187
0.00835746
0.000287055
0.00834578
0.000336019
0.00833127
0.000385344
0.00831423
0.000435053
0.00829506
0.000485275
0.00827404
0.000536134
0.00825134
0.000587993
0.00822701
0.000641205
0.00820116
0.00069598
0.00817379
0.000752619
0.008145
0.000811293
0.00811481
0.00087231
0.00808332
0.00093584
0.0080507
0.00100219
0.00801701
0.00107153
0.00798242
0.00114415
0.00794716
0.00122026
0.00791155
0.00130004
0.00787644
0.00138342
0.00784236
0.00147113
0.00780747
0.00156489
0.0077721
0.00166362
0.00773912
0.00176696
0.00770992
0.00187594
0.0076843
0.00199162
0.00766307
0.00211344
0.007648
0.00224283
0.00764023
0.00237944
0.0076427
0.00252402
0.00765659
0.00267719
0.00768701
0.00283782
0.00773548
0.00300768
0.00781048
0.0031826
0.00791551
0.00336422
0.00806104
0.00354424
0.00825795
0.00371948
0.00851137
0.00387852
0.00883459
0.0040038
0.00921099
0.00408096
0.00966344
0.00404956
0.00392626
0.00998293
0.00845346
1.03326e-05
0.00797757
-6.63306e-05
0.00836452
-0.000279012
0.00854656
-0.000220549
0.00859126
-5.11216e-05
0.00858307
6.3124e-05
0.00856769
0.000136776
0.00855276
0.000197197
0.00854052
0.000249335
0.00852782
0.000299604
0.008512
0.000351665
0.00849326
0.000403899
0.00847241
0.000455686
0.00845015
0.000507291
0.00842655
0.000559454
0.00840174
0.000612514
0.00837584
0.000666775
0.008349
0.000722469
0.00832142
0.000779872
0.00829317
0.000839198
0.00826441
0.000900723
0.00823524
0.000964661
0.00820583
0.00103125
0.0081763
0.00110069
0.00814725
0.00117281
0.00811911
0.00124794
0.00809148
0.00132718
0.00806362
0.0014107
0.00803609
0.00149802
0.00801131
0.00158899
0.00798946
0.00168477
0.00797044
0.00178522
0.00795478
0.00189078
0.00794429
0.00200129
0.00793916
0.00211761
0.00794232
0.00223876
0.0079542
0.00236658
0.0079785
0.00249879
0.00801694
0.00263771
0.00807358
0.00278022
0.00815268
0.00292754
0.00825757
0.00307667
0.00839607
0.00322467
0.00856949
0.00336958
0.00878719
0.00350061
0.00904819
0.00361634
0.00935421
0.00369677
0.0096983
0.003736
0.0100427
0.00370444
0.00359404
0.0103744
0.00852036
1.66819e-05
0.00824912
-0.00039777
0.0088018
-0.000619148
0.00889853
-0.000296909
0.00887822
-2.58484e-05
0.00881441
0.000127274
0.00878313
0.000168068
0.00876324
0.000217094
0.0087539
0.000258672
0.00873971
0.000313748
0.00872099
0.000370303
0.00870012
0.000424678
0.00867822
0.000477453
0.00865538
0.000530007
0.0086315
0.000583162
0.00860651
0.00063733
0.00858037
0.000692698
0.00855316
0.000749455
0.008525
0.00080779
0.00849609
0.000867885
0.00846651
0.000930082
0.00843645
0.000994505
0.00840649
0.001061
0.00837731
0.00112964
0.00834801
0.00120187
0.00831874
0.00127695
0.00829095
0.00135464
0.00826631
0.00143498
0.00824462
0.00151929
0.00822635
0.0016068
0.00821191
0.00169873
0.00820249
0.00179411
0.00819838
0.00189432
0.008201
0.00199803
0.00821105
0.00210684
0.00822993
0.00221912
0.00825963
0.00233604
0.00830118
0.0024564
0.00835843
0.00257956
0.00843197
0.00270569
0.00852773
0.00283085
0.00864635
0.00295701
0.00879419
0.00307586
0.00897251
0.00319025
0.00918446
0.00328757
0.0094308
0.00336894
0.00970743
0.00341902
0.0100108
0.00343164
0.0103128
0.00340153
0.00330284
0.0106033
0.00816447
3.1492e-06
0.00785018
-0.000109399