/*--------------------------------*- C++ -*----------------------------------*\
| =========                 |                                                 |
| \\      /  F ield         | OpenFOAM: The Open Source CFD Toolbox           |
|  \\    /   O peration     | Version:  2412                                  |
|   \\  /    A nd           | Website:  www.openfoam.com                      |
|    \\/     M anipulation  |                                                 |
\*---------------------------------------------------------------------------*/
FoamFile
{
    version     2.0;
    format      ascii;
    arch        "LSB;label=32;scalar=64";
    class       volScalarField;
    location    "13.5";
    object      T;
}
// * * * * * * * * * * * * * * * * * * * * * * * * * * * * * * * * * * * * * //

dimensions      [0 0 0 1 0 0 0];

internalField   nonuniform List<scalar> 
7000
(
1.31847
2.65193
2.71476
2.67177
2.66422
2.6439
2.64171
2.64489
2.64852
2.65159
2.65347
2.65465
2.65583
2.65738
2.65865
2.66048
2.66192
2.66406
2.66586
2.66798
2.66996
2.67231
2.67483
2.67761
2.68054
2.68337
2.68661
2.68992
2.69337
2.69673
2.70013
2.70346
2.70772
2.71161
2.71587
2.71959
2.72239
2.72569
2.72837
2.73148
2.73467
2.73769
2.74093
2.74367
2.74531
2.7476
2.74877
2.74881
2.75022
2.7537
1.31854
2.65219
2.7151
2.67111
2.66454
2.64621
2.64185
2.64399
2.6461
2.64889
2.65142
2.65344
2.65528
2.65721
2.65865
2.66055
2.66202
2.66417
2.66596
2.66808
2.67007
2.67239
2.67492
2.6777
2.68059
2.68344
2.6867
2.69
2.69343
2.69676
2.70015
2.70353
2.7078
2.71169
2.7159
2.71957
2.72234
2.72563
2.7283
2.73142
2.7346
2.73763
2.74086
2.74358
2.74521
2.74747
2.7486
2.74859
2.74997
2.75327
1.31852
2.65211
2.71499
2.67111
2.66452
2.64607
2.6418
2.64397
2.64617
2.64905
2.65157
2.65357
2.65532
2.65721
2.65859
2.66049
2.6619
2.66409
2.66583
2.66801
2.66994
2.67229
2.67476
2.67758
2.6804
2.68331
2.68651
2.68984
2.69325
2.6966
2.69995
2.70335
2.7076
2.7115
2.71571
2.71933
2.72209
2.72535
2.72805
2.73117
2.73439
2.7374
2.74066
2.74335
2.74497
2.74725
2.74836
2.74836
2.74972
2.75305
1.31848
2.6519
2.71482
2.67126
2.66398
2.64604
2.64225
2.64482
2.64647
2.64797
2.64941
2.65112
2.65329
2.65577
2.65775
2.65993
2.66162
2.66377
2.66572
2.66775
2.66985
2.67202
2.67461
2.67724
2.68021
2.68295
2.68632
2.68945
2.69303
2.69618
2.69968
2.70293
2.7073
2.71107
2.71538
2.71884
2.72169
2.72485
2.72755
2.73072
2.73386
2.73699
2.74016
2.74291
2.74452
2.74675
2.74789
2.74786
2.74932
2.75243
1.31845
2.65169
2.71461
2.67108
2.66426
2.64596
2.64182
2.64402
2.6459
2.64818
2.6506
2.65252
2.65455
2.65651
2.65817
2.65999
2.66152
2.66358
2.66545
2.66757
2.66955
2.67182
2.67422
2.67697
2.67976
2.68263
2.68583
2.6891
2.69247
2.69584
2.69907
2.70262
2.70661
2.71073
2.71465
2.71844
2.72094
2.72437
2.7268
2.73008
2.73315
2.73621
2.73947
2.74218
2.74384
2.74601
2.74714
2.74715
2.74842
2.75185
1.31841
2.65138
2.71428
2.67141
2.66372
2.64566
2.64197
2.64463
2.64636
2.64787
2.64901
2.65059
2.65263
2.65521
2.65719
2.65953
2.66101
2.66331
2.66502
2.66733
2.6692
2.67155
2.6738
2.67655
2.67926
2.68222
2.68534
2.68865
2.69191
2.69527
2.69852
2.70203
2.70616
2.71006
2.71419
2.71757
2.72042
2.72336
2.72618
2.72906
2.73233
2.73518
2.7385
2.74109
2.74279
2.74516
2.74606
2.7461
2.74768
2.75057
1.31837
2.65107
2.7138
2.67184
2.66349
2.64511
2.64168
2.64433
2.64667
2.64847
2.64914
2.64969
2.6508
2.65317
2.65536
2.65824
2.66018
2.66264
2.66454
2.66674
2.66884
2.67101
2.67333
2.67569
2.67848
2.68118
2.68462
2.68767
2.69112
2.69401
2.69738
2.70058
2.70497
2.70868
2.71296
2.71626
2.71915
2.72215
2.72487
2.72796
2.731
2.73409
2.73717
2.73993
2.74139
2.74377
2.74501
2.74479
2.74593
2.74956
1.31832
2.65068
2.71331
2.67193
2.66366
2.64481
2.64123
2.6438
2.64603
2.64838
2.64957
2.65023
2.65077
2.6518
2.65317
2.65589
2.65836
2.66127
2.66374
2.6662
2.66862
2.67089
2.67326
2.67556
2.67826
2.68093
2.68423
2.68737
2.69056
2.69364
2.69662
2.70001
2.70396
2.70787
2.71174
2.71524
2.71772
2.721
2.7233
2.72667
2.7294
2.73261
2.73564
2.73822
2.74002
2.74191
2.74305
2.74334
2.74479
2.74741
1.31825
2.65016
2.7128
2.67201
2.66335
2.6447
2.64101
2.64355
2.6457
2.64775
2.64905
2.64997
2.65081
2.65207
2.65321
2.65507
2.65675
2.6589
2.66103
2.66349
2.66601
2.66867
2.67113
2.67362
2.67629
2.67929
2.68265
2.68608
2.6893
2.69257
2.69573
2.69911
2.70321
2.70692
2.71098
2.71404
2.71684
2.71936
2.7221
2.72472
2.72791
2.73041
2.73388
2.73631
2.73769
2.74032
2.74101
2.74073
2.74198
2.74584
1.31818
2.64958
2.71213
2.67234
2.66291
2.64439
2.64068
2.64319
2.64535
2.64725
2.64855
2.6494
2.65043
2.65173
2.65294
2.65461
2.65603
2.65794
2.65961
2.66174
2.66377
2.66623
2.66851
2.671
2.67349
2.67623
2.67936
2.68265
2.68608
2.68936
2.69323
2.69672
2.70143
2.70516
2.70919
2.71246
2.71473
2.71774
2.71977
2.72289
2.72534
2.72861
2.73107
2.73403
2.73548
2.73712
2.73878
2.73888
2.74015
2.74247
1.31809
2.6489
2.71139
2.67259
2.66257
2.644
2.64025
2.64281
2.64481
2.64683
2.64795
2.64887
2.64975
2.65112
2.65223
2.65397
2.65526
2.65723
2.65877
2.66089
2.66268
2.66503
2.66711
2.6696
2.67201
2.67447
2.67731
2.68011
2.68333
2.68649
2.69016
2.69364
2.69792
2.70171
2.70547
2.70898
2.71153
2.71461
2.71716
2.71996
2.72298
2.72531
2.72869
2.73085
2.73243
2.73467
2.73496
2.73474
2.73586
2.74003
1.31799
2.64812
2.71055
2.67287
2.66219
2.64355
2.63976
2.64226
2.6443
2.64619
2.64738
2.64822
2.64908
2.65043
2.65144
2.65318
2.65441
2.65627
2.65792
2.65983
2.66179
2.66378
2.66607
2.66818
2.6708
2.67302
2.67572
2.67835
2.6812
2.68426
2.68762
2.69077
2.69469
2.69799
2.70161
2.70501
2.70779
2.71109
2.71379
2.71681
2.71954
2.72238
2.7248
2.7275
2.7286
2.73045
2.73206
2.73192
2.73293
2.7348
1.31788
2.64723
2.70959
2.67321
2.66174
2.64304
2.63919
2.64167
2.64367
2.64552
2.64662
2.64752
2.64821
2.6497
2.65057
2.65235
2.65338
2.65536
2.65672
2.65874
2.66056
2.66259
2.66472
2.66683
2.66927
2.67155
2.6741
2.67661
2.6793
2.68208
2.68522
2.68811
2.69154
2.69477
2.69781
2.70136
2.70389
2.70739
2.70998
2.71308
2.71575
2.71811
2.72108
2.7231
2.72435
2.72589
2.72602
2.72559
2.72666
2.73099
1.31775
2.64625
2.70853
2.67359
2.66124
2.64248
2.63853
2.64103
2.64288
2.64481
2.64575
2.64668
2.64731
2.6487
2.6496
2.65122
2.65252
2.65404
2.65573
2.65731
2.65932
2.66109
2.66331
2.66524
2.66767
2.66974
2.6723
2.6746
2.67728
2.67978
2.68274
2.68537
2.68849
2.69144
2.69433
2.69748
2.70016
2.70318
2.70606
2.70861
2.71148
2.71351
2.71569
2.71806
2.71869
2.72035
2.72161
2.72116
2.7212
2.72263
1.31762
2.64516
2.70736
2.674
2.66069
2.64183
2.6378
2.64022
2.64207
2.64388
2.64487
2.64567
2.64635
2.64754
2.64861
2.64991
2.65138
2.65269
2.65445
2.65592
2.65777
2.65952
2.66153
2.66351
2.66572
2.66792
2.67007
2.67262
2.67473
2.67741
2.67988
2.68243
2.68524
2.68807
2.69053
2.69374
2.69592
2.69892
2.70137
2.7038
2.7061
2.70819
2.71014
2.7117
2.71256
2.71246
2.71227
2.71121
2.71226
2.7162
1.31747
2.64396
2.70608
2.67444
2.66008
2.64111
2.63696
2.63934
2.64114
2.64285
2.64382
2.64458
2.64515
2.64639
2.64733
2.64864
2.64994
2.65131
2.65284
2.65442
2.65606
2.65785
2.65959
2.66159
2.66347
2.66575
2.66768
2.67008
2.67224
2.6744
2.67701
2.6791
2.68176
2.68431
2.68658
2.68919
2.69153
2.69372
2.69615
2.69817
2.70003
2.70146
2.70287
2.7042
2.70433
2.70511
2.70486
2.70363
2.70152
2.70227
1.31729
2.64266
2.70471
2.6749
2.65939
2.64032
2.63602
2.63842
2.63996
2.64183
2.64252
2.64334
2.64388
2.64505
2.64579
2.64727
2.64826
2.64986
2.651
2.6528
2.65404
2.65598
2.65748
2.65939
2.66118
2.66314
2.66515
2.66714
2.66942
2.6712
2.67373
2.6755
2.67797
2.68005
2.68221
2.68444
2.68628
2.68848
2.69011
2.69174
2.69329
2.69396
2.69472
2.69499
2.69428
2.69189
2.69071
2.68806
2.68675
2.68914
1.31729
2.64204
2.70144
2.67533
2.65857
2.6393
2.63489
2.63726
2.63872
2.6406
2.6413
2.64209
2.6426
2.64367
2.64433
2.64565
2.64651
2.64802
2.64902
2.65074
2.65199
2.65369
2.65533
2.65687
2.65876
2.66035
2.6623
2.66394
2.6661
2.66756
2.66997
2.6715
2.67356
2.67564
2.67695
2.67923
2.68036
2.68192
2.68344
2.68398
2.68519
2.68522
2.68498
2.68436
2.68293
2.68108
2.67656
2.67157
2.66535
2.66182
1.31729
2.64141
2.698
2.6757
2.65752
2.63808
2.6335
2.63582
2.63713
2.63899
2.63958
2.6403
2.6408
2.64189
2.64258
2.64393
2.64486
2.64619
2.64729
2.64854
2.64992
2.65104
2.65275
2.65402
2.65578
2.65737
2.65906
2.66066
2.66251
2.66393
2.66572
2.66745
2.66861
2.67071
2.67156
2.67307
2.67433
2.67479
2.67591
2.6759
2.67541
2.67477
2.67263
2.67066
2.66635
2.66037
2.65519
2.64446
2.63392
2.62368
1.31729
2.64078
2.69448
2.67598
2.65634
2.63676
2.63191
2.63425
2.63532
2.63709
2.63768
2.63832
2.63878
2.63978
2.64045
2.64165
2.64264
2.64379
2.64504
2.6462
2.64766
2.64876
2.65016
2.65144
2.65265
2.65407
2.65544
2.65668
2.65837
2.65958
2.66099
2.66249
2.66346
2.66473
2.66577
2.6662
2.66721
2.66726
2.66711
2.66661
2.66575
2.66342
2.6613
2.65623
2.65157
2.64132
2.62834
2.61043
2.58045
2.51172
1.3173
2.64001
2.69021
2.67629
2.65491
2.635
2.6298
2.63202
2.63294
2.63457
2.6352
2.63561
2.63615
2.63673
2.63768
2.63837
2.63956
2.64031
2.64168
2.64252
2.64397
2.64492
2.64628
2.64734
2.64868
2.64953
2.65097
2.65163
2.65298
2.65364
2.65479
2.65551
2.65628
2.65665
2.65721
2.65698
2.65663
2.65589
2.65429
2.65242
2.64857
2.64522
2.63792
2.63201
2.61966
2.60681
2.58432
2.54741
2.48865
2.36316
1.31731
2.6391
2.68579
2.67642
2.65298
2.63265
2.62696
2.62911
2.6299
2.63146
2.63203
2.6324
2.63285
2.63334
2.63418
2.63485
2.63579
2.63655
2.63752
2.63845
2.63936
2.64046
2.64132
2.6424
2.64336
2.64424
2.64511
2.64588
2.64646
2.64715
2.6474
2.64793
2.64798
2.64788
2.64757
2.64714
2.64587
2.64474
2.64193
2.63962
2.6349
2.62883
2.62161
2.60805
2.59539
2.56905
2.54221
2.49207
2.41674
2.31646
1.31722
2.6382
2.68439
2.67576
2.65156
2.63048
2.62413
2.62594
2.6267
2.62821
2.62882
2.62911
2.6295
2.62993
2.63056
2.63122
2.63192
2.6327
2.63342
2.63429
2.63504
2.63594
2.63668
2.63753
2.63828
2.63898
2.63959
2.64005
2.64035
2.64057
2.64042
2.64003
2.63949
2.63831
2.63716
2.6348
2.63292
2.62907
2.62619
2.62014
2.61581
2.60611
2.59886
2.58417
2.56702
2.5438
2.50694
2.46422
2.39223
2.31714
1.31714
2.63727
2.68357
2.67465
2.64969
2.62771
2.62092
2.62281
2.62368
2.62525
2.62584
2.62596
2.62609
2.62639
2.62667
2.62715
2.62749
2.62801
2.62837
2.62895
2.62936
2.62999
2.63045
2.63106
2.63153
2.63213
2.63252
2.63311
2.63326
2.63349
2.63344
2.63319
2.63264
2.63141
2.63015
2.62749
2.62484
2.6205
2.61533
2.60894
2.6
2.59097
2.57658
2.56333
2.54141
2.51836
2.48548
2.44377
2.3917
2.32793
1.31672
2.63784
2.69722
2.6718
2.65019
2.62665
2.61931
2.62201
2.62295
2.62481
2.62536
2.62531
2.62532
2.62537
2.62549
2.62564
2.62573
2.62583
2.62585
2.62583
2.62578
2.62565
2.62549
2.62521
2.62491
2.62451
2.62416
2.62343
2.62302
2.62206
2.62148
2.62017
2.61937
2.61761
2.61616
2.6139
2.61086
2.60755
2.60208
2.5965
2.58762
2.57772
2.56445
2.54751
2.5286
2.50164
2.47386
2.43438
2.39216
2.3449
1.3013
2.58329
2.69482
2.67814
2.65791
2.63435
2.62728
2.63019
2.63117
2.63278
2.63267
2.63227
2.63163
2.63111
2.63054
2.63005
2.62943
2.62892
2.62828
2.62777
2.62708
2.62659
2.62582
2.62536
2.62441
2.62392
2.62271
2.62182
2.62002
2.61874
2.61613
2.61443
2.61097
2.60884
2.60448
2.60184
2.59654
2.59268
2.58632
2.58011
2.57209
2.56189
2.55067
2.53461
2.51759
2.49406
2.46812
2.43555
2.39733
2.35757
1.72236
2.46388
2.7254
2.70226
2.68204
2.67127
2.67171
2.67333
2.67477
2.67525
2.67421
2.67281
2.6714
2.66967
2.66792
2.66576
2.66355
2.66096
2.65831
2.65537
2.65228
2.64906
2.64554
2.6421
2.63816
2.6342
2.6297
2.62641
2.62263
2.61987
2.61644
2.61345
2.60954
2.60553
2.60082
2.59534
2.58988
2.58245
2.57622
2.56648
2.55886
2.54642
2.53614
2.52015
2.50528
2.48429
2.46291
2.43518
2.40552
2.37226
1.73434
2.45746
2.72
2.69807
2.67514
2.66579
2.66965
2.6711
2.67389
2.6748
2.6751
2.67499
2.67482
2.67457
2.674
2.67345
2.67225
2.67134
2.66941
2.66816
2.66552
2.66388
2.66056
2.65828
2.65451
2.65171
2.64768
2.64328
2.63804
2.63221
2.62602
2.61936
2.61359
2.60712
2.60195
2.59448
2.58892
2.57982
2.57269
2.56168
2.55232
2.53922
2.52689
2.5113
2.49521
2.47619
2.45554
2.43232
2.40707
2.38069
1.73088
2.46323
2.72228
2.69856
2.67173
2.66187
2.66664
2.66883
2.67209
2.67326
2.67368
2.67383
2.67406
2.67408
2.67402
2.67382
2.67328
2.67293
2.67212
2.6714
2.6701
2.66871
2.66705
2.66482
2.66265
2.65943
2.65669
2.65248
2.64895
2.64352
2.63928
2.63235
2.62666
2.61725
2.61026
2.59983
2.5922
2.58179
2.57339
2.56221
2.55191
2.53909
2.52624
2.51092
2.49513
2.47682
2.45723
2.43533
2.41177
2.38867
1.73348
2.45689
2.71782
2.69331
2.66867
2.65867
2.66318
2.66521
2.66843
2.66975
2.6702
2.6705
2.67086
2.67118
2.67148
2.67156
2.67151
2.6713
2.67094
2.67026
2.66966
2.66841
2.66748
2.66553
2.66426
2.66161
2.65986
2.65619
2.65384
2.64894
2.64588
2.63952
2.63546
2.62775
2.62178
2.61241
2.60385
2.59235
2.58158
2.56862
2.55632
2.54253
2.52891
2.51359
2.49765
2.48009
2.46197
2.44202
2.42096
2.40025
1.74278
2.43895
2.70618
2.6812
2.66478
2.65534
2.65779
2.65967
2.66286
2.66386
2.66464
2.66473
2.66497
2.66513
2.66527
2.66531
2.66528
2.66514
2.66499
2.66458
2.66426
2.66353
2.66299
2.66179
2.6609
2.65892
2.65758
2.65466
2.65276
2.64872
2.64597
2.6409
2.63692
2.63084
2.62524
2.61787
2.6105
2.60132
2.59169
2.58025
2.56811
2.55388
2.53925
2.52309
2.50681
2.48905
2.471
2.45173
2.43182
2.4123
1.73741
2.43284
2.70289
2.67372
2.6668
2.6535
2.65353
2.6555
2.65844
2.65959
2.66067
2.66078
2.66107
2.66129
2.66146
2.66156
2.66155
2.66148
2.66134
2.66103
2.66077
2.66017
2.6597
2.65868
2.65794
2.65631
2.65519
2.65276
2.65112
2.64781
2.64524
2.64104
2.63716
2.632
2.62689
2.62043
2.61387
2.60588
2.59765
2.58795
2.57772
2.5659
2.55327
2.53901
2.52378
2.50722
2.48979
2.47133
2.45214
2.43347
1.3564
2.46338
2.67766
2.6673
2.64539
2.62256
2.61522
2.6192
2.62106
2.62385
2.62526
2.62618
2.62693
2.62783
2.6285
2.62949
2.63011
2.63098
2.63144
2.63217
2.63246
2.63303
2.63328
2.63334
2.63332
2.63318
2.63294
2.63235
2.6318
2.63066
2.62959
2.62778
2.62598
2.6231
2.62014
2.6157
2.61084
2.60454
2.59765
2.58944
2.58072
2.57065
2.55994
2.5481
2.53526
2.5213
2.50634
2.49035
2.4734
2.45678
1.35979
2.47307
2.68507
2.67617
2.65172
2.62252
2.61272
2.61345
2.61541
2.61735
2.61813
2.61821
2.61839
2.61838
2.61858
2.61894
2.61925
2.61959
2.61986
2.62011
2.62031
2.62041
2.62049
2.62041
2.62021
2.61975
2.61932
2.61836
2.61761
2.61601
2.61483
2.61247
2.61053
2.6075
2.60463
2.60111
2.59749
2.59322
2.58834
2.58296
2.57636
2.56895
2.55996
2.55007
2.53924
2.52757
2.51518
2.50191
2.48774
2.47383
1.34925
2.40958
2.66722
2.6686
2.64912
2.62266
2.61276
2.61279
2.61348
2.61405
2.6137
2.61286
2.61205
2.61105
2.61033
2.60968
2.60915
2.60852
2.60802
2.60738
2.60691
2.60627
2.6058
2.60511
2.60459
2.60379
2.60311
2.60226
2.60139
2.60032
2.59892
2.59737
2.59526
2.5931
2.59015
2.5872
2.58335
2.57948
2.57473
2.56963
2.56381
2.55779
2.55117
2.54398
2.53601
2.52669
2.51618
2.50513
2.49333
2.48195
1.74238
2.39448
2.67219
2.66007
2.65054
2.63671
2.6316
2.63186
2.63165
2.63138
2.63062
2.62941
2.62805
2.62637
2.62485
2.62321
2.62165
2.61986
2.61812
2.6162
2.6143
2.61229
2.61023
2.60816
2.60593
2.60384
2.60146
2.59944
2.59697
2.59463
2.59207
2.58955
2.58673
2.58379
2.58058
2.57703
2.57324
2.56888
2.56436
2.55907
2.55362
2.54731
2.54085
2.53356
2.52585
2.51793
2.50975
2.50076
2.49099
2.48144
1.34669
2.39299
2.65821
2.66487
2.64857
2.62296
2.61441
2.61284
2.61415
2.61435
2.61405
2.61368
2.61272
2.61181
2.61111
2.61026
2.60949
2.60843
2.60743
2.60612
2.60485
2.60354
2.60222
2.60083
2.5994
2.59772
2.59597
2.59365
2.59147
2.58894
2.58644
2.58356
2.58067
2.5773
2.57401
2.57026
2.56653
2.56226
2.55795
2.55306
2.54795
2.54223
2.53611
2.52951
2.52231
2.51475
2.50661
2.49823
2.48924
2.48067
1.348
2.40416
2.6657
2.67047
2.65011
2.62122
2.60988
2.60961
2.61059
2.61125
2.61111
2.61042
2.60956
2.6086
2.60794
2.60724
2.60659
2.60575
2.60488
2.60381
2.60264
2.60105
2.59932
2.59721
2.59497
2.59247
2.58988
2.58707
2.5841
2.58095
2.57764
2.57415
2.57061
2.56694
2.56309
2.55905
2.55479
2.55041
2.54569
2.54095
2.53572
2.53061
2.52487
2.51919
2.51285
2.50649
2.49938
2.49216
2.48439
2.47711
1.34743
2.39995
2.66302
2.66855
2.64757
2.61802
2.60596
2.60573
2.60655
2.60741
2.60712
2.60625
2.60539
2.60424
2.60352
2.60273
2.60211
2.60128
2.60052
2.59957
2.59862
2.59746
2.59619
2.59471
2.59302
2.5911
2.5889
2.58649
2.58375
2.5808
2.57753
2.57403
2.57023
2.56624
2.56197
2.55747
2.55264
2.5476
2.54224
2.53673
2.5309
2.52491
2.51864
2.51218
2.50549
2.49858
2.49154
2.48416
2.4766
2.46935
1.34467
2.37742
2.64606
2.66078
2.64167
2.61377
2.60192
2.60039
2.60072
2.60089
2.60029
2.59941
2.5981
2.59693
2.5959
2.59496
2.59396
2.59297
2.59187
2.59077
2.58956
2.58837
2.58705
2.58576
2.5843
2.58284
2.58117
2.57943
2.57745
2.57534
2.57295
2.57035
2.56739
2.56415
2.56051
2.55659
2.55233
2.54771
2.54276
2.53747
2.53187
2.5259
2.51966
2.51305
2.50623
2.4991
2.49179
2.48434
2.47669
2.46941
1.75167
2.37195
2.6442
2.64062
2.62717
2.61311
2.60827
2.6085
2.60848
2.60835
2.60774
2.60704
2.60576
2.60456
2.60323
2.60205
2.60062
2.59925
2.59762
2.59603
2.59421
2.59239
2.5904
2.58838
2.58623
2.584
2.58168
2.57921
2.57669
2.57399
2.57128
2.56838
2.5654
2.56216
2.55879
2.55507
2.55119
2.54696
2.54244
2.53744
2.53224
2.52664
2.52087
2.5147
2.50838
2.50165
2.49477
2.4875
2.47997
2.47273
1.34685
2.38749
2.65148
2.65924
2.63865
2.60823
2.59686
2.59547
2.59707
2.59835
2.59819
2.59766
2.59707
2.59576
2.5951
2.59384
2.59309
2.5915
2.59056
2.58878
2.58712
2.58521
2.58326
2.58105
2.57883
2.57647
2.57426
2.57189
2.56957
2.56709
2.56445
2.56158
2.55857
2.55536
2.55202
2.54849
2.5448
2.54092
2.53695
2.53274
2.52835
2.5236
2.51869
2.51331
2.5077
2.50165
2.49538
2.48885
2.48205
2.47548
1.35055
2.41107
2.65421
2.64832
2.62642
2.59589
2.58502
2.58528
2.58703
2.58892
2.58925
2.589
2.58851
2.58773
2.5872
2.58668
2.5862
2.58558
2.58491
2.58412
2.58322
2.58221
2.58104
2.57971
2.5782
2.57638
2.57426
2.57185
2.56917
2.56623
2.56314
2.55988
2.55649
2.5529
2.54919
2.54528
2.54125
2.537
2.53263
2.52805
2.52334
2.51843
2.51341
2.50828
2.50294
2.49749
2.49177
2.48585
2.47964
2.47371
1.77124
2.37153
2.63769
2.61713
2.6107
2.59535
2.59258
2.5935
2.59453
2.5958
2.59545
2.59496
2.59449
2.5938
2.59312
2.59251
2.59181
2.59107
2.59025
2.58938
2.58846
2.58743
2.58634
2.58506
2.58376
2.58221
2.5806
2.5787
2.5767
2.57433
2.57167
2.56865
2.56536
2.56178
2.55791
2.55384
2.54947
2.54496
2.54014
2.53524
2.53004
2.52468
2.519
2.51316
2.50713
2.50096
2.49469
2.48837
2.48191
2.47579
1.79775
2.35458
2.62596
2.60556
2.60233
2.59234
2.58903
2.5892
2.58956
2.59004
2.58975
2.58908
2.58831
2.58725
2.58611
2.58492
2.58355
2.58209
2.58047
2.57887
2.57707
2.57532
2.57337
2.57155
2.56956
2.56772
2.56573
2.56386
2.56182
2.5599
2.55795
2.55601
2.55404
2.552
2.54985
2.54753
2.54507
2.54229
2.5391
2.53553
2.53168
2.52763
2.5233
2.51871
2.51385
2.5087
2.50323
2.49742
2.49135
2.48541
1.76259
2.38125
2.64982
2.61908
2.61329
2.59907
2.59593
2.59803
2.59955
2.60034
2.60005
2.59953
2.59841
2.59714
2.59576
2.59438
2.59282
2.59119
2.58936
2.58752
2.58555
2.58354
2.58135
2.57892
2.57638
2.57361
2.57077
2.56774
2.56463
2.56138
2.55802
2.55462
2.55104
2.54743
2.54366
2.53987
2.53591
2.53198
2.52814
2.52425
2.52036
2.51622
2.51207
2.50771
2.50337
2.49878
2.49416
2.4893
2.48431
2.4795
1.28616
2.49447
2.64459
2.64188
2.61667
2.58389
2.57175
2.57213
2.57472
2.57711
2.57831
2.57856
2.57876
2.57871
2.57864
2.57856
2.57842
2.57807
2.57771
2.5769
2.57626
2.57497
2.57396
2.57228
2.57098
2.5689
2.56724
2.56493
2.56256
2.56003
2.55724
2.55432
2.55109
2.54777
2.54411
2.54044
2.53639
2.53238
2.52805
2.52379
2.51922
2.51471
2.51016
2.50542
2.50052
2.49547
2.49026
2.4849
2.47939
2.47417
1.77198
2.36722
2.63953
2.61691
2.61067
2.59535
2.59031
2.59112
2.59151
2.59305
2.59265
2.59202
2.59158
2.59067
2.58993
2.58893
2.58824
2.58713
2.58629
2.58499
2.58393
2.58247
2.58118
2.57953
2.57798
2.57611
2.57424
2.57213
2.56971
2.56709
2.56416
2.56108
2.55777
2.55447
2.55095
2.54739
2.54361
2.5397
2.53558
2.53126
2.52678
2.52208
2.51707
2.51198
2.50669
2.50132
2.49576
2.4901
2.48427
2.47875
1.77344
2.36567
2.63765
2.61505
2.60893
2.59385
2.58866
2.58991
2.59054
2.59157
2.59216
2.59171
2.59129
2.59036
2.58938
2.58827
2.58729
2.58608
2.58487
2.58337
2.58182
2.58009
2.57833
2.57648
2.57453
2.5725
2.57031
2.56809
2.56588
2.56363
2.56134
2.55895
2.55642
2.55363
2.55071
2.54756
2.54429
2.54083
2.53725
2.53346
2.52957
2.52548
2.52126
2.51685
2.51229
2.50754
2.50263
2.49754
2.49228
2.48711
1.28562
2.49139
2.64243
2.6397
2.61379
2.57946
2.56625
2.56556
2.56799
2.5699
2.57096
2.57097
2.5709
2.5706
2.57024
2.56965
2.56925
2.56855
2.56811
2.56728
2.56675
2.56565
2.56483
2.56329
2.56201
2.56028
2.55855
2.5567
2.55474
2.55264
2.55042
2.54804
2.54556
2.54296
2.54025
2.53747
2.53454
2.53152
2.52833
2.525
2.52148
2.51785
2.514
2.51007
2.50593
2.50171
2.49727
2.49274
2.488
2.48348
1.76461
2.37494
2.64168
2.61033
2.6038
2.58781
2.58486
2.58713
2.58802
2.58995
2.5896
2.58889
2.58835
2.58742
2.58657
2.58575
2.58483
2.58375
2.58261
2.58133
2.58008
2.5787
2.57728
2.57568
2.57396
2.57211
2.57016
2.56812
2.56597
2.5637
2.56129
2.5586
2.55574
2.55266
2.54943
2.54608
2.54257
2.53895
2.53516
2.5313
2.52729
2.52319
2.51894
2.51461
2.51014
2.50557
2.50088
2.49607
2.49111
2.48633
1.78989
2.35998
2.62589
2.59698
2.59253
2.58012
2.57736
2.57879
2.57956
2.5798
2.57941
2.57857
2.57772
2.57693
2.57639
2.57585
2.57499
2.57383
2.57253
2.57126
2.57012
2.56896
2.5677
2.56619
2.5645
2.56267
2.56079
2.55889
2.55693
2.55489
2.55272
2.55052
2.54823
2.54585
2.54343
2.54092
2.5384
2.53573
2.53298
2.52996
2.52684
2.52342
2.51994
2.51624
2.51248
2.50851
2.50448
2.50028
2.49592
2.49175
1.79283
2.35607
2.62142
2.59365
2.58939
2.57753
2.57488
2.57589
2.57633
2.57626
2.57569
2.57451
2.57364
2.57293
2.57249
2.57207
2.57117
2.56974
2.56815
2.5667
2.56571
2.56469
2.5636
2.56189
2.55989
2.55764
2.55555
2.55355
2.55164
2.54949
2.54709
2.5443
2.54136
2.5383
2.53535
2.53232
2.52939
2.5262
2.52302
2.51958
2.51612
2.51252
2.50894
2.50523
2.5016
2.49775
2.49394
2.48987
2.48575
2.48173
1.77499
2.36002
2.61893
2.60332
2.59335
2.5783
2.57364
2.5742
2.5744
2.57421
2.57387
2.5732
2.57277
2.57219
2.57142
2.57046
2.56918
2.56793
2.56677
2.5658
2.56482
2.56359
2.56215
2.56032
2.55848
2.55655
2.55478
2.55292
2.55096
2.54866
2.54613
2.54335
2.5405
2.53766
2.53475
2.5318
2.52867
2.52531
2.52179
2.51804
2.51425
2.51038
2.50646
2.50252
2.49847
2.49425
2.49001
2.48541
2.4809
2.47635
1.34483
2.3813
2.63947
2.63794
2.61574
2.5822
2.56837
2.56592
2.56729
2.56819
2.56806
2.56771
2.56687
2.56597
2.56498
2.5643
2.5633
2.56242
2.56123
2.56015
2.55892
2.5577
2.55633
2.5549
2.55323
2.55155
2.54966
2.54774
2.54567
2.54345
2.54108
2.53855
2.53587
2.5331
2.53019
2.52714
2.52401
2.52058
2.51712
2.51335
2.50957
2.50559
2.50158
2.49739
2.49319
2.4887
2.48427
2.47949
2.47481
2.47007
1.34619
2.38877
2.65412
2.65778
2.63161
2.59322
2.57595
2.57339
2.5751
2.57615
2.57652
2.57619
2.57534
2.57445
2.57331
2.5725
2.57145
2.57053
2.56933
2.56824
2.56697
2.56582
2.56447
2.56316
2.56159
2.55997
2.55818
2.55629
2.55435
2.55228
2.5502
2.54795
2.54564
2.54312
2.54054
2.53772
2.53489
2.53181
2.52874
2.52545
2.52214
2.51861
2.51505
2.51125
2.50742
2.50332
2.49921
2.49484
2.49047
2.48611
1.34509
2.37996
2.63729
2.63737
2.61441
2.58105
2.56616
2.56404
2.56543
2.56625
2.56646
2.56605
2.56521
2.56417
2.5632
2.56238
2.56151
2.56059
2.55956
2.55845
2.55728
2.55605
2.55478
2.55344
2.55204
2.55049
2.54889
2.5471
2.54529
2.54329
2.5413
2.53912
2.53694
2.53456
2.53217
2.52955
2.52692
2.52406
2.52122
2.51814
2.5151
2.5118
2.50855
2.50502
2.50153
2.49776
2.49404
2.49004
2.48607
2.48208
1.77954
2.35411
2.61626
2.60268
2.59161
2.57279
2.56782
2.56831
2.56947
2.57033
2.57009
2.56926
2.56833
2.5672
2.56631
2.56571
2.56499
2.56411
2.56291
2.56162
2.56023
2.55899
2.55777
2.55648
2.55506
2.55335
2.55152
2.54952
2.54754
2.54548
2.54345
2.54121
2.53893
2.53636
2.53374
2.53089
2.52808
2.52507
2.52218
2.519
2.51596
2.51255
2.50925
2.50559
2.50201
2.49815
2.49435
2.49031
2.48631
2.48235
1.79878
2.34695
2.61724
2.5902
2.5864
2.57417
2.56989
2.57063
2.57161
2.57237
2.57231
2.57181
2.57078
2.56922
2.56805
2.5671
2.56647
2.56576
2.5646
2.56318
2.56143
2.55985
2.55829
2.55706
2.5556
2.55391
2.55185
2.54954
2.54714
2.54492
2.54255
2.54033
2.53771
2.53497
2.53188
2.52874
2.52542
2.5222
2.51887
2.5155
2.51206
2.5083
2.50458
2.50046
2.49646
2.4922
2.48802
2.48372
2.47938
2.4752
1.7861
2.36118
2.62905
2.59733
2.59079
2.57659
2.57354
2.57511
2.57676
2.57794
2.57797
2.57747
2.57684
2.5755
2.57452
2.5734
2.57258
2.57175
2.57073
2.5696
2.56807
2.5666
2.56494
2.56345
2.562
2.56036
2.55862
2.55657
2.55428
2.55204
2.54957
2.54733
2.54481
2.54233
2.53943
2.53656
2.53328
2.53013
2.52677
2.52342
2.52006
2.51643
2.51289
2.50893
2.50505
2.50086
2.49673
2.49242
2.48813
2.48394
2.17071
2.33809
2.76725
2.85653
2.94357
2.8796
2.87334
2.87096
2.86253
2.86084
2.86257
2.86399
2.86454
2.86507
2.86582
2.86683
2.86821
2.86909
2.86963
2.86984
2.86928
2.86864
2.86637
2.86509
2.8613
2.85841
2.85356
2.84936
2.84387
2.8388
2.83217
2.82575
2.81887
2.81189
2.80463
2.79715
2.7898
2.78152
2.77297
2.76446
2.75597
2.74742
2.73878
2.73021
2.72151
2.71307
2.70471
2.69644
2.68833
2.68044
2.67249
2.66501
2.65751
2.6505
2.64356
2.63708
2.63071
2.62485
2.61924
2.61409
2.60941
2.6051
2.6014
2.59805
2.59546
2.59318
2.59176
2.59067
2.5905
2.59079
2.59134
2.5925
2.59366
2.59554
2.59785
2.60102
2.60424
2.60756
2.611
2.61424
2.61758
2.6206
2.62351
2.62603
2.62851
2.63034
2.63241
2.63356
2.63502
2.6356
2.63651
2.63667
2.63687
2.63686
2.63672
2.63628
2.63563
2.63447
2.63349
2.62995
2.17845
2.25628
2.44704
2.62725
2.6946
2.75122
2.79078
2.82188
2.84164
2.85552
2.86437
2.87474
2.87866
2.87732
2.87141
2.86413
2.85562
2.84677
2.83563
2.8249
2.81225
2.79981
2.78721
2.77432
2.76164
2.74874
2.73619
2.72377
2.71124
2.69952
2.68735
2.67598
2.6643
2.65332
2.64233
2.63194
2.62159
2.61081
2.59982
2.58921
2.57856
2.56821
2.55786
2.54739
2.53751
2.52723
2.5175
2.50776
2.49824
2.48894
2.47994
2.47102
2.46271
2.45439
2.44674
2.43928
2.43228
2.42571
2.41935
2.41376
2.40826
2.40375
2.39939
2.39594
2.39282
2.39044
2.38854
2.3873
2.38659
2.38668
2.38698
2.38778
2.38879
2.3904
2.39255
2.39565
2.3986
2.40219
2.40515
2.40894
2.41185
2.41563
2.41827
2.42162
2.42387
2.42654
2.42806
2.43019
2.4309
2.43232
2.43253
2.43289
2.43302
2.43316
2.43313
2.43301
2.43266
2.43253
2.43217
2.43087
2.22562
2.20858
2.26947
2.35291
2.41091
2.45592
2.49168
2.51986
2.54412
2.56065
2.57433
2.58317
2.5909
2.59231
2.59106
2.58851
2.58298
2.5768
2.56933
2.56164
2.55286
2.54441
2.53536
2.52668
2.51767
2.50896
2.50008
2.49146
2.48301
2.47452
2.46646
2.45828
2.45029
2.44258
2.4348
2.42776
2.42052
2.4132
2.4053
2.39754
2.3903
2.38281
2.37579
2.36825
2.36131
2.35386
2.34712
2.33981
2.3333
2.32606
2.3199
2.31289
2.30715
2.30051
2.29514
2.28895
2.28402
2.27837
2.27403
2.26902
2.26534
2.26106
2.25807
2.25465
2.25245
2.25003
2.24869
2.24738
2.2469
2.24672
2.24698
2.2473
2.24795
2.24882
2.25054
2.25266
2.25514
2.25763
2.26014
2.2626
2.26495
2.2671
2.26908
2.27065
2.27203
2.273
2.27366
2.27403
2.27397
2.27377
2.27329
2.27247
2.27167
2.27069
2.26976
2.2684
2.26723
2.26561
2.26477
2.26166
2.25902
2.21759
2.21206
2.23661
2.26831
2.29067
2.30621
2.31803
2.32877
2.33808
2.34586
2.35183
2.35645
2.35998
2.36162
2.36162
2.36148
2.3612
2.36094
2.36048
2.36007
2.35935
2.35881
2.35756
2.35645
2.35474
2.35293
2.35058
2.34805
2.34513
2.34192
2.33841
2.33456
2.33046
2.32628
2.32217
2.3179
2.31294
2.3076
2.30172
2.29629
2.29028
2.28484
2.27863
2.27314
2.26686
2.26137
2.25517
2.24974
2.24372
2.23843
2.23267
2.22763
2.22216
2.21743
2.21229
2.20793
2.20317
2.19925
2.19495
2.19157
2.18788
2.1851
2.18214
2.18004
2.17792
2.17661
2.17545
2.17499
2.17491
2.17515
2.17551
2.17607
2.17721
2.17871
2.181
2.1833
2.18599
2.18855
2.1912
2.19358
2.1959
2.19785
2.19972
2.20113
2.20242
2.20322
2.20382
2.20407
2.204
2.20383
2.2033
2.20294
2.20217
2.20156
2.20037
2.19953
2.19819
2.19772
2.19502
2.274
2.24072
2.2171
2.20871
2.21566
2.22012
2.2222
2.22268
2.22376
2.22527
2.22832
2.23025
2.23258
2.23414
2.23726
2.23932
2.2419
2.24409
2.24701
2.24965
2.25269
2.25531
2.25802
2.2601
2.26209
2.26328
2.2642
2.26454
2.26419
2.26351
2.26225
2.2608
2.25855
2.25639
2.25362
2.25135
2.24834
2.24522
2.24093
2.23687
2.23212
2.22797
2.22297
2.21862
2.21342
2.20883
2.20357
2.19883
2.19358
2.18872
2.18353
2.17862
2.17356
2.16871
2.16389
2.15921
2.15472
2.15032
2.14624
2.14222
2.13869
2.13522
2.13241
2.12964
2.12766
2.12571
2.12465
2.12364
2.12357
2.12374
2.12418
2.12489
2.12591
2.12739
2.12927
2.13171
2.13427
2.13704
2.1399
2.14255
2.14523
2.14754
2.14974
2.15149
2.15309
2.15423
2.15519
2.15574
2.15613
2.15611
2.15603
2.15581
2.15558
2.15506
2.15466
2.1538
2.15333
2.15237
2.15223
2.14981
2.29722
2.25325
2.22975
2.20903
2.19903
2.19182
2.18616
2.17981
2.17505
2.17098
2.16929
2.16857
2.16917
2.16956
2.17067
2.17299
2.1756
2.17887
2.18181
2.18545
2.1888
2.19262
2.19593
2.19937
2.20209
2.2047
2.20643
2.20796
2.20859
2.209
2.20871
2.20802
2.20646
2.20527
2.20298
2.20166
2.199
2.19674
2.19281
2.18944
2.185
2.18122
2.17656
2.17249
2.16763
2.16334
2.15836
2.15391
2.14892
2.14438
2.13947
2.13488
2.13016
2.12561
2.12118
2.11681
2.11276
2.10867
2.10506
2.10135
2.09824
2.09504
2.09251
2.08998
2.08816
2.0864
2.08539
2.08453
2.08445
2.08462
2.08489
2.08549
2.08643
2.08788
2.08965
2.09191
2.09432
2.09706
2.09972
2.1025
2.10498
2.10747
2.10952
2.11148
2.11298
2.11428
2.11521
2.11584
2.11622
2.11621
2.11613
2.11595
2.11567
2.11498
2.11447
2.1134
2.11284
2.11166
2.11148
2.10882
2.32158
2.28017
2.24651
2.22148
2.20114
2.18602
2.17354
2.16299
2.1534
2.14588
2.13988
2.13635
2.13413
2.13374
2.13366
2.13425
2.13618
2.13885
2.14226
2.14545
2.14924
2.15279
2.15665
2.16015
2.16363
2.16657
2.16923
2.17123
2.17282
2.17379
2.17422
2.17429
2.17353
2.17283
2.17146
2.17058
2.16873
2.16704
2.1639
2.16113
2.15735
2.15406
2.14999
2.14635
2.1421
2.13815
2.13376
2.12955
2.12508
2.12068
2.1162
2.1117
2.10732
2.10282
2.09866
2.09432
2.09044
2.0864
2.08289
2.07925
2.07618
2.07306
2.07051
2.06805
2.06613
2.06443
2.06325
2.06242
2.06218
2.06227
2.0624
2.06277
2.06357
2.06489
2.06653
2.06864
2.07084
2.0734
2.07588
2.07853
2.08094
2.08331
2.08541
2.08726
2.08889
2.09014
2.09122