/*--------------------------------*- C++ -*----------------------------------*\
| =========                 |                                                 |
| \\      /  F ield         | OpenFOAM: The Open Source CFD Toolbox           |
|  \\    /   O peration     | Version:  2412                                  |
|   \\  /    A nd           | Website:  www.openfoam.com                      |
|    \\/     M anipulation  |                                                 |
\*---------------------------------------------------------------------------*/
FoamFile
{
    version     2.0;
    format      ascii;
    arch        "LSB;label=32;scalar=64";
    class       volVectorField;
    location    "13.5";
    object      U;
}
// * * * * * * * * * * * * * * * * * * * * * * * * * * * * * * * * * * * * * //

dimensions      [0 1 -1 0 0 0 0];

internalField   nonuniform List<vector> 
7000
(
(2.59741 -7.85748e-05 0)
(1.63628 0.00018311 0)
(0.506895 0.000148763 0)
(0.553505 0.000253241 0)
(0.655506 0.000331537 0)
(0.721788 0.000401692 0)
(0.735217 0.000477533 0)
(0.728548 0.000562404 0)
(0.71854 0.000669122 0)
(0.710773 0.00079748 0)
(0.706241 0.00092197 0)
(0.702628 0.00103584 0)
(0.698507 0.0011433 0)
(0.693624 0.0012502 0)
(0.688144 0.00136086 0)
(0.682195 0.00147782 0)
(0.675792 0.00160233 0)
(0.668899 0.00173504 0)
(0.661477 0.0018763 0)
(0.653497 0.00202646 0)
(0.644935 0.00218585 0)
(0.635767 0.00235497 0)
(0.625965 0.00253448 0)
(0.615501 0.00272513 0)
(0.604346 0.00292773 0)
(0.59247 0.00314336 0)
(0.579837 0.00337289 0)
(0.566411 0.0036174 0)
(0.552155 0.00387786 0)
(0.537034 0.00415498 0)
(0.521007 0.0044498 0)
(0.504039 0.00476325 0)
(0.48608 0.00509608 0)
(0.467093 0.00544901 0)
(0.447043 0.00582198 0)
(0.425895 0.00621457 0)
(0.403644 0.00662641 0)
(0.380256 0.00705621 0)
(0.355719 0.00750325 0)
(0.330036 0.00796552 0)
(0.303196 0.0084404 0)
(0.275232 0.00892463 0)
(0.246168 0.00941395 0)
(0.216043 0.00990367 0)
(0.184995 0.0103888 0)
(0.153056 0.0108654 0)
(0.120235 0.0113397 0)
(0.0872102 0.0117904 0)
(0.0518468 0.0123714 0)
(0.022224 0.0132144 0)
(2.59755 -5.51883e-05 0)
(1.63645 0.000353195 0)
(0.506465 0.000765779 0)
(0.553031 0.00104486 0)
(0.654932 0.0012647 0)
(0.721101 0.00147455 0)
(0.734349 0.00168913 0)
(0.727568 0.00191335 0)
(0.717579 0.00217025 0)
(0.709922 0.00247198 0)
(0.705535 0.00278174 0)
(0.702071 0.00308616 0)
(0.698081 0.0033914 0)
(0.693297 0.00370721 0)
(0.687885 0.00404031 0)
(0.68198 0.00439386 0)
(0.675605 0.00476872 0)
(0.668729 0.00516523 0)
(0.661319 0.00558364 0)
(0.653349 0.00602463 0)
(0.644795 0.00648931 0)
(0.635635 0.00697898 0)
(0.625842 0.00749566 0)
(0.615387 0.00804121 0)
(0.604241 0.00861781 0)
(0.592375 0.00922781 0)
(0.579752 0.00987317 0)
(0.566336 0.0105557 0)
(0.552091 0.0112774 0)
(0.536978 0.0120389 0)
(0.52096 0.0128416 0)
(0.503998 0.013686 0)
(0.486044 0.0145718 0)
(0.46706 0.0154981 0)
(0.44701 0.0164621 0)
(0.42586 0.0174597 0)
(0.403603 0.0184866 0)
(0.380204 0.019535 0)
(0.355649 0.020598 0)
(0.329939 0.0216655 0)
(0.303063 0.0227243 0)
(0.27505 0.02376 0)
(0.245921 0.0247543 0)
(0.215714 0.0256884 0)
(0.184564 0.0265418 0)
(0.152507 0.027298 0)
(0.119546 0.0279602 0)
(0.0864056 0.0284909 0)
(0.0509051 0.0291317 0)
(0.0213086 0.029874 0)
(2.59767 4.95276e-05 0)
(1.63674 0.000378937 0)
(0.506733 0.00155868 0)
(0.553196 0.00189175 0)
(0.655107 0.00216625 0)
(0.721298 0.00247381 0)
(0.734572 0.00280957 0)
(0.72782 0.0031707 0)
(0.717861 0.00357908 0)
(0.710219 0.00405889 0)
(0.705823 0.00458636 0)
(0.702338 0.00513406 0)
(0.698327 0.0056933 0)
(0.693526 0.00626628 0)
(0.688104 0.00685832 0)
(0.682193 0.00747423 0)
(0.675816 0.00811853 0)
(0.668944 0.00879479 0)
(0.661542 0.0095067 0)
(0.653582 0.0102569 0)
(0.645042 0.0110482 0)
(0.635898 0.0118832 0)
(0.626123 0.0127654 0)
(0.615688 0.0136977 0)
(0.604565 0.0146844 0)
(0.592723 0.015729 0)
(0.580125 0.0168356 0)
(0.566737 0.0180071 0)
(0.552521 0.0192473 0)
(0.537439 0.0205578 0)
(0.521452 0.0219415 0)
(0.504522 0.0233991 0)
(0.486598 0.0249305 0)
(0.467643 0.0265348 0)
(0.44762 0.0282073 0)
(0.426493 0.0299426 0)
(0.404252 0.0317324 0)
(0.380863 0.0335662 0)
(0.356307 0.0354311 0)
(0.330584 0.0373118 0)
(0.303678 0.0391852 0)
(0.275619 0.041029 0)
(0.246422 0.0428117 0)
(0.216123 0.0445017 0)
(0.184855 0.0460642 0)
(0.152658 0.0474682 0)
(0.119531 0.0487058 0)
(0.0862532 0.0497248 0)
(0.0506231 0.0507692 0)
(0.0208731 0.0517617 0)
(2.59784 5.41305e-05 0)
(1.63717 0.000509091 0)
(0.507137 0.002261 0)
(0.553285 0.00266498 0)
(0.655174 0.00303044 0)
(0.721361 0.00350359 0)
(0.734606 0.00401719 0)
(0.727792 0.00456112 0)
(0.717778 0.00515673 0)
(0.71011 0.00582484 0)
(0.705714 0.00654881 0)
(0.702257 0.00730357 0)
(0.698304 0.00808154 0)
(0.69358 0.00888639 0)
(0.68824 0.00972511 0)
(0.682406 0.0106027 0)
(0.676097 0.0115233 0)
(0.669282 0.0124903 0)
(0.661927 0.0135075 0)
(0.654008 0.0145784 0)
(0.645504 0.0157068 0)
(0.636395 0.0168967 0)
(0.626655 0.0181528 0)
(0.616257 0.0194801 0)
(0.605171 0.0208841 0)
(0.593369 0.0223705 0)
(0.580815 0.0239445 0)
(0.567473 0.0256115 0)
(0.553306 0.0273756 0)
(0.538275 0.029241 0)
(0.522342 0.0312102 0)
(0.505467 0.0332863 0)
(0.487599 0.0354677 0)
(0.468698 0.0377549 0)
(0.448728 0.0401405 0)
(0.427649 0.0426185 0)
(0.40545 0.045177 0)
(0.382092 0.0478026 0)
(0.357555 0.0504783 0)
(0.331833 0.0531817 0)
(0.30491 0.0558832 0)
(0.276808 0.0585489 0)
(0.247541 0.0611375 0)
(0.21714 0.0636013 0)
(0.185736 0.0658928 0)
(0.153375 0.0679657 0)
(0.120047 0.0697929 0)
(0.086586 0.0713058 0)
(0.050765 0.0727255 0)
(0.0207303 0.0738926 0)
(2.59808 6.4755e-05 0)
(1.63779 0.000683048 0)
(0.507693 0.00297348 0)
(0.553448 0.00350881 0)
(0.655394 0.00399969 0)
(0.721666 0.0046153 0)
(0.734973 0.00529642 0)
(0.728254 0.00600769 0)
(0.718359 0.00677646 0)
(0.710794 0.00762674 0)
(0.706459 0.00854971 0)
(0.703021 0.00952481 0)
(0.699056 0.010542 0)
(0.694304 0.0116014 0)
(0.688929 0.0127074 0)
(0.683064 0.0138649 0)
(0.676734 0.0150768 0)
(0.66991 0.0163476 0)
(0.66256 0.0176813 0)
(0.654658 0.0190836 0)
(0.646182 0.0205593 0)
(0.637109 0.0221149 0)
(0.627412 0.0237561 0)
(0.617063 0.0254903 0)
(0.606032 0.0273247 0)
(0.594288 0.0292671 0)
(0.581797 0.0313245 0)
(0.568523 0.033504 0)
(0.554428 0.0358111 0)
(0.539473 0.0382514 0)
(0.52362 0.0408285 0)
(0.506826 0.0435465 0)
(0.489041 0.046405 0)
(0.470223 0.0494024 0)
(0.450333 0.0525324 0)
(0.42933 0.0557839 0)
(0.407197 0.0591457 0)
(0.383894 0.0625971 0)
(0.359396 0.0661199 0)
(0.33369 0.0696819 0)
(0.306756 0.073248 0)
(0.278611 0.0767716 0)
(0.249261 0.0801987 0)
(0.218738 0.0834656 0)
(0.187165 0.0865044 0)
(0.154595 0.089254 0)
(0.121012 0.0916645 0)
(0.0872936 0.0936389 0)
(0.0511852 0.0953747 0)
(0.0207488 0.0966475 0)
(2.5984 7.3401e-05 0)
(1.63859 0.000861308 0)
(0.508377 0.00366294 0)
(0.553562 0.00433128 0)
(0.655494 0.00492924 0)
(0.721794 0.00565364 0)
(0.735111 0.00649768 0)
(0.728373 0.00738214 0)
(0.71847 0.00834325 0)
(0.71092 0.00940676 0)
(0.706619 0.0105637 0)
(0.703234 0.011792 0)
(0.699341 0.013075 0)
(0.694676 0.0144088 0)
(0.689393 0.0157923 0)
(0.683616 0.0172335 0)
(0.677364 0.0187385 0)
(0.670608 0.0203144 0)
(0.663318 0.0219686 0)
(0.655473 0.0237084 0)
(0.647054 0.0255413 0)
(0.638038 0.0274742 0)
(0.628402 0.029515 0)
(0.618119 0.0316715 0)
(0.60716 0.0339529 0)
(0.595494 0.0363676 0)
(0.583086 0.0389262 0)
(0.569901 0.0416366 0)
(0.555901 0.0445069 0)
(0.541047 0.0475434 0)
(0.5253 0.0507516 0)
(0.508616 0.054135 0)
(0.490943 0.0576965 0)
(0.47224 0.0614331 0)
(0.452462 0.0653386 0)
(0.431568 0.0694002 0)
(0.409533 0.0736035 0)
(0.386314 0.0779265 0)
(0.361878 0.0823442 0)
(0.336208 0.0868208 0)
(0.309274 0.0913092 0)
(0.281087 0.0957557 0)
(0.251645 0.100088 0)
(0.220972 0.104228 0)
(0.189188 0.108083 0)
(0.156351 0.111566 0)
(0.122434 0.114604 0)
(0.0883562 0.117069 0)
(0.0518372 0.119123 0)
(0.0208994 0.120481 0)
(2.59881 7.91237e-05 0)
(1.63962 0.00104503 0)
(0.509213 0.00437392 0)
(0.553723 0.00519148 0)
(0.655671 0.00592181 0)
(0.722035 0.00682215 0)
(0.735384 0.00785293 0)
(0.728655 0.00892537 0)
(0.718771 0.0100822 0)
(0.711239 0.0113452 0)
(0.706953 0.012706 0)
(0.703592 0.0141514 0)
(0.699744 0.0156727 0)
(0.695148 0.0172669 0)
(0.689956 0.0189364 0)
(0.684283 0.0206805 0)
(0.678139 0.0225021 0)
(0.67149 0.0244064 0)
(0.6643 0.0264016 0)
(0.656549 0.0284953 0)
(0.648216 0.0306975 0)
(0.639284 0.0330171 0)
(0.629731 0.0354652 0)
(0.619533 0.0380518 0)
(0.608663 0.0407888 0)
(0.597092 0.0436867 0)
(0.584785 0.046758 0)
(0.571708 0.0500131 0)
(0.557825 0.053461 0)
(0.543097 0.0571109 0)
(0.527481 0.0609694 0)
(0.510933 0.0650418 0)
(0.493401 0.0693317 0)
(0.47484 0.0738368 0)
(0.455203 0.0785503 0)
(0.434445 0.0834594 0)
(0.412537 0.0885466 0)
(0.389428 0.0937889 0)
(0.36508 0.0991559 0)
(0.339463 0.104608 0)
(0.312543 0.110087 0)
(0.284316 0.115529 0)
(0.254773 0.120847 0)
(0.223927 0.125941 0)
(0.191888 0.130698 0)
(0.158715 0.135002 0)
(0.124373 0.138739 0)
(0.0898191 0.141749 0)
(0.0527367 0.144163 0)
(0.021148 0.145641 0)
(2.59932 9.56975e-05 0)
(1.64088 0.001214 0)
(0.510194 0.00509631 0)
(0.553876 0.00603982 0)
(0.655862 0.00689536 0)
(0.722335 0.00795378 0)
(0.73574 0.00916809 0)
(0.729056 0.0104312 0)
(0.719237 0.0117943 0)
(0.711765 0.0132717 0)
(0.707523 0.0148531 0)
(0.704195 0.0165281 0)
(0.700382 0.0182925 0)
(0.695837 0.0201462 0)
(0.690716 0.0220966 0)
(0.685132 0.0241434 0)
(0.679095 0.0262894 0)
(0.672567 0.0285377 0)
(0.665506 0.030893 0)
(0.657884 0.0333631 0)
(0.649679 0.0359581 0)
(0.640871 0.0386892 0)
(0.631438 0.0415676 0)
(0.621358 0.0446062 0)
(0.610606 0.0478181 0)
(0.599154 0.0512177 0)
(0.586972 0.0548183 0)
(0.574025 0.0586345 0)
(0.56028 0.0626772 0)
(0.545697 0.0669583 0)
(0.530234 0.0714871 0)
(0.513847 0.076271 0)
(0.496481 0.0813148 0)
(0.478089 0.086616 0)
(0.458623 0.0921705 0)
(0.438032 0.0979644 0)
(0.416283 0.10398 0)
(0.393316 0.110193 0)
(0.369086 0.116569 0)
(0.343549 0.123063 0)
(0.31666 0.129612 0)
(0.288403 0.136135 0)
(0.258751 0.142533 0)
(0.227707 0.148685 0)
(0.195364 0.154445 0)
(0.161784 0.159668 0)
(0.126908 0.164207 0)
(0.0917292 0.16785 0)
(0.0539232 0.170684 0)
(0.0215381 0.172314 0)
(2.59992 0.000109651 0)
(1.6424 0.00138345 0)
(0.511368 0.00581463 0)
(0.554045 0.00689179 0)
(0.65606 0.00788408 0)
(0.72267 0.00910178 0)
(0.736159 0.0105237 0)
(0.729535 0.0119985 0)
(0.719799 0.0135878 0)
(0.712398 0.0152978 0)
(0.708204 0.017115 0)
(0.704901 0.0190305 0)
(0.701097 0.0210435 0)
(0.696551 0.0231607 0)
(0.691427 0.025387 0)
(0.685849 0.0277291 0)
(0.679834 0.0301912 0)
(0.673347 0.0327769 0)
(0.666354 0.0354911 0)
(0.658828 0.0383422 0)
(0.650745 0.0413391 0)
(0.642083 0.0444934 0)
(0.632815 0.0478164 0)
(0.622917 0.0513232 0)
(0.612359 0.0550279 0)
(0.601113 0.0589474 0)
(0.589145 0.0630966 0)
(0.576421 0.0674911 0)
(0.562904 0.0721474 0)
(0.548555 0.0770783 0)
(0.53333 0.0822989 0)
(0.517185 0.0878167 0)
(0.500062 0.0936408 0)
(0.481915 0.0997692 0)
(0.462692 0.106198 0)
(0.442337 0.112918 0)
(0.420809 0.119906 0)
(0.398042 0.127146 0)
(0.373978 0.134596 0)
(0.348565 0.142209 0)
(0.321739 0.149915 0)
(0.293469 0.157622 0)
(0.263711 0.165214 0)
(0.232446 0.172547 0)
(0.19975 0.179446 0)
(0.165677 0.185724 0)
(0.130156 0.191181 0)
(0.0941962 0.195563 0)
(0.0554442 0.198913 0)
(0.0220468 0.20075 0)
(2.60063 0.000119214 0)
(1.64418 0.00155612 0)
(0.512729 0.00652371 0)
(0.554236 0.00774256 0)
(0.656287 0.00886492 0)
(0.723053 0.0102511 0)
(0.736645 0.011871 0)
(0.730092 0.0135584 0)
(0.720461 0.0153804 0)
(0.713165 0.0173348 0)
(0.709063 0.0194071 0)
(0.705845 0.0215889 0)
(0.702122 0.0238797 0)
(0.697653 0.0262852 0)
(0.692601 0.0288104 0)
(0.68709 0.0314618 0)
(0.681139 0.0342444 0)
(0.674721 0.0371655 0)
(0.667804 0.0402339 0)
(0.660365 0.0434591 0)
(0.652382 0.046851 0)
(0.643835 0.0504222 0)
(0.634701 0.0541867 0)
(0.624953 0.0581606 0)
(0.614565 0.0623616 0)
(0.603507 0.0668073 0)
(0.591746 0.0715161 0)
(0.579247 0.0765055 0)
(0.565975 0.0817947 0)
(0.551888 0.0874005 0)
(0.536939 0.0933401 0)
(0.521081 0.0996236 0)
(0.504258 0.106262 0)
(0.486416 0.113255 0)
(0.467503 0.120599 0)
(0.447451 0.128289 0)
(0.426214 0.136306 0)
(0.403713 0.144633 0)
(0.379877 0.153232 0)
(0.354639 0.162052 0)
(0.32792 0.17102 0)
(0.299667 0.180031 0)
(0.269817 0.188958 0)
(0.238318 0.197629 0)
(0.205221 0.205834 0)
(0.170566 0.213348 0)
(0.134247 0.219909 0)
(0.0973137 0.225186 0)
(0.0573977 0.229159 0)
(0.0227543 0.231263 0)
(2.60145 0.000130963 0)
(1.64624 0.00172202 0)
(0.514294 0.00722425 0)
(0.55445 0.0085835 0)
(0.656548 0.00983393 0)
(0.723502 0.0113953 0)
(0.737211 0.0132176 0)
(0.730747 0.0151215 0)
(0.721232 0.0171818 0)
(0.714045 0.0193851 0)
(0.710045 0.0217153 0)
(0.70693 0.0241661 0)
(0.703312 0.0267387 0)
(0.698955 0.0294395 0)
(0.694019 0.0322728 0)
(0.688627 0.0352459 0)
(0.682798 0.0383649 0)
(0.676504 0.0416382 0)
(0.669714 0.0450751 0)
(0.662406 0.0486864 0)
(0.654561 0.0524843 0)
(0.64616 0.0564827 0)
(0.637181 0.060698 0)
(0.6276 0.0651472 0)
(0.617392 0.0698507 0)
(0.606531 0.0748281 0)
(0.594985 0.0801022 0)
(0.582721 0.0856948 0)
(0.569705 0.0916269 0)
(0.555896 0.0979202 0)
(0.541247 0.104593 0)
(0.52571 0.111661 0)
(0.509229 0.119135 0)
(0.491743 0.127021 0)
(0.473196 0.13532 0)
(0.453511 0.144028 0)
(0.432629 0.153134 0)
(0.410462 0.162621 0)
(0.386921 0.172456 0)
(0.361927 0.182587 0)
(0.335375 0.19294 0)
(0.30719 0.203403 0)
(0.277273 0.213834 0)
(0.245543 0.224039 0)
(0.212007 0.23377 0)
(0.176683 0.242744 0)
(0.139427 0.250636 0)
(0.101283 0.257026 0)
(0.0598673 0.261807 0)
(0.0236467 0.264278 0)
(2.60239 0.000141292 0)
(1.64859 0.00188166 0)
(0.516071 0.00790153 0)
(0.554691 0.00940143 0)
(0.656848 0.0107836 0)
(0.72403 0.0125176 0)
(0.73788 0.0145529 0)
(0.731519 0.0166799 0)
(0.72214 0.018985 0)
(0.715073 0.021446 0)
(0.711183 0.0240438 0)
(0.708176 0.0267735 0)
(0.704674 0.0296368 0)
(0.700438 0.0326449 0)
(0.695629 0.0357962 0)
(0.690372 0.0391012 0)
(0.684684 0.0425665 0)
(0.678539 0.0462008 0)
(0.671907 0.0500156 0)
(0.664767 0.0540226 0)
(0.6571 0.0582361 0)
(0.648887 0.0626714 0)
(0.640108 0.067347 0)
(0.630739 0.0722814 0)
(0.620757 0.0774972 0)
(0.610136 0.0830163 0)
(0.598847 0.088864 0)
(0.586859 0.0950656 0)
(0.574139 0.101646 0)
(0.560647 0.108632 0)
(0.546339 0.116045 0)
(0.531168 0.123906 0)
(0.515077 0.132231 0)
(0.498003 0.141035 0)
(0.479883 0.150321 0)
(0.460634 0.160097 0)
(0.440183 0.170351 0)
(0.41843 0.181076 0)
(0.395273 0.192242 0)
(0.370609 0.203801 0)
(0.34431 0.21568 0)
(0.316266 0.227765 0)
(0.286344 0.239905 0)
(0.254406 0.251886 0)
(0.22041 0.263422 0)
(0.184322 0.274178 0)
(0.145944 0.28373 0)
(0.106332 0.291538 0)
(0.0630695 0.297369 0)
(0.0248652 0.300339 0)
(2.60344 0.000150731 0)
(1.65124 0.0020323 0)
(0.518068 0.00854556 0)
(0.554962 0.0101836 0)
(0.657192 0.0116974 0)
(0.724642 0.0136064 0)
(0.738662 0.0158594 0)
(0.732426 0.0182167 0)
(0.723203 0.020775 0)
(0.716271 0.0235019 0)
(0.712501 0.026375 0)
(0.709613 0.0293904 0)
(0.706236 0.0325515 0)
(0.702131 0.03587 0)
(0.697459 0.0393452 0)
(0.692348 0.0429864 0)
(0.686815 0.0468034 0)
(0.680836 0.0508055 0)
(0.674383 0.0550056 0)
(0.667434 0.0594163 0)
(0.659973 0.064054 0)
(0.651981 0.0689354 0)
(0.64344 0.0740807 0)
(0.634326 0.0795107 0)
(0.624617 0.0852493 0)
(0.614286 0.0913214 0)
(0.603308 0.0977539 0)
(0.591651 0.104576 0)
(0.579284 0.111816 0)
(0.566169 0.119504 0)
(0.552262 0.127669 0)
(0.53752 0.136337 0)
(0.521884 0.145532 0)
(0.50529 0.155275 0)
(0.487673 0.16558 0)
(0.468943 0.176463 0)
(0.449015 0.187922 0)
(0.427781 0.199958 0)
(0.405118 0.212551 0)
(0.380901 0.22566 0)
(0.354972 0.239223 0)
(0.327182 0.253129 0)
(0.297348 0.267224 0)
(0.265274 0.281281 0)
(0.230836 0.294976 0)
(0.193935 0.307912 0)
(0.154272 0.319568 0)
(0.112848 0.329248 0)
(0.0672066 0.336524 0)
(0.0264368 0.340218 0)
(2.60462 0.000159448 0)
(1.65419 0.00217022 0)
(0.520291 0.00914271 0)
(0.555268 0.010913 0)
(0.657588 0.0125569 0)
(0.725355 0.0146444 0)
(0.739576 0.0171231 0)
(0.733488 0.0197181 0)
(0.724446 0.0225388 0)
(0.717666 0.025543 0)
(0.714032 0.0287034 0)
(0.711276 0.032016 0)
(0.708039 0.0354872 0)
(0.70408 0.0391213 0)
(0.699558 0.0429287 0)
(0.694606 0.0469136 0)
(0.689243 0.0510878 0)
(0.683447 0.055462 0)
(0.67719 0.0600504 0)
(0.670453 0.0648676 0)
(0.663221 0.0699318 0)
(0.655479 0.0752618 0)
(0.647206 0.0808794 0)
(0.638384 0.086808 0)
(0.628989 0.0930731 0)
(0.618997 0.0997031 0)
(0.608382 0.106726 0)
(0.597114 0.114176 0)
(0.585163 0.122084 0)
(0.572492 0.130484 0)
(0.559061 0.139412 0)
(0.544823 0.1489 0)
(0.529724 0.15898 0)
(0.513698 0.169684 0)
(0.496677 0.181037 0)
(0.47857 0.193064 0)
(0.45928 0.20578 0)
(0.438692 0.219197 0)
(0.416664 0.233314 0)
(0.393048 0.248104 0)
(0.367653 0.263521 0)
(0.340281 0.279471 0)
(0.310696 0.295809 0)
(0.278613 0.312309 0)
(0.243807 0.32863 0)
(0.206064 0.344304 0)
(0.164955 0.358692 0)
(0.121379 0.370893 0)
(0.0727668 0.380197 0)
(0.028643 0.384976 0)
(2.60591 0.000167108 0)
(1.65745 0.00229073 0)
(0.522743 0.00967067 0)
(0.555616 0.0115671 0)
(0.658048 0.0133404 0)
(0.726186 0.015611 0)
(0.740645 0.0183237 0)
(0.734728 0.0211656 0)
(0.725896 0.02426 0)
(0.719287 0.0275535 0)
(0.715802 0.0310126 0)
(0.713195 0.0346325 0)
(0.71011 0.0384197 0)
(0.70631 0.0423816 0)
(0.701956 0.046526 0)
(0.697181 0.0508606 0)
(0.692005 0.0553967 0)
(0.68641 0.0601469 0)
(0.680369 0.0651266 0)
(0.673867 0.0703529 0)
(0.66689 0.075845 0)
(0.659424 0.0816249 0)
(0.651453 0.0877154 0)
(0.642958 0.0941432 0)
(0.633917 0.100935 0)
(0.624308 0.108123 0)
(0.614108 0.115738 0)
(0.603287 0.123817 0)
(0.591817 0.132395 0)
(0.579663 0.141511 0)
(0.566784 0.151208 0)
(0.553138 0.161523 0)
(0.53867 0.172501 0)
(0.523315 0.184182 0)
(0.507005 0.196604 0)
(0.489646 0.209808 0)
(0.471138 0.223829 0)
(0.451356 0.238694 0)
(0.430143 0.254427 0)
(0.407327 0.271029 0)
(0.382687 0.288482 0)
(0.355971 0.306722 0)
(0.326878 0.325635 0)
(0.295035 0.345016 0)
(0.260062 0.36453 0)
(0.221584 0.383665 0)
(0.17894 0.401665 0)
(0.132798 0.417409 0)
(0.080336 0.429744 0)
(0.0316889 0.436279 0)
(2.60732 0.000173251 0)
(1.66101 0.00239057 0)
(0.525423 0.0100901 0)
(0.556021 0.0121111 0)
(0.658591 0.0140211 0)
(0.727159 0.0164812 0)
(0.741897 0.0194349 0)
(0.736181 0.0225345 0)
(0.727589 0.0259167 0)
(0.721169 0.0295133 0)
(0.717847 0.0332832 0)
(0.7154 0.0372203 0)
(0.712484 0.0413319 0)
(0.70886 0.0456284 0)
(0.704689 0.0501158 0)
(0.700106 0.0548031 0)
(0.695137 0.0597027 0)
(0.689761 0.0648296 0)
(0.683959 0.0702002 0)
(0.677715 0.0758347 0)
(0.67102 0.0817532 0)
(0.66386 0.0879806 0)
(0.656222 0.0945416 0)
(0.648089 0.101465 0)
(0.639444 0.108781 0)
(0.630265 0.116523 0)
(0.62053 0.124727 0)
(0.610215 0.133431 0)
(0.599291 0.142677 0)
(0.587728 0.152507 0)
(0.575486 0.162971 0)
(0.562525 0.174116 0)
(0.548794 0.185995 0)
(0.534228 0.19866 0)
(0.518762 0.212165 0)
(0.502304 0.226569 0)
(0.484748 0.241928 0)
(0.465968 0.258296 0)
(0.445796 0.275729 0)
(0.424042 0.294266 0)
(0.400454 0.313933 0)
(0.374733 0.334724 0)
(0.346501 0.356581 0)
(0.315279 0.379349 0)
(0.280516 0.402792 0)
(0.241576 0.426382 0)
(0.197504 0.449234 0)
(0.148528 0.47007 0)
(0.0912488 0.487068 0)
(0.0363245 0.496691 0)
(2.60883 0.00012745 0)
(1.66485 0.00252628 0)
(0.528289 0.0103536 0)
(0.556489 0.0124833 0)
(0.65923 0.0145606 0)
(0.72829 0.0172266 0)
(0.743351 0.0204366 0)
(0.737871 0.0238099 0)
(0.729555 0.0274998 0)
(0.723345 0.0314198 0)
(0.7202 0.0355181 0)
(0.717928 0.0397873 0)
(0.715192 0.0442371 0)
(0.711758 0.0488758 0)
(0.707786 0.0537145 0)
(0.703413 0.0587614 0)
(0.698667 0.064029 0)
(0.693532 0.0695343 0)
(0.687991 0.0752953 0)
(0.682031 0.0813339 0)
(0.675645 0.0876732 0)
(0.668822 0.0943396 0)
(0.661551 0.101361 0)
(0.65382 0.108769 0)
(0.645611 0.116597 0)
(0.636909 0.12488 0)
(0.627694 0.133658 0)
(0.617945 0.142974 0)
(0.607635 0.152874 0)
(0.596739 0.163405 0)
(0.585222 0.174624 0)
(0.573045 0.186587 0)
(0.560164 0.199356 0)
(0.546518 0.213 0)
(0.532045 0.227586 0)
(0.516659 0.243195 0)
(0.500258 0.259908 0)
(0.482715 0.277814 0)
(0.463862 0.297007 0)
(0.443498 0.31758 0)
(0.421355 0.339613 0)
(0.397093 0.363205 0)
(0.37026 0.388406 0)
(0.340315 0.415075 0)
(0.306494 0.443248 0)
(0.267754 0.472538 0)
(0.222745 0.502112 0)
(0.170889 0.530498 0)
(0.10759 0.555267 0)
(0.0436781 0.570698 0)
(2.61052 7.6171e-05 0)
(1.66896 0.00262682 0)
(0.530958 0.0104479 0)
(0.556791 0.0126684 0)
(0.659817 0.0149053 0)
(0.729455 0.0177788 0)
(0.744909 0.0212582 0)
(0.739726 0.02492 0)
(0.731748 0.0289354 0)
(0.725791 0.033194 0)
(0.722852 0.0376308 0)
(0.720781 0.0422376 0)
(0.718253 0.047027 0)
(0.715034 0.0520115 0)
(0.711284 0.0572007 0)
(0.70714 0.0626052 0)
(0.702638 0.0682395 0)
(0.697765 0.0741214 0)
(0.692507 0.0802717 0)
(0.686854 0.0867134 0)
(0.680803 0.093472 0)
(0.674346 0.100575 0)
(0.667476 0.108053 0)
(0.660183 0.115938 0)
(0.652455 0.124268 0)
(0.644277 0.133081 0)
(0.635635 0.14242 0)
(0.626512 0.152331 0)
(0.616887 0.162866 0)
(0.606738 0.174079 0)
(0.596036 0.186031 0)
(0.584748 0.19879 0)
(0.572838 0.212426 0)
(0.560252 0.227024 0)
(0.546937 0.242669 0)
(0.532818 0.259463 0)
(0.517798 0.277519 0)
(0.501769 0.296962 0)
(0.484568 0.317932 0)
(0.465989 0.340622 0)
(0.445794 0.36512 0)
(0.423646 0.391602 0)
(0.398928 0.420448 0)
(0.371159 0.451749 0)
(0.3395 0.485619 0)
(0.302381 0.522058 0)
(0.257806 0.560761 0)
(0.20406 0.600471 0)
(0.134046 0.638709 0)
(0.05678 0.66703 0)
(2.61229 6.9886e-05 0)
(1.67325 0.00262004 0)
(0.53368 0.0103818 0)
(0.557114 0.0126692 0)
(0.660469 0.0150179 0)
(0.730756 0.0181027 0)
(0.746648 0.0218947 0)
(0.741788 0.0258975 0)
(0.734171 0.0303003 0)
(0.728466 0.0349494 0)
(0.725734 0.0397656 0)
(0.723871 0.0447425 0)
(0.72157 0.0498975 0)
(0.718593 0.0552467 0)
(0.715096 0.0607986 0)
(0.711219 0.0665652 0)
(0.707 0.0725628 0)
(0.702429 0.0788111 0)
(0.697493 0.0853343 0)
(0.692189 0.0921576 0)
(0.686512 0.0993105 0)
(0.680462 0.106823 0)
(0.674033 0.114728 0)
(0.667219 0.123062 0)
(0.660014 0.131864 0)
(0.652409 0.141176 0)
(0.644394 0.151044 0)
(0.635958 0.161518 0)
(0.627085 0.172654 0)
(0.617761 0.184512 0)
(0.607966 0.197159 0)
(0.597673 0.210673 0)
(0.586858 0.225133 0)
(0.57548 0.240638 0)
(0.563495 0.257294 0)
(0.550848 0.275224 0)
(0.537462 0.294561 0)
(0.523244 0.315515 0)
(0.508103 0.338197 0)
(0.491782 0.362822 0)
(0.474012 0.389817 0)
(0.454764 0.419445 0)
(0.433476 0.452162 0)
(0.409314 0.488499 0)
(0.381444 0.528902 0)
(0.348359 0.574054 0)
(0.307374 0.624814 0)
(0.255228 0.68148 0)
(0.180629 0.743463 0)
(0.0834906 0.803959 0)
(2.6141 6.50295e-05 0)
(1.67765 0.00254877 0)
(0.536481 0.0101038 0)
(0.557541 0.0123754 0)
(0.661316 0.0147538 0)
(0.732401 0.0179995 0)
(0.748831 0.0220937 0)
(0.74435 0.0264337 0)
(0.737127 0.0312247 0)
(0.731659 0.0362522 0)
(0.729104 0.0414277 0)
(0.727425 0.0467573 0)
(0.725333 0.0522697 0)
(0.722584 0.0579806 0)
(0.719331 0.0639026 0)
(0.715719 0.0700452 0)
(0.711787 0.0764244 0)
(0.707532 0.0830599 0)
(0.702942 0.0899767 0)
(0.698015 0.0972008 0)
(0.69275 0.104762 0)
(0.687147 0.112691 0)
(0.681205 0.121024 0)
(0.674921 0.129799 0)
(0.668294 0.139056 0)
(0.661318 0.148841 0)
(0.653991 0.159205 0)
(0.646308 0.1702 0)
(0.638261 0.181888 0)
(0.629843 0.194333 0)
(0.621047 0.20761 0)
(0.611857 0.221804 0)
(0.602261 0.237007 0)
(0.592239 0.253326 0)
(0.581761 0.270892 0)
(0.570786 0.289883 0)
(0.55932 0.310337 0)
(0.547223 0.332499 0)
(0.534361 0.356747 0)
(0.520887 0.383322 0)
(0.506589 0.412706 0)
(0.49115 0.445378 0)
(0.474298 0.481814 0)
(0.455551 0.522987 0)
(0.434238 0.570091 0)
(0.409213 0.624912 0)
(0.378083 0.690368 0)
(0.336865 0.771509 0)
(0.271213 0.878708 0)
(0.146781 1.04431 0)
(2.61625 5.9226e-05 0)
(1.68291 0.00236382 0)
(0.539827 0.00941429 0)
(0.558107 0.0117524 0)
(0.662494 0.0142947 0)
(0.734745 0.0179495 0)
(0.751972 0.0226415 0)
(0.748031 0.0275968 0)
(0.741335 0.0330167 0)
(0.736151 0.0385981 0)
(0.733815 0.0442504 0)
(0.732391 0.0500076 0)
(0.730594 0.0559203 0)
(0.728169 0.0620146 0)
(0.725266 0.0683091 0)
(0.722027 0.0748188 0)
(0.718504 0.0815648 0)
(0.714699 0.088573 0)
(0.710607 0.0958725 0)
(0.706228 0.103493 0)
(0.701565 0.111468 0)
(0.696623 0.119829 0)
(0.691404 0.128615 0)
(0.685912 0.137864 0)
(0.680149 0.147619 0)
(0.674119 0.157927 0)
(0.667827 0.168841 0)
(0.66128 0.180415 0)
(0.65448 0.192715 0)
(0.647434 0.20581 0)
(0.640153 0.219778 0)
(0.632644 0.234708 0)
(0.624911 0.25072 0)
(0.616972 0.267918 0)
(0.608895 0.286364 0)
(0.600487 0.306286 0)
(0.59175 0.327955 0)
(0.583124 0.351537 0)
(0.574558 0.377431 0)
(0.565823 0.406039 0)
(0.556995 0.437709 0)
(0.548172 0.473125 0)
(0.539543 0.513141 0)
(0.531351 0.559037 0)
(0.52411 0.61261 0)
(0.518998 0.676601 0)
(0.518775 0.755492 0)
(0.53158 0.856702 0)
(0.587525 0.991423 0)
(0.657753 1.18638 0)
(2.61853 5.91735e-05 0)
(1.68851 0.0016981 0)
(0.544004 0.00688576 0)
(0.559801 0.00890314 0)
(0.665189 0.0113421 0)
(0.739163 0.0153753 0)
(0.757473 0.0207805 0)
(0.754139 0.0264993 0)
(0.747913 0.0327198 0)
(0.742806 0.039012 0)
(0.740486 0.0453038 0)
(0.739158 0.0516684 0)
(0.737532 0.0581711 0)
(0.73532 0.0648391 0)
(0.732658 0.0716853 0)
(0.729695 0.078726 0)
(0.726492 0.0859854 0)
(0.72306 0.0934928 0)
(0.719396 0.101279 0)
(0.715504 0.109378 0)
(0.711393 0.117821 0)
(0.707068 0.126647 0)
(0.702539 0.135894 0)
(0.697813 0.145602 0)
(0.692898 0.155817 0)
(0.687806 0.166588 0)
(0.682549 0.177969 0)
(0.677141 0.190018 0)
(0.671602 0.202801 0)
(0.665949 0.21639 0)
(0.660206 0.230887 0)
(0.654434 0.24633 0)
(0.648644 0.262807 0)
(0.642725 0.280518 0)
(0.636855 0.299625 0)
(0.631361 0.320244 0)
(0.626138 0.342711 0)
(0.621168 0.367242 0)
(0.616714 0.39403 0)
(0.612955 0.423497 0)
(0.610144 0.456187 0)
(0.608756 0.492741 0)
(0.60947 0.534092 0)
(0.61338 0.58139 0)
(0.622291 0.636296 0)
(0.639539 0.700977 0)
(0.671181 0.778344 0)
(0.726188 0.871838 0)
(0.837451 0.981487 0)
(0.985504 1.09624 0)
(2.61971 6.83119e-05 0)
(1.6915 0.00108073 0)
(0.546683 0.00462809 0)
(0.561656 0.00690546 0)
(0.668617 0.00991184 0)
(0.745006 0.0151075 0)
(0.764758 0.0217633 0)
(0.762144 0.0285656 0)
(0.756389 0.0355128 0)
(0.75128 0.0422216 0)
(0.748968 0.0488071 0)
(0.747771 0.055444 0)
(0.746346 0.0622136 0)
(0.744354 0.0691371 0)
(0.741924 0.0762243 0)
(0.739218 0.0835 0)
(0.736308 0.0909981 0)
(0.733212 0.0987549 0)
(0.729932 0.106805 0)
(0.726475 0.115182 0)
(0.722854 0.123922 0)
(0.719084 0.133061 0)
(0.715178 0.142636 0)
(0.711151 0.152687 0)
(0.707021 0.163258 0)
(0.702806 0.174393 0)
(0.698529 0.186144 0)
(0.694215 0.198572 0)
(0.689891 0.21175 0)
(0.685625 0.22568 0)
(0.681372 0.240456 0)
(0.677128 0.256247 0)
(0.67316 0.273121 0)
(0.669604 0.291203 0)
(0.666379 0.310719 0)
(0.663602 0.331762 0)
(0.661461 0.354459 0)
(0.660122 0.379092 0)
(0.659864 0.405952 0)
(0.661071 0.435378 0)
(0.664204 0.467829 0)
(0.670008 0.503831 0)
(0.679564 0.544045 0)
(0.694338 0.589244 0)
(0.716712 0.64028 0)
(0.750163 0.698014 0)
(0.800305 0.762706 0)
(0.872741 0.833398 0)
(0.985843 0.905142 0)
(1.12178 0.958112 0)
(2.62073 6.47419e-05 0)
(1.69408 -0.00174393 0)
(0.551669 -0.00555724 0)
(0.567581 -0.00392996 0)
(0.67638 -0.000112874 0)
(0.755156 0.00770919 0)
(0.775812 0.017037 0)
(0.773004 0.0261421 0)
(0.766685 0.0346015 0)
(0.760995 0.0422982 0)
(0.758501 0.0496925 0)
(0.757383 0.0570803 0)
(0.756117 0.0645433 0)
(0.754304 0.0720951 0)
(0.752082 0.0797409 0)
(0.749638 0.0875159 0)
(0.747052 0.095464 0)
(0.744336 0.103627 0)
(0.741488 0.112045 0)
(0.738516 0.120755 0)
(0.735433 0.129797 0)
(0.732254 0.139212 0)
(0.728999 0.149042 0)
(0.725685 0.159327 0)
(0.722338 0.170111 0)
(0.718984 0.18145 0)
(0.715665 0.193386 0)
(0.712435 0.20594 0)
(0.709218 0.219196 0)
(0.706075 0.233258 0)
(0.703302 0.248167 0)
(0.700911 0.264063 0)
(0.698846 0.281059 0)
(0.697265 0.299185 0)
(0.6963 0.318553 0)
(0.6961 0.339337 0)
(0.696892 0.361691 0)
(0.698927 0.385819 0)
(0.702554 0.411945 0)
(0.708224 0.440329 0)
(0.716539 0.471249 0)
(0.728315 0.505046 0)
(0.744688 0.541998 0)
(0.76716 0.582389 0)
(0.797785 0.62631 0)
(0.839268 0.67348 0)
(0.89527 0.722847 0)
(0.968496 0.771809 0)
(1.06991 0.816125 0)
(1.18322 0.841809 0)
(2.61616 0.00239855 0)
(1.68353 -0.00717408 0)
(0.556575 -0.0148009 0)
(0.583918 -0.00899345 0)
(0.697018 -0.00147615 0)
(0.779333 0.00853016 0)
(0.800313 0.0185024 0)
(0.796112 0.027965 0)
(0.787922 0.036358 0)
(0.78087 0.0441078 0)
(0.777725 0.0516776 0)
(0.776239 0.0592282 0)
(0.774648 0.0668 0)
(0.772503 0.0744277 0)
(0.769969 0.0821641 0)
(0.76727 0.090063 0)
(0.764491 0.0981698 0)
(0.761641 0.106523 0)
(0.758722 0.115157 0)
(0.755743 0.124105 0)
(0.752726 0.133402 0)
(0.749691 0.14308 0)
(0.746659 0.153173 0)
(0.743652 0.163723 0)
(0.740716 0.174734 0)
(0.737879 0.186246 0)
(0.735109 0.198346 0)
(0.732505 0.211077 0)
(0.730238 0.224466 0)
(0.7283 0.238643 0)
(0.726713 0.253649 0)
(0.725604 0.269484 0)
(0.725057 0.286246 0)
(0.725202 0.30404 0)
(0.726213 0.322958 0)
(0.728269 0.343135 0)
(0.731609 0.364689 0)
(0.736525 0.387763 0)
(0.743386 0.412498 0)
(0.752665 0.439042 0)
(0.764958 0.467525 0)
(0.781044 0.498053 0)
(0.801901 0.530651 0)
(0.828782 0.565205 0)
(0.863226 0.601376 0)
(0.907061 0.63841 0)
(0.962602 0.674959 0)
(1.03144 0.708701 0)
(1.11804 0.736659 0)
(1.21118 0.750482 0)
(2.60733 0.00835596 0)
(1.65195 -0.0742506 0)
(0.592469 -0.0744069 0)
(0.625987 -0.0468363 0)
(0.732829 -0.00737884 0)
(0.810762 0.0146024 0)
(0.829194 0.0246672 0)
(0.823515 0.0333194 0)
(0.814166 0.0406211 0)
(0.806775 0.0486552 0)
(0.803354 0.0571073 0)
(0.801479 0.0654658 0)
(0.799497 0.0736071 0)
(0.797054 0.08162 0)
(0.794323 0.0896337 0)
(0.791477 0.09773 0)
(0.788575 0.105961 0)
(0.785618 0.114368 0)
(0.782604 0.122995 0)
(0.779547 0.131886 0)
(0.776469 0.141094 0)
(0.773392 0.150657 0)
(0.77036 0.160578 0)
(0.767353 0.170899 0)
(0.764401 0.181694 0)
(0.761682 0.192992 0)
(0.759246 0.204819 0)
(0.757058 0.217253 0)
(0.755201 0.230324 0)
(0.75377 0.244061 0)
(0.752845 0.258542 0)
(0.752537 0.273828 0)
(0.752978 0.289973 0)
(0.754312 0.307055 0)
(0.756719 0.325135 0)
(0.760404 0.344291 0)
(0.765601 0.364595 0)
(0.772611 0.386124 0)
(0.781787 0.408946 0)