/*--------------------------------*- C++ -*----------------------------------*\
| =========                 |                                                 |
| \\      /  F ield         | OpenFOAM: The Open Source CFD Toolbox           |
|  \\    /   O peration     | Version:  2412                                  |
|   \\  /    A nd           | Website:  www.openfoam.com                      |
|    \\/     M anipulation  |                                                 |
\*---------------------------------------------------------------------------*/
FoamFile
{
    version     2.0;
    format      ascii;
    arch        "LSB;label=32;scalar=64";
    class       volScalarField;
    location    "1.5";
    object      Ma;
}
// * * * * * * * * * * * * * * * * * * * * * * * * * * * * * * * * * * * * * //

dimensions      [0 0 0 0 0 0 0];

internalField   nonuniform List<scalar> 
7000
(
3.00001
3.00001
3.00001
3.00001
3.00001
3.00001
3.00001
3.00001
3.00001
3.00001
3.00001
3.00001
3
3.00002
2.99993
3.00016
3.00026
3.00206
3.00121
3.01033
2.96381
3.13694
2.89345
2.56573
1.79858
1.0294
0.405294
0.357226
0.395069
0.414538
0.397438
0.363832
0.325455
0.29615
0.273758
0.254606
0.236544
0.218962
0.201915
0.18559
0.169811
0.154263
0.137322
0.118836
0.100142
0.0821297
0.0650848
0.0476649
0.0290767
0.0190839
3.00001
3.00001
3.00001
3.00001
3.00001
3.00001
3.00001
3.00001
3.00001
3.00001
3.00001
3.00001
3.00001
3.00003
2.99995
3.00028
3.00024
3.00215
3.00125
3.01063
2.96426
3.13633
2.89613
2.5691
1.80465
1.03451
0.406933
0.357614
0.394516
0.413699
0.397514
0.366023
0.329845
0.301658
0.279123
0.259201
0.240293
0.22206
0.204626
0.188165
0.172429
0.157036
0.140387
0.122273
0.104131
0.0866903
0.0698822
0.0520277
0.0329587
0.0244298
3.00001
3.00001
3.00001
3.00001
3.00001
3.00001
3.00001
3.00001
3.00001
3.00001
3.00001
3.00001
3.00001
3.00004
3.00007
3.00034
3.0006
3.00231
3.00133
3.01146
2.96468
3.13793
2.89925
2.57212
1.81219
1.04106
0.410226
0.358316
0.393447
0.411345
0.394761
0.363859
0.329176
0.302575
0.281357
0.262307
0.243888
0.22575
0.208069
0.19118
0.175041
0.159459
0.143008
0.125489
0.108233
0.0917507
0.0757986
0.0588175
0.041791
0.0359567
3.00001
3.00001
3.00001
3.00001
3.00001
3.00001
3.00001
3.00001
3.00001
3.00001
3.00001
3.00001
3.00001
3.00004
3.00006
3.00033
3.00061
3.00234
3.00137
3.01207
2.96607
3.13805
2.90125
2.57684
1.82054
1.04807
0.41097
0.356478
0.391593
0.409542
0.393707
0.363977
0.330762
0.30519
0.284583
0.265795
0.247512
0.229455
0.211804
0.194923
0.178799
0.163292
0.147112
0.13009
0.113589
0.0980336
0.0831582
0.0676647
0.0531752
0.0490933
3.00001
3.00001
3.00001
3.00001
3.00001
3.00001
3.00001
3.00001
3.00001
3.00001
3.00001
3.00001
3.00001
3.00003
2.99999
3.00025
3.00024
3.0023
3.00135
3.01268
2.96769
3.13845
2.90396
2.58278
1.83234
1.05859
0.41273
0.35575
0.390977
0.409134
0.393947
0.365281
0.333309
0.308515
0.288434
0.270015
0.252055
0.234294
0.2169
0.200217
0.184237
0.168876
0.152969
0.136335
0.120489
0.105853
0.0922084
0.0784433
0.0663094
0.0632931
3.00001
3.00001
3.00001
3.00001
3.00001
3.00001
3.00001
3.00001
3.00001
3.00001
3.00001
3.00001
3.00001
3.00003
3
3.00019
3.00018
3.00216
3.00137
3.01407
2.97016
3.14515
2.90783
2.58841
1.85417
1.07975
0.423163
0.362852
0.39683
0.41308
0.396502
0.367393
0.335887
0.311898
0.292677
0.274989
0.257662
0.240429
0.223447
0.207054
0.191265
0.176071
0.160449
0.144201
0.129019
0.11536
0.103045
0.0910396
0.0808908
0.0785223
3.00001
3.00001
3.00001
3.00001
3.00001
3.00001
3.00001
3.00001
3.00001
3.00001
3.00001
3.00001
3.00001
3.00001
3.00002
3.00014
3.00016
3.00178
3.00101
3.01402
2.97442
3.15055
2.90809
2.60564
1.88236
1.10813
0.431962
0.365763
0.399504
0.41627
0.400377
0.372316
0.341881
0.318553
0.299675
0.282184
0.265076
0.248104
0.231384
0.215221
0.199633
0.184663
0.169433
0.153676
0.139242
0.126636
0.115682
0.105315
0.0968185
0.0948616
3.00001
3.00001
3.00001
3.00001
3.00001
3.00001
3.00001
3.00001
3.00001
3.00001
3.00001
3
3
3
3
3.00006
3.00007
3.00111
3.00063
3.00974
2.98515
3.12768
2.90171
2.66285
1.92645
1.15019
0.44716
0.371626
0.402907
0.419454
0.404588
0.378245
0.349327
0.32705
0.308814
0.291681
0.274787
0.257968
0.241363
0.225286
0.209804
0.19501
0.180171
0.164953
0.151316
0.139793
0.130173
0.121288
0.114128
0.112423
3.00001
3.00001
3.00001
3.00001
3.00001
3.00001
3.00001
3.00001
3.00001
3.00001
3.00001
3
3
2.99999
2.99996
3
3
3.00083
2.99983
3.01311
2.97591
3.1462
2.91954
2.65186
1.93443
1.16311
0.456088
0.368379
0.402627
0.421775
0.40931
0.385415
0.358452
0.337468
0.319965
0.303367
0.286911
0.270368
0.25388
0.237829
0.222366
0.207642
0.193133
0.178441
0.165525
0.155019
0.146617
0.139013
0.132931
0.131368
3.00001
3.00001
3.00001
3.00001
3.00001
3.00001
3.00001
3.00001
3.00001
3.00001
3.00001
3
3
2.99998
2.99996
2.9999
2.99985
2.99996
2.9996
3.00659
2.98514
3.11314
2.90981
2.71474
1.99138
1.22956
0.488332
0.378468
0.408537
0.42764
0.416623
0.394922
0.369816
0.35002
0.333274
0.317323
0.301465
0.285413
0.269206
0.253246
0.237803
0.223081
0.208789
0.194526
0.182217
0.17259
0.165239
0.15874
0.153489
0.151994
3.00001
3.00001
3.00001
3.00001
3.00001
3.00001
3.00001
3.00001
3.00001
3.00001
3.00001
3
3
2.99997
2.99996
2.99985
2.99967
2.99944
2.99819
3.00129
2.98823
3.06278
2.92134
2.77981
2.07013
1.30679
0.521742
0.386865
0.414249
0.434193
0.425736
0.407112
0.384402
0.365572
0.349449
0.334121
0.318896
0.303424
0.287639
0.271889
0.256507
0.241761
0.227641
0.213601
0.201649
0.192739
0.186303
0.180714
0.176168
0.174633
3.00001
3.00001
3.00001
3.00001
3.00001
3.00001
3.00001
3.00001
3.00001
3.00001
3.00001
3
3
2.99997
2.99996
2.9998
2.99971
2.99901
2.99838
2.99503
2.98994
2.97096
2.9215
2.76055
2.15512
1.38642
0.564644
0.397583
0.423984
0.443818
0.438657
0.423102
0.402977
0.384721
0.368986
0.354243
0.339676
0.324792
0.309403
0.293857
0.278552
0.263799
0.249851
0.235981
0.224187
0.21582
0.210126
0.205307
0.201326
0.199757
3.00001
3.00001
3.00001
3.00001
3.00001
3.00001
3.00001
3.00001
3.00001
3.00001
3.00001
3
3
2.99996
2.99996
2.99978
2.99972
2.99894
2.99815
2.99406
2.98921
2.96707
2.93089
2.6824
2.3079
1.48332
0.622892
0.418505
0.439012
0.456149
0.455486
0.442908
0.425649
0.407775
0.392092
0.377664
0.363614
0.34923
0.334192
0.318805
0.303581
0.288894
0.275206
0.261675
0.250047
0.242165
0.237184
0.233093
0.229676
0.228022
3.00001
3.00001
3.00001
3.00001
3.00001
3.00001
3.00001
3.00001
3.00001
3.00001
3.00001
3
3
2.99997
2.99996
2.99978
2.99976
2.99875
2.99844
2.99366
2.98961
2.96176
2.94219
2.74054
2.40421
1.6324
0.702301
0.449772
0.454427
0.467875
0.473041
0.464927
0.450933
0.433836
0.418044
0.403779
0.39009
0.376002
0.361127
0.345829
0.330741
0.316301
0.303137
0.290367
0.279208
0.272
0.267895
0.264684
0.261718
0.260042
3.00001
3.00001
3.00001
3.00001
3.00001
3.00001
3.00001
3.00001
3.00001
3.00001
3.00001
3
3
2.99997
2.99996
2.9998
2.99978
2.99882
2.99853
2.99355
2.99051
2.96173
2.9492
2.77796
2.51603
1.79011
0.816283
0.495442
0.467983
0.478969
0.490949
0.48883
0.478203
0.462946
0.446591
0.432036
0.418206
0.403905
0.388836
0.373565
0.358816
0.345016
0.332868
0.321603
0.311477
0.30537
0.302561
0.300567
0.298682
0.297263
3.00001
3.00001
3.00001
3.00001
3.00001
3.00001
3.00001
3.00001
3.00001
3.00001
3.00001
3
3
2.99998
2.99997
2.99985
2.9998
2.99909
2.99874
2.99487
2.99224
2.96714
2.94958
2.76668
2.59615
1.87032
0.956086
0.564574
0.47311
0.485619
0.508274
0.514391
0.507601
0.493751
0.476265
0.460307
0.445471
0.430579
0.415342
0.400331
0.386397
0.373954
0.363581
0.354722
0.346832
0.342687
0.341721
0.34179
0.341476
0.340896
3.00001
3.00001
3.00001
3.00001
3.00001
3.00001
3.00001
3.00001
3.00001
3.00001
3.00001
3
3
2.99998
2.99997
2.99987
2.99981
2.99915
2.99887
2.99561
2.99336
2.97692
2.94891
2.83241
2.66071
2.06831
1.14271
0.658932
0.477218
0.494742
0.528211
0.542316
0.53654
0.521755
0.502002
0.483545
0.467791
0.45294
0.438326
0.424601
0.412549
0.402475
0.394891
0.389282
0.384792
0.383883
0.386466
0.389562
0.392834
0.394705
3.00001
3.00001
3.00001
3.00001
3.00001
3.00001
3.00001
3.00001
3.00001
3.00001
3
3
2.99999
2.99999
2.99994
2.99992
2.9997
2.99962
2.99863
2.99641
2.99293
2.9754
2.96404
2.85833
2.73145
2.20507
1.3673
0.755999
0.47969
0.501457
0.540716
0.559517
0.553282
0.537065
0.516645
0.498023
0.483064
0.469677
0.457154
0.446166
0.437239
0.430763
0.427082
0.4257
0.425528
0.429097
0.436699
0.446735
0.455674
0.463396
3.00001
3.00001
3.00001
3.00001
3.00001
3.00001
3.00001
3.00001
3.00001
3.00001
3.00001
3
2.99999
2.99999
2.99993
2.99992
2.99954
2.99946
2.99719
2.99601
2.98338
2.98925
2.91374
3.04508
2.8112
2.35397
1.48978
0.814848
0.451248
0.486377
0.533121
0.559246
0.555965
0.541164
0.522427
0.505834
0.49328
0.482738
0.473469
0.466038
0.460954
0.458769
0.459882
0.463811
0.469675
0.479844
0.495075
0.514334
0.537773
0.562382
3.00001
3.00001
3.00001
3.00001
3.00001
3.00001
3.00001
3.00001
3.00001
3.00001
3.00001
3.00001
3
3
2.99995
2.99995
2.99969
2.99962
2.9982
2.99755
2.98902
2.9977
2.93302
3.12775
2.83278
2.43653
1.61725
0.886872
0.441745
0.478408
0.524867
0.5554
0.55516
0.542402
0.526183
0.512533
0.502988
0.495761
0.490231
0.486656
0.485583
0.487613
0.493141
0.50264
0.515851
0.535007
0.561291
0.597901
0.648111
0.735933
3.00001
3.00001
3.00001
3.00001
3.00001
3.00001
3.00001
3.00001
3.00001
3.00001
3.00001
3.00001
3
3
2.99998
2.99998
2.99988
2.99982
2.99929
2.99911
2.99514
3.00371
2.95103
3.12643
2.87407
2.53339
1.76991
1.02207
0.496167
0.484744
0.527854
0.559271
0.561245
0.550732
0.537177
0.526158
0.519699
0.516101
0.51451
0.515342
0.519245
0.526579
0.538918
0.556313
0.579267
0.610758
0.654733
0.719395
0.827617
0.984423
3.00001
3.00001
3.00001
3.00001
3.00001
3.00001
3.00001
3.00001
3.00001
3.00001
3.00001
3.00001
3.00001
3
3
3
2.99993
3.00004
3.00009
3.00177
3.00111
3.01224
2.97265
3.13556
2.91744
2.63729
1.95097
1.19938
0.56124
0.492286
0.530188
0.559516
0.563179
0.555373
0.54494
0.537735
0.535123
0.535575
0.53782
0.542744
0.551822
0.5658
0.584752
0.60923
0.640904
0.682898
0.739865
0.819223
0.947561
1.11356
3.00001
3.00001
3.00001
3.00001
3.00001
3.00001
3.00001
3.00001
3.00001
3.00001
3.00001
3.00001
3.00001
3.00001
3.00001
3.00001
3.00001
3.00005
3.00005
3.00031
3.00021
3.00384
2.99473
3.04217
2.95017
2.78604
2.13173
1.38912
0.655852
0.522288
0.542719
0.563542
0.569011
0.56378
0.555731
0.550712
0.550929
0.553984
0.559645
0.569279
0.583546
0.602287
0.626642
0.657015
0.696216
0.745401
0.809939
0.890625
1.00685
1.14332
3.00001
3.00001
3.00001
3.00001
3.00001
3.00001
3.00001
3.00001
3.00001
3.00001
3.00001
3.00001
3.00001
3
3
2.99997
2.99996
2.99981
2.99976
2.99898
2.99852
2.99458
2.98899
2.96789
2.93173
2.76103
2.42428
1.68535
0.83019
0.586815
0.573786
0.585572
0.590397
0.585409
0.578897
0.574639
0.574806
0.578282
0.586433
0.599126
0.615342
0.636103
0.662687
0.69576
0.738242
0.789768
0.855027
0.933467
1.03273
1.14378
3.00001
3.00001
3.00001
3.00001
3.00001
3.00001
3.00001
3.00001
3.00001
3.00001
3.00001
3.00001
3.00001
3
3
2.99998
2.99997
2.99986
2.99979
2.99925
2.99883
2.99577
2.99228
2.97349
2.94535
2.80828
2.6192
2.01087
1.11235
0.729665
0.635051
0.627788
0.626164
0.623417
0.616826
0.611895
0.610251
0.613575
0.62217
0.635052
0.651449
0.672173
0.698165
0.730753
0.771379
0.820548
0.881014
0.952518
1.03978
1.13137
3.00001
3.00001
3.00001
3.00001
3.00001
3.00001
3.00001
3.00001
3.00001
3.00001
3.00001
3.00001
3
3
2.99999
2.99999
2.99992
2.99991
2.99958
2.99949
2.99803
2.99737
2.99173
2.9889
2.96613
2.89812
2.75972
2.41453
1.61816
1.01906
0.732628
0.689371
0.682446
0.678559
0.671819
0.665061
0.66174
0.662266
0.667981
0.677354
0.691742
0.711207
0.736335
0.766704
0.80423
0.848707
0.901738
0.964216
1.03902
1.11675
3.00001
3.00001
3.00001
3.00001
3.00001
3.00001
3.00001
3.00001
3.00001
3.00001
3.00001
3.00001
3.00001
3.00001
3
3
2.99997
2.99996
2.9998
2.99976
2.9989
2.99865
2.99413
2.99208
2.96743
2.94969
2.80091
2.61978
1.99762
1.20947
0.827561
0.721055
0.713635
0.715989
0.719761
0.717791
0.715869
0.715813
0.719069
0.726565
0.737472
0.754065
0.775971
0.803902
0.837752
0.877912
0.925052
0.978666
1.04173
1.10721
3.00001
3.00001
3.00001
3.00001
3.00001
3.00001
3.00001
3.00001
3.00001
3.00001
3.00001
3.00001
3.00001
3.00001
3.00001
2.99999
2.99999
2.99992
2.99991
2.99955
2.99948
2.99777
2.99698
2.98954
2.98825
2.9625
2.90707
2.78565
2.44179
1.71399
1.10632
0.795288
0.754176
0.757544
0.765068
0.768494
0.767641
0.767774
0.76936
0.775544
0.784502
0.798538
0.816922
0.841437
0.871051
0.907248
0.948669
0.996819
1.05201
1.10903
3.00001
3.00001
3.00001
3.00001
3.00001
3.00001
3.00001
3.00001
3.00001
3.00001
3.00001
3.00001
3.00001
3.00001
3.00001
3
3
2.99999
2.99999
2.99992
2.99988
2.99948
2.99941
2.99619
3.00276
2.9632
3.0977
2.90311
2.64975
2.04442
1.35657
0.847734
0.764922
0.773245
0.788214
0.801971
0.806001
0.807261
0.809591
0.815854
0.824842
0.837832
0.854327
0.875612
0.901771
0.93336
0.97048
1.01279
1.0624
1.11334
3.00001
3.00001
3.00001
3.00001
3.00001
3.00001
3.00001
3.00001
3.00001
3.00001
3.00001
3.00001
3.00001
3.00001
3.00001
3.00001
3
3
2.99996
2.99996
2.99977
2.9997
2.99871
2.99829
2.9939
2.98838
2.96372
2.92353
2.74902
2.45065
1.82976
1.02928
0.801093
0.786016
0.806058
0.823036
0.831255
0.835033
0.839245
0.846403
0.856839
0.870215
0.886486
0.905987
0.929608
0.957489
0.990408
1.02776
1.07114
1.11627
3.00001
3.00001
3.00001
3.00001
3.00001
3.00001
3.00001
3.00001
3.00001
3.00001
3.00001
3.00001
3.00001
3.00001
3.00001
3.00001
3
3
2.99999
2.99998
2.99988
2.99982
2.99926
2.99891
2.99567
2.9936
2.9751
2.95864
2.85237
2.68056
2.19266
1.34593
0.961635
0.847334
0.838681
0.846733
0.8547
0.859899
0.865088
0.872271
0.882878
0.896577
0.913057
0.931979
0.953883
0.979414
1.00845
1.04232
1.08088
1.12116
3.00001
3.00001
3.00001
3.00001
3.00001
3.00001
3.00001
3.00001
3.00001
3.00001
3.00001
3.00001
3.00001
3.00001
3.00001
3.00001
3.00001
3
3
2.99997
2.99997
2.99979
2.99974
2.99825
2.99759
2.98795
2.99372
2.94472
3.09639
2.86356
2.57238
1.9023
1.26629
0.938116
0.891528
0.886921
0.890644
0.897202
0.902329
0.9076
0.915516
0.926582
0.940406
0.957442
0.97701
1.00018
1.02623
1.05614
1.09045
1.12593
3.00001
3.00001
3.00001
3.00001
3.00001
3.00001
3.00001
3.00001
3.00001
3.00001
3.00001
3.00001
3.00001
3.00001
3.00001
3.00001
3.00001
3.00001
3.00001
3.00002
3.00002
3.00007
3
3.00042
2.99907
2.9986
2.98702
2.98655
2.94718
2.99056
2.77848
2.44622
1.73473
1.19809
0.950379
0.918879
0.919859
0.927664
0.936695
0.945259
0.95389
0.96421
0.975558
0.989172
1.0049
1.02384
1.04613
1.07225
1.10267
1.13408
3.00001
3.00001
3.00001
3.00001
3.00001
3.00001
3.00001
3.00001
3.00001
3.00001
3.00001
3.00001
3.00001
3.00001
3.00001
3.00001
3.00001
3.00001
3.00001
3.00001
3
3
2.99993
2.99987
2.99941
2.99936
2.9959
2.99965
2.97035
3.08319
2.90938
2.7161
2.1852
1.53879
1.03455
0.943995
0.935788
0.94675
0.960656
0.97398
0.984969
0.995523
1.00727
1.02031
1.03496
1.05145
1.07004
1.09119
1.1171
1.14484
3.00001
3.00001
3.00001
3.00001
3.00001
3.00001
3.00001
3.00001
3.00001
3.00001
3.00001
3.00001
3.00001
3.00001
3.00001
3.00001
3.00001
3.00001
3.00001
3
3
2.99998
2.99997
2.99983
2.99979
2.99896
2.9986
2.99391
2.99155
2.96525
2.94835
2.81377
2.61383
2.05903
1.35633
1.05948
0.988791
0.981919
0.989332
1.00099
1.0119
1.02258
1.0331
1.04659
1.06072
1.07719
1.09498
1.11436
1.1367
1.15903
3.00001
3.00001
3.00001
3.00001
3.00001
3.00001
3.00001
3.00001
3.00001
3.00001
3.00001
3.00001
3.00001
3.00001
3.00001
3.00001
3.00001
3.00001
3.00001
3.00001
3
3
2.99999
2.99998
2.99983
2.99976
2.99899
2.99823
2.99467
2.98882
2.96488
2.93264
2.7556
2.55154
1.96706
1.32551
1.09189
1.03887
1.03007
1.03201
1.03879
1.0467
1.05592
1.06689
1.08078
1.09612
1.11381
1.1336
1.15462
1.17824
3.00001
3.00001
3.00001
3.00001
3.00001
3.00001
3.00001
3.00001
3.00001
3.00001
3.00001
3.00001
3.00001
3.00001
3.00001
3.00001
3.00001
3.00001
3.00001
3.00001
3.00001
3
3
2.99996
2.99995
2.99977
2.99966
2.99869
2.99789
2.99282
2.9883
2.95729
2.92165
2.72831
2.45485
1.89386
1.28177
1.10867
1.07644
1.07222
1.07249
1.07664
1.08272
1.09067
1.1022
1.11612
1.13186
1.15045
1.17083
1.19215
3.00001
3.00001
3.00001
3.00001
3.00001
3.00001
3.00001
3.00001
3.00001
3.00001
3.00001
3.00001
3.00001
3.00001
3.00001
3.00001
3.00001
3.00001
3.00001
3.00001
3.00001
3
3
2.99999
2.99998
2.9999
2.99987
2.99946
2.99921
2.99734
2.99607
2.99131
2.96608
2.90384
2.78284
2.45633
1.79932
1.34989
1.16501
1.12432
1.1156
1.11429
1.11838
1.12476
1.13206
1.14263
1.15571
1.17123
1.18963
1.20903
3.00001
3.00001
3.00001
3.00001
3.00001
3.00001
3.00001
3.00001
3.00001
3.00001
3.00001
3.00001
3.00001
3.00001
3.00001
3.00001
3.00001
3.00001
3.00001
3.00001
3.00001
3.00001
3
3
2.99999
2.99999
2.99993
2.99993
2.99973
2.99968
2.99887
3.00218
2.98395
3.05812
2.90323
2.74971
2.33336
1.79281
1.31474
1.18354
1.15253
1.14705
1.14733
1.15304
1.16127
1.17036
1.18126
1.19397
1.20992
1.22722
3.00001
3.00001
3.00001
3.00001
3.00001
3.00001
3.00001
3.00001
3.00001
3.00001
3.00001
3.00001
3.00001
3.00001
3.00001
3.00001
3.00001
3.00001
3.00001
3.00001
3.00001
3.00001
3.00001
3.00001
3
3
2.99997
2.99995
2.99982
2.99949
2.99908
2.99618
2.99492
2.97876
2.96425
2.87534
2.76615
2.39236
1.82137
1.38983
1.22881
1.19232
1.18388
1.18319
1.18937
1.1993
1.2103
1.22111
1.23404
1.24838
3.00001
3.00001
3.00001
3.00001
3.00001
3.00001
3.00001
3.00001
3.00001
3.00001
3.00001
3.00001
3.00001
3.00001
3.00001
3.00001
3.00001
3.00001
3.00001
3.00001
3.00001
3.00001
3.00001
3.00001
3
3
2.99999
2.99998
2.9999
2.99988
2.99943
2.99912
2.99649
2.9955
2.98704
2.9783
2.89911
2.78073
2.43562
1.85712
1.44632
1.26777
1.22648
1.21697
1.21653
1.22335
1.23537
1.24876
1.26182
1.27646
3.00001
3.00001
3.00001
3.00001
3.00001
3.00001
3.00001
3.00001
3.00001
3.00001
3.00001
3.00001
3.00001
3.00001
3.00001
3.00001
3.00001
3.00001
3.00001
3.00001
3.00001
3.00001
3.00001
3.00001
3.00001
3.00001
3
3
2.99998
2.99998
2.99985
2.99988
2.99911
2.99706
2.99397
2.97805
2.9699
2.88682
2.7824
2.45546
1.93181
1.5071
1.30588
1.25535
1.24523
1.24685
1.25559
1.2699
1.28485
1.29982
3.00001
3.00001
3.00001
3.00001
3.00001
3.00001
3.00001
3.00001
3.00001
3.00001
3.00001
3.00001
3.00001
3.00001
3.00001
3.00001
3.00001
3.00001
3.00001
3.00001
3.00001
3.00001
3.00001
3.00001
3.00001
3.00001
3
3
2.99999
2.99998
2.99991
2.99988
2.99957
2.99934
2.99757
2.99952
2.98053
3.02718
2.93673
2.80033
2.44119
1.98393
1.49386
1.32215
1.27682
1.26959
1.2751
1.28628
1.3022
1.31801
3.00001
3.00001
3.00001
3.00001
3.00001
3.00001
3.00001
3.00001
3.00001
3.00001
3.00001
3.00001
3.00001
3.00001
3.00001
3.00001
3.00001
3.00001
3.00001
3.00001
3.00001
3.00001
3.00001
3.00001
3.00001
3.00001
3.00001
3.00001
3
3
2.99996
2.99996
2.99982
2.99965
2.99926
2.99767
2.99584
2.9838
2.98224
2.92582
2.84882
2.47751
2.0324
1.52816
1.35364
1.30989
1.3034
1.3089
1.32003
1.33409
3.00001
3.00001
3.00001
3.00001
3.00001
3.00001
3.00001
3.00001
3.00001
3.00001
3.00001
3.00001
3.00001
3.00001
3.00001
3.00001
3.00001
3.00001
3.00001
3.00001
3.00001
3.00001
3.00001
3.00001
3.00001
3.00001
3.00001
3.00001
3.00001
3.00001
3
3.00002
2.99996
2.99994
2.9995
2.99962
2.99755
3.00454
2.98975
2.97471
2.93031
2.82738
2.59313
2.10354
1.65484
1.41431
1.36131
1.35113
1.35212
1.35791
3.00001
3.00001
3.00001
3.00001
3.00001
3.00001
3.00001
3.00001
3.00001
3.00001
3.00001
3.00001
3.00001
3.00001
3.00001
3.00001
3.00001
3.00001
3.00001
3.00001
3.00001
3.00001
3.00001
3.00001
3.00001
3.00001
3.00001
3.00001
3.00001
3.00001
3
3
2.99997
2.99996
2.99978
2.99974
2.9988
2.99849
2.994
2.99032
2.96541
2.93564
2.81447
2.61311
2.21162
1.74908
1.50373
1.41725
1.39806
1.39539
3.00001
3.00001
3.00001
3.00001
3.00001
3.00001
3.00001
3.00001
3.00001
3.00001
3.00001
3.00001
3.00001
3.00001
3.00001
3.00001
3.00001
3.00001
3.00001
3.00001
3.00001
3.00001
3.00001
3.00001
3.00001
3.00001
3.00001
3.00001
3.00001
3.00001
3.00001
3
3
2.99998
2.99997
2.99983
2.99977
2.99914
2.9986
2.99528
2.99188
2.97456
2.94825
2.85883
2.69758
2.35105
1.90318
1.60785
1.47847
1.44694
3.00001
3.00001
3.00001
3.00001
3.00001
3.00001
3.00001
3.00001
3.00001
3.00001
3.00001
3.00001
3.00001
3.00001
3.00001
3.00001
3.00001
3.00001
3.00001
3.00001
3.00001
3.00001
3.00001
3.00001
3.00001
3.00001
3.00001
3.00001
3.00001
3.00001
3.00001
3.00001
3
3
2.99998
2.99997
2.99985
2.99981
2.99923
2.99892
2.99555
2.99387
2.97736
2.96361
2.88074
2.78105
2.50148
2.08748
1.73335
1.54618
3.00001
3.00001
3.00001
3.00001
3.00001
3.00001
3.00001
3.00001
3.00001
3.00001
3.00001
3.00001
3.00001
3.00001
3.00001
3.00001
3.00001
3.00001
3.00001
3.00001
3.00001
3.00001
3.00001
3.00001
3.00001
3.00001
3.00001
3.00001
3.00001
3.00001
3.00001
3.00001
3.00001
3.00001
3
2.99999
2.99995
2.99994
2.99974
2.9997
2.9988
2.99843
2.99557
2.9905
2.97411
2.9352
2.84673
2.58834
2.2424
1.86037
3.00001
3.00001
3.00001
3.00001
3.00001
3.00001
3.00001
3.00001
3.00001
3.00001
3.00001
3.00001
3.00001
3.00001
3.00001
3.00001
3.00001
3.00001
3.00001
3.00001
3.00001
3.00001
3.00001
3.00001
3.00001
3.00001
3.00001
3.00001
3.00001
3.00001
3.00001
3.00001
3.00001
3.00001
3
3
2.99999
2.99998
2.99991
2.9999
2.99952
2.99938
2.99765
2.99687
2.99128
2.98274
2.95654
2.88189
2.70999
2.36566
3.00001
3.00001
3.00001
3.00001
3.00001
3.00001
3.00001
3.00001
3.00001
3.00001
3.00001
3.00001
3.00001
3.00001
3.00001
3.00001
3.00001
3.00001
3.00001
3.00001
3.00001
3.00001
3.00001
3.00001
3.00001
3.00001
3.00001
3.00001
3.00001
3.00001
3.00001
3.00001
3.00001
3.00001
3.00001
3
3
2.99999
2.99999
2.99993
2.99991
2.99964
2.99948
2.99802
2.99973
2.98807
3.0309
2.96594
2.90016
2.65428
3.00001
3.00001
3.00001
3.00001
3.00001
3.00001
3.00001
3.00001
3.00001
3.00001
3.00001
3.00001
3.00001
3.00001
3.00001
3.00001
3.00001
3.00001
3.00001
3.00001
3.00001
3.00001
3.00001
3.00001
3.00001
3.00001
3.00001
3.00001
3.00001
3.00001
3.00001
3.00001
3.00001
3.00001
3.00001
3.00001
3.00001
3
3
2.99996
2.99995
2.99974
2.99964
2.99853
2.99914
2.99346
3.01208
2.98204
2.94304
2.84411
3.00001
3.00001
3.00001
3.00001
3.00001
3.00001
3.00001
3.00001
3.00001
3.00001
3.00001
3.00001
3.00001
3.00001
3.00001
3.00001
3.00001
3.00001
3.00001
3.00001
3.00001
3.00001
3.00001
3.00001
3.00001
3.00001
3.00001
3.00001
3.00001
3.00001
3.00001
3.00001
3.00001
3.00001
3.00001
3.00001
3.00001
3.00001
3.00001
3
2.99999
2.99995
2.99993
2.99969
3.00008
2.9976
3.00661
2.99268
2.97652
2.9259
3.00001
3.00001
3.00001
3.00001
3.00001
3.00001
3.00001
3.00001
3.00001
3.00001
3.00001
3.00001
3.00001
3.00001
3.00001
3.00001
3.00001
3.00001
3.00001
3.00001
3.00001
3.00001
3.00001
3.00001
3.00001
3.00001
3.00001
3.00001
3.00001
3.00001
3.00001
3.00001
3.00001
3.00001
3.00001
3.00001
3.00001
3.00001
3.00001
3.00001
3.00001
3.00002
2.99996
3.00022
2.99984
2.99947
2.998
2.99539
2.98716
2.96355
3.00001
3.00001
3.00001
3.00001
3.00001
3.00001
3.00001
3.00001
3.00001
3.00001
3.00001
3.00001
3.00001
3.00001
3.00001
3.00001
3.00001
3.00001
3.00001
3.00001
3.00001
3.00001
3.00001
3.00001
3.00001
3.00001
3.00001
3.00001
3.00001
3.00001
3.00001
3.00001
3.00001
3.00001
3.00001
3.00001
3.00001
3.00001
3.00001
3.00001
3
3
2.99996
2.99995
2.99973
2.99969
2.99846
2.99846
2.99403
2.99037
3.00001
3.00001
3.00001
3.00001
3.00001
3.00001
3.00001
3.00001
3.00001
3.00001
3.00001
3.00001
3.00001
3.00001
3.00001
3.00001
3.00001
3.00001
3.00001
3.00001
3.00001
3.00001
3.00001
3.00001
3.00001
3.00001
3.00001
3.00001
3.00001
3.00001
3.00001
3.00001
3.00001
3.00001
3.00001
3.00001
3.00001
3.00001
3.00001
3.00001
3
3
2.99998
2.99998
2.99986
2.99984
2.99916
2.99914
2.99717
2.99458
3.00001
3.00001
3.00001
3.00001
3.00001
3.00001
3.00001
3.00001
3.00001
3.00001
3.00001
3.00001
3.00001
3.00001
3.00001
3.00001
3.00001
3.00001
3.00001
3.00001
3.00001
3.00001
3.00001
3.00001
3.00001
3.00001
3.00001
3.00001
3.00001
3.00001
3.00001
3.00001
3.00001
3.00001
3.00001
3.00001
3.00001
3.00001
3.00001
3.00001
3.00001
3
2.99999
2.99999
2.99994
2.99992
2.99963
2.99955
2.99857
2.99748
3.00001
3.00001
3.00001
3.00001
3.00001
3.00001
3.00001
3.00001
3.00001
3.00001
3.00001
3.00001
3.00001
3.00001
3.00001
3.00001
3.00001
3.00001
3.00001
3.00001
3.00001
3.00001
3.00001
3.00001
3.00001
3.00001
3.00001
3.00001
3.00001
3.00001
3.00001
3.00001
3.00001
3.00001
3.00001
3.00001
3.00001
3.00001
3.00001
3.00001
3.00001
3.00001
3.00001
3
3
2.99996
3.0001
2.99982
2.99954
2.99816
3.00001
3.00001
3.00001
3.00001
3.00001
3.00001
3.00001
3.00001
3.00001
3.00001
3.00001
3.00001
3.00001
3.00001
3.00001
3.00001
3.00001
3.00001
3.00001
3.00001
3.00001
3.00001
3.00001
3.00001
3.00001
3.00001
3.00001
3.00001
3.00001
3.00001
3.00001
3.00001
3.00001
3.00001
3.00001
3.00001
3.00001
3.00001
3.00001
3.00001
3.00001
3.00001
3.00001
3.00001
3
2.99999
2.99994
2.99988
2.99966
2.9991
3.00001
3.00001
3.00001
3.00001
3.00001
3.00001
3.00001
3.00001
3.00001
3.00001
3.00001
3.00001
3.00001
3.00001
3.00001
3.00001
3.00001
3.00001
3.00001
3.00001
3.00001
3.00001
3.00001
3.00001
3.00001
3.00001
3.00001
3.00001
3.00001
3.00001
3.00001
3.00001
3.00001
3.00001
3.00001
3.00001
3.00001
3.00001
3.00001
3.00001
3.00001
3.00001
3.00001
3.00001
3
3
2.99997
2.99994
2.99979
2.99946
1.39388
1.57215
1.61244
1.54262
1.42857
1.28087
1.1549
1.06162
1.03412
1.03305
1.03897
1.04365
1.04932
1.05355
1.05651
1.06156
1.06839
1.07628
1.08401
1.0911
1.09745
1.10237
1.10552
1.10757
1.10867
1.10934
1.11025
1.11204
1.1148
1.11875
1.12388
1.12997
1.1366
1.14397
1.15271
1.16261
1.1729
1.1834
1.19402
1.20465
1.21516
1.22539
1.2353
1.24485
1.25394
1.26247
1.26973
1.27536
1.27893
1.27957
1.27501
1.25898
1.22274
1.15425
1.05575
0.948992
0.862127
0.806465
0.790714
0.806834
0.828688
0.851772
0.878208
0.900952
0.919119
0.935331
0.951969
0.968659
0.986196
1.0051
1.02617
1.04813
1.06876
1.08804
1.10629
1.1226
1.13853
1.15298
1.16752
1.18158
1.19616
1.21072
1.22617
1.24084
1.25619
1.27022
1.28497
1.29844
1.31261
1.32536
1.33905
1.35123
1.36444
1.3762
1.38906
1.40035
1.4127
1.42281
1.43291
1.43786
1.36731
1.47849
1.52191
1.52989
1.53548
1.54871
1.56135
1.55281
1.5239
1.48699
1.45901
1.44885
1.44831
1.45238
1.45622
1.45929
1.4622
1.46543
1.46899
1.47301
1.47779
1.48302
1.48814
1.49292
1.49748
1.50144
1.50475
1.50786
1.5107
1.51318
1.51536
1.5175
1.51987
1.52269
1.52612
1.53023
1.53491
1.53992
1.54519
1.55117
1.55815
1.56547
1.5733
1.58106
1.58911
1.59631
1.6022
1.60729
1.60972
1.60808
1.59668
1.56632
1.50937
1.43818
1.3834
1.34747
1.31216
1.26879
1.22278
1.18406
1.16069
1.15587
1.1667
1.18106
1.20236
1.22962
1.25345
1.27251
1.28789
1.30016
1.31056
1.32024
1.33171
1.34533
1.36143
1.37926
1.39733
1.4147
1.43117
1.44618
1.46005
1.47216
1.48325
1.4939
1.50434
1.51482
1.52529
1.53587
1.54643
1.55701
1.5676
1.57822
1.58872
1.59911
1.60933
1.61917
1.62875
1.637
1.64448
1.64646
1.32617
1.42348
1.49831
1.57279
1.6501
1.71805
1.75306
1.75243
1.74277
1.72044
1.68954
1.66461
1.64838
1.64034
1.638
1.63754
1.63836
1.64023
1.64265
1.64573
1.64935
1.65367
1.65823
1.66268
1.66686
1.67107
1.67524
1.67905
1.68266
1.6861
1.68939
1.69262
1.69578
1.69888
1.70201
1.7053
1.70885
1.71265
1.71665
1.72087
1.72517
1.72962
1.73421
1.73921
1.74355
1.74746
1.7506
1.75134
1.7474
1.73177
1.69355
1.62638
1.55341
1.51182
1.50772
1.51555
1.51529
1.50416
1.47975
1.44507
1.40191
1.3579
1.32508
1.30934
1.31264
1.32455
1.34065
1.36352
1.38974
1.41518
1.43649
1.45451
1.46972
1.48243
1.49329
1.50403
1.51558
1.52845
1.54187
1.55542
1.56875
1.58199
1.59498
1.60785
1.62032
1.63256
1.64444
1.65619
1.66772
1.67926
1.69055
1.70185
1.71274
1.72363
1.73407
1.74412
1.754
1.76221
1.76982
1.77177
1.30236
1.40062
1.485
1.56258
1.63595
1.69839
1.75135
1.79369
1.81519
1.8219
1.81772
1.80661
1.78846
1.77156
1.75834
1.75111
1.74872
1.74892
1.75163
1.75486
1.75828
1.76182
1.76524
1.76862
1.77202
1.77527
1.77832
1.78155
1.785
1.78838
1.79169
1.79505
1.79856
1.80223
1.80597
1.80971
1.8134
1.81706
1.82074
1.82451
1.82833
1.83202
1.83552
1.83806
1.84009
1.84123
1.84018
1.83217
1.80968
1.75988
1.67998
1.60161
1.56467
1.57032
1.58564
1.60291
1.61492
1.621
1.61965
1.60929
1.58866
1.56047
1.52579
1.48668
1.45091
1.42621
1.41542
1.42422
1.43811
1.45631
1.48048
1.50651
1.53067
1.55032
1.5662
1.57836
1.5876
1.5959
1.60439
1.61387
1.62479
1.63736
1.65082
1.66477
1.67881
1.69288
1.70661
1.72021
1.73328
1.74592
1.75824
1.76999
1.78169
1.79274
1.8039
1.81421
1.82488
1.83374
1.84253
1.84556
1.27362
1.37355
1.46102
1.53911
1.61199
1.67751
1.73744
1.79078
1.83655
1.86815
1.88072
1.88226
1.87886
1.87092
1.85867
1.84873
1.83909
1.83311
1.83077
1.82999
1.8316
1.83443
1.83746
1.84059
1.84373
1.84668
1.8496
1.85254
1.85547
1.85843
1.8615
1.86476
1.86816
1.87159
1.87494
1.87825
1.8816
1.88507
1.88862
1.89213
1.89556
1.89857
1.90086
1.90266
1.90322
1.90052
1.88891
1.85885
1.79651
1.70408
1.62321
1.59618
1.60412
1.61945
1.63659
1.65212
1.66689
1.68085
1.69032
1.69558
1.6972
1.69444
1.68353
1.66688
1.64261
1.61314
1.57783
1.54507
1.51742
1.50337
1.50958
1.52056
1.53544
1.55655
1.57944
1.60097
1.61983
1.63553
1.64973
1.66205
1.67399
1.68537
1.69735
1.70999
1.72315
1.73671
1.75054
1.76367
1.77699
1.78926
1.80189
1.81324
1.8254
1.83604
1.84777
1.85793
1.86932
1.87844
1.88814
1.89172
1.24051
1.33533
1.42477
1.50596
1.58035
1.64753
1.70949
1.76456
1.8134
1.85598
1.89118
1.91424
1.92624
1.93154
1.93033
1.92641
1.91983
1.91259
1.90429
1.89945
1.89592
1.89476
1.89706
1.89975
1.90227
1.9048
1.90756
1.91032
1.91288
1.91547
1.91819
1.92111
1.92416
1.9273
1.93038
1.93342
1.93653
1.93977
1.94306
1.94619
1.94865
1.95006
1.95099
1.95053
1.94508
1.92871
1.88956
1.81466
1.71375
1.6351
1.61845
1.62555
1.63764
1.65146
1.66596
1.68188
1.69692
1.71275
1.72914
1.74407
1.7585
1.77203
1.78018
1.78787
1.78336
1.77119
1.74983
1.72037
1.68269
1.64295
1.60349
1.5732
1.55803
1.56833
1.58081
1.59706
1.62032
1.64545
1.67059
1.69219
1.71188
1.7287
1.74412
1.75732
1.76975
1.7808
1.79135
1.80193
1.81304
1.82384
1.83556
1.84631
1.85834
1.86899
1.88133
1.89182
1.90402
1.91366
1.92444
1.92845
1.21692
1.30146
1.38368
1.46211
1.5367
1.60573
1.66929
1.72702
1.77989
1.82668
1.86991
1.90784
1.93746
1.95745
1.96933
1.97409
1.97563
1.97379
1.96963
1.96449
1.95761
1.95349
1.94863
1.94792
1.94742
1.94788
1.9483
1.94892
1.95005
1.95168
1.95358
1.95573
1.95806
1.96053
1.96327
1.96626
1.96951
1.97267
1.97576
1.97848
1.98028
1.98111
1.9806
1.97333
1.95257
1.90414