/*--------------------------------*- C++ -*----------------------------------*\
| =========                 |                                                 |
| \\      /  F ield         | OpenFOAM: The Open Source CFD Toolbox           |
|  \\    /   O peration     | Version:  2412                                  |
|   \\  /    A nd           | Website:  www.openfoam.com                      |
|    \\/     M anipulation  |                                                 |
\*---------------------------------------------------------------------------*/
FoamFile
{
    version     2.0;
    format      ascii;
    arch        "LSB;label=32;scalar=64";
    class       volScalarField;
    location    "1.5";
    object      p;
}
// * * * * * * * * * * * * * * * * * * * * * * * * * * * * * * * * * * * * * //

dimensions      [1 -1 -2 0 0 0 0];

internalField   nonuniform List<scalar> 
7000
(
1
1
1
1
1
1
1
1
1
1
1
1
1
1.00001
0.999997
1.00003
1.00012
0.998455
0.996843
0.997684
0.988031
1.01413
1.05242
0.946745
2.55427
3.66515
9.43728
10.3138
10.0534
9.7847
9.79383
9.88112
10.049
10.1736
10.2698
10.3593
10.4496
10.539
10.6254
10.7081
10.7868
10.8626
10.9336
11.0012
11.0651
11.1238
11.1751
11.2167
11.2476
11.2695
1
1
1
1
1
1
1
1
1
1
1
0.999999
0.999996
0.999998
0.999968
0.999998
1.00007
0.998396
0.996734
0.997538
0.988135
1.01419
1.05217
0.946568
2.55402
3.64971
9.42898
10.3096
10.0491
9.78091
9.79182
9.88034
10.0476
10.1717
10.268
10.3579
10.4483
10.5379
10.6244
10.7072
10.7862
10.8623
10.9336
11.0016
11.0658
11.1247
11.1764
11.2183
11.2494
11.2715
1
1
1
1
1
1
1
1
1
1
1
0.999998
0.999993
0.999988
0.999921
0.999901
0.999353
0.998925
0.996411
0.997147
0.987559
1.01368
1.05138
0.945982
2.54888
3.61926
9.40654
10.2995
10.0391
9.77296
9.78555
9.87583
10.0419
10.1654
10.2622
10.3526
10.4437
10.5337
10.6207
10.7039
10.7833
10.8599
10.9317
11
11.0644
11.1235
11.1756
11.218
11.2491
11.2708
1
1
1
1
1
1
1
1
1
1
0.999999
0.999999
0.999998
0.999978
0.99993
0.999889
0.999341
0.99889
0.996074
0.996819
0.986522
1.01187
1.04855
0.943583
2.53665
3.5816
9.36646
10.2806
10.0231
9.76151
9.7761
9.86849
10.0329
10.1563
10.2536
10.3447
10.4365
10.527
10.6146
10.6985
10.7786
10.856
10.9285
10.9972
11.0621
11.1215
11.174
11.2168
11.248
11.2693
1
1
1
1
1
1
1
1
1
1
1
1
0.999995
0.999999
0.999942
0.999971
1.00007
0.998175
0.995856
0.996604
0.985072
1.0095
1.04494
0.940856
2.51801
3.52856
9.30489
10.257
10.0049
9.7472
9.76314
9.857
10.0204
10.144
10.242
10.3338
10.4262
10.5175
10.6058
10.6905
10.7716
10.85
10.9235
10.9931
11.0585
11.1182
11.1711
11.2143
11.2454
11.2665
1
1
1
1
1
1
1
1
1
1
1
1
0.999997
1
0.999953
0.999983
1.00011
0.998224
0.995918
0.99645
0.981263
1.00479
1.03906
0.936194
2.49636
3.43519
9.21746
10.2329
9.98838
9.73136
9.74803
9.84238
10.0041
10.1286
10.2271
10.3197
10.4129
10.505
10.5941
10.6798
10.762
10.8416
10.9165
10.987
11.0532
11.1134
11.1665
11.2098
11.241
11.2619
1
1
1
1
1
1
1
1
1
1
1
1
1
0.999997
0.999978
0.999914
1.00001
0.998596
0.996536
0.996769
0.977839
0.998279
1.02766
0.923443
2.47727
3.31237
9.116
10.2098
9.97083
9.71232
9.72925
9.8233
9.98389
10.1098
10.2091
10.3028
10.3968
10.4896
10.5795
10.6662
10.7497
10.8306
10.907
10.9786
11.0456
11.1062
11.1595
11.2029
11.234
11.2549
1
1
1
1
1
1
1
1
1
1
1
1
1
1
0.999992
0.999973
1.00001
0.999126
0.997743
0.997654
0.979717
0.994236
1.01022
0.901267
2.48615
3.13917
8.99034
10.1858
9.95158
9.69147
9.7082
9.80089
9.96011
10.0873
10.1881
10.2829
10.3776
10.4711
10.5618
10.6494
10.7342
10.8164
10.8945
10.9671
11.0349
11.096
11.1495
11.1928
11.2238
11.2446
1
1
1
1
1
1
1
1
1
1
1
1
1.00001
1.00002
1.00002
1.00002
0.999888
0.999712
0.99758
0.998159
0.976464
0.992754
1.01122
0.90276
2.4117
3.06822
8.73163
10.1381
9.92351
9.66593
9.68272
9.77394
9.93214
10.061
10.1639
10.26
10.3553
10.4492
10.5405
10.6291
10.7151
10.7986
10.8786
10.9514
11.0203
11.0817
11.1355
11.1786
11.2094
11.2303
1
1
1
1
1
1
1
1
1
1
1
1
1.00001
1.00001
1.00004
1.00007
1.00009
1.0001
0.999332
0.999833
0.982591
0.99518
1.0039
0.887263
2.4038
2.8206
8.4513
10.1109
9.90918
9.64443
9.65863
9.74491
9.90066
10.0315
10.1367
10.2338
10.3294
10.4236
10.5153
10.6046
10.6917
10.7764
10.858
10.9307
11.0002
11.0617
11.116
11.1587
11.1893
11.2101
1
1
1
1
1
1
1
1
1
1
1
1
1.00001
1.00001
1.00005
1.0001
1.00019
1.00069
1.00057
1.00098
0.995585
0.999381
1.01033
0.909383
2.3205
2.48849
8.11332
10.0899
9.90527
9.63043
9.63899
9.71488
9.86507
9.99782
10.1057
10.2036
10.2993
10.3934
10.4853
10.5751
10.6629
10.7486
10.8311
10.9036
10.9732
11.0345
11.0889
11.1311
11.1613
11.1822
1
1
1
1
1
1
1
1
1
1
1
1
1.00001
1.00001
1.00006
1.00009
1.00032
1.00042
1.00171
1.00247
1.00571
1.02641
1.04894
0.921337
2.21304
2.30233
7.64369
10.078
9.91634
9.634
9.62681
9.68853
9.82405
9.95912
10.0701
10.1688
10.264
10.3576
10.4494
10.5393
10.6274
10.7131
10.7955
10.8678
10.937
10.9975
11.0514
11.0928
11.1225
11.1435
1
1
1
1
1
1
1
1
1
1
1
1
1.00001
1.00001
1.00007
1.00008
1.00036
1.00039
1.00202
1.00249
1.01081
1.01482
1.07374
1.045
1.95824
2.04222
7.02518
10.0871
9.95841
9.67583
9.62703
9.67026
9.77995
9.91469
10.0289
10.1285
10.2227
10.3152
10.4063
10.4956
10.5829
10.6675
10.7487
10.8202
10.8881
10.9471
10.9995
11.0395
11.0684
11.0895
1
1
1
1
1
1
1
1
1
1
1
1
1.00001
1.00001
1.00007
1.00008
1.00039
1.0004
1.00208
1.00233
1.011
1.021
1.07073
1.05894
1.79321
1.8404
6.26174
10.0561
10.0166
9.78469
9.64516
9.66343
9.73555
9.86453
9.98157
10.0821
10.1745
10.2648
10.354
10.4416
10.5268
10.6085
10.687
10.7566
10.8215
10.8784
10.9274
10.9655
10.993
11.0145
1
1
1
1
1
1
1
1
1
1
1
1
1.00001
1.00001
1.00006
1.00007
1.00036
1.00038
1.002
1.00239
1.01127
1.01798
1.06591
1.06716
1.61275
1.70655
5.20849
9.8618
10.1337
9.92715
9.69418
9.65906
9.70066
9.80264
9.92498
10.028
10.1183
10.2048
10.2904
10.3743
10.4554
10.5324
10.6059
10.6719
10.7319
10.7845
10.8286
10.8625
10.8878
10.9089
1
1
1
1
1
1
1
1
1
1
1
1
1.00001
1.00001
1.00005
1.00006
1.00027
1.0004
1.00152
1.00209
1.00944
1.01462
1.05738
1.10437
1.46272
1.72059
4.46217
9.10931
10.2613
10.0918
9.76412
9.64716
9.66706
9.73813
9.85914
9.96475
10.052
10.133
10.2127
10.2907
10.3651
10.4348
10.5007
10.5613
10.611
10.6572
10.6933
10.7203
10.741
10.7609
1
1
1
1
1
1
1
1
1
1
1
1
1.00001
1.00001
1.00004
1.00005
1.00026
1.00035
1.0014
1.0018
1.00792
1.00737
1.05676
1.05237
1.41762
1.40616
4.02422
7.96989
10.3914
10.2564
9.86672
9.6363
9.63001
9.67573
9.78235
9.89041
9.97401
10.0468
10.1179
10.1873
10.2522
10.3121
10.3667
10.4178
10.4542
10.4876
10.5107
10.5237
10.5333
10.5478
1
1
1
1
1
1
1
1
1
1
1
1
1.00001
1.00002
1.00003
1.0001
1.00014
1.00031
1.00111
1.00168
1.00779
1.0092
1.0426
1.06702
1.29563
1.39578
3.31386
6.69095
10.5314
10.4053
9.9517
9.6177
9.57059
9.60772
9.70025
9.80377
9.8802
9.94344
10.0041
10.0624
10.1151
10.1628
10.2023
10.2373
10.2548
10.2667
10.2649
10.2532
10.2365
10.2343
1
1
1
1
1
1
1
1
1
1
1
1
1
1.00002
1.00003
1.00014
1.00016
1.0008
1.00097
1.0047
1.00755
1.02766
1.02903
1.11543
1.18322
1.15611
2.9923
5.47917
10.5056
10.3878
9.93529
9.56044
9.4863
9.52028
9.6065
9.70215
9.76989
9.82282
9.87166
9.91702
9.95516
9.98558
10.0054
10.016
10.0079
9.9859
9.94087
9.87414
9.79733
9.73847
1
1
1
1
1
1
1
1
1
1
1
1
1
1.00002
1.00002
1.0001
1.0001
1.00055
1.00065
1.00306
1.00454
1.02046
1.00876
1.05289
1.12578
1.02995
2.83879
4.51597
10.2679
10.2332
9.87324
9.47424
9.38539
9.41711
9.49809
9.58548
9.64385
9.68584
9.72198
9.75229
9.7727
9.78133
9.77645
9.75732
9.70895
9.63061
9.51392
9.34679
9.12011
8.85887
1
1
1
1
1
1
1
1
1
1
1
1
1
1.00001
1.00001
1.00004
1.00004
1.00023
1.00032
1.00118
1.00194
1.009
0.99892
1.03089
1.07784
0.974968
2.60395
3.78113
9.38671
9.99245
9.7193
9.34401
9.25323
9.28239
9.3582
9.43682
9.48366
9.51126
9.53042
9.54068
9.53819
9.52308
9.48421
9.41175
9.30332
9.14207
8.8967
8.50179
7.80889
6.28207
1
1
1
1
1
1
1
1
1
1
1
1
1
1
1
1.00002
1.00003
1.0001
1.00022
0.998649
0.996751
0.997202
0.982944
1.00285
1.02803
0.927581
2.37931
3.00662
8.26524
9.64873
9.47736
9.15393
9.07728
9.10661
9.18116
9.25245
9.28786
9.30062
9.3005
9.29287
9.26753
9.21269
9.12554
9.00105
8.82406
8.56825
8.18711
7.60719
6.74698
5.24438
1
1
1
1
1
1
1
1
1
1
1
1
1
1
1
1
0.999991
0.999981
0.999943
0.999848
0.999432
0.999303
0.992277
1.00517
0.990258
0.956602
2.14253
2.29297
7.18038
9.30625
9.21503
8.99715
8.91329
8.93642
8.99659
9.05773
9.08017
9.07851
9.06677
9.03542
8.97354
8.88387
8.76009
8.59104
8.35995
8.0415
7.60188
6.99213
6.2025
5.10056
1
1
1
1
1
1
1
1
1
1
1
1
1
1
1.00001
1.00001
1.00006
1.00007
1.00033
1.00036
1.00186
1.00144
1.01179
1.0151
1.07079
1.08058
1.68804
1.8838
5.21873
8.77585
9.06808
8.94475
8.81602
8.81682
8.84109
8.88567
8.89509
8.885
8.85291
8.7865
8.69431
8.57725
8.42539
8.22585
7.96605
7.62657
7.19068
6.63562
5.96593
5.12186
1
1
1
1
1
1
1
1
1
1
1
1
1
1
1.00001
1.00001
1.00005
1.00006
1.00024
1.00029
1.00142
1.00142
1.0084
1.01141
1.05305
1.08014
1.42456
1.56541
3.88898
7.56797
8.9319
8.92573
8.83084
8.74296
8.73308
8.7372
8.73041
8.70371
8.64393
8.55498
8.44655
8.31322
8.14279
7.92696
7.65735
7.32209
6.9164
6.42925
5.86644
5.1798
1
1
1
1
1
1
1
1
1
1
1
1
1
1
1.00001
1.00003
1.00003
1.00013
1.00016
1.00063
1.00084
1.00274
1.0042
1.00737
1.03419
1.04387
1.24516
1.18508
2.8401
4.91242
8.47983
8.9985
8.91641
8.75054
8.66528
8.62794
8.59074
8.53316
8.45153
8.35026
8.22989
8.0829
7.90307
7.68439
7.42141
7.10703
6.73536
6.30132
5.81878
5.25395
1
1
1
1
1
1
1
1
1
1
1
1
1
1
1
1.00001
1.00001
1.00007
1.00007
1.00036
1.00036
1.00193
1.0019
1.01015
1.01293
1.05919
1.08055
1.43607
1.57254
3.73745
7.17611
8.82425
8.86644
8.761
8.58426
8.48731
8.42555
8.35708
8.26901
8.16085
8.03298
7.88029
7.69813
7.48278
7.23038
6.93743
6.60218
6.22384
5.80688
5.31505
1
1
1
1
1
1
1
1
1
1
1
1
1
1
1
1.00001
1.00002
1.00003
1.00014
1.00017
1.00069
1.00084
1.00335
1.0046
1.01351
1.0278
1.04759
1.22267
1.22733
2.59649
4.43784
8.25412
8.85033
8.74846
8.52351
8.35699
8.26155
8.18602
8.09771
7.98774
7.85679
7.70265
7.52208
7.31334
7.07401
6.80245
6.49739
6.15777
5.78908
5.36623
1
1
1
1
1
1
1
1
1
1
1
1
1
1
1
1
1.00001
1.00001
1.00003
1.00003
1.00017
1.00025
1.00094
1.0016
1.00741
0.999944
1.02415
1.05491
0.972095
2.2247
2.72043
6.8845
8.61501
8.60002
8.45526
8.20976
8.07365
7.99767
7.91772
7.81655
7.69067
7.54117
7.36757
7.16911
6.94444
6.69301
6.41397
6.10612
5.77375
5.39614
1
1
1
1
1
1
1
1
1
1
1
1
1
1
1
1
1
1.00001
1.00001
1.00008
1.00008
1.00043
1.00044
1.00209
1.00288
1.01063
1.01993
1.07971
1.04428
1.70751
1.64919
4.63425
7.95041
8.39826
8.29295
8.07065
7.91397
7.83141
7.7587
7.66516
7.54426
7.39961
7.23333
7.04491
6.83447
6.60119
6.34621
6.06753
5.76791
5.42867
1
1
1
1
1
1
1
1
1
1
1
1
1
1
1
1
1
1.00001
1.00001
1.00004
1.00004
1.00024
1.00029
1.00131
1.00199
1.0071
1.01124
1.0448
1.06937
1.33388
1.41327
3.30288
6.16366
7.89744
8.0659
7.98743
7.81899
7.69741
7.61115
7.52195
7.41108
7.27443
7.11745
6.9402
6.74347
6.52804
6.2923
6.036
5.76222
5.45358
1
1
1
1
1
1
1
1
1
1
1
1
1
1
1
1
1
1
1.00001
1.00001
1.00006
1.00009
1.00007
1.00125
1.00301
1.00527
1.0216
1.01235
1.04562
1.09469
1.01485
2.36407
3.2267
6.94159
7.93989
7.91926
7.83776
7.67283
7.54263
7.43437
7.31817
7.18186
7.02675
6.85432
6.66588
6.46365
6.24645
6.01252
5.76208
5.48176
1
1
1
1
1
1
1
1
1
1
1
1
1
1
1
1
0.999999
0.999999
0.999996
0.999995
0.999982
0.999976
0.99994
1.00002
0.999815
0.999177
1.00965
1.02119
1.0219
1.03444
1.23071
1.22799
2.54529
4.2602
7.25457
7.86275
7.8232
7.68446
7.51602
7.36896
7.23382
7.09521
6.94682
6.78591
6.61022
6.41848
6.21077
5.99015
5.76005
5.50311
1
1
1
1
1
1
1
1
1
1
1
1
1
1
1
1
1
1
1
1
1
1.00002
1.00004
1.00012
1.00035
1.00011
1.00297
1.00632
1.00089
1.0179
1.03631
0.962772
2.07683
2.20078
5.67743
7.46401
7.69266
7.61958
7.46291
7.27471
7.12315
6.98933
6.85281
6.70465
6.54256
6.36781
6.1803
5.97646
5.75871
5.51747
1
1
1
1
1
1
1
1
1
1
1
1
1
1
1
1
1
1
1
1
1.00001
1.00001
1.00005
1.00005
1.00032
1.00032
1.00192
1.00199
1.01032
1.01754
1.05258
1.09513
1.44113
1.52351
3.45184
6.16103
7.30694
7.4331
7.36447
7.20496
7.03129
6.89172
6.76487
6.63254
6.48562
6.32425
6.14915
5.96058
5.76124
5.53742
1
1
1
1
1
1
1
1
1
1
1
1
1
1
1
1
1
1
1
1
1
1.00001
1.00001
1.00001
1.00013
1.00032
1.00041
1.00197
1.00248
1.01093
1.01703
1.07527
1.06132
1.57074
1.56058
3.74641
6.30422
7.14578
7.19571
7.13449
6.98953
6.8349
6.70035
6.57222
6.43972
6.29228
6.12994
5.95518
5.76651
5.55503
1
1
1
1
1
1
1
1
1
1
1
1
1
1
1
1
1
1
1
1
1
1
1.00001
1.00002
1.00008
1.00009
1.00044
1.00047
1.00239
1.00315
1.01317
1.02063
1.08447
1.08616
1.67679
1.69738
3.99531
6.35368
6.98679
7.03211
6.97782
6.85112
6.70766
6.56946
6.43003
6.28466
6.12947
5.9594
5.77869
5.57785
1
1
1
1
1
1
1
1
1
1
1
1
1
1
1
1
1
1
1
1
1
1
1.00001
1.00001
1.00003
1.00004
1.00018
1.00023
1.00079
1.00189
1.00191
1.01016
1.02518
1.05167
1.24214
1.22528
2.49034
4.09099
6.18595
6.84317
6.91739
6.86794
6.74635
6.58799
6.43972
6.29208
6.13669
5.97168
5.8004
5.60858
1
1
1
1
1
1
1
1
1
1
1
1
1
1
1
1
1
1
1
1
1
1
1
1.00001
1.00001
1.00003
1.00004
1.0001
1.00017
1.00032
1.00049
1.00119
0.995879
1.01372
1.03632
1.02146
1.80909
1.95893
4.18374
6.14425
6.73082
6.7944
6.74441
6.63273
6.46808
6.31095
6.15424
5.99304
5.82718
5.64363
1
1
1
1
1
1
1
1
1
1
1
1
1
1
1
1
1
1
1
1
1
1
1
1
1
1.00001
1.00001
1.00006
1.00013
1.00035
1.00111
1.00166
1.00603
1.00863
1.03996
1.05352
1.26186
1.30079
2.42085
4.06983
5.95694
6.57992
6.6777
6.63591
6.53205
6.35875
6.19166
6.03048
5.86757
5.68655
1
1
1
1
1
1
1
1
1
1
1
1
1
1
1
1
1
1
1
1
1
1
1
1
1
1.00001
1.00001
1.00004
1.00004
1.00018
1.00018
1.00111
1.0012
1.00721
1.01046
1.01346
1.04825
1.2521
1.23208
2.42638
3.80958
5.75145
6.4422
6.56908
6.53233
6.43851
6.26809
6.09112
5.91832
5.73991
1
1
1
1
1
1
1
1
1
1
1
1
1
1
1
1
1
1
1
1
1
1
1
1
1
1
1
1.00001
1.00001
1.00005
1.00007
1.0002
1.00082
1.00125
1.0066
1.00957
1.03327
1.05854
1.22912
1.25988
2.25567
3.57683
5.54068
6.3042
6.45256
6.41799
6.31606
6.14565
5.96711
5.78239
1
1
1
1
1
1
1
1
1
1
1
1
1
1
1
1
1
1
1
1
1
1
1
1
1
1
1
1.00001
1.00001
1.00003
1.00004
1.00015
1.00018
1.00075
1.00108
1.00498
1.00408
1.02558
1.02465
0.983997
1.67854
1.68261
3.47835
5.40992
6.15658
6.29526
6.26091
6.15335
5.98184
5.79882
1
1
1
1
1
1
1
1
1
1
1
1
1
1
1
1
1
1
1
1
1
1
1
1
1
1
1
1
1
1.00001
1.00002
1.00007
1.00008
1.00033
1.0003
1.0018
1.0055
1.00488
1.02817
1.04558
1.05284
1.60075
1.6564
3.2554
5.18005
5.92771
6.09934
6.07687
5.98184
5.81099
1
1
1
1
1
1
1
1
1
1
1
1
1
1
1
1
1
1
1
1
1
1
1
1
1
1
1
1
1
1
1
1.00001
1
0.999981
1.00039
1.00091
1.00057
1.00242
1.00475
1.00406
1.0547
1.19013
1.15939
2.05397
2.74814
4.79493
5.65035
5.89051
5.8846
5.82152
1
1
1
1
1
1
1
1
1
1
1
1
1
1
1
1
1
1
1
1
1
1
1
1
1
1
1
1
1
1
1
1.00001
1.00002
1.00007
1.00008
1.0004
1.00043
1.00202
1.00226
1.01067
1.016
1.0698
1.06004
1.45887
1.49882
2.72684
4.19303
5.27855
5.64698
5.70603
1
1
1
1
1
1
1
1
1
1
1
1
1
1
1
1
1
1
1
1
1
1
1
1
1
1
1
1
1
1
1
1
1.00001
1.00001
1.00005
1.00008
1.00028
1.00038
1.00171
1.00162
1.0093
1.01101
1.05583
1.04906
1.35374
1.37119
2.3961
3.5877
4.88976
5.41339
1
1
1
1
1
1
1
1
1
1
1
1
1
1
1
1
1
1
1
1
1
1
1
1
1
1
1
1
1
1
1
1
1
1.00001
1.00001
1.00005
1.00006
1.00027
1.00029
1.00141
1.00191
1.0076
1.01026
1.04123
1.0546
1.24488
1.26457
2.02477
2.96304
4.47517
1
1
1
1
1
1
1
1
1
1
1
1
1
1
1
1
1
1
1
1
1
1
1
1
1
1
1
1
1
1
1
1
1
1
1
1.00002
1.00002
1.00009
1.00011
1.00044
1.00048
1.00191
1.00196
1.00835
1.01675
1.0543
1.02761
1.47756
1.53553
2.55208
1
1
1
1
1
1
1
1
1
1
1
1
1
1
1
1
1
1
1
1
1
1
1
1
1
1
1
1
1
1
1
1
1
1
1
1.00001
1.00001
1.00003
1.00004
1.00016
1.00019
1.00077
1.00117
1.00366
1.00355
1.01801
1.03461
1.02765
1.35199
1.36132
1
1
1
1
1
1
1
1
1
1
1
1
1
1
1
1
1
1
1
1
1
1
1
1
1
1
1
1
1
1
1
1
1
1
1
1
1.00001
1.00001
1.00003
1.00003
1.00013
1.00015
1.00061
1.00089
1.00347
1.00092
1.00799
1.01358
0.987614
1.34906
1
1
1
1
1
1
1
1
1
1
1
1
1
1
1
1
1
1
1
1
1
1
1
1
1
1
1
1
1
1
1
1
1
1
1
1
1
1
1.00002
1.00002
1.00008
1.0001
1.00045
1.00063
1.00261
1.00153
1.00575
1.00986
1.00008
1.15662
1
1
1
1
1
1
1
1
1
1
1
1
1
1
1
1
1
1
1
1
1
1
1
1
1
1
1
1
1
1
1
1
1
1
1
1
1
1
1
1
1.00002
1.00002
1.00009
1.00014
1.00057
1.00008
1.00166
1.00295
0.99798
1.07271
1
1
1
1
1
1
1
1
1
1
1
1
1
1
1
1
1
1
1
1
1
1
1
1
1
1
1
1
1
1
1
1
1
1
1
1
1
1
1
1
0.999999
1
0.999986
1.00002
1.00003
0.999856
1.00175
1.00445
1.00227
1.03593
1
1
1
1
1
1
1
1
1
1
1
1
1
1
1
1
1
1
1
1
1
1
1
1
1
1
1
1
1
1
1
1
1
1
1
1
1
1
1
1
1
1.00001
1.00002
1.00008
1.0001
1.00047
1.00047
1.00261
1.00378
1.00399
1
1
1
1
1
1
1
1
1
1
1
1
1
1
1
1
1
1
1
1
1
1
1
1
1
1
1
1
1
1
1
1
1
1
1
1
1
1
1
1
1
1.00001
1.00001
1.00004
1.00005
1.00025
1.0003
1.00143
1.00205
1.00191
1
1
1
1
1
1
1
1
1
1
1
1
1
1
1
1
1
1
1
1
1
1
1
1
1
1
1
1
1
1
1
1
1
1
1
1
1
1
1
1
1
1
1
1.00002
1.00002
1.00012
1.00012
1.00065
1.00103
1.00109
1
1
1
1
1
1
1
1
1
1
1
1
1
1
1
1
1
1
1
1
1
1
1
1
1
1
1
1
1
1
1
1
1
1
1
1
1
1
1
1
1
1
1
1
1.00001
1
1.00004
1.00006
0.999948
1.00172
1
1
1
1
1
1
1
1
1
1
1
1
1
1
1
1
1
1
1
1
1
1
1
1
1
1
1
1
1
1
1
1
1
1
1
1
1
1
1
1
1
1
1
1
1
0.999998
1.00006
1.00012
1.00009
1.00093
1
1
1
1
1
1
1
1
1
1
1
1
1
1
1
1
1
1
1
1
1
1
1
1
1
1
1
1
1
1
1
1
1
1
1
1
1
1
1
1
1
1
1
1
1
0.999998
1.00003
1.00007
1.00007
1.00055
2.08101
1.01407
0.662976
0.574599
0.593898
0.660399
0.810568
1.00422
1.09778
1.1221
1.12306
1.12567
1.13285
1.14832
1.16965
1.18702
1.19923
1.20684
1.2115
1.21492
1.21714
1.21833
1.21939
1.21942
1.21921
1.21844
1.2166
1.21294
1.20902
1.205
1.20102
1.19686
1.19246
1.18834
1.18441
1.18005
1.17578
1.17154
1.16739
1.16322
1.15891
1.15451
1.15005
1.14548
1.14092
1.13673
1.13454
1.13548
1.13878
1.14726
1.16671
1.2096
1.30057
1.48629
1.85958
2.47855
3.23141
3.93261
4.37322
4.44004
4.41273
4.33971
4.21032
4.11391
4.07281
4.05484
4.01843
3.97887
3.9252
3.8581
3.77122
3.67162
3.58529
3.50604
3.43739
3.37906
3.32855
3.28445
3.24175
3.19718
3.1493
3.09699
3.04202
2.98621
2.93187
2.87949
2.82897
2.78022
2.73366
2.68892
2.64628
2.60484
2.56517
2.52631
2.48859
2.45141
2.4157
2.38081
2.35075
2.32609
2.74307
1.6178
1.16169
0.991266
0.939972
0.927414
0.928213
0.942474
0.977314
1.047
1.11148
1.15302
1.16933
1.1742
1.17908
1.18557
1.1936
1.20186
1.20924
1.21513
1.21896
1.22109
1.22146
1.22132
1.22084
1.21957
1.21706
1.21385
1.21017
1.20618
1.20204
1.19775
1.19338
1.1891
1.18484
1.18061
1.17635
1.17195
1.16775
1.1637
1.15929
1.15486
1.15035
1.14586
1.14157
1.138
1.13852
1.14071
1.14644
1.16096
1.19375
1.26505
1.40799
1.6705
2.02751
2.37792
2.69428
3.03804
3.44707
3.88429
4.2444
4.44332
4.4187
4.35543
4.252
4.06651
3.91482
3.81045
3.74263
3.70557
3.68308
3.66872
3.64055
3.59836
3.536
3.45929
3.37784
3.29882
3.22538
3.15896
3.10048
3.04969
3.00454
2.96142
2.91841
2.87476
2.83083
2.78655
2.74248
2.6986
2.6551
2.61217
2.57004
2.52873
2.48852
2.44918
2.41201
2.37503
2.34683
2.31656
3.55062
2.52114
1.88459
1.47936
1.21867
1.05151
0.946116
0.941738
0.951144
0.978468
1.03557
1.09112
1.13568
1.16341
1.17794
1.18703
1.19393
1.19985
1.20565
1.21073
1.21452
1.21704
1.2183
1.2183
1.21812
1.21758
1.21629
1.2136
1.21013
1.20626
1.20215
1.1979
1.19361
1.18936
1.18517
1.18102
1.17681
1.17259
1.1684
1.16417
1.15974
1.15543
1.15082
1.1469
1.14378
1.1443
1.14676
1.15334
1.16956
1.20656
1.28487
1.44315
1.70861
2.04179
2.24891
2.36835
2.4738
2.59467
2.74958
2.95736
3.24185
3.60832
3.96516
4.22908
4.29234
4.26609
4.19401
4.06317
3.90709
3.75828
3.64943
3.56874
3.50783
3.46482
3.43432
3.40285
3.36323
3.31169
3.25397
3.19477
3.13683
3.08073
3.02619
2.97365
2.92341
2.87544
2.82934
2.78447
2.74037
2.69674
2.65355
2.61092
2.56906
2.528
2.48804
2.44875
2.41172
2.37428
2.34673
2.31471
4.00026
3.09521
2.41042
1.91407
1.57403
1.34353
1.19811
1.09996
1.04298
1.03422
1.039
1.05436
1.08659
1.12332
1.15615
1.18123
1.19739
1.2064
1.21102
1.21395
1.21603
1.21753
1.21841
1.21866
1.21861
1.21828
1.21742
1.21556
1.21236
1.20866
1.20462
1.20037
1.19603
1.19167
1.18736
1.18308
1.17878
1.17448
1.17016
1.16579
1.16136
1.15694
1.15304
1.15066
1.15131
1.15416
1.16253
1.18256
1.22796
1.32148
1.50859
1.814
2.14445
2.28661
2.3523
2.38043
2.39472
2.41062
2.44396
2.5096
2.61008
2.75622
2.95482
3.23349
3.56865
3.87497
4.09999
4.12574
4.09286
4.01205
3.8718
3.71134
3.56462
3.45118
3.36529
3.30635
3.2682
3.23888
3.21126
3.17961
3.1396
3.09154
3.03905
2.98475
2.9306
2.87781
2.82656
2.77725
2.73019
2.68529
2.64232
2.60072
2.56032
2.52063
2.48202
2.44363
2.40747
2.37013
2.34219
2.31075
4.29287
3.51329
2.85608
2.3337
1.9433
1.65595
1.44577
1.29349
1.18008
1.10713
1.06731
1.06674
1.07076
1.08263
1.10736
1.13328
1.15914
1.18125
1.19666
1.20618
1.21158
1.21408
1.21494
1.21491
1.21469
1.21413
1.21305
1.2114
1.20915
1.20638
1.20316
1.19957
1.1957
1.19165
1.18751
1.1833
1.17906
1.17477
1.17044
1.16607
1.16185
1.1578
1.15683
1.15772
1.16141
1.17153
1.19662
1.25064
1.36387
1.58267
1.94418
2.23469
2.35643
2.3958
2.39924
2.3888
2.36501
2.33685
2.31816
2.32045
2.33343
2.3655
2.43408
2.5398
2.68671
2.88489
3.15165
3.45399
3.73964
3.95178
3.95514
3.92194
3.8387
3.70032
3.54801
3.40799
3.29957
3.21821
3.15537
3.1072
3.06857
3.03444
3.0009
2.96451
2.92335
2.87822
2.83146
2.78454
2.73836
2.693
2.6488
2.60552
2.56365
2.52268
2.48333
2.4443
2.40782
2.37017
2.3411
2.3104
4.51616
3.84341
3.23682
2.71863
2.30261
1.97603
1.72423
1.53214
1.38509
1.27586
1.18917
1.13646
1.10481
1.0982
1.10072
1.10846
1.12472
1.14591
1.16701
1.1872
1.2018
1.21136
1.2158
1.21644
1.21618
1.21549
1.21409
1.21193
1.20958
1.2069
1.20404
1.20095
1.19759
1.19391
1.19002
1.18588
1.18164
1.17723
1.17281
1.16859
1.16463
1.16469
1.16599
1.17072
1.18341
1.21463
1.28104
1.41965
1.67004
2.08525
2.32011
2.4211
2.44862
2.44354
2.42259
2.38511
2.34464
2.30346
2.26369
2.23487
2.21237
2.20275
2.20794
2.22553
2.26504
2.33512
2.43467
2.57258
2.76258
3.0131
3.30361
3.57974
3.78267
3.76645
3.72444
3.65065
3.52007
3.37654
3.24356
3.13897
3.05781
2.99288
2.94097
2.89885
2.86327
2.83081
2.79863
2.76456
2.72734
2.68732
2.64607
2.60427
2.56299
2.52178
2.48186
2.44181
2.4044
2.36588
2.33525
2.30489
4.67979
4.09791
3.55169
3.05665
2.63291
2.28336
2.00103
1.77559
1.59621
1.453
1.34103
1.25084
1.18343
1.14241
1.11776
1.11193
1.11375
1.11947
1.13147
1.14794
1.1653
1.18321
1.19715
1.20495
1.20988
1.21046
1.21018
1.20926
1.20724
1.20429
1.20126
1.19812
1.19496
1.19167
1.18821
1.18459
1.18069
1.17662
1.17272
1.1692
1.16962
1.17167
1.1781
1.19397
1.23177
1.31241
1.47921
1.78114
2.21683
2.40565
2.47871
2.49653
2.48811
2.46292
2.42055
2.37494
2.32817
2.28236
2.23794
2.19634
2.15824
2.12794
2.10611
2.09008
2.08756
2.09332
2.11156
2.15178
2.21948
2.31516
2.4509
2.63721
2.88677
3.16242
3.43562
3.61878
3.60237
3.5611
3.48723
3.36924
3.23519
3.10661
3.00182
2.91944
2.85466
2.80102
2.75661
2.71802
2.68409
2.65261
2.62132
2.58826
2.55312
2.51573
2.47814
2.43962
2.40317
2.36547
2.33442
2.30425
4.81033
4.28877
3.79428
3.33126
2.91748
2.56187
2.26295
2.01572
1.81252
1.64638
1.51082
1.40062
1.31161
1.23827
1.18588
1.15112
1.13004
1.12247
1.12353
1.12741
1.13599
1.14954
1.16519
1.18144
1.19387
1.20135
1.20618
1.20639
1.20603
1.2049
1.20246
1.19897
1.19541
1.19191
1.18826
1.18482
1.18096
1.178
1.17572
1.17638
1.17905
1.18725
1.20757
1.25389
1.35136
1.54857
1.92131
2.31728
2.48322
2.53235
2.54063
2.52904
2.50038
2.45749
2.40773
2.35743
2.30859
2.26139
2.21622
2.1726
2.13171
2.09462
2.05989
2.02877
2.00439
1.98564
1.9727
1.9732
1.98019
1.99873
2.03945
2.106
2.19906
2.32751
2.50448
2.73174
2.99465
3.25001
3.43516
3.42035
3.38332
3.31707
3.21617
3.09397
2.97171
2.86726
2.78706
2.7219
2.6687
2.62199
2.58176
2.54546
2.51326
2.48265
2.45276
2.42138
2.39019
2.35633
2.32714
2.29929
4.90497
4.44631
3.99473
3.55893
3.16113
2.8089
2.5041
2.24438
2.02526
1.84116
1.68694
1.55783
1.44994
1.36037
1.28534
1.22443
1.18149
1.15205
1.13509
1.12725
1.12788
1.13071
1.13712
1.14946
1.16247
1.17632
1.18716
1.19395
1.19824
1.19842
1.19804
1.19682
1.19423
1.1904
1.18668
1.1828
1.17941
1.17822
1.1791
1.18263
1.19298
1.21765
1.273
1.3888
1.61657
2.06738
2.39956
2.54558
2.58607
2.5839
2.56678
2.53401
2.48719
2.43685
2.38435
2.33365
2.2853
2.23875
2.19418
2.1526
2.11203
2.07263
2.03487
1.99911
1.96613
1.93592
1.91025
1.88931
1.87399
1.86303
1.86446
1.87209
1.88973
1.92719
1.98792
2.07002
2.18628
2.34032
2.55452
2.79571
3.04978
3.23832
3.23755
3.21188
3.15107
3.0667
2.96029
2.84778
2.74626
2.66517
2.6006
2.54623
2.4999
2.45793
2.42114
2.38671
2.35624
2.32701
2.3028
2.2819
4.98526
4.56798
4.15648
3.75351
3.37445
3.03061
2.72596
2.45984
2.23004
2.03253
1.86385
1.71967
1.59703
1.4927
1.40362
1.32943
1.26549
1.21579
1.17871
1.15386
1.13713
1.1298
1.13035
1.13264
1.1379
1.14857
1.16034
1.17236
1.1821
1.18847
1.19183
1.19184
1.19141
1.19019
1.18755
1.18378
1.18253
1.18367
1.18805
1.20039
1.23014
1.29676
1.4363
1.70343
2.21799
2.49063
2.60094
2.63306
2.62811
2.60736
2.566
2.51632
2.46267
2.40912
2.35712
2.30744
2.25999
2.21629
2.17357
2.13203
2.09171
2.05288
2.0155
1.97949
1.94485
1.91173
1.88043
1.85121
1.8244
1.80114
1.78261
1.76827
1.75813
1.75886
1.76484
1.77937
1.80978
1.86331
1.9371
2.03823
2.18222
2.36931
2.61109
2.85282
3.04331
3.07257
3.04989
2.99095
2.9234
2.83394
2.735
2.63756
2.55394
2.4873
2.43321
2.38587
2.3455
2.30654
2.27814
2.25172
5.0516
4.67237
4.29627
3.92149
3.56167
3.22884
2.92781
2.65987
2.42393
2.21738
2.0376
1.88152
1.74655
1.62951
1.5283
1.44078
1.36562
1.30076
1.24612
1.20426
1.17241
1.15033
1.13592
1.13021
1.13067
1.13256
1.13732
1.14682
1.15725
1.16763
1.17597
1.18133
1.18395
1.1845
1.18457
1.18493
1.18663
1.19216
1.20676
1.24169
1.31965
1.48338
1.8177
2.35711
2.5782
2.65713
2.67756
2.6698
2.64533
2.60039
2.54466
2.48814
2.43286
2.37956
2.32864
2.28174
2.23655
2.19297
2.15088
2.11041
2.07136
2.03363
1.99704
1.96149
1.927
1.89352
1.86118
1.82994
1.8001
1.7716
1.74494
1.72015
1.69848
1.6806
1.66691
1.65681
1.65434
1.65858
1.67063
1.69503
1.74128
1.80563
1.89843
2.02099
2.19392
2.40554
2.64303
2.82682
2.90664
2.88621
2.83524
2.78349
2.71101
2.62478
2.53701
2.45334
2.38614
2.32777
2.28995
2.24949
5.10898
4.75572
4.40895
4.06281
3.72519
3.40618
3.11144
2.84417
2.60497
2.39256
2.20499
2.03974
1.89462
1.76724
1.6555
1.55753
1.4719
1.3968
1.33199
1.27532
1.22874
1.19237
1.1648
1.14586
1.13392
1.12949
1.12994
1.13187
1.13618
1.14483
1.15409
1.16303
1.17046
1.17502
1.17947
1.18385
1.19346
1.21242
1.25776
1.34753
1.54455
1.93692
2.45979
2.65781
2.71095
2.72048
2.71001
2.68232
2.6339
2.57549
2.5153
2.45763
2.40263
2.35208
2.3036
2.25716
2.21244
2.16989
2.12899
2.08965
2.05149
2.01448
1.97851
1.94351
1.90949
1.87631
1.84407
1.8126
1.7821
1.75238
1.72377
1.69606
1.6698
1.64471
1.62166
1.6004
1.58291
1.56885
1.55912
1.55403
1.55693
1.56602
1.5846
1.62055
1.67741
1.75253
1.86017
1.99987
2.19062
2.40558
2.59823
2.72554
2.71471
2.68766
2.64169
2.58418
2.51858
2.43598
2.37499
2.29572
5.16038
4.83187
4.5091
4.18308
3.86386
3.55907
3.27399
3.01137
2.7722
2.55651
2.36327
2.19102
2.03795
1.9022
1.78185
1.6752
1.58079
1.49721
1.42335
1.35845
1.30154
1.25173
1.21189
1.18073
1.1573
1.14153
1.13155
1.12823
1.12872
1.13045
1.13442
1.14189
1.15062
1.15966
1.1705
1.18377
1.20998
1.26299
1.37338
1.59472
2.04933
2.53248
2.72069
2.76253
2.76035
2.74601
2.7166
2.6666
2.60615
2.54369
2.48352
2.42775
2.37566
2.32623
2.2787
2.2335
2.19021
2.14876
2.10863
2.06982
2.03209
1.99548
1.9599
1.92528
1.89162
1.85874
1.82677
1.79546
1.76503
1.73519
1.70626
1.6779
1.65052
1.62375
1.59813
1.57329
1.54992
1.52765
1.50749
1.48921
1.47528
1.46463
1.4577
1.45891
1.4646
1.47726
1.50324
1.54822
1.61166
1.69584
1.81905
1.96946
2.17516
2.36319
2.51951
2.55941
2.54221
2.50444
2.46493
2.41884
5.19924
4.8927
4.5926
4.28758
3.98554
3.69379
3.41747
3.15983
2.92252
2.70602
2.50987
2.33312
2.17446
2.03236
1.90526
1.79161
1.69006
1.59939
1.5184
1.4464
1.3823
1.32614
1.27633
1.23239
1.19819
1.17131
1.15114
1.13765
1.12893
1.12691
1.12773
1.13042
1.13646
1.14849
1.16643
1.19759
1.25946
1.3867
1.6292
2.12339
2.58342
2.75886
2.79665
2.79307
2.77864
2.74651
2.69354
2.63116
2.56759
2.50682
2.45053
2.39824
2.34875
2.30153
2.25606
2.21231
2.16994
2.12897
2.08914
2.05052
2.01299
1.97655
1.94116
1.90671
1.87323
1.84052
1.80874
1.77759
1.74733
1.7176
1.68876
1.66035
1.63283
1.60569
1.57948
1.55364
1.52882
1.50444
1.48125
1.45875
1.43778
1.41797
1.40024
1.38541
1.37443
1.36646
1.36457
1.36743
1.37633
1.39402
1.42753
1.47727
1.54692
1.6452
1.76929
1.94617
2.12998
2.30388
2.39726
2.43368
5.23464
4.94399
4.6618
4.37509
4.08867
3.80949
3.54254
3.29131
3.05762
2.84229
2.64529
2.46609
2.30376
2.15712
2.02493
1.90582
1.7986
1.7021
1.61527
1.53724
1.46715
1.40462
1.34839
1.2997
1.25557
1.21711
1.18704
1.163
1.14603
1.13268
1.13066
1.1323
1.13782
1.15289
1.18256
1.2498
1.38252
1.6408
2.14976
2.59748
2.77513
2.81231
2.81017
2.79789
2.7665
2.70571
2.64187
2.57957
2.52127
2.46713
2.41664
2.36875
2.32261
2.27775
2.23392
2.19119
2.1495
2.10895
2.06944
2.03104
1.99367
1.95734
1.92203
1.88763
1.85421
1.82157
1.78986
1.7588
1.72865
1.69901
1.67027
1.64192
1.61447
1.58733
1.56108
1.53508
1.50999
1.48513
1.46122
1.4376
1.41503
1.3929
1.37205
1.35193
1.33348
1.31632
1.30153
1.28994
1.2818
1.27682
1.27807
1.2839
1.2949
1.31755
1.35572
1.41145
1.48664
1.59509
1.73074
1.9973
5.27204
4.99227
4.72173
4.45037
4.17825
3.91125
3.654
3.40989
3.18082
2.96793
2.77144
2.59125
2.42671
2.27699
2.14103
2.01774
1.90596
1.8047
1.71297
1.62989
1.55466
1.48682
1.42533
1.37048
1.3208
1.27733
1.23829
1.20392
1.17825
1.1555
1.1502
1.15286
1.16393
1.18969
1.25471
1.38382
1.64994
2.15407
2.60067
2.77532
2.81766
2.81491
2.80033
2.76342
2.69514
2.63186
2.57433
2.52166
2.47259
2.42595
2.381
2.33709
2.29383
2.25108
2.2089
2.16747
2.12685
2.08713
2.04826
2.01031
1.97328
1.93717
1.90201
1.86771
1.83435
1.80177
1.77008
1.73907
1.70893
1.67935
1.65064
1.62236
1.59497
1.56791
1.54173
1.51581
1.49077
1.46595
1.44202
1.41829
1.3955
1.37295
1.3514
1.33019
1.31011
1.29054
1.27232
1.25486
1.23916
1.22458
1.21307
1.20402
1.19803
1.19671
1.19914
1.20681
1.22105
1.25088
1.29353
1.3868
5.30577
5.03781
4.77779
4.51681
4.25746
4.00227
3.75485
3.51829
3.29461
3.08507
2.89022
2.71014
2.54454
2.39282
2.25411
2.12754
2.01212
1.90687
1.81098
1.72357
1.64387
1.57147
1.50528
1.44541
1.39084
1.34164
1.29743
1.2574
1.22464
1.19485
1.19522
1.20167
1.22529
1.28204
1.41355
1.67746
2.17436
2.62335
2.79002
2.8303
2.82156
2.79563
2.74139
2.67084
2.60902
2.55557
2.50861
2.46461
2.42221
2.38071
2.33976
2.29909
2.2586
2.21832
2.1784
2.13897