/*--------------------------------*- C++ -*----------------------------------*\
| =========                 |                                                 |
| \\      /  F ield         | OpenFOAM: The Open Source CFD Toolbox           |
|  \\    /   O peration     | Version:  2412                                  |
|   \\  /    A nd           | Website:  www.openfoam.com                      |
|    \\/     M anipulation  |                                                 |
\*---------------------------------------------------------------------------*/
FoamFile
{
    version     2.0;
    format      ascii;
    arch        "LSB;label=32;scalar=64";
    class       surfaceScalarField;
    location    "1.5";
    object      phi;
}
// * * * * * * * * * * * * * * * * * * * * * * * * * * * * * * * * * * * * * //

dimensions      [1 0 -1 0 0 0 0];

oriented        oriented;

internalField   nonuniform List<scalar> 
13790
(
0.00290515
-3.11942e-14
0.00290515
-6.12177e-14
0.00290515
-1.57727e-13
0.00290515
3.83648e-14
0.00290515
-1.63873e-12
0.00290515
2.09518e-12
0.00290515
-5.87986e-12
0.00290515
1.0392e-11
0.00290515
-1.36922e-11
0.00290515
4.95396e-11
0.00290515
7.69063e-11
0.00290515
1.38067e-09
0.00290515
3.72139e-09
0.00290514
9.39082e-09
0.00290511
2.47108e-08
0.00290513
4.3547e-08
0.00290503
1.28499e-07
0.0029047
1.14641e-07
0.00290364
1.64328e-07
0.00290234
2.23794e-07
0.00290253
4.05959e-07
0.00289331
1.23146e-06
0.0028867
1.94998e-06
0.00288583
2.41204e-06
0.00287051
6.45104e-06
0.00279257
2.84864e-05
0.0026665
7.56097e-05
0.00257263
0.000104083
0.00246445
0.000127407
0.00232647
0.000143534
0.00217681
0.000149096
0.00202706
0.000143517
0.00188389
0.000133526
0.00174743
0.000122212
0.00162754
0.000111105
0.00152036
0.000102684
0.00141894
9.72293e-05
0.00131989
9.42413e-05
0.00122374
9.31562e-05
0.0011297
9.37454e-05
0.00103421
9.5934e-05
0.000932585
9.95979e-05
0.000819745
0.000104434
0.000707782
0.000111585
0.000594248
0.00012055
0.000479414
0.000127711
0.000362981
0.000127763
0.000250035
0.0001228
0.000136764
0.000124952
0.000146805
0.00301309
-3.46063e-14
0.00301309
-2.04988e-14
0.00301309
-3.29372e-13
0.00301309
-5.29096e-13
0.00301309
-1.75795e-12
0.00301309
-1.42697e-12
0.00301309
-5.43132e-12
0.00301309
-7.24097e-12
0.00301309
-1.54906e-11
0.00301309
-1.98103e-11
0.00301309
9.41982e-12
0.0030131
3.18727e-10
0.0030131
1.32299e-09
0.0030131
7.16592e-09
0.00301312
2.71639e-08
0.0030131
6.27709e-08
0.00301287
4.34962e-07
0.00301277
-5.89913e-08
0.00301159
2.20389e-07
0.0030107
1.81244e-07
0.00300966
8.33299e-07
0.00300238
2.12104e-06
0.00299876
2.98834e-06
0.00299942
3.69575e-06
0.00298215
1.33734e-05
0.00290208
4.87886e-05
0.00276171
0.000158957
0.00265615
0.000218924
0.00254333
0.000262609
0.00240847
0.000286957
0.00226725
0.000293398
0.00212443
0.000280938
0.00198368
0.0002649
0.00184417
0.0002457
0.00171699
0.000227598
0.00160104
0.000212953
0.00149138
0.000202371
0.00138541
0.000195334
0.00128397
0.000191542
0.00118615
0.000191302
0.00108779
0.000194879
0.000983502
0.000202217
0.000867203
0.000212168
0.000752208
0.000225837
0.000636645
0.00024318
0.00051915
0.000258485
0.000394796
0.000264005
0.000267055
0.0002608
0.000137953
0.000266049
0.000294921
0.00312505
-1.59646e-14
0.00312505
-4.0608e-14
0.00312505
-1.37678e-13
0.00312505
-2.90784e-13
0.00312505
-1.09502e-12
0.00312505
-2.03777e-12
0.00312505
-4.86785e-12
0.00312505
-9.25671e-12
0.00312505
-1.01333e-11
0.00312505
-5.03961e-12
0.00312505
1.59303e-10
0.00312505
-3.95848e-10
0.00312506
-2.107e-09
0.00312504
1.57587e-09
0.00312512
-4.98487e-10
0.00312509
6.24249e-09
0.00312549
1.86344e-08
0.00312545
2.20117e-09
0.00312377
4.71393e-08
0.00312448
-9.29253e-09
0.0031213
6.01364e-07
0.00311663
1.97008e-06
0.00311268
3.20268e-06
0.00311055
4.19086e-06
0.00309138
1.85667e-05
0.00301475
5.5072e-05
0.00286524
0.000251352
0.00274132
0.000352099
0.00261599
0.000410972
0.00247529
0.000436329
0.00233239
0.000438012
0.0021895
0.000417014
0.00205109
0.000392557
0.00191585
0.000364813
0.00179176
0.000340427
0.00167675
0.000321872
0.00156543
0.000309139
0.00145514
0.000300822
0.00134752
0.000296187
0.0012429
0.000295822
0.00113818
0.000300323
0.00102883
0.000309942
0.000908563
0.000323669
0.000790584
0.000342811
0.000672824
0.000367959
0.000552509
0.000392448
0.00042194
0.000406939
0.000283506
0.000409912
0.000143046
0.000418746
0.000447883
0.00324116
-6.82961e-15
0.00324116
-8.52047e-15
0.00324116
-4.23011e-14
0.00324116
-3.30582e-14
0.00324116
-3.24808e-13
0.00324116
-7.5253e-13
0.00324116
-3.47799e-12
0.00324116
-2.72738e-12
0.00324116
-2.81755e-11
0.00324116
-4.91232e-11
0.00324116
-2.6917e-10
0.00324116
-6.91614e-10
0.00324115
-1.86776e-10
0.00324119
-9.05254e-09
0.00324118
-1.04238e-08
0.00324134
-3.40513e-08
0.0032416
-3.71119e-07
0.00324138
8.142e-08
0.00324018
-1.46276e-07
0.0032422
-2.01851e-07
0.00323754
5.37269e-07
0.00323103
1.91611e-06
0.00322546
3.45818e-06
0.00322272
4.71415e-06
0.00320346
2.25716e-05
0.00311453
6.93755e-05
0.00295228
0.000358917
0.00281596
0.000496731
0.00268694
0.000559508
0.00254625
0.000581599
0.0024059
0.000576796
0.00226627
0.000548989
0.00212972
0.000517248
0.00199618
0.000483309
0.00187173
0.00045423
0.00175472
0.000433011
0.00164024
0.000419041
0.00152599
0.000410011
0.00141408
0.000404966
0.00130511
0.000404847
0.00119591
0.000410557
0.00108205
0.000422596
0.00095689
0.000440062
0.00083402
0.000464516
0.000711576
0.000497564
0.000586068
0.000532031
0.000448597
0.000557271
0.000300862
0.000568657
0.000150346
0.000581642
0.00060785
0.00336158
2.59185e-14
0.00336158
-4.62557e-14
0.00336158
9.27432e-14
0.00336158
1.81656e-13
0.00336158
9.5884e-14
0.00336158
-7.88423e-13
0.00336158
-1.41193e-12
0.00336158
-1.47373e-12
0.00336158
-2.68025e-11
0.00336158
-4.31196e-11
0.00336158
-2.26227e-10
0.00336158
-6.09589e-10
0.00336159
-1.56375e-09
0.00336156
-2.98892e-09
0.0033616
-1.2981e-08
0.00336149
-1.75831e-08
0.00336113
-7.42706e-08
0.00336139
-1.5915e-07
0.0033617
-3.69008e-07
0.00336348
-5.24189e-07
0.00335799
9.20381e-07
0.00334995
2.84633e-06
0.00334094
5.03777e-06
0.00333411
8.07211e-06
0.00331964
2.28338e-05
0.00320841
0.000102054
0.0030388
0.000476464
0.00289568
0.00064812
0.00276534
0.000707287
0.00262628
0.000724746
0.00248905
0.000713038
0.00235204
0.000679067
0.00221535
0.000640576
0.00208142
0.000600793
0.00195624
0.000568045
0.00183812
0.000544952
0.00172191
0.000530468
0.0016053
0.000521495
0.00149047
0.000516842
0.00137805
0.000517756
0.00126469
0.000525521
0.00114597
0.000540934
0.00101439
0.000562936
0.000884519
0.000592899
0.000755096
0.000634234
0.000622271
0.000679315
0.000476538
0.000716243
0.000319724
0.00073667
0.000159343
0.000754485
0.000776443
0.00348648
-4.05185e-14
0.00348648
1.47542e-14
0.00348648
-2.5762e-13
0.00348648
-4.78702e-13
0.00348648
-1.65172e-12
0.00348648
-1.7648e-12
0.00348648
-1.22875e-11
0.00348648
-2.05202e-11
0.00348648
-6.15543e-11
0.00348648
-1.09818e-10
0.00348648
-3.19763e-10
0.00348648
-6.92199e-10
0.00348649
-2.23256e-09
0.00348647
-2.07669e-09
0.00348652
-2.06303e-08
0.00348633
-3.11498e-09
0.00348607
2.15311e-08
0.00348647
-2.96859e-07
0.00348774
-6.69902e-07
0.00348892
-1.0792e-06
0.00348527
-3.67034e-07
0.00347828
8.28837e-07
0.00345552
4.84711e-06
0.00344986
9.18177e-06
0.00345052
1.64938e-05
0.00333573
0.000121211
0.00318213
0.000589227
0.00303267
0.000816572
0.00288452
0.000873256
0.00272733
0.000879451
0.00257851
0.000854899
0.002437
0.00081012
0.00229938
0.000762757
0.00216799
0.000716306
0.00204533
0.000679683
0.00192873
0.00065553
0.00181272
0.000641772
0.00169506
0.000634222
0.001578
0.000631304
0.00146228
0.000634546
0.00134443
0.00064566
0.00122013
0.000665744
0.001081
0.000693319
0.000942518
0.000729484
0.000804418
0.000779688
0.000662668
0.000835868
0.000507629
0.000884806
0.00034055
0.000915089
0.000169667
0.00093778
0.000954668
0.00361602
-5.2133e-15
0.00361602
-1.19794e-14
0.00361602
-1.29434e-13
0.00361602
-2.16838e-13
0.00361602
-1.00927e-12
0.00361602
-1.77851e-12
0.00361602
-6.83765e-12
0.00361602
-1.42151e-11
0.00361602
-4.69272e-11
0.00361602
-7.36401e-11
0.00361602
-2.9433e-10
0.00361602
-3.55168e-10
0.00361603
-2.05275e-09
0.00361604
-5.37859e-09
0.00361608
-1.2802e-08
0.00361603
-4.64706e-08
0.0036158
-5.27529e-08
0.0036168
-3.42864e-07
0.00361846
-8.99138e-07
0.00362015
-1.32575e-06
0.00362522
-2.87796e-06
0.00360934
-2.15844e-06
0.00357442
2.49811e-06
0.00358123
6.6877e-06
0.00360213
1.22925e-05
0.00347608
0.00013861
0.00329947
0.000743003
0.00313638
0.00100561
0.00298531
0.00104649
0.00282806
0.00103402
0.00268265
0.000993029
0.002545
0.000937855
0.00240922
0.000883312
0.00227864
0.00083229
0.00215497
0.000793199
0.00203632
0.00076863
0.00191775
0.000755818
0.00179713
0.00075002
0.0016766
0.000749449
0.00155679
0.000755878
0.00143401
0.000771392
0.00130387
0.000797388
0.00115678
0.000831951
0.00100873
0.000875212
0.000860749
0.000935044
0.000708631
0.00100309
0.000542639
0.00106452
0.000364428
0.00110457
0.000181601
0.00113293
0.00114411
0.00375038
-5.05046e-15
0.00375038
-1.32135e-14
0.00375038
-3.02204e-14
0.00375038
-4.76028e-14
0.00375038
-4.23149e-13
0.00375038
-6.44742e-13
0.00375038
-3.15064e-12
0.00375038
-9.6759e-12
0.00375038
-2.06847e-11
0.00375038
-5.15138e-11
0.00375038
-1.73883e-10
0.00375038
-1.69728e-10
0.00375038
-2.16864e-09
0.00375038
-6.51494e-09
0.00375044
-1.47698e-08
0.0037504
-4.31245e-08
0.00375015
-3.49831e-08
0.00375108
-3.29703e-07
0.00375183
-4.51843e-07
0.00375068
-1.06174e-06
0.00377534
-1.16447e-06
0.00371374
-2.80041e-06
0.00372123
-3.47431e-06
0.00379437
-3.9842e-06
0.00379109
3.7637e-05
0.00370634
8.23353e-05
0.0034462
0.000984322
0.00325451
0.0012332
0.00308993
0.00123368
0.00293357
0.00118913
0.00279592
0.00112571
0.00266557
0.00105795
0.00253441
0.000997353
0.00240738
0.000945168
0.00228476
0.000906497
0.00216455
0.000883509
0.00204278
0.000873103
0.00191797
0.000870117
0.00179242
0.000872765
0.00166695
0.000883245
0.00153787
0.00090413
0.00140056
0.000937093
0.0012444
0.000979808
0.00108543
0.00103157
0.000926195
0.00110177
0.000762261
0.00118245
0.000583726
0.00125711
0.000392187
0.00130734
0.000195662
0.00134136
0.00134674
0.00388972
6.17936e-15
0.00388972
1.94739e-14
0.00388972
5.97908e-15
0.00388972
4.19939e-14
0.00388972
-1.04421e-13
0.00388972
-1.29682e-13
0.00388972
-2.70739e-12
0.00388972
-6.54351e-13
0.00388972
-2.94628e-11
0.00388972
-4.02979e-11
0.00388972
-2.27042e-10
0.00388972
-5.00942e-10
0.00388972
-1.1933e-09
0.00388972
-3.84328e-11
0.00388969
-1.12811e-08
0.00388986
-2.2913e-08
0.00389022
-8.55427e-08
0.00388992
-2.66194e-07
0.00389411
-9.1532e-07
0.00389012
-1.48709e-06
0.00390178
-4.78748e-06
0.00389828
-6.55329e-06
0.00387153
-4.64454e-06
0.00387463
-7.08221e-06
0.00389023
2.45033e-05
0.0036628
0.000177781
0.00345833
0.00113102
0.00330645
0.00143312
0.00317618
0.00140348
0.00303971
0.00133049
0.00291967
0.00124316
0.00280129
0.00116406
0.00267833
0.00110213
0.00255632
0.00105344
0.00243571
0.00101819
0.00231549
0.000998989
0.00219179
0.000992931
0.00206287
0.000994519
0.00193147
0.0010019
0.001799
0.0010178
0.001662
0.0010454
0.00151575
0.00108649
0.00134914
0.001139
0.0011767
0.00120085
0.00100381
0.00128248
0.00082562
0.00137642
0.000632145
0.00146463
0.000425026
0.00152526
0.000212312
0.00156519
0.00156505
0.00403424
8.4989e-15
0.00403424
1.15085e-14
0.00403424
6.69625e-14
0.00403424
1.04443e-13
0.00403424
2.21999e-13
0.00403424
4.17292e-13
0.00403424
2.14995e-13
0.00403424
9.77108e-13
0.00403424
-6.62527e-12
0.00403424
-1.50729e-11
0.00403424
-1.37358e-10
0.00403425
-2.23966e-10
0.00403425
-1.05951e-09
0.00403425
-1.03396e-09
0.00403427
-6.74794e-09
0.00403423
-1.35347e-08
0.00403428
-4.71907e-08
0.00403481
-2.37127e-07
0.00403718
-5.56094e-07
0.00403023
-1.24023e-06
0.00406347
-6.35332e-06
0.00400763
-9.32696e-06
0.0040406
-1.01107e-05
0.00415622
-3.06838e-05
0.00407991
4.16292e-05
0.00392017
0.000209101
0.00364442
0.00128978
0.00345737
0.00167598
0.00330912
0.00160124
0.00317812
0.00147087
0.00306951
0.00135101
0.00296123
0.00125589
0.00284534
0.00119996
0.00272912
0.00115759
0.00261143
0.00112836
0.00249213
0.00111452
0.00236799
0.00111417
0.00223633
0.00112226
0.00209933
0.00113661
0.00195919
0.00116017
0.00181286
0.0011968
0.00165534
0.00124816
0.00147624
0.00131215
0.00128739
0.00138596
0.00109772
0.00148009
0.000901845
0.00158828
0.000690576
0.00169054
0.000464268
0.00176223
0.00023229
0.00180778
0.00180217
0.00418414
1.44752e-14
0.00418414
2.47702e-14
0.00418414
9.57207e-14
0.00418414
1.73451e-13
0.00418414
4.67798e-13
0.00418414
8.65694e-13
0.00418414
1.77524e-12
0.00418414
3.57508e-12
0.00418414
2.45682e-12
0.00418414
1.00065e-11
0.00418414
-3.23845e-11
0.00418414
-8.82183e-11
0.00418414
-4.74673e-10
0.00418413
-6.96314e-10
0.00418418
-4.90955e-09
0.00418402
-6.52734e-10
0.00418427
-5.70894e-08
0.00418423
3.52494e-08
0.00418326
-4.75888e-07
0.00418969
-4.91262e-07
0.00420126
-4.77421e-06
0.00417161
-1.00372e-05
0.00420519
-2.39596e-05
0.00449252
-3.49728e-05
0.00422762
5.68823e-05
0.00420457
0.000153783
0.00380685
0.00151706
0.00358789
0.00194457
0.00344089
0.00180397
0.00333602
0.00159234
0.00324544
0.00144523
0.00315056
0.00133496
0.00304594
0.00128714
0.00293608
0.0012569
0.00282078
0.0012371
0.00270215
0.00123025
0.00257781
0.00123679
0.00244422
0.00125302
0.00230229
0.00127669
0.00215415
0.00131079
0.0019971
0.00135962
0.00182599
0.00142472
0.00163113
0.00150362
0.00142082
0.00159034
0.0012106
0.00169732
0.000993406
0.00182045
0.00076089
0.00193783
0.00051227
0.00202054
0.000256286
0.00207375
0.00206211
0.0043396
1.57865e-14
0.0043396
3.30771e-14
0.0043396
1.20264e-13
0.0043396
2.21867e-13
0.0043396
6.77151e-13
0.0043396
1.21637e-12
0.0043396
3.31959e-12
0.0043396
6.04254e-12
0.0043396
1.41168e-11
0.0043396
2.33645e-11
0.0043396
3.71692e-11
0.0043396
1.21872e-10
0.0043396
-1.47843e-11
0.0043396
1.48868e-10
0.00433961
-2.0429e-09
0.00433959
3.44508e-09
0.0043396
-2.01739e-08
0.00433968
1.67516e-08
0.0043399
-1.28068e-07
0.00433523
-2.10314e-08
0.0043559
-1.6755e-06
0.00426879
1.76137e-07
0.00442931
-9.54408e-06
0.00470828
-3.79537e-05
0.00439599
9.08559e-05
0.00435235
0.00017674
0.00395169
0.00162033
0.0037548
0.00219219
0.00361936
0.00199998
0.00354898
0.00168462
0.00347311
0.00152213
0.00338712
0.00140446
0.00328964
0.00136859
0.00318407
0.00135366
0.00307121
0.00134565
0.00295387
0.00134684
0.00282938
0.0013613
0.00269297
0.00138718
0.00254475
0.00142254
0.00238704
0.00147035
0.00221736
0.00153514
0.00203042
0.00161804
0.00181708
0.00171575
0.00158073
0.00181831
0.00134519
0.00193843
0.00110196
0.00207722
0.000844375
0.00221001
0.000568874
0.00230489
0.000285233
0.00236601
0.0023493
0.00450084
2.11495e-14
0.00450084
4.42642e-14
0.00450084
1.49108e-13
0.00450084
2.77538e-13
0.00450084
9.19547e-13
0.00450084
1.59126e-12
0.00450084
5.11755e-12
0.00450084
8.70094e-12
0.00450084
2.66637e-11
0.00450084
5.01273e-11
0.00450084
1.42909e-10
0.00450083
1.89605e-10
0.00450084
6.38901e-10
0.00450083
9.58891e-10
0.00450083
2.18982e-09
0.00450083
3.10235e-09
0.00450085
-8.7636e-10
0.00450117
1.99673e-08
0.00450064
-3.788e-09
0.00450116
2.35541e-08
0.00450033
-1.2015e-07
0.00451638
-6.33506e-07
0.0044971
1.81816e-06
0.00447994
-8.54762e-06
0.00450042
9.18203e-05
0.00446723
0.000147449
0.00421841
0.00162825
0.00403719
0.00240635
0.00390419
0.00217195
0.0038361
0.0017798
0.00375849
0.00159064
0.00367195
0.00147686
0.00358125
0.00144939
0.00347826
0.00145141
0.00336679
0.00145503
0.00324926
0.00146443
0.00312289
0.00148761
0.00298201
0.00152503
0.00282534
0.00157519
0.00265539
0.00164045
0.00247056
0.00172513
0.00226559
0.0018297
0.00203203
0.00194998
0.00176721
0.00207231
0.00150261
0.00220665
0.00122991
0.00236148
0.000943597
0.00251165
0.000637497
0.00262056
0.000320128
0.00269125
0.00266951
0.00466806
2.26484e-14
0.00466806
4.55191e-14
0.00466806
1.70445e-13
0.00466806
2.83193e-13
0.00466806
8.76135e-13
0.00466806
1.70434e-12
0.00466806
4.7731e-12
0.00466806
7.64934e-12
0.00466806
2.60147e-11
0.00466806
5.41677e-11
0.00466806
1.43143e-10
0.00466806
3.02293e-10
0.00466806
7.63751e-10
0.00466806
1.40486e-09
0.00466806
4.33822e-09
0.00466805
7.42888e-09
0.00466801
2.31456e-08
0.00466805
3.94178e-08
0.0046682
9.84772e-08
0.00466766
1.51824e-07
0.00466881
2.89273e-07
0.00465887
1.72666e-06
0.0046394
2.80189e-06
0.00469399
-2.19822e-06
0.00462882
8.12341e-05
0.00473524
0.000119919
0.00464706
0.00135944
0.0043808
0.00264464
0.00426706
0.00229563
0.00416707
0.00190639
0.00408285
0.0016679
0.00399397
0.00156808
0.00391289
0.00152397
0.00381366
0.00154493
0.0037036
0.00156143
0.00358414
0.0015823
0.00345259
0.00161724
0.00330316
0.00166962
0.00313431
0.00173818
0.00294894
0.00182454
0.00274644
0.0019322
0.00252203
0.00206087
0.00226822
0.0022064
0.0019757
0.0023524
0.00168099
0.00250185
0.00137779
0.00267367
0.00105986
0.00284389
0.000717797
0.00297152
0.000361566
0.00305331
0.00302889
0.00484151
4.07735e-14
0.00484151
6.46708e-14
0.00484151
1.617e-13
0.00484151
3.06217e-13
0.00484151
8.75058e-13
0.00484151
1.57352e-12
0.00484151
4.97686e-12
0.00484151
9.41605e-12
0.00484151
2.66812e-11
0.00484151
4.00376e-11
0.00484151
1.52992e-10
0.00484151
2.05096e-10
0.0048415
1.00627e-09
0.00484151
1.10513e-09
0.0048415
6.43339e-09
0.0048415
9.34343e-09
0.00484146
4.19e-08
0.00484139
3.65727e-08
0.00484136
2.20782e-07
0.0048409
3.59934e-07
0.00484187
1.03596e-06
0.0048263
2.2863e-06
0.00485232
5.03864e-06
0.00459556
-8.79011e-07
0.00479183
6.55967e-05
0.00476627
7.61096e-05
0.00511929
0.000942209
0.00475417
0.00278004
0.00459449
0.00245748
0.00450373
0.00202567
0.0044453
0.00174467
0.00436696
0.00164664
0.00428401
0.00160449
0.00418981
0.00163037
0.00407822
0.00166666
0.00395104
0.00170579
0.0038065
0.00175764
0.00364031
0.0018279
0.00345349
0.00191706
0.00324984
0.00202608
0.00302875
0.00215761
0.00278584
0.00231053
0.00251501
0.00248147
0.00219871
0.00265463
0.00187505
0.00282225
0.00154347
0.00301241
0.00119407
0.00320487
0.000816122
0.00335609
0.000413422
0.00346011
0.00343819
0.00502139
8.38369e-14
0.00502139
-5.80177e-14
0.00502139
2.91704e-13
0.00502139
-2.8235e-13
0.00502139
1.67507e-12
0.00502139
-2.08236e-13
0.00502139
7.99076e-12
0.00502139
5.80911e-12
0.00502139
2.93949e-11
0.00502139
2.25731e-11
0.00502139
1.30614e-10
0.00502139
-2.16254e-11
0.00502139
5.97267e-10
0.0050214
9.7522e-11
0.0050214
3.09946e-09
0.00502142
1.15342e-09
0.00502145
1.39934e-08
0.00502089
1.94016e-08
0.00502179
8.95174e-08
0.0050183
1.5941e-07
0.00502147
7.78195e-07
0.00500459
2.18156e-06
0.00504666
4.40927e-06
0.00475393
1.12959e-05
0.00511229
4.74273e-05
0.004353
0.000121438
0.00503035
0.000717997
0.00495458
0.00252081
0.00490618
0.00251872
0.00487147
0.00209958
0.00485237
0.00179552
0.00479217
0.00170968
0.00470147
0.0016928
0.00459644
0.0017234
0.00446752
0.00178735
0.00432031
0.00184747
0.00415232
0.00191872
0.00396379
0.00200839
0.00375649
0.00211689
0.00353451
0.00224605
0.00329763
0.0023986
0.00304122
0.00257348
0.00275955
0.00276795
0.00243169
0.00296887
0.00208576
0.00315938
0.00172937
0.00337407
0.0013508
0.00359432
0.000932496
0.00377858
0.0004781
0.00391646
0.00390964
0.00520796
1.24742e-14
0.00520796
-4.39878e-14
0.00520796
7.35528e-15
0.00520796
-4.0593e-13
0.00520796
-2.54641e-14
0.00520796
-3.56429e-12
0.00520796
8.20748e-13
0.00520796
-2.59615e-11
0.00520796
1.60023e-11
0.00520796
-1.39237e-10
0.00520796
1.0343e-10
0.00520796
-6.48292e-10
0.00520796
5.74676e-10
0.00520796
-3.29369e-09
0.00520796
3.29992e-09
0.00520802
-1.72938e-08
0.00520795
2.32176e-08
0.00520754
-3.80648e-08
0.00520846
7.94698e-08
0.00520603
-1.50093e-07
0.00520704
1.13871e-08
0.0052331
-1.07735e-06
0.00518012
3.23612e-06
0.00535849
-2.42385e-07
0.00520992
4.8547e-05
0.0052979
6.70247e-05
0.00523076
0.000623456
0.00524918
0.00211731
0.00535711
0.00244866
0.00538914
0.0021334
0.00533412
0.00188872
0.00524061
0.00180884
0.00510595
0.00182064
0.0049597
0.00185802
0.00480391
0.00192987
0.00463032
0.00201178
0.00444007
0.00210203
0.00423347
0.00220695
0.00401327
0.0023308
0.00378257
0.00247704
0.00353977
0.00264755
0.00327983
0.00284145
0.00299572
0.00305777
0.00266764
0.00328409
0.00231295
0.00349998
0.00194437
0.00374337
0.00154179
0.00400622
0.00108648
0.00424138
0.000569051
0.00443559
0.0044698
0.00540147
-8.28032e-16
0.00540147
3.70621e-14
0.00540147
6.04101e-14
0.00540147
2.47396e-13
0.00540147
3.52893e-13
0.00540147
1.13055e-12
0.00540147
2.07795e-12
0.00540147
2.55217e-12
0.00540147
1.16822e-11
0.00540147
9.34934e-12
0.00540147
6.98078e-11
0.00540147
4.7272e-11
0.00540146
3.84689e-10
0.00540147
-1.36316e-10
0.00540146
1.51506e-09
0.00540153
-6.0902e-09
0.00540142
5.49813e-09
0.00540178
-9.65369e-08
0.00540039
4.06877e-08
0.00540143
-7.0686e-07
0.00539966
8.38732e-09
0.00539575
-5.0693e-06
0.00541277
4.33758e-06
0.00533897
-4.21869e-06
0.00541486
4.38857e-05
0.00488032
0.000109012
0.00547237
0.000380701
0.00573424
0.00148867
0.00589179
0.00230921
0.00582222
0.00222734
0.00569578
0.00202425
0.00554206
0.00195539
0.00537609
0.00197153
0.00519935
0.00202073
0.00502204
0.00209629
0.00483755
0.00218959
0.00464052
0.0022919
0.00443209
0.00240762
0.00421596
0.00254278
0.00399307
0.00270259
0.00375922
0.00288776
0.00351043
0.00310027
0.00323525
0.00333802
0.0029161
0.00359044
0.0025643
0.00383391
0.00219758
0.00410819
0.00179355
0.00441826
0.00129915
0.00473907
0.00070611
0.00502983
0.00516479
0.00560216
-1.25377e-15
0.00560216
5.65778e-14
0.00560216
1.13323e-13
0.00560216
4.3638e-13
0.00560216
7.71776e-13
0.00560216
2.62696e-12
0.00560216
4.5328e-12
0.00560216
1.51629e-11
0.00560216
2.59877e-11
0.00560216
8.82422e-11
0.00560216
1.51184e-10
0.00560216
5.25571e-10
0.00560216
8.93042e-10
0.00560215
3.17455e-09
0.00560215
5.2055e-09
0.00560211
1.83536e-08
0.00560209
3.42689e-08
0.00560187
1.03362e-07
0.00560168
1.73914e-07
0.00560048
5.65027e-07
0.00559675
1.25073e-06
0.0056046
2.79491e-06
0.0055237
7.04569e-06
0.00564308
2.14254e-05
0.00552326
3.14282e-05
0.00547883
7.65231e-05
0.00559215
0.000227829
0.00584005
0.000918889
0.00597019
0.00216478
0.00590259
0.00228279
0.00578672
0.00215388
0.00564052
0.00209684
0.00548023
0.00212461
0.00531249
0.00218102
0.00514002
0.00226232
0.0049623
0.00236227
0.00477626
0.00247238
0.00458241
0.00259698
0.0043828
0.00274293
0.00417699
0.00291396
0.00396192
0.00311068
0.00373508
0.00333668
0.00348563
0.00358969
0.0032027
0.00386168
0.00287303
0.00414051
0.00251657
0.00446105
0.00211994
0.00482351
0.00162848
0.00523206
0.000959139
0.00569603
0.00611047
0.00581031
-1.83302e-15
0.00581031
5.46582e-14
0.00581031
1.0162e-13
0.00581031
4.35205e-13
0.00581031
7.38347e-13
0.00581031
2.69685e-12
0.00581031
4.58538e-12
0.00581031
1.6041e-11
0.00581031
2.68953e-11
0.00581031
9.54004e-11
0.00581031
1.58355e-10
0.00581031
5.64188e-10
0.00581031
9.80929e-10
0.0058103
3.34425e-09
0.0058103
5.87384e-09
0.00581029
2.01281e-08
0.00581031
3.16509e-08
0.00581021
1.20751e-07
0.00581035
1.94515e-07
0.00580946
7.28787e-07
0.00581051
1.42238e-06
0.00579509
4.81401e-06
0.00579894
7.02156e-06
0.00579122
1.61015e-05
0.00578584
2.66828e-05
0.00581382
4.04782e-05
0.00584707
0.000180495
0.00601204
0.00054834
0.00596542
0.00214078
0.0059509
0.0022744
0.00583009
0.00226886
0.00569388
0.00223726
0.00554837
0.0022716
0.00539485
0.00233428
0.00523856
0.00242218
0.00507868
0.0025273
0.00491256
0.00264332
0.00474219
0.00277583
0.00456662
0.00293052
0.00438283
0.00311003
0.00419014
0.00331547
0.00399114
0.00354467
0.00377459
0.00380483
0.00351868
0.00409757
0.00323402
0.00440153
0.00293315
0.00475041
0.00260218
0.00516291
0.00216271
0.0056768
0.00149188
0.00636257
0.0075884
0.00840003
-2.12731e-15
0.00840003
2.72012e-14
0.00840003
6.30759e-14
0.00840003
2.17941e-13
0.00840003
4.24089e-13
0.00840003
1.26991e-12
0.00840003
2.22281e-12
0.00840003
7.14372e-12
0.00840003
1.25111e-11
0.00840003
4.09914e-11
0.00840003
7.18166e-11
0.00840003
2.50924e-10
0.00840003
4.18143e-10
0.00840003
1.40561e-09
0.00840004
2.31185e-09
0.00840003
8.38402e-09
0.00840008
1.42527e-08
0.00840005
5.34483e-08
0.00840028
8.98622e-08
0.00839982
6.23032e-07
0.00840138
1.41076e-06
0.00837923
3.45716e-06
0.00839644
5.83623e-06
0.00838979
1.2354e-05
0.00838896
1.9977e-05
0.00840274
2.658e-05
0.0084349
0.000125115
0.00848761
0.000387344
0.00858655
0.00188335
0.00846476
0.00235802
0.00827641
0.00243702
0.00807835
0.00243003
0.00788528
0.00246386
0.00769055
0.00253092
0.00749854
0.00262186
0.00730208
0.00272946
0.00710386
0.0028477
0.00690345
0.00298338
0.00670209
0.00314007
0.00650779
0.00331878
0.00630715
0.00352568
0.00608722
0.00376707
0.00585124
0.00403547
0.00559901
0.00431801
0.0053534
0.00462155
0.00512981
0.0049544
0.00497945
0.00531337
0.00498651
0.00567788
0.00532615
0.0060177
0.00557798
0.0073202
0.00840003
-6.89146e-15
0.00840003
1.34708e-14
0.00840003
-1.75063e-15
0.00840003
7.57718e-14
0.00840003
6.21599e-14
0.00840003
2.35635e-13
0.00840003
2.1988e-13
0.00840003
1.23359e-12
0.00840003
6.11287e-13
0.00840003
7.40508e-12
0.00840003
7.06318e-12
0.00840003
1.23078e-10
0.00840003
1.72372e-11
0.00840003
5.03488e-10
0.00840003
5.64895e-10
0.00840003
4.17393e-09
0.00840005
6.49009e-09
0.00839992
2.50076e-08
0.00839979
5.63627e-08
0.00840084
-8.69312e-08
0.008405
-3.44184e-07
0.00840824
-1.45449e-07
0.00841253
-1.879e-06
0.00841185
-7.52784e-07
0.00838002
4.4843e-06
0.00840036
-8.05672e-06
0.00846681
8.71896e-05
0.00840736
0.000268543
0.00844663
0.00183721
0.0082577
0.00255941
0.00802042
0.0026749
0.00782991
0.00260801
0.00766195
0.00263014
0.00750249
0.00268932
0.00735302
0.00277715
0.00720603
0.00288117
0.0070613
0.00299695
0.00692059
0.00312831
0.00678916
0.00327583
0.00666314
0.0034525
0.00653245
0.00366102
0.00640648
0.00389169
0.00628645
0.00414408
0.00617161
0.00440953
0.00608437
0.00468734
0.00606514
0.00495713
0.00617071
0.00520246
0.00650385
0.00535079
0.00713338
0.00540198
0.00490114
0.00780468
0.00840003
-5.50925e-15
0.00840003
-5.28375e-15
0.00840003
-3.50516e-14
0.00840003
3.00775e-15
0.00840003
-2.36747e-13
0.00840003
2.68488e-13
0.00840003
-1.17806e-12
0.00840003
1.41442e-12
0.00840003
-5.76751e-12
0.00840003
6.13677e-12
0.00840003
-3.47463e-11
0.00840003
-3.26396e-11
0.00840003
-1.88497e-10
0.00840003
-7.50568e-11
0.00840004
-1.52369e-09
0.00840005
-1.76306e-09
0.00840004
-1.1807e-08
0.00840013
-1.78356e-08
0.0084
-7.04372e-08
0.0084004
-1.6475e-07
0.00840209
-6.52105e-07
0.00840376
-9.97873e-07
0.00841034
-4.85438e-06
0.00841283
-6.21169e-06
0.00838216
-1.77499e-05
0.00797636
-4.25346e-05
0.00832327
0.000103052
0.00868477
0.000190211
0.00846288
0.00186863
0.00815116
0.0027754
0.00789884
0.00288825
0.00771722
0.00281277
0.00755919
0.00280195
0.0074189
0.00282911
0.00728335
0.00291
0.00716243
0.00300655
0.00705321
0.0031135
0.00696071
0.00323011
0.00687384
0.00337134
0.00679549
0.0035387
0.00674043
0.00372282
0.00670568
0.0039267
0.00668897
0.00414932
0.00670201
0.00437574
0.00676
0.00461053
0.00688877
0.00481177
0.0071057
0.00497584
0.00743206
0.00502237
0.00790473
0.00495108
0.00453993
0.00828333
0.00840003
9.90554e-16
0.00840003
-1.54335e-15
0.00840003
3.54843e-15
0.00840003
-1.47068e-14
0.00840003
-6.75187e-17
0.00840003
-1.80825e-14
0.00840003
1.5229e-13
0.00840003
1.05061e-13
0.00840003
1.20919e-12
0.00840003
3.88509e-13
0.00840003
6.72174e-12
0.00840003
-2.51461e-11
0.00840003
2.8096e-11
0.00840003
-6.42452e-11
0.00840002
1.35629e-10
0.00840003
-5.63432e-10
0.00840001
-6.02798e-10
0.00840002
-5.80071e-09
0.00839987
-9.97249e-09
0.00840009
-3.72944e-08
0.00839878
-6.27519e-08
0.00840287
-2.1889e-07
0.00839642
-3.52182e-07
0.00840397
-7.38111e-07
0.00837844
-1.99819e-07
0.00841835
-6.46738e-06
0.00820495
7.11591e-05
0.00812485
0.000145992
0.00880307
0.0011464
0.0085218
0.00307982
0.0082272
0.00321178
0.00795139
0.00312385
0.00778885
0.0029767
0.0076252
0.00299384
0.00749907
0.00303918
0.00738324
0.00313314
0.0072808
0.00323046
0.00719188
0.00334261
0.00711662
0.00347547
0.00706111
0.00361837
0.00702644
0.00377115
0.0070242
0.00393666
0.00705628
0.00411068
0.007134
0.00428424
0.0072687
0.00445732
0.00746236
0.00459477
0.00772734
0.00469596
0.0080263
0.00470814
0.0083607
0.00460911
0.00427425
0.00863543
0.00840003
1.15e-14
0.00840003
-5.70368e-15
0.00840003
3.31759e-14
0.00840003
-4.32224e-14
0.00840003
1.66956e-13
0.00840003
-2.48102e-13
0.00840003
9.3786e-13
0.00840003
-1.36071e-12
0.00840003
5.15479e-12
0.00840003
-8.09591e-12
0.00840003
2.72682e-11
0.00840003
-4.93692e-11
0.00840003
1.42205e-10
0.00840003
-2.7944e-10
0.00840003
7.42963e-10
0.00840004
-1.51067e-09
0.00840004
3.65551e-09
0.00840006
-6.11005e-09
0.00839999
1.95992e-08
0.00840045
-2.88701e-08
0.0083992
1.28682e-07
0.00840203
-8.02772e-08
0.00839734
1.03688e-06
0.00839458
1.0611e-06
0.00840291
6.79815e-06
0.00815566
8.51248e-06
0.00844359
6.27005e-05
0.00768518
0.000121301
0.00882462
0.000775627
0.00906442
0.00268927
0.00875415
0.00351037
0.00855905
0.00331672
0.00831828
0.00321471
0.00812879
0.00318257
0.00796692
0.00319835
0.00783918
0.00325907
0.00772023
0.00334832
0.00761546
0.00345188
0.00753619
0.00356482
0.00748879
0.00368267
0.00746249
0.00381317
0.00746285
0.00395026
0.00749317
0.00408585
0.00756812
0.00421023
0.00769428
0.00432276
0.00787317
0.00440084
0.00811178
0.00444209
0.00837991
0.00442207
0.00864799
0.00432404
0.00406376
0.00884942
0.00840003
1.06722e-15
0.00840003
1.31676e-14
0.00840003
2.55892e-14
0.00840003
9.14698e-14
0.00840003
1.63191e-13
0.00840003
5.49046e-13
0.00840003
9.68029e-13
0.00840003
3.23817e-12
0.00840003
5.72039e-12
0.00840003
1.87951e-11
0.00840003
3.3354e-11
0.00840003
1.09429e-10
0.00840003
1.94512e-10
0.00840003
6.09514e-10
0.00840003
1.13352e-09
0.00840003
3.17024e-09
0.00840003
5.81154e-09
0.00840004
1.62564e-08
0.00840009
2.97992e-08
0.00840042
7.65974e-08
0.00839971
1.55788e-07
0.00840276
3.30011e-07
0.0083935
7.10612e-07
0.00842057
7.31733e-07
0.00835782
5.23024e-06
0.00851055
3.37447e-06
0.00847739
4.97326e-05
0.00912632
1.30956e-05
0.00880839
0.00045251
0.0101082
0.00128627
0.0100944
0.00350141
0.00957666
0.00382611
0.00913357
0.00364724
0.00887578
0.00343769
0.00866653
0.00340524
0.00848421
0.00343792
0.00831802
0.00350598
0.00818248
0.00357997