/*--------------------------------*- C++ -*----------------------------------*\
| =========                 |                                                 |
| \\      /  F ield         | OpenFOAM: The Open Source CFD Toolbox           |
|  \\    /   O peration     | Version:  2412                                  |
|   \\  /    A nd           | Website:  www.openfoam.com                      |
|    \\/     M anipulation  |                                                 |
\*---------------------------------------------------------------------------*/
FoamFile
{
    version     2.0;
    format      ascii;
    arch        "LSB;label=32;scalar=64";
    class       volScalarField;
    location    "1.5";
    object      T;
}
// * * * * * * * * * * * * * * * * * * * * * * * * * * * * * * * * * * * * * //

dimensions      [0 0 0 1 0 0 0];

internalField   nonuniform List<scalar> 
7000
(
1
1
1
1
1
1
1
1
1
1
1
1
1
0.999994
1.00005
0.999881
0.999959
0.999035
0.999683
0.994416
1.02451
0.909865
1.07825
1.1875
1.79264
2.6152
2.6787
2.67546
2.65451
2.61371
2.61525
2.61358
2.61625
2.62729
2.6424
2.65134
2.65863
2.66976
2.68146
2.6872
2.68969
2.69667
2.72646
2.76084
2.7661
2.75011
2.7411
2.75744
2.76584
2.84344
1
1
1
1
1
1
1
1
1
1
1
0.999999
1
0.999988
1.00004
0.999813
0.999982
0.998989
0.999679
0.994264
1.02432
0.910425
1.07657
1.18521
1.78974
2.61979
2.68841
2.68399
2.66005
2.61427
2.61205
2.60756
2.61015
2.62214
2.63981
2.65106
2.65896
2.66965
2.68114
2.68705
2.68954
2.69602
2.7242
2.75954
2.76613
2.75109
2.74088
2.75602
2.7655
2.84496
1
1
1
1
1
1
1
1
1
1
1
0.999999
0.999997
0.999984
0.999966
0.999836
0.999734
0.998847
0.999651
0.993794
1.02426
0.909802
1.07466
1.18363
1.78757
2.62666
2.69119
2.68469
2.65815
2.6113
2.60897
2.60587
2.60919
2.62131
2.63882
2.65065
2.65865
2.6691
2.68051
2.68658
2.68925
2.69592
2.72377
2.75944
2.7673
2.75342
2.74168
2.7551
2.76517
2.84861
1
1
1
1
1
1
1
1
1
1
1
0.999999
0.999999
0.999983
0.999971
0.99984
0.999727
0.998833
0.999626
0.993456
1.02351
0.910042
1.07355
1.18079
1.78274
2.62522
2.68298
2.67704
2.6507
2.60868
2.60853
2.60758
2.61132
2.62276
2.63849
2.64926
2.65686
2.66746
2.67944
2.68602
2.68883
2.69542
2.72261
2.75886
2.7679
2.75497
2.74226
2.75408
2.76459
2.85308
1
1
1
1
1
1
1
1
1
1
1
1
0.999999
0.999987
1.00002
0.99983
0.999989
0.998901
0.999607
0.993132
1.02261
0.910128
1.0719
1.17738
1.77548
2.62128
2.67483
2.66968
2.64539
2.60437
2.60319
2.60197
2.6071
2.62155
2.63818
2.64887
2.65629
2.6667
2.67859
2.68529
2.68805
2.69417
2.71998
2.75751
2.76788
2.7559
2.74248
2.75354
2.76415
2.85645
1
1
1
1
1
1
1
1
1
1
1
1
0.999999
0.999991
1.00001
0.999872
1.00001
0.998949
0.999538
0.992437
1.02146
0.906952
1.07009
1.17453
1.7642
2.62287
2.66925
2.65998
2.63105
2.59875
2.60185
2.60269
2.60899
2.62358
2.63894
2.64886
2.656
2.6662
2.67783
2.68447
2.68708
2.69261
2.71692
2.7557
2.76759
2.75655
2.74254
2.75231
2.76316
2.85979
1
1
1
1
1
1
1
1
1
1
1
1
1
0.999997
0.999994
0.999919
0.999984
0.999093
0.999661
0.992525
1.01889
0.904639
1.07132
1.16031
1.74999
2.62433
2.65953
2.65314
2.62558
2.59556
2.59937
2.60076
2.60821
2.62328
2.63797
2.6477
2.65497
2.66514
2.67686
2.6838
2.68645
2.6915
2.71378
2.75346
2.76697
2.75695
2.74252
2.7517
2.76225
2.86319
1
1
1
1
1
1
1
1
1
1
1
1
1
1
1.00001
0.999963
0.999996
0.999415
0.999766
0.994915
1.01125
0.918723
1.07708
1.11217
1.7352
2.62695
2.64582
2.63969
2.61507
2.58799
2.59138
2.59404
2.60558
2.62231
2.63642
2.64581
2.65328
2.66351
2.67529
2.68256
2.68527
2.68992
2.71034
2.75087
2.76605
2.75712
2.74203
2.75013
2.76043
2.86524
1
1
1
1
1
1
1
1
1
1
1
1
1
1.00001
1.00002
1
1
0.99955
1.0002
0.99283
1.01766
0.907373
1.06355
1.12722
1.71905
2.59442
2.63792
2.6348
2.60584
2.57996
2.58305
2.58763
2.60254
2.62027
2.63516
2.64482
2.65165
2.66142
2.67343
2.68127
2.68422
2.68857
2.70673
2.74686
2.76427
2.75683
2.74158
2.74919
2.75925
2.86694
1
1
1
1
1
1
1
1
1
1
1
1
1
1.00001
1.00002
1.00005
1.00006
0.999992
1.00015
0.996437
1.01048
0.926808
1.07005
1.08082
1.70199
2.5574
2.61222
2.61586
2.59132
2.57013
2.57451
2.58258
2.60166
2.61938
2.63398
2.64391
2.65036
2.65897
2.67068
2.67932
2.68265
2.68671
2.70304
2.74198
2.76062
2.75501
2.74026
2.74703
2.75767
2.8669
1
1
1
1
1
1
1
1
1
1
1
1
1
1.00002
1.00002
1.00008
1.00015
1.00025
1.00091
0.998951
1.0071
0.957412
1.05884
1.0439
1.65646
2.48273
2.58009
2.60552
2.58639
2.56696
2.57119
2.58127
2.6011
2.61749
2.63175
2.64232
2.64896
2.6567
2.66748
2.67614
2.67966
2.68323
2.69714
2.73591
2.75738
2.75321
2.73811
2.74409
2.75361
2.86559
1
1
1
1
1
1
1
1
1
1
1
1
1
1.00002
1.00002
1.0001
1.00014
1.00048
1.00075
1.00244
1.00426
1.01297
1.05119
1.06742
1.58977
2.40266
2.55598
2.59411
2.57755
2.56497
2.56989
2.58393
2.60216
2.61712
2.62995
2.6395
2.64569
2.65299
2.66381
2.67306
2.67685
2.67969
2.69059
2.72768
2.75319
2.75094
2.73658
2.74176
2.75086
2.86325
1
1
1
1
1
1
1
1
1
1
1
1
1
1.00002
1.00002
1.00012
1.00013
1.00051
1.00089
1.00286
1.00492
1.01484
1.03996
1.15067
1.44563
2.29424
2.51182
2.57746
2.56818
2.5669
2.57283
2.5917
2.60448
2.61617
2.62663
2.63563
2.64221
2.6498
2.6608
2.67097
2.67537
2.67743
2.68505
2.71792
2.74736
2.74746
2.73374
2.73731
2.74453
2.85709
1
1
1
1
1
1
1
1
1
1
1
1
1
1.00002
1.00002
1.00012
1.00011
1.00064
1.00069
1.00313
1.00458
1.01898
1.03032
1.11912
1.37626
2.07348
2.45972
2.57497
2.5722
2.57817
2.58333
2.59518
2.60337
2.61332
2.62313
2.63255
2.64023
2.64875
2.66018
2.67071
2.67534
2.67661
2.68104
2.70778
2.73992
2.74206
2.7283
2.72937
2.73863
2.85166
1
1
1
1
1
1
1
1
1
1
1
1
1
1.00002
1.00002
1.00011
1.00009
1.0006
1.00065
1.00323
1.00422
1.01935
1.02466
1.10423
1.28941
1.89472
2.31405
2.58991
2.5969
2.59858
2.59357
2.59625
2.60392
2.61139
2.62173
2.6312
2.63984
2.64983
2.66177
2.67155
2.6754
2.6759
2.67769
2.69631
2.73157
2.73708
2.72327
2.7222
2.72652
2.83815
1
1
1
1
1
1
1
1
1
1
1
1
1
1.00002
1.00002
1.00008
1.00009
1.00046
1.00059
1.00254
1.00351
1.0165
1.02413
1.12415
1.22783
1.8108
2.19254
2.58841
2.62501
2.61956
2.60379
2.59958
2.60426
2.6112
2.62177
2.63126
2.64073
2.65103
2.66198
2.67105
2.67453
2.67427
2.67439
2.68606
2.71867
2.72692
2.71655
2.71217
2.7163
2.82597
1
1
1
1
1
1
1
1
1
1
1
1
1
1.00001
1.00002
1.00007
1.00009
1.00043
1.00051
1.00217
1.00315
1.01057
1.02638
1.08104
1.19725
1.59268
2.10565
2.55975
2.64722
2.62694
2.60789
2.5991
2.60382
2.61242
2.62295
2.63338
2.64207
2.65099
2.66067
2.66809
2.67056
2.66986
2.66897
2.67754
2.70602
2.71452
2.70091
2.69882
2.6958
2.79872
1
1
1
1
1
1
1
1
1
1
1
1
1.00001
1.00001
1.00004
1.00004
1.00016
1.00014
1.00069
1.00164
1.0035
1.01235
1.01626
1.07102
1.15105
1.47706
1.94535
2.50406
2.65554
2.63019
2.61945
2.60635
2.61044
2.61972
2.62765
2.635
2.64171
2.6496
2.65746
2.66137
2.66122
2.65831
2.6561
2.6633
2.69099
2.7013
2.68875
2.67007
2.67172
2.76965
1
1
1
1
1
1
1
1
1
1
1
1
1.00001
1.00001
1.00004
1.00004
1.00024
1.00023
1.00143
1.00176
1.00837
1.00325
1.0507
0.950434
1.11484
1.3354
1.92668
2.50019
2.69054
2.65173
2.63769
2.61638
2.61666
2.62248
2.62794
2.63407
2.63973
2.6459
2.65129
2.65318
2.6524
2.64919
2.64446
2.6465
2.66638
2.67685
2.66574
2.64826
2.6244
2.70502
1
1
1
1
1
1
1
1
1
1
1
1
1
1
1.00003
1.00002
1.00016
1.00017
1.00092
1.00107
1.00549
0.999512
1.0413
0.90707
1.1118
1.27278
1.89382
2.59323
2.68618
2.64259
2.63441
2.61226
2.60822
2.61475
2.62021
2.62439
2.62843
2.63195
2.63303
2.63276
2.63252
2.63044
2.62867
2.63194
2.64594
2.64822
2.63246
2.59741
2.5687
2.59947
1
1
1
1
1
1
1
1
1
1
1
1
1
1
1.00001
1.00001
1.00007
1.00008
1.00037
1.00036
1.00248
0.997085
1.03105
0.912663
1.0878
1.20953
1.80204
2.57803
2.62854
2.62932
2.61617
2.59848
2.59585
2.6024
2.60541
2.6099
2.61225
2.61239
2.61177
2.60915
2.60345
2.60112
2.59993
2.6037
2.61159
2.60868
2.58733
2.53694
2.42107
2.35622
1
1
1
1
1
1
1
1
1
1
1
1
1
1
1.00001
1
1.00004
0.999954
1.00003
0.999142
0.999645
0.993417
1.01953
0.913002
1.06366
1.14408
1.69481
2.52579
2.56634
2.58856
2.57349
2.5685
2.57104
2.58153
2.58936
2.59579
2.59997
2.59973
2.59797
2.5928
2.5849
2.57476
2.56645
2.56216
2.56059
2.55371
2.53353
2.48612
2.36056
2.23114
1
1
1
1
1
1
1
1
1
1
1
1
1
1
1
0.999998
1
0.999975
0.999983
0.999844
0.999924
0.998013
1.00385
0.972514
1.03948
1.05112
1.59059
2.37435
2.48863
2.54036
2.52338
2.51743
2.51926
2.52848
2.54575
2.56457
2.57573
2.581
2.58127
2.57863
2.5711
2.56062
2.54523
2.53247
2.51326
2.49518
2.46099
2.42108
2.32982
2.21143
1
1
1
1
1
1
1
1
1
1
1
1
1
1
1
1.00002
1.00002
1.0001
1.00011
1.00051
1.00071
1.00254
1.00519
1.01481
1.03534
1.10902
1.35632
2.03053
2.35291
2.49757
2.50099
2.49713
2.48581
2.48911
2.49446
2.5051
2.51711
2.52757
2.53323
2.53656
2.53916
2.53616
2.52692
2.51545
2.49061
2.46624
2.42329
2.37163
2.30529
2.21278
1
1
1
1
1
1
1
1
1
1
1
1
1
1
1
1.00001
1.00002
1.00007
1.0001
1.00036
1.00055
1.00202
1.0037
1.01264
1.02791
1.09555
1.21832
1.64642
2.1407
2.45152
2.48862
2.48327
2.48059
2.47352
2.47132
2.47151
2.47534
2.47775
2.47891
2.47757
2.47699
2.47746
2.47856
2.47535
2.46358
2.44512
2.40938
2.3615
2.29999
2.23078
1
1
1
1
1
1
1
1
1
1
1
1
1
1
1.00001
1.00001
1.00004
1.00004
1.00021
1.00022
1.00098
1.00116
1.00424
1.0039
1.01642
1.04683
1.14314
1.29635
1.81835
2.27322
2.49014
2.49421
2.49211
2.48362
2.47331
2.46525
2.45659
2.45393
2.44676
2.44317
2.43501
2.42653
2.41751
2.41317
2.40398
2.39363
2.37535
2.34282
2.29512
2.24063
1
1
1
1
1
1
1
1
1
1
1
1
1
1
1
1
1.00002
1.00002
1.0001
1.00011
1.00055
1.0006
1.00294
1.00352
1.01619
1.02434
1.10034
1.2145
1.67242
2.05259
2.41435
2.48753
2.48648
2.48423
2.47235
2.46428
2.45054
2.44002
2.42974
2.41567
2.40667
2.39198
2.37764
2.36173
2.34703
2.33219
2.31392
2.29263
2.26408
2.22946
1
1
1
1
1
1
1
1
1
1
1
1
1
1
1
1.00001
1.00001
1.00004
1.00004
1.00023
1.00022
1.00112
1.00134
1.00527
1.00436
1.02021
1.04174
1.11973
1.283
1.74216
2.20132
2.44252
2.47192
2.47491
2.47167
2.46284
2.45491
2.44002
2.4308
2.41188
2.39793
2.37817
2.36039
2.33677
2.3156
2.29015
2.26815
2.24062
2.2129
2.18315
1
1
1
1
1
1
1
1
1
1
1
1
1
1
1
1
1
1.00001
1.00001
1.00005
1.00006
1.00028
1.00023
1.00196
0.997841
1.02328
0.932181
1.06771
1.14905
1.60669
2.29483
2.39748
2.44996
2.44479
2.45304
2.45198
2.44984
2.44212
2.4339
2.41648
2.40031
2.3797
2.35998
2.33643
2.3111
2.28296
2.25303
2.22252
2.18758
2.15378
1
1
1
1
1
1
1
1
1
1
1
1
1
1
1
1
1
1
1.00002
1.00002
1.00012
1.00014
1.00065
1.00075
1.00298
1.00556
1.01665
1.04244
1.11716
1.33068
1.83438
2.23901
2.40924
2.42927
2.42151
2.42111
2.42269
2.42258
2.42014
2.41141
2.39678
2.37873
2.35912
2.33836
2.31398
2.28701
2.25569
2.22366
2.18904
2.15361
1
1
1
1
1
1
1
1
1
1
1
1
1
1
1
1
1
1
1.00001
1.00002
1.00006
1.00008
1.00037
1.0005
1.00217
1.00298
1.01218
1.01977
1.07107
1.18409
1.47567
2.01069
2.29447
2.36881
2.38208
2.38714
2.39414
2.39828
2.39817
2.39538
2.38622
2.3721
2.3544
2.33611
2.3155
2.29088
2.26476
2.23186
2.19818
2.16238
1
1
1
1
1
1
1
1
1
1
1
1
1
1
1
1
1
1
1
1.00002
1.00001
1.00013
1.00007
1.00085
1.00099
1.00596
1.00163
1.03317
0.92802
1.08993
1.19628
1.68255
2.27926
2.32742
2.33161
2.32828
2.32748
2.32837
2.33125
2.33771
2.3417
2.34078
2.33582
2.32452
2.31048
2.28967
2.26731
2.23997
2.20971
2.17858
1
1
1
1
1
1
1
1
1
1
1
1
1
1
1
1
1
0.999999
0.999999
0.999993
0.999993
0.999969
1.00001
0.999749
1.00073
1.00015
1.00609
1.00542
1.02978
0.982891
1.12775
1.28271
1.75797
2.16968
2.35462
2.3521
2.34427
2.33014
2.31683
2.30716
2.30135
2.29458
2.2915
2.28714
2.28287
2.274
2.25999
2.23855
2.21226
2.18562
1
1
1
1
1
1
1
1
1
1
1
1
1
1
1
1
1
1
1
1
1.00001
1
1.00004
1.00005
1.00034
1.00013
1.00191
0.999509
1.01811
0.941929
1.06362
1.1088
1.50995
2.13346
2.28734
2.34017
2.3425
2.32777
2.314
2.29952
2.28643
2.27443
2.26231
2.25236
2.24409
2.23664
2.22968
2.22136
2.20505
2.18367
1
1
1
1
1
1
1
1
1
1
1
1
1
1
1
1
1
1
1
1
1
1.00002
1.00002
1.00009
1.0001
1.00052
1.00064
1.00306
1.00367
1.01774
1.02488
1.08965
1.21943
1.61405
1.99611
2.25821
2.30827
2.31207
2.3058
2.2949
2.28338
2.2666
2.2526
2.23287
2.21899
2.20413
2.19273
2.18331
2.173
2.16579
1
1
1
1
1
1
1
1
1
1
1
1
1
1
1
1
1
1
1
1
1
1
1.00001
1.00001
1.00008
1.00011
1.00048
1.00083
1.0025
1.00549
1.01659
1.0354
1.1248
1.25488
1.69065
2.01028
2.21796
2.25842
2.27352
2.27785
2.27514
2.26681
2.25221
2.23501
2.21397
2.19655
2.1785
2.16083
2.14893
2.13033
1
1
1
1
1
1
1
1
1
1
1
1
1
1
1
1
1
1
1
1
1
1
1
1.00002
1.00002
1.00012
1.00016
1.00064
1.00101
1.00347
1.00545
1.02082
1.04062
1.13598
1.32942
1.75633
2.07193
2.20733
2.2222
2.22347
2.23026
2.23298
2.23081
2.22475
2.2097
2.19204
2.17552
2.15626
2.13952
2.12253
1
1
1
1
1
1
1
1
1
1
1
1
1
1
1
1
1
1
1
1
1
1
1
1.00001
1.00001
1.00005
1.00006
1.00027
1.00033
1.0014
1.00153
1.00376
1.01765
1.04243
1.12015
1.28698
1.68669
2.04325
2.18076
2.20404
2.20336
2.20409
2.20101
2.19573
2.19078
2.17938
2.16594
2.15032
2.13286
2.11582
1
1
1
1
1
1
1
1
1
1
1
1
1
1
1
1
1
1
1
1
1
1
1
1
1.00001
1.00001
1.00004
1.00003
1.00015
1.00013
1.00051
0.998584
1.01006
0.958065
1.06425
1.1048
1.40142
1.83632
2.05668
2.16657
2.18439
2.18339
2.18277
2.17745
2.17009
2.16252
2.15335
2.14285
2.12825
2.11279
1
1
1
1
1
1
1
1
1
1
1
1
1
1
1
1
1
1
1
1
1
1
1
1
1
1.00001
1.00002
1.00002
1.00009
1.00024
1.00044
1.00194
1.0023
1.01045
1.01709
1.06137
1.12707
1.34581
1.65656
2.02473
2.14907
2.16475
2.16302
2.16141
2.15366
2.14225
2.1297
2.12197
2.11414
2.10487
1
1
1
1
1
1
1
1
1
1
1
1
1
1
1
1
1
1
1
1
1
1
1
1
1
1
1.00001
1.00001
1.00005
1.00006
1.00028
1.00043
1.00176
1.00181
1.00711
1.00898
1.04462
1.12005
1.30329
1.65252
1.97936
2.12683
2.14913
2.14854
2.14604
2.13674
2.12148
2.10503
2.09396
2.07963
1
1
1
1
1
1
1
1
1
1
1
1
1
1
1
1
1
1
1
1
1
1
1
1
1
1
1
1
1.00001
1.00001
1.00008
1.00003
1.00052
1.0014
1.00294
1.01116
1.01358
1.0559
1.11863
1.29527
1.58731
1.92173
2.09292
2.13322
2.1375
2.13459
2.125
2.10649
2.08992
2.07364
1
1
1
1
1
1
1
1
1
1
1
1
1
1
1
1
1
1
1
1
1
1
1
1
1
1
1
1
1.00001
1.00001
1.00005
1.00005
1.00021
1.0003
1.00119
0.999874
1.01162
0.97854
1.04239
1.07924
1.32241
1.65767
1.91987
2.0645
2.10693
2.12061
2.11719
2.10862
2.09169
2.0739
1
1
1
1
1
1
1
1
1
1
1
1
1
1
1
1
1
1
1
1
1
1
1
1
1
1
1
1
1
1
1.00002
1.00002
1.00009
1.00018
1.00031
1.001
1.00201
1.00827
1.00647
1.04432
1.04786
1.31045
1.62584
1.88495
2.03264
2.07612
2.09046
2.08917
2.08327
2.07114
1
1
1
1
1
1
1
1
1
1
1
1
1
1
1
1
1
1
1
1
1
1
1
1
1
1
1
1
1
1
1
0.999993
1.00003
1.00001
1.00024
1.00014
1.00137
0.996445
1.00661
1.01143
1.0269
1.09496
1.20073
1.50899
1.84901
1.99889
2.04439
2.0502
2.05192
2.05066
1
1
1
1
1
1
1
1
1
1
1
1
1
1
1
1
1
1
1
1
1
1
1
1
1
1
1
1
1
1
1
1
1.00002
1.00002
1.00012
1.00012
1.0006
1.00067
1.00295
1.00442
1.01659
1.03397
1.08788
1.2139
1.48202
1.73377
1.9249
1.99882
2.01247
2.01443
1
1
1
1
1
1
1
1
1
1
1
1
1
1
1
1
1
1
1
1
1
1
1
1
1
1
1
1
1
1
1
1
1
1.00002
1.00001
1.00009
1.00011
1.00042
1.00066
1.00226
1.00389
1.01195
1.0267
1.06544
1.16543
1.37548
1.62499
1.84558
1.95383
1.97618
1
1
1
1
1
1
1
1
1
1
1
1
1
1
1
1
1
1
1
1
1
1
1
1
1
1
1
1
1
1
1
1
1
1
1.00001
1.00001
1.00008
1.00009
1.00039
1.00049
1.00223
1.0028
1.01118
1.01743
1.05896
1.11732
1.27066
1.49561
1.7473
1.90756
1
1
1
1
1
1
1
1
1
1
1
1
1
1
1
1
1
1
1
1
1
1
1
1
1
1
1
1
1
1
1
1
1
1
1.00001
1.00001
1.00003
1.00003
1.00014
1.00013
1.0006
1.00072
1.00204
1.00426
1.01165
1.03789
1.06182
1.22305
1.45153
1.64345
1
1
1
1
1
1
1
1
1
1
1
1
1
1
1
1
1
1
1
1
1
1
1
1
1
1
1
1
1
1
1
1
1
1
1
1
1.00001
1.00001
1.00005
1.00005
1.00025
1.00027
1.00118
1.00149
1.004
1.00727
1.02517
1.04929
1.15246
1.36782
1
1
1
1
1
1
1
1
1
1
1
1
1
1
1
1
1
1
1
1
1
1
1
1
1
1
1
1
1
1
1
1
1
1
1
1
1
1.00001
1.00001
1.00004
1.00004
1.00019
1.00023
1.00098
0.999836
1.00723
0.97789
1.02321
1.03923
1.1816
1
1
1
1
1
1
1
1
1
1
1
1
1
1
1
1
1
1
1
1
1
1
1
1
1
1
1
1
1
1
1
1
1
1
1
1
1
1
1
1.00002
1.00002
1.00014
1.00016
1.00073
1.00027
1.0038
0.990756
1.01155
1.02554
1.07491
1
1
1
1
1
1
1
1
1
1
1
1
1
1
1
1
1
1
1
1
1
1
1
1
1
1
1
1
1
1
1
1
1
1
1
1
1
1
1
1.00001
1.00001
1.00003
1.00003
1.00016
0.99991
1.00147
0.995248
1.00495
1.00988
1.03547
1
1
1
1
1
1
1
1
1
1
1
1
1
1
1
1
1
1
1
1
1
1
1
1
1
1
1
1
1
1
1
1
1
1
1
1
1
1
1
1
1
0.999993
1.00003
0.999854
1.00012
1.00022
1.00086
1.00259
1.00546
1.01728
1
1
1
1
1
1
1
1
1
1
1
1
1
1
1
1
1
1
1
1
1
1
1
1
1
1
1
1
1
1
1
1
1
1
1
1
1
1
1
1
1
1
1.00002
1.00002
1.00014
1.00014
1.00078
1.00055
1.00348
1.00358
1
1
1
1
1
1
1
1
1
1
1
1
1
1
1
1
1
1
1
1
1
1
1
1
1
1
1
1
1
1
1
1
1
1
1
1
1
1
1
1
1
1
1.00001
1.00001
1.00007
1.00007
1.00043
1.00031
1.00162
1.0022
1
1
1
1
1
1
1
1
1
1
1
1
1
1
1
1
1
1
1
1
1
1
1
1
1
1
1
1
1
1
1
1
1
1
1
1
1
1
1
1
1
1
1.00001
1.00001
1.00004
1.00004
1.00019
1.00018
1.00082
1.001
1
1
1
1
1
1
1
1
1
1
1
1
1
1
1
1
1
1
1
1
1
1
1
1
1
1
1
1
1
1
1
1
1
1
1
1
1
1
1
1
1
1
1
1
1
1.00002
0.999929
1.00013
1.00017
1.00088
1
1
1
1
1
1
1
1
1
1
1
1
1
1
1
1
1
1
1
1
1
1
1
1
1
1
1
1
1
1
1
1
1
1
1
1
1
1
1
1
1
1
1
0.999997
1
1
1.00003
1.00007
1.00015
1.00042
1
1
1
1
1
1
1
1
1
1
1
1
1
1
1
1
1
1
1
1
1
1
1
1
1
1
1
1
1
1
1
1
1
1
1
1
1
1
1
1
1
1
1
0.999998
1
1
1.00002
1.00004
1.0001
1.00025
2.08519
1.99173
1.99883
2.0906
2.2023
2.34556
2.41749
2.48968
2.49839
2.49638
2.48569
2.47914
2.46854
2.45704
2.45053
2.44487
2.43999
2.43521
2.43252
2.43239
2.43381
2.43877
2.44954
2.46319
2.47929
2.49756
2.51712
2.53435
2.54751
2.55589
2.56014
2.56133
2.56099
2.55884
2.55274
2.54289
2.53221
2.5215
2.51132
2.50201
2.49383
2.48721
2.48236
2.47921
2.4778
2.47804
2.48033
2.48525
2.49479
2.50803
2.52544
2.55588
2.6085
2.69846
2.81923
2.97228
3.10388
3.20079
3.24966
3.23846
3.23182
3.22155
3.20061
3.18932
3.18429
3.18051
3.17378
3.1674
3.1583
3.14661
3.13071
3.11189
3.09562
3.08188
3.06815
3.05996
3.04976
3.04469
3.03783
3.03327
3.02664
3.02136
3.01233
3.0068
2.9968
2.99166
2.98174
2.97634
2.96619
2.96095
2.95028
2.945
2.93419
2.92872
2.91767
2.91218
2.90105
2.89649
2.88729
2.8893
2.03885
1.96881
1.94798
1.95225
1.95012
1.94193
1.92198
1.92542
1.9436
1.96779
1.98896
1.99202
1.99013
1.98338
1.97747
1.97289
1.96856
1.96424
1.9606
1.9578
1.95494
1.95262
1.95157
1.95146
1.95218
1.95516
1.96039
1.96635
1.97305
1.98062
1.98889
1.99707
2.0044
2.0104
2.0147
2.01725
2.01823
2.01822
2.01759
2.01554
2.01119
2.00618
2.00023
1.99475
1.98878
1.98397
1.98112
1.97908
1.98044
1.98479
1.99864
2.03162
2.09012
2.17346
2.24894
2.29622
2.33466
2.38513
2.44566
2.50821
2.55853
2.59049
2.588
2.58296
2.57325
2.54949
2.52827
2.51406
2.50419
2.49874
2.49538
2.4937
2.4892
2.48129
2.47005
2.45617
2.44206
2.42958
2.41866
2.41089
2.40491
2.4025
2.40201
2.40235
2.40317
2.40385
2.4044
2.40438
2.4041
2.40344
2.40237
2.40081
2.39919
2.39744
2.39571
2.39437
2.39319
2.39349
2.39428
2.40539
2.06022
1.98601
1.93565
1.88044
1.81897
1.76822
1.73869
1.73775
1.7435
1.75624
1.77752
1.7933
1.80326
1.808
1.80782
1.80705
1.80536
1.80246
1.79936
1.7962
1.79333
1.7904
1.78828
1.78708
1.78672
1.78683
1.78789
1.79036
1.79347
1.79697
1.80065
1.80429
1.80778
1.8111
1.81415
1.81667
1.81845
1.81954
1.82012
1.82031
1.82032
1.8201
1.81964
1.81819
1.81724
1.81606
1.81544
1.81683
1.82119
1.83591
1.87137
1.93628
2.01514
2.07408
2.08934
2.08344
2.08689
2.10223
2.13426
2.17677
2.233
2.29719
2.35273
2.38907
2.39522
2.39109
2.38011
2.35746
2.3319
2.30571
2.28532
2.26953
2.2577
2.24974
2.24494
2.24071
2.23621
2.23014
2.22367
2.21715
2.21127
2.20554
2.20032
2.19502
2.19028
2.18561
2.1814
2.17712
2.1731
2.16884
2.16496
2.1608
2.15743
2.15375
2.15092
2.14854
2.14629
2.14619
2.14647
2.15629
2.07663
1.99569
1.93156
1.87569
1.81975
1.77352
1.73187
1.69825
1.68051
1.67114
1.67313
1.67875
1.69085
1.70121
1.70931
1.71203
1.71104
1.70926
1.70511
1.70139
1.69844
1.69627
1.69531
1.69514
1.69533
1.69628
1.69832
1.70083
1.70337
1.70614
1.70904
1.7117
1.71384
1.7154
1.71656
1.71746
1.71821
1.71883
1.71923
1.71936
1.71934
1.71942
1.71954
1.72043
1.72113
1.7222
1.72411
1.73162
1.75114
1.79414
1.86822
1.95073
2.00538
2.0056
1.99431
1.98161
1.97789
1.98015
1.98835
2.00518
2.03348
2.06735
2.10714
2.15529
2.20433
2.24257
2.26751
2.25893
2.25014
2.23485
2.21036
2.18583
2.16337
2.14804
2.1379
2.13277
2.1321
2.1326
2.13285
2.13183
2.12899
2.1235
2.11659
2.10869
2.10043
2.09177
2.08355
2.07519
2.06761
2.06056
2.05391
2.04826
2.04253
2.03806
2.03317
2.02984
2.02555
2.02384
2.02122
2.02757
2.1076
2.01645
1.9421
1.88202
1.82522
1.77635
1.73077
1.69064
1.655
1.63023
1.61964
1.61594
1.61706
1.62008
1.62692
1.63002
1.63459
1.63649
1.63607
1.63633
1.63506
1.63357
1.63303
1.63301
1.63344
1.6347
1.63652
1.63875
1.64127
1.64389
1.64633
1.64839
1.65005
1.65146
1.65279
1.65395
1.65483
1.65529
1.65543
1.65545
1.65543
1.65555
1.65589
1.65604
1.65668
1.65911
1.66882
1.69372
1.74556
1.82891
1.91829
1.95753
1.95508
1.94681
1.93735
1.93213
1.92865
1.92392
1.92242
1.92342
1.92572
1.92839
1.9392
1.95315
1.97575
2.00398
2.04556
2.08906
2.13286
2.16502
2.1644
2.16327
2.15752
2.14034
2.12213
2.10555
2.09157
2.08201
2.07343
2.06743
2.06119
2.05595
2.04944
2.04195
2.03394
2.02543
2.01636
2.00874
2.00046
1.99429
1.98713
1.98257
1.97605
1.97259
1.96665
1.96369
1.95799
1.95586
1.95142
1.95606
2.14768
2.06449
1.97923
1.90695
1.84404
1.7911
1.74234
1.70079
1.66379
1.63238
1.60565
1.58782
1.57711
1.56872
1.56727
1.5671
1.56847
1.57045
1.57533
1.57701
1.58008
1.5825
1.58188
1.58221
1.58343
1.58517
1.58712
1.58944
1.5922
1.59494
1.59737
1.59939
1.60105
1.60243
1.60375
1.60496
1.60587
1.60638
1.60658
1.60676
1.6072
1.60834
1.60928
1.6104
1.61508
1.62826
1.65986
1.72076
1.80771
1.9003
1.9238
1.92187
1.92085
1.91912
1.91631
1.9109
1.90689
1.89997
1.8889
1.87714
1.86281
1.84582
1.83547
1.82117
1.82481
1.83683
1.86073
1.89484
1.94201
1.99321
2.05099
2.09934
2.13602
2.1289
2.12426
2.11566
2.09405
2.07065
2.04593
2.02654
2.00888
1.99573
1.98386
1.97545
1.96767
1.9624
1.95815
1.95411
1.9493
1.94546
1.93983
1.93624
1.92999
1.92653
1.91953
1.91605
1.90898
1.90603
1.89966
1.90308
2.15514
2.09626
2.02729
1.95863
1.8922
1.83272
1.77952
1.73291
1.69063
1.65437
1.61949
1.58904
1.56417
1.54616
1.53344
1.52626
1.52212
1.5216
1.52299
1.52542
1.53105
1.53395
1.54096
1.54402
1.54872
1.55331
1.5584
1.56356
1.56838
1.57253
1.57608
1.57899
1.58135
1.5832
1.5844
1.58499
1.58502
1.58497
1.58475
1.58415
1.58394
1.5842
1.58417
1.58936
1.60479
1.64192
1.71482
1.80371
1.88703
1.90595
1.90541
1.90838
1.91038
1.9096
1.90676
1.90008
1.89136
1.87484
1.85635
1.8307
1.80535
1.7793
1.75962
1.74878
1.74974
1.75389
1.76362
1.78165
1.80628
1.83644
1.87535
1.91557
1.96882
2.01432
2.05775
2.08171
2.06431
2.05285
2.03711
2.01341
1.98747
1.96559
1.94623
1.93463
1.9241
1.91916
1.91364
1.91117
1.90788
1.90573
1.90207
1.89916
1.89323
1.88845
1.88023
1.87559
1.86665
1.86294
1.85516
1.85768
2.13788
2.09424
2.0406
1.984
1.92585
1.86769
1.81427
1.76362
1.71815
1.67513
1.63802
1.60134
1.5703
1.5425
1.51955
1.50488
1.49314
1.48704
1.48626
1.48722
1.49052
1.498
1.50725
1.51887
1.52955
1.53829
1.54745
1.55523
1.5619
1.56761
1.5724
1.57595
1.57825
1.57954
1.57987
1.57977
1.57928
1.57739
1.57589
1.57243
1.57069
1.56911
1.57429
1.59195
1.63357
1.71617
1.80798
1.87228
1.89578
1.89768
1.90243
1.90665
1.90602
1.90253
1.89476
1.87907
1.85953
1.83286
1.80597
1.77594
1.7504
1.73339
1.72308
1.71778
1.716
1.71687
1.71942
1.72559
1.7328
1.74249
1.75325
1.77084
1.79042
1.8121
1.84728
1.87986
1.92917
1.96665
1.99679
1.98435
1.97883
1.97108
1.95583
1.94004
1.92096
1.90931
1.89686
1.89055
1.88146
1.87619
1.86829
1.86314
1.85626
1.85189
1.84433
1.83971
1.83197
1.82842
1.82108
1.8236
2.09905
2.07078
2.03276
1.98384
1.93318
1.88136
1.83026
1.78176
1.7353
1.69197
1.6513
1.6142
1.57867
1.54863
1.52047
1.49786
1.48272
1.47
1.46716
1.46883
1.4728
1.4812
1.49209
1.50508
1.51901
1.53164
1.54394
1.55274
1.56004
1.56594
1.57092
1.57376
1.57461
1.57449
1.57395
1.57242
1.56836
1.56646
1.56157
1.55773
1.55669
1.56243
1.58273
1.63173
1.71764
1.81972
1.86857
1.89517
1.89953
1.90363
1.90447
1.9019
1.89613
1.88304
1.86497
1.83795
1.81205
1.78239
1.75605
1.7368
1.72424
1.71545
1.70929
1.70502
1.70159
1.69953
1.69661
1.69488
1.69038
1.68603
1.67976
1.67638
1.67358
1.67788
1.68995
1.70842
1.73963
1.76966
1.82426
1.87018
1.92314
1.95736
1.94947
1.94672
1.93839
1.9252
1.90671
1.88959
1.86865
1.85658
1.84107
1.83311
1.82168
1.8147
1.80569
1.8009
1.79346
1.79118
1.78651
1.78967
2.09577
2.05621
2.01834
1.97857
1.93374
1.88671
1.83895
1.79224
1.74633
1.7033
1.66188
1.6247
1.58967
1.55949
1.53271
1.5099
1.49188
1.48001
1.47311
1.47334
1.47618
1.48313
1.4908
1.50378
1.51104
1.52318
1.53329
1.54284
1.54892
1.55568
1.55878
1.55995
1.55996
1.55939
1.55749
1.55334
1.55134
1.54615
1.54205
1.54245
1.55006
1.57483
1.63471
1.72523
1.83254
1.87422
1.89801
1.90326
1.90633
1.9049
1.89944
1.88717
1.87173
1.8445
1.81832
1.789
1.76292
1.74275
1.72987
1.71977
1.71275
1.70717
1.70267
1.69832
1.69332
1.6873
1.67906
1.6692
1.65622
1.64345
1.6308
1.62071
1.61182
1.61083
1.61247
1.61766
1.62825
1.64751
1.67164
1.69674
1.7405
1.77588
1.83703
1.88012
1.91552
1.90781
1.90047
1.8885
1.87304
1.85744
1.83551
1.82011
1.80102
1.79232
1.77941
1.77458
1.76588
1.76261
1.75616
1.75939
2.10417
2.05912
2.01909
1.97881
1.9361
1.89125
1.84555
1.80032
1.75636
1.71506
1.67658
1.64213
1.61048
1.58336
1.5593
1.53957
1.52276
1.51012
1.50115
1.49571
1.49362
1.4943
1.49675
1.49984
1.50651
1.50967
1.51562
1.52184
1.52684
1.53178
1.53563
1.53723
1.53689
1.53557
1.53431
1.53178
1.52896
1.52503
1.52731
1.5381
1.56905
1.63919
1.74657
1.85327
1.88955
1.90526
1.9078
1.90772
1.90484
1.89502
1.87994
1.85467
1.82799
1.79826
1.77163
1.74996
1.73673
1.72588
1.7187
1.71197
1.70724
1.70213
1.69665
1.69018
1.68169
1.67139
1.6584
1.64384
1.62834
1.61436
1.60043
1.59094
1.58244
1.57906
1.57547
1.57558
1.5775
1.58121
1.58663
1.596
1.61002
1.62806
1.65494
1.67816
1.72505
1.76549
1.82041
1.84955
1.8559
1.84884
1.83394
1.82582
1.81051
1.79647
1.77809
1.76749
1.75045
1.7458
1.73581
1.73786
2.12498
2.07609
2.03043
1.98702
1.94476
1.90175
1.85896
1.81682
1.77698
1.73978
1.70576
1.67462
1.64642
1.62121
1.59958
1.58033
1.56389
1.5495
1.53699
1.52532
1.51564
1.50789
1.50151
1.49733
1.4946
1.49474
1.49518
1.49625
1.49895
1.50179
1.50509
1.50793
1.50868
1.50864
1.50769
1.50754
1.50703
1.51204
1.52661
1.56731
1.64977
1.76197
1.86724
1.90423
1.91157
1.91138
1.90948
1.90312
1.88918
1.865
1.83788
1.80955
1.7824
1.75963
1.74511
1.73314
1.72569
1.71831
1.71341
1.70796
1.70251
1.69569
1.68763
1.67759
1.66536
1.65143
1.63595
1.62141
1.60697
1.59516
1.58454
1.57672
1.56925
1.56454
1.55813
1.55549
1.54979
1.54809
1.54394
1.54329
1.54263
1.54415
1.54828
1.55725
1.57385
1.59093
1.62374
1.65146
1.708
1.7512
1.7966
1.81472
1.80418
1.79792
1.78659
1.77714
1.76249
1.74932
1.73267
1.73117
2.13941
2.09795
2.0561
2.01235
1.97012
1.92909
1.8895
1.85107
1.81418
1.77932
1.74718
1.71745
1.69048
1.6658
1.64374
1.62347
1.60427
1.58602
1.56855
1.55111
1.53425
1.51852
1.50488
1.49355
1.48492
1.4789
1.4748
1.47303
1.47314
1.474
1.47535
1.47782
1.48025
1.48207
1.48344
1.48632
1.49436
1.51558
1.56303
1.66615
1.77657
1.87408
1.9132
1.91475
1.9142
1.91005
1.90003
1.87979
1.85229
1.82526
1.79753
1.77331
1.75649
1.74329
1.73431
1.72596
1.72049
1.71456
1.70977
1.70276
1.69532
1.6854
1.67369
1.66032
1.64529
1.63078
1.61634
1.604
1.59248
1.5837
1.57485
1.56864
1.56093
1.55525
1.54751
1.5413
1.53275
1.52642
1.51667
1.51112
1.5022
1.49846
1.49305
1.4926
1.49378
1.49732
1.5048
1.51944
1.541
1.56096
1.60118
1.63605
1.69888
1.73238
1.77332
1.76644
1.75902
1.75174
1.73927
1.73793
2.14485
2.10855
2.07125
2.03214
1.99351
1.95578
1.91922
1.88373
1.84945
1.81682
1.78608
1.75747
1.73051
1.70527
1.68109
1.65784
1.63495
1.61203
1.58994
1.56807
1.5469
1.52743
1.50893
1.49246
1.47918
1.46889
1.46052
1.45554
1.4526
1.45193
1.45209
1.45295
1.45521
1.45824
1.46381
1.47571
1.5032
1.55822
1.67048
1.79022
1.88253
1.9173
1.91502
1.91397
1.90844
1.89435
1.86883
1.8426
1.81646
1.79074
1.77084
1.75636
1.74545
1.73627
1.72908
1.72224
1.71667
1.70974
1.70219
1.69247
1.68108
1.66767
1.65314
1.63836
1.62391
1.61126
1.59919
1.58973
1.58009
1.57276
1.56423
1.55734
1.5485
1.54141
1.53168
1.52408
1.51331
1.50482
1.49363
1.48516
1.47432
1.46771
1.45801
1.45428
1.44794
1.44621
1.44549
1.44671
1.44998
1.45675
1.46823
1.48331
1.50799
1.53083
1.57443
1.61518
1.67915
1.69636
1.73589
1.71991
2.14098
2.11106
2.07867
2.04251
2.00591
1.96995
1.93572
1.90257
1.87086
1.84052
1.8115
1.78368
1.75666
1.73031
1.70415
1.67853
1.65277
1.62741
1.60225
1.57818
1.55479
1.5331
1.51329
1.49467
1.47864
1.46423
1.45332
1.44444
1.43879
1.43479
1.43454
1.43484
1.437
1.44302
1.45754
1.48944
1.5503
1.66874
1.79739
1.8862
1.91836
1.91412
1.9115
1.90479
1.88755
1.86019
1.83428
1.80969
1.78725
1.77059
1.75808
1.74824
1.73951
1.73142
1.72404
1.71612
1.70786
1.69761
1.68635
1.67282
1.65852
1.64356
1.62906
1.61591
1.60372
1.59348
1.58353
1.57539
1.56624
1.55871
1.54911
1.54156
1.53151
1.52357
1.51279
1.50408
1.49251
1.48366
1.47201
1.46374
1.45294
1.44547
1.43584
1.42976
1.42108
1.41704
1.40975
1.40778
1.40368
1.40311
1.40347
1.40556
1.40927
1.41659
1.43091
1.44455
1.47345
1.49919
1.55909
1.58679
2.12022
2.10562
2.07782
2.04592
2.01113
1.97609
1.94244
1.91036
1.8799
1.85054
1.82267
1.79515
1.76849
1.74175
1.71514
1.68816
1.66154
1.63478
1.60883
1.58363
1.55967
1.53694
1.51646
1.49675
1.48021
1.46403
1.45194
1.43849
1.43275
1.42459
1.42531
1.42685
1.43212
1.44787
1.48004
1.54736
1.67083
1.79459
1.88373
1.91521
1.91058
1.90636
1.89635
1.87782
1.84889
1.82392
1.80024
1.78206
1.76822
1.75785
1.74852
1.73952
1.73028
1.72101
1.71108
1.70039
1.68868
1.67565
1.66162
1.64709
1.6328
1.61959
1.60742
1.59676
1.58671
1.57785
1.56865
1.56025
1.55077
1.54245
1.5326
1.52435
1.51376
1.50514
1.4938
1.48497
1.47355
1.46495
1.45386
1.44577
1.43507
1.42774
1.41771
1.41123
1.40219
1.39659
1.38846
1.38401
1.37645
1.3733
1.36703
1.36527
1.36153
1.36167
1.36215
1.36443
1.37038
1.3782
1.40378
1.40724
2.09577
2.08869
2.07259
2.04435
2.0125
1.97873
1.94531
1.91328
1.88301
1.85428
1.82636
1.79991
1.77313
1.74719
1.72063
1.69413
1.66713
1.64058
1.6136
1.5886
1.56422
1.54118
1.52067
1.50051
1.48362
1.46668
1.45443
1.44044
1.43159
1.4255
1.42815
1.43316
1.4475
1.48299
1.54895
1.67801
1.79889
1.88407
1.91043
1.90343
1.89752
1.88441
1.86079
1.83492
1.80998
1.78936
1.7733
1.76194
1.75198
1.74243
1.73256
1.72238
1.71182
1.70067
1.68902
1.67661
1.66377
1.65033
1.63736
1.6247
1.61303
1.60222
1.59192
1.58246
1.57285
1.56379
1.55417
1.54519
1.53562
1.52683
1.51702
1.50814
1.49777
1.48891
1.47821
1.46961
1.45874
1.45038
1.43955
1.43155
1.42115