/*--------------------------------*- C++ -*----------------------------------*\
| =========                 |                                                 |
| \\      /  F ield         | OpenFOAM: The Open Source CFD Toolbox           |
|  \\    /   O peration     | Version:  2412                                  |
|   \\  /    A nd           | Website:  www.openfoam.com                      |
|    \\/     M anipulation  |                                                 |
\*---------------------------------------------------------------------------*/
FoamFile
{
    version     2.0;
    format      ascii;
    arch        "LSB;label=32;scalar=64";
    class       volVectorField;
    location    "1.5";
    object      U;
}
// * * * * * * * * * * * * * * * * * * * * * * * * * * * * * * * * * * * * * //

dimensions      [0 1 -1 0 0 0 0];

internalField   nonuniform List<vector> 
7000
(
(3 -1.04093e-11 0)
(3 -2.32021e-11 0)
(3 -5.34472e-11 0)
(3 3.55421e-11 0)
(3 -5.40847e-10 0)
(3 9.26521e-10 0)
(3 -1.64757e-09 0)
(3 5.15597e-09 0)
(3 -2.10558e-09 0)
(3 2.47945e-08 0)
(3 4.67574e-08 0)
(3 5.21455e-07 0)
(3 1.45641e-06 0)
(3 3.55932e-06 0)
(3 9.00368e-06 0)
(2.99998 1.62525e-05 0)
(3.00019 2.78351e-05 0)
(3.0006 4.28275e-05 0)
(3.00073 6.81344e-05 0)
(3.0019 0.000101432 0)
(2.99991 0.000177851 0)
(2.99222 0.000414149 0)
(3.00451 0.000742781 0)
(2.79593 0.00109392 0)
(2.4081 0.00160328 0)
(1.66469 0.00603629 0)
(0.663298 0.00676539 0)
(0.584256 0.00776669 0)
(0.643591 0.0101782 0)
(0.670065 0.0124653 0)
(0.642581 0.0135361 0)
(0.588046 0.0130403 0)
(0.526286 0.0117238 0)
(0.479915 0.0102942 0)
(0.444912 0.00905213 0)
(0.414491 0.00821098 0)
(0.385613 0.00779316 0)
(0.357688 0.00769511 0)
(0.330546 0.00777611 0)
(0.304127 0.00794427 0)
(0.278374 0.0081906 0)
(0.253178 0.00855613 0)
(0.226562 0.00912404 0)
(0.197202 0.00996658 0)
(0.166194 0.0109071 0)
(0.135711 0.0115154 0)
(0.107156 0.011351 0)
(0.0784087 0.0108069 0)
(0.0470464 0.0111813 0)
(0.0285879 0.0147748 0)
(3 -2.07066e-11 0)
(3 -2.7133e-11 0)
(3 -1.54978e-10 0)
(3 -1.50204e-10 0)
(3 -1.11047e-09 0)
(3 2.32165e-10 0)
(3 -3.5802e-09 0)
(3 1.32751e-09 0)
(3 -9.23668e-09 0)
(3 1.01139e-08 0)
(3 1.49505e-08 0)
(3 5.67952e-07 0)
(3 1.7659e-06 0)
(3 5.55108e-06 0)
(3 1.73771e-05 0)
(2.99999 3.67093e-05 0)
(3.00021 0.000192038 0)
(3.00063 3.04375e-05 0)
(3.00076 0.00013887 0)
(3.00197 0.00014797 0)
(3.00007 0.000444201 0)
(2.99256 0.00105368 0)
(3.00495 0.00179584 0)
(2.7969 0.00259058 0)
(2.41428 0.00472359 0)
(1.67436 0.0159002 0)
(0.666914 0.0202165 0)
(0.585394 0.0236649 0)
(0.642771 0.02935 0)
(0.668058 0.0334773 0)
(0.64151 0.0348102 0)
(0.590115 0.0332324 0)
(0.532008 0.0307291 0)
(0.487662 0.0281471 0)
(0.45277 0.0257894 0)
(0.421359 0.0238354 0)
(0.391189 0.0223883 0)
(0.36219 0.0214375 0)
(0.334404 0.0209117 0)
(0.307743 0.0207758 0)
(0.281995 0.0210542 0)
(0.256926 0.0217687 0)
(0.230572 0.0229414 0)
(0.201625 0.0245846 0)
(0.171171 0.026354 0)
(0.141112 0.0276089 0)
(0.112334 0.0276809 0)
(0.0820404 0.0270105 0)
(0.0474619 0.0274127 0)
(0.0262049 0.0317994 0)
(3 -1.45716e-11 0)
(3 -1.73674e-11 0)
(3 -1.42812e-10 0)
(3 -2.68217e-10 0)
(3 -8.80268e-10 0)
(3 -1.26447e-09 0)
(3 -3.37616e-09 0)
(3 -6.53873e-09 0)
(3 -9.481e-09 0)
(3 -1.44384e-08 0)
(3 5.4768e-08 0)
(3 -5.3156e-08 0)
(3 -4.77214e-07 0)
(3.00001 2.53294e-06 0)
(3.00001 7.58674e-06 0)
(3.00008 1.92699e-05 0)
(3.00019 0.000161007 0)
(3.00057 -1.59239e-05 0)
(3.0008 8.34496e-05 0)
(3.00209 4.43957e-05 0)
(3.00041 0.000441369 0)
(2.99306 0.00112327 0)
(3.00552 0.00201612 0)
(2.79833 0.00284208 0)
(2.42288 0.00755099 0)
(1.68711 0.0209366 0)
(0.67206 0.0349282 0)
(0.585446 0.0440399 0)
(0.639261 0.0531575 0)
(0.662193 0.0578184 0)
(0.634959 0.058289 0)
(0.584782 0.0550329 0)
(0.529262 0.0510341 0)
(0.487616 0.0470626 0)
(0.454956 0.0436768 0)
(0.42509 0.0409348 0)
(0.395761 0.0388876 0)
(0.366905 0.0374953 0)
(0.338676 0.0366678 0)
(0.311238 0.0363924 0)
(0.284686 0.0367538 0)
(0.259068 0.0378496 0)
(0.232644 0.0397652 0)
(0.204084 0.042471 0)
(0.174214 0.0454576 0)
(0.144526 0.0478641 0)
(0.115596 0.0488847 0)
(0.0845064 0.0488864 0)
(0.0484698 0.0497993 0)
(0.0251707 0.0552208 0)
(3 -6.80015e-12 0)
(3 -1.15745e-11 0)
(3 -5.66389e-11 0)
(3 -1.09915e-10 0)
(3 -4.52928e-10 0)
(3 -8.61136e-10 0)
(3 -2.70762e-09 0)
(3 -4.44884e-09 0)
(3 -1.2317e-08 0)
(3 -1.54535e-08 0)
(3 -1.13078e-08 0)
(3 -3.36429e-07 0)
(3 -7.06784e-07 0)
(3.00001 -2.63555e-06 0)
(3.00001 -4.60406e-06 0)
(3.00008 -1.23062e-05 0)
(3.00019 -0.000142428 0)
(3.00058 2.22306e-05 0)
(3.0008 -3.20105e-05 0)
(3.00219 -5.08787e-05 0)
(3.00072 0.000314998 0)
(2.99357 0.000890078 0)
(3.00604 0.00185354 0)
(2.80009 0.00257065 0)
(2.43075 0.00948126 0)
(1.69795 0.0245065 0)
(0.671267 0.050436 0)
(0.579633 0.0649049 0)
(0.63296 0.0763592 0)
(0.656437 0.081411 0)
(0.630671 0.0811681 0)
(0.582753 0.0764628 0)
(0.529791 0.0707676 0)
(0.489918 0.0653094 0)
(0.458232 0.0608836 0)
(0.42878 0.0575247 0)
(0.399653 0.055157 0)
(0.370899 0.0536001 0)
(0.342676 0.0526735 0)
(0.315142 0.0523518 0)
(0.288398 0.0527749 0)
(0.262565 0.0541354 0)
(0.236039 0.0566359 0)
(0.207502 0.0602684 0)
(0.177658 0.0644214 0)
(0.147778 0.0681049 0)
(0.118355 0.0703956 0)
(0.0865974 0.0714872 0)
(0.049759 0.0730833 0)
(0.0248617 0.0791089 0)
(3 7.84564e-12 0)
(3 -1.4242e-11 0)
(3 4.50279e-11 0)
(3 1.16286e-10 0)
(3 1.80309e-10 0)
(3 -1.50556e-10 0)
(3 -4.61862e-11 0)
(3 1.95214e-09 0)
(3 -1.23561e-08 0)
(3 -1.9366e-08 0)
(3 -1.49176e-07 0)
(3 -3.85059e-07 0)
(3 -3.48355e-07 0)
(3.00001 -3.7412e-06 0)
(3.00001 -7.1698e-06 0)
(2.99999 -1.59704e-05 0)
(3.00021 -0.000145886 0)
(3.00064 -1.31754e-05 0)
(3.00075 -0.000155194 0)
(3.00231 -0.000207473 0)
(3.00104 0.000536067 0)
(2.99409 0.00141479 0)
(3.00654 0.00288135 0)
(2.80249 0.00447516 0)
(2.44151 0.0110062 0)
(1.71353 0.0351266 0)
(0.671088 0.0726964 0)
(0.574348 0.089403 0)
(0.628031 0.0997857 0)
(0.652073 0.103662 0)
(0.627338 0.102201 0)
(0.581262 0.09651 0)
(0.530634 0.0897925 0)
(0.492485 0.0835463 0)
(0.461858 0.0785316 0)
(0.433056 0.0747446 0)
(0.404426 0.0720939 0)
(0.376079 0.0703509 0)
(0.348154 0.0693112 0)
(0.320762 0.0689611 0)
(0.293959 0.0694914 0)
(0.267899 0.0711716 0)
(0.241095 0.0742896 0)
(0.212215 0.0788605 0)
(0.181916 0.084196 0)
(0.151387 0.0892239 0)
(0.121168 0.0929295 0)
(0.0886688 0.0952957 0)
(0.0512239 0.0976208 0)
(0.0249907 0.104012 0)
(3 -3.08564e-12 0)
(3 -6.9961e-12 0)
(3 -3.67141e-11 0)
(3 -7.34645e-11 0)
(3 -3.8904e-10 0)
(3 -7.52987e-10 0)
(3 -3.65331e-09 0)
(3 -5.83403e-09 0)
(3 -2.6386e-08 0)
(3 -4.69371e-08 0)
(3 -1.65475e-07 0)
(3 -3.93525e-07 0)
(3 -1.1741e-06 0)
(3 -1.29609e-06 0)
(3.00001 -1.00597e-05 0)
(2.99999 -3.06976e-06 0)
(3.00019 1.16713e-05 0)
(3.00057 -0.000120339 0)
(3.00067 -0.0003137 0)
(3.00265 -0.000487286 0)
(3.00185 0.000319569 0)
(2.99524 0.00137614 0)
(3.00799 0.00369617 0)
(2.8052 0.00678586 0)
(2.46274 0.0094594 0)
(1.7481 0.0451412 0)
(0.685123 0.0926115 0)
(0.581024 0.112364 0)
(0.631727 0.123458 0)
(0.653651 0.127191 0)
(0.627354 0.124388 0)
(0.581013 0.117157 0)
(0.531488 0.108931 0)
(0.49488 0.101563 0)
(0.465683 0.0958622 0)
(0.438046 0.0917527 0)
(0.410372 0.0890273 0)
(0.382748 0.0873259 0)
(0.355301 0.0863797 0)
(0.328115 0.0861825 0)
(0.301218 0.0869856 0)
(0.274822 0.0891418 0)
(0.24758 0.0929943 0)
(0.218128 0.0986007 0)
(0.187083 0.105208 0)
(0.155613 0.111662 0)
(0.124366 0.116852 0)
(0.090977 0.12056 0)
(0.0528509 0.12364 0)
(0.0253845 0.130339 0)
(3 -1.4973e-11 0)
(3 2.43669e-12 0)
(3 -1.32958e-10 0)
(3 -2.65908e-10 0)
(3 -9.74563e-10 0)
(3 -1.34733e-09 0)
(3 -6.71247e-09 0)
(3 -1.30319e-08 0)
(3 -3.68188e-08 0)
(3 -6.32346e-08 0)
(3 -2.00301e-07 0)
(3 -3.42565e-07 0)
(3 -1.33316e-06 0)
(3 -2.26756e-06 0)
(3.00001 -1.01045e-05 0)
(3.00001 -1.24679e-05 0)
(3.00013 -3.78838e-06 0)
(3.00041 -0.00019133 0)
(3.0005 -0.000481613 0)
(3.00273 -0.000741989 0)
(3.00238 -0.0012456 0)
(2.99656 -0.000766413 0)
(3.01001 0.00229939 0)
(2.80672 0.00447016 0)
(2.49012 0.00439924 0)
(1.79425 0.0565194 0)
(0.694261 0.119346 0)
(0.579009 0.140324 0)
(0.629696 0.150108 0)
(0.653122 0.152284 0)
(0.628472 0.147321 0)
(0.58432 0.138145 0)
(0.537024 0.128291 0)
(0.501854 0.119752 0)
(0.473351 0.113315 0)
(0.446058 0.108911 0)
(0.41866 0.106182 0)
(0.391288 0.10463 0)
(0.364025 0.103924 0)
(0.336876 0.104053 0)
(0.309795 0.105311 0)
(0.283001 0.108128 0)
(0.255277 0.11287 0)
(0.225188 0.119652 0)
(0.193262 0.127656 0)
(0.160671 0.135635 0)
(0.128202 0.142358 0)
(0.0937209 0.147432 0)
(0.0547408 0.151315 0)
(0.0260087 0.158393 0)
(3 -2.78087e-12 0)
(3 -9.0511e-12 0)
(3 -4.18145e-11 0)
(3 -6.17979e-11 0)
(3 -3.84126e-10 0)
(3 -6.30191e-10 0)
(3 -2.72347e-09 0)
(3 -6.28121e-09 0)
(3 -1.87114e-08 0)
(3 -3.10867e-08 0)
(3 -1.25342e-07 0)
(3 -1.1947e-07 0)
(3 -1.19202e-06 0)
(3 -3.87796e-06 0)
(3 -8.2191e-06 0)
(2.99999 -2.83311e-05 0)
(3.00006 -3.46993e-05 0)
(3.00023 -0.000209944 0)
(3.00028 -0.000400342 0)
(3.00207 -0.000714851 0)
(3.00187 -0.00100298 0)
(2.99787 -0.00124217 0)
(3.01146 -0.000292848 0)
(2.80823 0.000725083 0)
(2.53763 0.0111409 0)
(1.86365 0.0458342 0)
(0.711586 0.150599 0)
(0.578632 0.172451 0)
(0.626528 0.178821 0)
(0.651105 0.177185 0)
(0.629014 0.168897 0)
(0.588429 0.157723 0)
(0.544429 0.146812 0)
(0.511379 0.137754 0)
(0.483997 0.131034 0)
(0.457251 0.126573 0)
(0.430093 0.123944 0)
(0.402763 0.122602 0)
(0.375387 0.122208 0)
(0.347962 0.122769 0)
(0.320422 0.124613 0)
(0.292998 0.128245 0)
(0.264607 0.134032 0)
(0.233741 0.142179 0)
(0.200778 0.151726 0)
(0.166874 0.161347 0)
(0.132965 0.169659 0)
(0.0971424 0.176125 0)
(0.0570127 0.180843 0)
(0.0268655 0.188392 0)
(3 5.31055e-13 0)
(3 3.16847e-12 0)
(3 -5.03941e-12 0)
(3 7.53377e-13 0)
(3 -1.49906e-10 0)
(3 -2.02122e-10 0)
(3 -1.70776e-09 0)
(3 -2.6974e-09 0)
(3 -1.48722e-08 0)
(3 -2.6419e-08 0)
(3 -1.18763e-07 0)
(3 -2.1132e-07 0)
(3 -1.02107e-06 0)
(2.99999 -1.6088e-06 0)
(2.99999 -7.77952e-06 0)
(2.99999 -1.89806e-05 0)
(2.99999 -3.53331e-05 0)
(3.00014 -0.000177395 0)
(3.00012 -0.00040449 0)
(3.00228 -0.000753684 0)
(3.00206 -0.00145395 0)
(2.99694 -0.00226882 0)
(3.01088 -0.0024715 0)
(2.81549 -0.00368853 0)
(2.53623 0.0151645 0)
(1.87261 0.0558837 0)
(0.716241 0.189014 0)
(0.561197 0.206413 0)
(0.616204 0.206689 0)
(0.64711 0.200514 0)
(0.630218 0.188607 0)
(0.594593 0.175603 0)
(0.554465 0.1642 0)
(0.523753 0.155208 0)
(0.497669 0.148676 0)
(0.471725 0.144505 0)
(0.445021 0.142243 0)
(0.41782 0.141325 0)
(0.390273 0.141428 0)
(0.362394 0.142584 0)
(0.334143 0.145165 0)
(0.305769 0.149743 0)
(0.276404 0.156723 0)
(0.24446 0.166438 0)
(0.210134 0.177707 0)
(0.174603 0.18911 0)
(0.138934 0.199077 0)
(0.101441 0.206969 0)
(0.0597915 0.212561 0)
(0.0279713 0.220666 0)
(3 4.37839e-12 0)
(3 8.5168e-12 0)
(3 2.21064e-11 0)
(3 4.4694e-11 0)
(3 3.7674e-11 0)
(3 9.9711e-11 0)
(3 -7.22407e-10 0)
(3 4.02721e-10 0)
(3 -1.03739e-08 0)
(3 -1.77923e-08 0)
(3 -1.15035e-07 0)
(3 -2.24692e-07 0)
(3 -6.88768e-07 0)
(2.99999 2.0804e-07 0)
(2.99998 -5.05545e-06 0)
(2.99997 -9.38855e-06 0)
(2.99994 -3.70821e-05 0)
(2.99994 -0.000154995 0)
(2.99983 -0.000446081 0)
(3.00122 -0.000878861 0)
(3.00073 -0.00366246 0)
(2.99703 -0.0048963 0)
(3.01 -0.00382361 0)
(2.82228 -0.0116372 0)
(2.59791 0.0162154 0)
(1.96416 0.09167 0)
(0.755858 0.22717 0)
(0.563261 0.239637 0)
(0.614542 0.234165 0)
(0.64843 0.222602 0)
(0.635798 0.206467 0)
(0.6051 0.191415 0)
(0.568561 0.180412 0)
(0.539721 0.172081 0)
(0.514734 0.166155 0)
(0.489682 0.162591 0)
(0.463638 0.160956 0)
(0.436771 0.160721 0)
(0.409188 0.161596 0)
(0.380864 0.163633 0)
(0.351766 0.167225 0)
(0.322157 0.172972 0)
(0.291464 0.181332 0)
(0.258034 0.19281 0)
(0.221885 0.20598 0)
(0.18428 0.219327 0)
(0.146431 0.231036 0)
(0.106863 0.240418 0)
(0.0632178 0.246922 0)
(0.029359 0.255675 0)
(3 6.91097e-12 0)
(3 1.07303e-11 0)
(3 4.9609e-11 0)
(3 8.3829e-11 0)
(3 2.08481e-10 0)
(3 3.91083e-10 0)
(3 6.48136e-10 0)
(3 1.42502e-09 0)
(3 -6.71136e-10 0)
(3 4.6221e-10 0)
(3 -4.47134e-08 0)
(3 -7.84681e-08 0)
(3 -4.29474e-07 0)
(2.99999 -7.51584e-07 0)
(2.99998 -3.54294e-06 0)
(2.99996 -3.90129e-06 0)
(2.99988 -3.16981e-05 0)
(2.99982 -4.0806e-05 0)
(2.99954 -0.000297903 0)
(2.9997 -0.000449622 0)
(2.99881 -0.00338396 0)
(2.99683 -0.00570395 0)
(3.00602 -0.0113647 0)
(2.84006 -0.0235775 0)
(2.6642 0.0254141 0)
(2.05718 0.0879445 0)
(0.793077 0.270857 0)
(0.559227 0.277881 0)
(0.611334 0.264763 0)
(0.651527 0.243804 0)
(0.645348 0.222609 0)
(0.621024 0.205302 0)
(0.588358 0.195409 0)
(0.560638 0.188393 0)
(0.536376 0.183506 0)
(0.512144 0.180797 0)
(0.486812 0.179992 0)
(0.46037 0.180695 0)
(0.432817 0.182661 0)
(0.404041 0.185956 0)
(0.373954 0.190964 0)
(0.342807 0.198277 0)
(0.310408 0.208359 0)
(0.275 0.221815 0)
(0.23645 0.237092 0)
(0.196231 0.252526 0)
(0.155706 0.266066 0)
(0.113597 0.276967 0)
(0.0674352 0.284448 0)
(0.0310758 0.293982 0)
(3 9.0061e-12 0)
(3 1.72664e-11 0)
(3 6.41922e-11 0)
(3 1.17865e-10 0)
(3 3.41201e-10 0)
(3 6.20611e-10 0)
(3 1.5155e-09 0)
(3 2.84548e-09 0)
(3 4.78944e-09 0)
(3 9.39409e-09 0)
(3 -7.18816e-10 0)
(3 -2.79693e-09 0)
(3 -1.83577e-07 0)
(2.99999 -1.90754e-07 0)
(2.99998 -2.18189e-06 0)
(2.99995 1.07124e-06 0)
(2.99991 -2.30689e-05 0)
(2.99972 2.83163e-05 0)
(2.99949 -0.000164208 0)
(2.99868 -5.51245e-05 0)
(2.9963 -0.00177232 0)
(2.99015 -0.00272226 0)
(2.99532 -0.0109354 0)
(2.85199 -0.0237053 0)
(2.71701 0.0398319 0)
(2.1473 0.0860846 0)
(0.84371 0.32102 0)
(0.55514 0.319178 0)
(0.613103 0.295716 0)
(0.660866 0.261699 0)
(0.662328 0.236253 0)
(0.644384 0.217556 0)
(0.615445 0.209265 0)
(0.587919 0.204229 0)
(0.563687 0.200807 0)
(0.539967 0.199146 0)
(0.515281 0.199356 0)
(0.489241 0.20126 0)
(0.461637 0.204689 0)
(0.432255 0.209711 0)
(0.400943 0.216666 0)
(0.367916 0.226089 0)
(0.333378 0.238369 0)
(0.295542 0.254067 0)
(0.254069 0.271705 0)
(0.210675 0.289396 0)
(0.166933 0.304895 0)
(0.121799 0.317384 0)
(0.0725745 0.32593 0)
(0.033195 0.336377 0)
(3 1.0969e-11 0)
(3 2.31285e-11 0)
(3 7.99896e-11 0)
(3 1.50602e-10 0)
(3 4.81137e-10 0)
(3 8.53864e-10 0)
(3 2.561e-09 0)
(3 4.57025e-09 0)
(3 1.26296e-08 0)
(3 2.28546e-08 0)
(3 5.5522e-08 0)
(3 1.04006e-07 0)
(3 1.86137e-07 0)
(2.99999 3.88971e-07 0)
(2.99998 6.75798e-08 0)
(2.99994 1.74338e-06 0)
(2.9999 -5.9937e-06 0)
(2.9997 -1.79767e-07 0)
(2.99947 -3.44515e-05 0)
(2.99833 -3.28868e-05 0)
(2.99655 -0.000419323 0)
(2.989 0.000144405 0)
(2.98886 -0.000921781 0)
(2.87737 -0.0104902 0)
(2.77441 0.0510977 0)
(2.24491 0.0906521 0)
(0.918881 0.360866 0)
(0.570753 0.354504 0)
(0.625541 0.321973 0)
(0.676957 0.275365 0)
(0.687111 0.248299 0)
(0.674998 0.229744 0)
(0.649674 0.223148 0)
(0.621656 0.220363 0)
(0.596725 0.218461 0)
(0.573123 0.217827 0)
(0.548913 0.219164 0)
(0.523105 0.222559 0)
(0.495203 0.22791 0)
(0.464895 0.235243 0)
(0.432024 0.244788 0)
(0.396782 0.256945 0)
(0.359729 0.271947 0)
(0.319194 0.290208 0)
(0.274557 0.31047 0)
(0.227645 0.330604 0)
(0.180266 0.348273 0)
(0.131668 0.362474 0)
(0.0788041 0.372245 0)
(0.0357645 0.383759 0)
(3 1.25285e-11 0)
(3 2.46133e-11 0)
(3 9.24201e-11 0)
(3 1.63626e-10 0)
(3 5.33884e-10 0)
(3 9.93083e-10 0)
(3 2.99075e-09 0)
(3 4.93601e-09 0)
(3 1.59611e-08 0)
(3 3.24668e-08 0)
(3 9.02408e-08 0)
(3 1.56986e-07 0)
(3 4.45889e-07 0)
(2.99999 7.67959e-07 0)
(2.99998 2.07423e-06 0)
(2.99994 3.44362e-06 0)
(2.99991 6.61873e-06 0)
(2.99969 2.04086e-05 0)
(2.99946 2.49182e-05 0)
(2.99834 4.33914e-05 0)
(2.99645 5.68486e-05 0)
(2.98972 0.00030488 0)
(2.98646 0.00139872 0)
(2.89916 -0.00359237 0)
(2.82008 0.0471618 0)
(2.34932 0.0770576 0)
(1.03819 0.367924 0)
(0.611928 0.38268 0)
(0.643356 0.342431 0)
(0.693141 0.289709 0)
(0.714316 0.260413 0)
(0.708279 0.243521 0)
(0.687928 0.236902 0)
(0.660262 0.236465 0)
(0.634535 0.236187 0)
(0.610836 0.236813 0)
(0.586813 0.23961 0)
(0.560758 0.244992 0)
(0.531957 0.252869 0)
(0.500163 0.263147 0)
(0.465329 0.275904 0)
(0.427661 0.291358 0)
(0.387974 0.309583 0)
(0.34483 0.330746 0)
(0.297233 0.353903 0)
(0.246893 0.376712 0)
(0.195735 0.396851 0)
(0.143336 0.413119 0)
(0.0862817 0.424429 0)
(0.0388811 0.437403 0)
(3 1.86035e-11 0)
(3 3.7467e-11 0)
(3 1.04014e-10 0)
(3 1.99679e-10 0)
(3 5.07349e-10 0)
(3 9.94854e-10 0)
(3 2.68225e-09 0)
(3 4.61737e-09 0)
(3 1.46187e-08 0)
(3 2.39712e-08 0)
(3 8.28017e-08 0)
(3 1.37978e-07 0)
(3 5.14166e-07 0)
(2.99999 7.29954e-07 0)
(2.99998 3.22296e-06 0)
(2.99995 5.21104e-06 0)
(2.99992 2.0874e-05 0)
(2.99971 2.58549e-05 0)
(2.99949 0.000106233 0)
(2.99836 0.000184273 0)
(2.99681 0.000437292 0)
(2.99024 0.00125117 0)
(2.98533 0.00229824 0)
(2.91913 -0.000441388 0)
(2.85674 0.0385554 0)
(2.46347 0.0540217 0)
(1.20207 0.311303 0)
(0.684342 0.409146 0)
(0.660519 0.363941 0)
(0.708068 0.307863 0)
(0.741948 0.273202 0)
(0.74426 0.257797 0)
(0.729913 0.250368 0)
(0.70453 0.251607 0)
(0.677189 0.253572 0)
(0.652239 0.256336 0)
(0.627181 0.26142 0)
(0.599719 0.269491 0)
(0.569 0.280497 0)
(0.535024 0.294216 0)
(0.497988 0.310583 0)
(0.458095 0.32966 0)
(0.416159 0.351428 0)
(0.370999 0.375811 0)
(0.321209 0.402287 0)
(0.268084 0.428212 0)
(0.213514 0.451339 0)
(0.157216 0.470326 0)
(0.0954958 0.483853 0)
(0.0428429 0.498956 0)
(3 4.0309e-11 0)
(3 5.58683e-12 0)
(3 1.52644e-10 0)
(3 3.18391e-11 0)
(3 8.8146e-10 0)
(3 6.30195e-10 0)
(3 4.6485e-09 0)
(3 7.55855e-09 0)
(3 2.08901e-08 0)
(3 3.74612e-08 0)
(3 1.04545e-07 0)
(3 1.37812e-07 0)
(3 5.63245e-07 0)
(2.99999 7.93221e-07 0)
(2.99999 3.27182e-06 0)
(2.99996 4.98927e-06 0)
(2.99993 1.74197e-05 0)
(2.99978 2.34999e-05 0)
(2.99962 9.55107e-05 0)
(2.99866 0.000170501 0)
(2.99748 0.000585548 0)
(2.99151 0.00143658 0)
(2.98495 0.0029661 0)
(2.93339 0.00361508 0)
(2.87657 0.0296613 0)
(2.51616 0.0570827 0)
(1.39384 0.2478 0)
(0.794354 0.440498 0)
(0.663387 0.384029 0)
(0.716915 0.322164 0)
(0.770073 0.282234 0)
(0.784591 0.268806 0)
(0.775568 0.26363 0)
(0.752042 0.266483 0)
(0.721538 0.272161 0)
(0.692905 0.278207 0)
(0.664848 0.286383 0)
(0.634747 0.297641 0)
(0.60158 0.311952 0)
(0.565472 0.329112 0)
(0.52677 0.349035 0)
(0.485601 0.371705 0)
(0.442535 0.397103 0)
(0.396643 0.425032 0)
(0.346036 0.455294 0)
(0.291278 0.48517 0)
(0.234104 0.512262 0)
(0.174085 0.535284 0)
(0.107178 0.552492 0)
(0.0480793 0.571046 0)
(3 2.76917e-11 0)
(3 -3.90649e-11 0)
(3 6.74082e-11 0)
(3 -2.62625e-10 0)
(3 3.52935e-10 0)
(3 -1.45785e-09 0)
(3 1.93789e-09 0)
(3 -7.25631e-09 0)
(3 1.08307e-08 0)
(3 -4.0132e-08 0)
(3 5.83136e-08 0)
(3 -2.33422e-07 0)
(3 2.81397e-07 0)
(2.99999 -1.13992e-06 0)
(2.99999 1.51546e-06 0)
(2.99996 -5.72837e-06 0)
(2.99994 9.02573e-06 0)
(2.99979 -6.942e-06 0)
(2.99964 4.7475e-05 0)
(2.99885 3.04837e-05 0)
(2.99807 0.000242633 0)
(2.9926 0.000692882 0)
(2.98755 0.00238247 0)
(2.94493 0.00377293 0)
(2.91119 0.0264274 0)
(2.60969 0.0536912 0)
(1.64321 0.222259 0)
(0.953697 0.44931 0)
(0.674185 0.385153 0)
(0.732313 0.326668 0)
(0.802038 0.29043 0)
(0.827785 0.281386 0)
(0.818749 0.281467 0)
(0.793171 0.286441 0)
(0.75751 0.295253 0)
(0.723112 0.304688 0)
(0.691573 0.316044 0)
(0.659388 0.330253 0)
(0.624882 0.347437 0)
(0.588148 0.367558 0)
(0.549485 0.390619 0)
(0.508846 0.416596 0)
(0.466469 0.445646 0)
(0.421559 0.477538 0)
(0.371953 0.512168 0)
(0.317296 0.547129 0)
(0.258947 0.579948 0)
(0.195997 0.609222 0)
(0.12347 0.63306 0)
(0.0558006 0.657953 0)
(3 -4.78454e-13 0)
(3 -3.9812e-12 0)
(3 -3.43662e-12 0)
(3 -6.47705e-11 0)
(3 -8.57598e-11 0)
(3 -9.46737e-10 0)
(3 -2.75842e-10 0)
(3 -8.96591e-09 0)
(3 3.58379e-09 0)
(3 -5.19105e-08 0)
(3 2.91778e-08 0)
(3 -2.42465e-07 0)
(3 1.81309e-07 0)
(2.99999 -1.3853e-06 0)
(2.99998 8.27878e-07 0)
(2.99997 -9.02251e-06 0)
(2.99993 4.41314e-06 0)
(2.99982 -5.40775e-05 0)
(2.99966 1.46421e-05 0)
(2.99886 -0.000333587 0)
(2.99816 -0.000177353 0)
(2.99371 -0.00237838 0)
(2.98803 0.0012513 0)
(2.95808 -0.00311613 0)
(2.93038 0.0241043 0)
(2.67945 0.0500556 0)
(1.89807 0.184814 0)
(1.12429 0.40882 0)
(0.692638 0.36235 0)
(0.744618 0.326998 0)
(0.820393 0.304649 0)
(0.851477 0.301535 0)
(0.839668 0.306695 0)
(0.810587 0.313964 0)
(0.772285 0.323962 0)
(0.735469 0.335608 0)
(0.703134 0.349347 0)
(0.671358 0.365742 0)
(0.638015 0.385118 0)
(0.603014 0.407623 0)
(0.566515 0.43339 0)
(0.52848 0.462573 0)
(0.488892 0.495431 0)
(0.446913 0.531893 0)
(0.400374 0.571809 0)
(0.348204 0.61329 0)
(0.290788 0.654369 0)
(0.226529 0.69394 0)
(0.148478 0.729866 0)
(0.0686601 0.768132 0)
(3 -6.23751e-13 0)
(3 3.10844e-11 0)
(3 6.07478e-11 0)
(3 2.40337e-10 0)
(3 4.23157e-10 0)
(3 1.43282e-09 0)
(3 2.53175e-09 0)
(3 7.90999e-09 0)
(3 1.43327e-08 0)
(3 4.43555e-08 0)
(3 8.1843e-08 0)
(3 2.42764e-07 0)
(3 4.56814e-07 0)
(2.99999 1.21008e-06 0)
(2.99998 2.28558e-06 0)
(2.99997 4.62892e-06 0)
(2.99989 1.07176e-05 0)
(2.9998 1.46079e-06 0)
(2.99933 5.35404e-05 0)
(2.99864 -8.29047e-05 0)
(2.99583 0.000303009 0)
(2.9941 -0.000994542 0)
(2.98668 0.00318413 0)
(2.96864 0.00329933 0)
(2.96815 0.0211158 0)
(2.71961 0.0579042 0)
(2.06424 0.122825 0)
(1.24607 0.327676 0)
(0.663207 0.328656 0)
(0.719311 0.331495 0)
(0.802082 0.326099 0)
(0.842765 0.328679 0)
(0.834183 0.33606 0)
(0.805749 0.344643 0)
(0.768836 0.355148 0)
(0.733853 0.368009 0)
(0.703829 0.38332 0)
(0.674884 0.401396 0)
(0.644787 0.422605 0)
(0.613366 0.447243 0)
(0.580832 0.475615 0)
(0.547147 0.508133 0)
(0.512125 0.544983 0)
(0.474944 0.586295 0)
(0.433723 0.63251 0)
(0.38726 0.682914 0)
(0.334886 0.735676 0)
(0.27299 0.791229 0)
(0.19186 0.849802 0)
(0.0941916 0.920136 0)
(3 -9.47047e-13 0)
(3 3.3384e-11 0)
(3 6.64755e-11 0)
(3 2.66392e-10 0)
(3 4.68798e-10 0)
(3 1.63053e-09 0)
(3 2.84692e-09 0)
(3 9.61803e-09 0)
(3 1.66283e-08 0)
(3 5.68885e-08 0)
(3 9.79457e-08 0)
(3 3.38856e-07 0)
(3 5.97827e-07 0)
(3 2.04912e-06 0)
(2.99999 3.58758e-06 0)
(2.99998 1.2395e-05 0)
(2.99992 2.22792e-05 0)
(2.99987 7.65923e-05 0)
(2.99957 0.000130185 0)
(2.99915 0.000471854 0)
(2.99721 0.000934608 0)
(2.99696 0.00284744 0)
(2.99297 0.00514974 0)
(2.97884 0.0107412 0)
(2.98687 0.0192088 0)
(2.74858 0.0370036 0)
(2.22406 0.0824575 0)
(1.40943 0.230616 0)
(0.6482 0.322507 0)
(0.696688 0.345605 0)
(0.77642 0.350585 0)
(0.824119 0.355845 0)
(0.819575 0.363526 0)
(0.793919 0.372758 0)
(0.760243 0.38403 0)
(0.72875 0.397899 0)
(0.702264 0.414494 0)
(0.677085 0.434087 0)
(0.651083 0.457028 0)
(0.624119 0.483737 0)
(0.59651 0.514682 0)
(0.568152 0.550118 0)
(0.538783 0.590737 0)
(0.508368 0.637582 0)
(0.475912 0.691081 0)
(0.439371 0.751635 0)
(0.39783 0.819193 0)
(0.348153 0.898511 0)
(0.277122 1.00109 0)
(0.153605 1.17655 0)
(3 -9.94426e-13 0)
(3 2.4756e-11 0)
(3 5.02805e-11 0)
(3 1.98148e-10 0)
(3 3.54441e-10 0)
(3 1.20774e-09 0)
(3 2.09682e-09 0)
(3 7.1084e-09 0)
(3 1.2245e-08 0)
(3 4.1893e-08 0)
(3 7.17053e-08 0)
(3 2.46355e-07 0)
(3 4.29869e-07 0)
(3 1.44777e-06 0)
(2.99999 2.51807e-06 0)
(2.99999 8.58245e-06 0)
(2.99997 1.37333e-05 0)
(2.99994 5.13324e-05 0)
(2.99983 8.23486e-05 0)
(2.99965 0.000420009 0)
(2.99884 0.000930457 0)
(2.99932 0.00261078 0)
(2.99648 0.00439908 0)
(2.98677 0.00815789 0)
(2.99753 0.015235 0)
(2.78609 0.0229682 0)
(2.37494 0.0683832 0)
(1.63172 0.174859 0)
(0.731247 0.335223 0)
(0.697014 0.363313 0)
(0.766022 0.377029 0)
(0.814393 0.386679 0)
(0.812649 0.396585 0)
(0.789398 0.407638 0)
(0.758488 0.420127 0)
(0.730309 0.434943 0)
(0.70761 0.452569 0)
(0.686805 0.473424 0)
(0.665899 0.497959 0)
(0.644884 0.526358 0)
(0.623765 0.559325 0)
(0.603122 0.597906 0)
(0.584404 0.643096 0)
(0.566919 0.695991 0)
(0.550214 0.75735 0)
(0.535509 0.828449 0)
(0.526639 0.912015 0)
(0.532518 1.01457 0)
(0.584299 1.14756 0)
(0.666058 1.35637 0)
(3 -2.65029e-12 0)
(3 1.20575e-11 0)
(3 1.61739e-11 0)
(3 8.47784e-11 0)
(3 1.3942e-10 0)
(3 3.85708e-10 0)
(3 6.37147e-10 0)
(3 2.01055e-09 0)
(3 3.23899e-09 0)
(3 1.17259e-08 0)
(3 1.9017e-08 0)
(3 1.0447e-07 0)
(3 1.02692e-07 0)
(3 4.95491e-07 0)
(3 7.45066e-07 0)
(2.99999 3.43659e-06 0)
(2.99999 6.38163e-06 0)
(2.99997 2.32293e-05 0)
(3.00014 4.7741e-05 0)
(3.00047 0.000136813 0)
(3.00057 0.000298286 0)
(3.0023 0.000884614 0)
(3.00153 0.00121873 0)
(2.99606 0.00330023 0)
(3.00885 0.00897642 0)
(2.82088 0.00922279 0)
(2.53933 0.0515991 0)
(1.90078 0.142768 0)
(0.833175 0.337914 0)
(0.694991 0.379885 0)
(0.74859 0.403752 0)
(0.794657 0.415459 0)
(0.795806 0.426788 0)
(0.77691 0.438919 0)
(0.751034 0.452637 0)
(0.728758 0.468513 0)
(0.712167 0.487167 0)
(0.697657 0.5089 0)
(0.682898 0.533955 0)
(0.668291 0.563157 0)
(0.655696 0.597646 0)
(0.645554 0.638367 0)
(0.638004 0.685933 0)
(0.633962 0.740987 0)
(0.635361 0.805042 0)
(0.646058 0.879503 0)
(0.673201 0.966255 0)
(0.726428 1.06808 0)
(0.846208 1.18465 0)
(1.01618 1.31682 0)
(3 -3.927e-12 0)
(3 6.72999e-13 0)
(3 -1.61841e-11 0)
(3 1.03498e-11 0)
(3 -8.57031e-11 0)
(3 6.63484e-11 0)
(3 -4.79699e-10 0)
(3 3.22979e-10 0)
(3 -2.65323e-09 0)
(3 1.60897e-09 0)
(3 -1.45218e-08 0)
(3 1.06237e-08 0)
(3 -8.66501e-08 0)
(3 3.78691e-08 0)
(3 -4.8829e-07 0)
(3 1.03897e-07 0)
(3 -2.79768e-06 0)
(3.00001 -1.57533e-06 0)
(3.00002 -1.14645e-05 0)
(3.00006 -0.000135067 0)
(3.00009 -0.000453543 0)
(3.00084 -0.000728397 0)
(3.00048 -0.00280622 0)
(3.00006 -0.0036067 0)
(3.00784 -0.00653077 0)
(2.85628 -0.0198824 0)
(2.68814 0.0446476 0)
(2.13753 0.112403 0)
(0.953544 0.401513 0)
(0.70366 0.44478 0)
(0.733042 0.453754 0)
(0.771691 0.451634 0)
(0.779383 0.456321 0)
(0.766408 0.465067 0)
(0.746299 0.478805 0)
(0.729578 0.495483 0)
(0.718719 0.515006 0)
(0.709634 0.53714 0)
(0.701373 0.562611 0)
(0.695507 0.593249 0)
(0.692332 0.629442 0)
(0.691783 0.67104 0)
(0.695074 0.71856 0)
(0.70414 0.772895 0)
(0.721903 0.834906 0)
(0.752903 0.905266 0)
(0.804296 0.983623 0)
(0.882398 1.06855 0)
(1.01379 1.15501 0)
(1.18079 1.22329 0)
(3 -1.74921e-12 0)
(3 -2.56029e-12 0)
(3 -1.12223e-11 0)
(3 -5.46889e-12 0)
(3 -8.2828e-11 0)
(3 8.75331e-11 0)
(3 -3.22458e-10 0)
(3 6.57002e-10 0)
(3 -1.36603e-09 0)
(3 3.14428e-09 0)
(3 -8.04956e-09 0)
(3 -2.05792e-08 0)
(3 -5.00631e-08 0)
(3 -2.42961e-08 0)
(3 -4.21457e-07 0)
(2.99999 -7.43257e-07 0)
(2.99998 -4.36627e-06 0)
(2.99995 -8.8665e-06 0)
(2.99992 -3.12681e-05 0)
(2.99973 -5.99568e-05 0)
(2.99958 -0.000194244 0)
(2.99838 -0.000323015 0)
(2.99673 -0.00142955 0)
(2.98977 -0.00193283 0)
(2.98308 -0.00616955 0)
(2.9076 -0.0151328 0)
(2.82297 0.0452466 0)
(2.39978 0.0926452 0)
(1.20559 0.410144 0)
(0.779563 0.502315 0)
(0.75685 0.500577 0)
(0.785477 0.489156 0)
(0.795766 0.482934 0)
(0.784569 0.487314 0)
(0.766228 0.498837 0)
(0.749366 0.515418 0)
(0.738676 0.534799 0)
(0.731595 0.556787 0)
(0.728909 0.58299 0)
(0.73027 0.614171 0)
(0.734162 0.649957 0)
(0.741237 0.690479 0)
(0.75343 0.736239 0)
(0.772833 0.787661 0)
(0.802301 0.844802 0)
(0.845713 0.907215 0)
(0.908114 0.973096 0)
(0.993624 1.03887 0)
(1.11758 1.09985 0)
(1.26276 1.1403 0)
(3 4.26847e-12 0)
(3 -2.13331e-12 0)
(3 1.19197e-11 0)
(3 -2.22183e-11 0)
(3 5.66966e-11 0)
(3 -1.32888e-10 0)
(3 3.44015e-10 0)
(3 -7.25564e-10 0)
(3 1.87486e-09 0)
(3 -4.344e-09 0)
(3 9.68109e-09 0)
(3 -2.84583e-08 0)
(3 4.95135e-08 0)
(3 -1.53048e-07 0)
(3 2.88608e-07 0)
(2.99999 -7.60592e-07 0)
(2.99999 1.60921e-06 0)
(2.99996 -3.62629e-06 0)
(2.99994 8.4969e-06 0)
(2.99979 -1.63261e-05 0)
(2.99965 5.46711e-05 0)
(2.99879 -6.31995e-05 0)
(2.99781 0.000489132 0)
(2.99221 0.000735819 0)
(2.98617 0.00347856 0)
(2.93937 0.00516576 0)
(2.89073 0.039321 0)
(2.57897 0.0794559 0)
(1.5955 0.321091 0)
(0.998137 0.555814 0)
(0.825369 0.567799 0)
(0.826431 0.543789 0)
(0.836024 0.523116 0)
(0.832419 0.518078 0)
(0.816161 0.523595 0)
(0.79842 0.536556 0)
(0.784326 0.553767 0)
(0.776058 0.574925 0)
(0.774059 0.600334 0)
(0.776509 0.629452 0)
(0.78262 0.662344 0)
(0.793738 0.699523 0)
(0.811563 0.741281 0)
(0.837582 0.787584 0)
(0.873935 0.837929 0)
(0.923124 0.891139 0)
(0.988268 0.94522 0)
(1.07204 0.996634 0)
(1.18439 1.04108 0)
(1.30914 1.06844 0)
(3 4.19694e-12 0)
(3 1.85695e-12 0)
(3 1.87373e-11 0)
(3 9.82004e-12 0)
(3 1.0179e-10 0)
(3 5.85944e-11 0)
(3 5.79821e-10 0)
(3 3.60335e-10 0)
(3 3.28349e-09 0)
(3 2.15516e-09 0)
(3 1.83367e-08 0)
(3 1.25001e-08 0)
(3 1.01513e-07 0)
(3 6.50673e-08 0)
(3 5.49212e-07 0)
(2.99999 3.19327e-07 0)
(2.99998 2.95756e-06 0)
(2.99996 2.19431e-06 0)
(2.9999 1.56765e-05 0)
(2.99981 9.74382e-06 0)
(2.9995 8.84898e-05 0)
(2.9991 5.2665e-05 0)
(2.99806 0.000539851 0)
(2.99472 0.000477254 0)
(2.99037 0.00360786 0)
(2.96519 0.00356975 0)
(2.95046 0.0310303 0)
(2.74894 0.0314016 0)
(2.16624 0.262008 0)
(1.45292 0.499707 0)
(0.990273 0.596592 0)
(0.915646 0.588998 0)
(0.912705 0.57238 0)
(0.911285 0.559569 0)
(0.896025 0.559859 0)
(0.875811 0.568632 0)
(0.858202 0.582431 0)
(0.846125 0.60029 0)
(0.839855 0.621594 0)
(0.838739 0.646108 0)
(0.843035 0.674132 0)
(0.853767 0.706011 0)
(0.87211 0.741729 0)
(0.8992 0.781012 0)
(0.936587 0.823199 0)
(0.986191 0.866925 0)
(1.05005 0.910418 0)
(1.12885 0.950696 0)
(1.2283 0.984387 0)
(1.33572 1.00509 0)
(3 -1.59092e-12 0)
(3 7.60737e-12 0)
(3 9.62798e-12 0)
(3 6.0769e-11 0)
(3 7.5005e-11 0)
(3 3.68183e-10 0)
(3 4.50767e-10 0)
(3 2.13314e-09 0)
(3 2.7071e-09 0)
(3 1.2094e-08 0)
(3 1.6022e-08 0)
(3 7.12516e-08 0)
(3 9.70406e-08 0)
(3 3.89532e-07 0)
(3 7.19971e-07 0)
(3 1.88103e-06 0)
(2.99999 2.36834e-06 0)
(2.99998 1.02035e-05 0)
(2.99995 1.13369e-05 0)
(2.99991 5.03985e-05 0)
(2.99972 5.80073e-05 0)
(2.99954 0.000234355 0)
(2.99851 0.000265791 0)
(2.99734 0.00078364 0)
(2.99135 0.00186911 0)
(2.98536 0.00343364 0)
(2.93802 0.0180739 0)
(2.88708 0.0131895 0)
(2.57958 0.139496 0)
(1.69683 0.351161 0)
(1.13511 0.604152 0)
(0.946575 0.63032 0)
(0.940752 0.617481 0)
(0.953686 0.603317 0)
(0.959508 0.60013 0)
(0.949469 0.606761 0)
(0.93459 0.618353 0)
(0.921996 0.632575 0)
(0.913819 0.649037 0)
(0.910393 0.668136 0)
(0.912379 0.690263 0)
(0.920878 0.715602 0)
(0.93696 0.744144 0)
(0.96165 0.775571 0)
(0.996114 0.809297 0)
(1.04161 0.844109 0)
(1.09937 0.878321 0)
(1.16987 0.90953 0)
(1.2578 0.935367 0)
(1.35176 0.951763 0)
(3 -6.01611e-13 0)
(3 4.70998e-12 0)
(3 7.2655e-12 0)
(3 3.54756e-11 0)
(3 4.93198e-11 0)
(3 2.05093e-10 0)
(3 2.78529e-10 0)
(3 1.13831e-09 0)
(3 1.5605e-09 0)
(3 6.27601e-09 0)
(3 8.79358e-09 0)
(3 3.47687e-08 0)
(3 4.99473e-08 0)
(3 1.9426e-07 0)