/*--------------------------------*- C++ -*----------------------------------*\
| =========                 |                                                 |
| \\      /  F ield         | OpenFOAM: The Open Source CFD Toolbox           |
|  \\    /   O peration     | Version:  2412                                  |
|   \\  /    A nd           | Website:  www.openfoam.com                      |
|    \\/     M anipulation  |                                                 |
\*---------------------------------------------------------------------------*/
FoamFile
{
    version     2.0;
    format      ascii;
    arch        "LSB;label=32;scalar=64";
    class       volScalarField;
    location    "25";
    object      Ma;
}
// * * * * * * * * * * * * * * * * * * * * * * * * * * * * * * * * * * * * * //

dimensions      [0 0 0 0 0 0 0];

internalField   nonuniform List<scalar> 
7000
(
2.25599
0.994188
0.300536
0.338438
0.401062
0.442389
0.450596
0.446126
0.439772
0.434862
0.432016
0.429744
0.427145
0.424057
0.420586
0.416811
0.412745
0.408366
0.403655
0.398595
0.393173
0.387376
0.38119
0.374598
0.367585
0.360132
0.352223
0.343837
0.334956
0.325558
0.315625
0.305133
0.294063
0.282394
0.270107
0.257184
0.243611
0.229373
0.214465
0.198883
0.182633
0.165727
0.14819
0.130054
0.111368
0.0921927
0.0725909
0.0528471
0.0319231
0.0155244
2.25604
0.994249
0.300334
0.338273
0.400907
0.442241
0.450448
0.445982
0.439633
0.434731
0.431889
0.429621
0.427025
0.423941
0.420475
0.416705
0.412644
0.408271
0.403567
0.398513
0.393099
0.38731
0.381132
0.37455
0.367548
0.360106
0.35221
0.343838
0.334972
0.325591
0.315676
0.305204
0.294156
0.282511
0.270251
0.257357
0.243816
0.229614
0.214746
0.199208
0.18301
0.166165
0.148701
0.13066
0.112103
0.0931174
0.0738192
0.0546559
0.0351574
0.0220573
2.25617
0.994446
0.300466
0.338308
0.400937
0.442274
0.450482
0.446022
0.439691
0.434799
0.431972
0.429707
0.427123
0.424045
0.420592
0.41683
0.412785
0.408422
0.403735
0.398693
0.393299
0.387525
0.381372
0.374808
0.367834
0.360417
0.352554
0.344212
0.335386
0.326044
0.316176
0.305753
0.294763
0.283179
0.270989
0.258172
0.244718
0.230614
0.215858
0.200451
0.184404
0.167741
0.1505
0.132745
0.114565
0.0961168
0.0776339
0.0598399
0.043041
0.0335723
2.25635
0.994752
0.300737
0.338385
0.401018
0.442373
0.450585
0.446139
0.439821
0.434958
0.432141
0.429896
0.427318
0.424263
0.42082
0.417084
0.413052
0.408718
0.404046
0.399039
0.393664
0.38793
0.381801
0.375285
0.368341
0.360979
0.353155
0.344879
0.336103
0.326838
0.317034
0.306703
0.295794
0.284321
0.272235
0.259553
0.246233
0.232296
0.217717
0.202523
0.186719
0.170347
0.153462
0.136148
0.118555
0.100896
0.0835507
0.0674576
0.0533029
0.0461805
2.25659
0.995183
0.301087
0.338455
0.401103
0.442494
0.450714
0.446289
0.439984
0.435161
0.432355
0.430143
0.427574
0.424553
0.421125
0.417428
0.413415
0.409122
0.404477
0.399515
0.394174
0.388492
0.382407
0.375949
0.369062
0.361767
0.354016
0.345817
0.337132
0.327958
0.318269
0.308046
0.297279
0.285938
0.274028
0.26151
0.248409
0.234682
0.220379
0.205465
0.190016
0.174038
0.157639
0.140921
0.124072
0.107409
0.0913719
0.0770293
0.0651084
0.0594943
2.25692
0.995755
0.30153
0.338526
0.401199
0.442639
0.450884
0.44646
0.440213
0.435397
0.43265
0.430436
0.427924
0.424904
0.42154
0.417847
0.413904
0.409623
0.405054
0.40011
0.394857
0.389201
0.383214
0.376797
0.370021
0.362783
0.355157
0.347037
0.338494
0.329427
0.319899
0.309818
0.299237
0.288081
0.276389
0.26411
0.251269
0.237852
0.22387
0.20936
0.194332
0.178894
0.163088
0.147117
0.131166
0.115612
0.100984
0.0882974
0.0781878
0.0736197
2.25734
0.996482
0.302073
0.338602
0.401306
0.442817
0.451088
0.446692
0.440475
0.435708
0.43299
0.43082
0.428333
0.425363
0.422028
0.418395
0.414485
0.410273
0.405743
0.400882
0.395674
0.390118
0.384187
0.377887
0.371181
0.364085
0.356546
0.348595
0.340163
0.331297
0.321912
0.312068
0.301673
0.290796
0.279346
0.267395
0.254872
0.241844
0.228281
0.214246
0.199772
0.184939
0.169887
0.154751
0.139833
0.125479
0.112234
0.101078
0.0924446
0.088625
2.25786
0.997373
0.302725
0.338683
0.401426
0.443028
0.451335
0.446972
0.440794
0.436083
0.433404
0.431283
0.428835
0.425917
0.422629
0.419056
0.415203
0.411058
0.406597
0.401813
0.39669
0.391223
0.385398
0.379202
0.372627
0.365652
0.358275
0.350468
0.342238
0.333543
0.324406
0.314772
0.304681
0.294065
0.282986
0.271367
0.25929
0.246692
0.233665
0.220191
0.206375
0.192283
0.178049
0.163896
0.150053
0.136958
0.125074
0.115263
0.107843
0.104623
2.25847
0.998443
0.303495
0.338771
0.401562
0.443273
0.451632
0.447301
0.441184
0.436524
0.433904
0.431829
0.429439
0.426573
0.423353
0.419841
0.416064
0.411992
0.40762
0.402923
0.397905
0.392545
0.386842
0.380778
0.374349
0.367537
0.360334
0.352728
0.344705
0.336259
0.32737
0.318043
0.30825
0.298015
0.287296
0.27615
0.264519
0.252501
0.240041
0.227275
0.214188
0.200956
0.18767
0.174546
0.161895
0.150028
0.139452
0.130889
0.124492
0.121715
2.2592
0.999703
0.304392
0.338868
0.401716
0.443562
0.45198
0.447703
0.441636
0.437056
0.434484
0.432483
0.430143
0.427358
0.424197
0.420775
0.417071
0.413101
0.408816
0.404238
0.399328
0.394106
0.388537
0.382637
0.376371
0.369754
0.362754
0.355381
0.347608
0.339443
0.330862
0.321874
0.312463
0.302636
0.292391
0.281736
0.270696
0.259274
0.247544
0.235512
0.223321
0.211
0.198785
0.186793
0.175337
0.164784
0.155439
0.14799
0.14249
0.140145
2.26004
1.00116
0.305425
0.338977
0.401892
0.443894
0.452391
0.448158
0.442185
0.437662
0.43518
0.433231
0.430982
0.428258
0.425199
0.421851
0.418259
0.414379
0.410224
0.405755
0.400995
0.39591
0.390517
0.384785
0.378729
0.37232
0.365569
0.358453
0.350979
0.34313
0.334911
0.326313
0.317338
0.307992
0.298277
0.288215
0.277816
0.267126
0.256172
0.245038
0.23378
0.222545
0.211438
0.200703
0.190517
0.181222
0.173164
0.166807
0.162134
0.160098
2.261
1.00284
0.306602
0.3391
0.402092
0.444282
0.452866
0.448711
0.442807
0.438391
0.435969
0.434121
0.431936
0.429322
0.426338
0.423113
0.419613
0.415872
0.411828
0.407521
0.402897
0.398001
0.392777
0.38727
0.381422
0.375279
0.368786
0.361988
0.354833
0.347365
0.33954
0.3314
0.322913
0.31412
0.305007
0.295613
0.285956
0.276072
0.266027
0.255857
0.245696
0.235598
0.225771
0.216327
0.207539
0.199607
0.192762
0.187489
0.18363
0.182023
2.26208
1.00474
0.307932
0.339243
0.402322
0.444722
0.45342
0.449336
0.44355
0.439218
0.436901
0.43513
0.433055
0.430528
0.427668
0.424543
0.421184
0.417562
0.413681
0.409519
0.405088
0.400367
0.395372
0.390079
0.384505
0.378625
0.37246
0.365985
0.359224
0.352153
0.344803
0.337152
0.32924
0.321048
0.31263
0.303975
0.295157
0.28618
0.27714
0.268075
0.259096
0.250315
0.24183
0.233864
0.226514
0.220065
0.214644
0.210544
0.207568
0.206265
2.26329
1.00685
0.309416
0.339397
0.402594
0.445219
0.454055
0.450066
0.444399
0.440182
0.437961
0.436297
0.434324
0.431917
0.429171
0.426184
0.422956
0.419494
0.415768
0.411796
0.40755
0.403057
0.398285
0.393265
0.387963
0.382412
0.376578
0.370499
0.364143
0.35755
0.350698
0.343623
0.336322
0.328828
0.321159
0.313352
0.305448
0.297497
0.289564
0.28173
0.274076
0.266729
0.259804
0.253421
0.247779
0.242928
0.239022
0.236287
0.234365
0.233712
2.26462
1.00919
0.311055
0.339557
0.402919
0.445778
0.454783
0.450909
0.445376
0.441292
0.439175
0.437631
0.435769
0.433494
0.430877
0.428038
0.424961
0.421669
0.418124
0.41435
0.410324
0.406066
0.401562
0.396822
0.391845
0.38663
0.381193
0.375519
0.369646
0.363545
0.357279
0.350806
0.344214
0.337461
0.330649
0.323754
0.316883
0.310053
0.303363
0.296884
0.290716
0.284968
0.279763
0.275236
0.271478
0.268667
0.266694
0.265721
0.26519
0.265155
2.26608
1.01177
0.312858
0.339753
0.403284
0.446424
0.455627
0.45188
0.446525
0.442562
0.440581
0.439144
0.437427
0.435275
0.43282
0.430121
0.427229
0.424102
0.420774
0.4172
0.41343
0.409415
0.405215
0.400774
0.396158
0.391311
0.386303
0.381084
0.375723
0.370184
0.364529
0.35875
0.352893
0.346993
0.341074
0.335222
0.329447
0.32388
0.318542
0.313584
0.309074
0.305152
0.301925
0.299521
0.29808
0.29758
0.298077
0.299506
0.301151
0.302676
2.26766
1.01456
0.314819
0.339982
0.403703
0.447176
0.45661
0.453014
0.44786
0.444032
0.442192
0.440875
0.439309
0.437295
0.435008
0.432469
0.429766
0.426832
0.423724
0.420384
0.416872
0.413145
0.40925
0.40516
0.400909
0.396489
0.39192
0.387219
0.382391
0.377478
0.372476
0.367451
0.362402
0.357408
0.352491
0.34773
0.343197
0.338956
0.335148
0.331829
0.329178
0.327313
0.326391
0.326515
0.327916
0.330656
0.334521
0.339627
0.344726
0.348725
2.26935
1.01756
0.316923
0.340247
0.404192
0.448062
0.45776
0.454359
0.449405
0.445754
0.444035
0.442873
0.441436
0.439599
0.437459
0.43512
0.432589
0.429887
0.426987
0.423922
0.420665
0.417262
0.413682
0.409976
0.406114
0.402149
0.39806
0.3939
0.389662
0.385397
0.381121
0.376876
0.372717
0.368676
0.364848
0.361268
0.358063
0.355307
0.353121
0.351685
0.351061
0.351507
0.3532
0.35641
0.361329
0.368068
0.3769
0.387633
0.399368
0.409972
2.27112
1.02071
0.319147
0.340562
0.404772
0.449106
0.459117
0.455936
0.451214
0.447738
0.446151
0.445138
0.443852
0.442188
0.440225
0.438078
0.435756
0.433278
0.430629
0.427827
0.424877
0.421787
0.418577
0.415247
0.411831
0.408321
0.404769
0.401161
0.397569
0.393978
0.390476
0.387063
0.383834
0.380822
0.37812
0.375819
0.373997
0.372843
0.372422
0.372923
0.374587
0.377705
0.382627
0.389495
0.398922
0.41125
0.426947
0.447106
0.470989
0.498596
2.27294
1.02395
0.321427
0.340941
0.405481
0.450367
0.460761
0.457824
0.453389
0.450057
0.448616
0.447722
0.446607
0.445089
0.443324
0.44135
0.439256
0.436992
0.434615
0.43208
0.429453
0.426694
0.423868
0.420945
0.417984
0.414972
0.411962
0.408961
0.406016
0.403165
0.400443
0.397929
0.39565
0.393731
0.392204
0.391242
0.390883
0.391312
0.392697
0.395384
0.39959
0.405686
0.413892
0.425053
0.439619
0.459158
0.485082
0.520595
0.571927
0.664904
2.27502
1.02769
0.32396
0.341215
0.406281
0.451967
0.462915
0.46035
0.456263
0.453159
0.451877
0.451204
0.450305
0.449063
0.447544
0.445883
0.444077
0.442178
0.440148
0.438047
0.435839
0.433594
0.431276
0.428963
0.426617
0.424328
0.422064
0.419922
0.417883
0.416054
0.414436
0.413143
0.412215
0.411773
0.411915
0.412687
0.414249
0.417015
0.421206
0.426897
0.434589
0.444559
0.45783
0.474817
0.497603
0.527611
0.569593
0.631147
0.729824
0.881477
2.27723
1.03166
0.32697
0.342166
0.408011
0.454835
0.466504
0.464319
0.460551
0.457505
0.456265
0.455682
0.454944
0.453878
0.452579
0.451144
0.44962
0.448017
0.446349
0.444622
0.442862
0.441077
0.439303
0.437547
0.435856
0.434236
0.432753
0.431414
0.430306
0.429438
0.428931
0.4288
0.429164
0.430046
0.431683
0.434271
0.437985
0.442902
0.449468
0.457792
0.468591
0.482305
0.499812
0.522622
0.551792
0.591355
0.643912
0.718034
0.828978
0.967135
2.27851
1.03398
0.328843
0.343226
0.410174
0.458581
0.471229
0.469542
0.466102
0.463076
0.461872
0.461407
0.460834
0.459947
0.458836
0.457608
0.456318
0.454981
0.453613
0.452223
0.450838
0.449475
0.448165
0.44693
0.445807
0.444826
0.444035
0.443473
0.443204
0.443292
0.44375
0.444654
0.446239
0.448645
0.451866
0.456154
0.461589
0.468579
0.477194
0.488161
0.501495
0.518493
0.539211
0.565769
0.599042
0.641712
0.697369
0.767752
0.864166
0.967477
2.27967
1.03609
0.332157
0.346924
0.415038
0.464996
0.478239
0.476423
0.472633
0.469259
0.46798
0.46762
0.46721
0.466499
0.465593
0.464595
0.46359
0.462564
0.461552
0.460541
0.459578
0.458658
0.457835
0.457112
0.456547
0.456158
0.456012
0.456125
0.456542
0.457353
0.458726
0.460708
0.463357
0.466846
0.471239
0.476841
0.48368
0.492269
0.502618
0.515405
0.530885
0.549717
0.572838
0.600699
0.635323
0.677094
0.728926
0.790944
0.868866
0.949906
2.2761
1.02969
0.334295
0.356824
0.427459
0.47982
0.493321
0.490522
0.48552
0.481272
0.479615
0.47906
0.478487
0.477618
0.476558
0.475465
0.474402
0.473378
0.472402
0.471491
0.470666
0.469956
0.469378
0.468979
0.468784
0.468822
0.469094
0.469762
0.470842
0.472445
0.474539
0.477327
0.480775
0.485171
0.490482
0.497076
0.504977
0.514556
0.526084
0.53979
0.556355
0.575911
0.59948
0.627363
0.660591
0.700051
0.746333
0.800699
0.864203
0.928781
2.28203
1.02255
0.358747
0.382358
0.448477
0.49837
0.510281
0.506529
0.500786
0.496403
0.494702
0.494013
0.493314
0.492365
0.491299
0.490222
0.489191
0.488194
0.487257
0.486377
0.4856
0.484927
0.484414
0.484031
0.483902
0.484057
0.484603
0.485469
0.486859
0.488707
0.491258
0.494404
0.498488
0.503352
0.509463
0.516589
0.525357
0.535461
0.547709
0.561824
0.578645
0.598174
0.621058
0.647785
0.678645
0.714588
0.755559
0.802431
0.855623
0.909181
1.87634
0.772017
0.273269
0.344117
0.417752
0.441224
0.44113
0.437149
0.433505
0.433411
0.435586
0.438474
0.441474
0.444517
0.447656
0.450904
0.454222
0.457565
0.460903
0.464219
0.467494
0.470674
0.473816
0.476957
0.480149
0.48333
0.486622
0.489942
0.493565
0.497374
0.501677
0.506367
0.511802
0.5179
0.525023
0.533157
0.542609
0.553546
0.566086
0.580725
0.597301
0.616689
0.638458
0.663784
0.692061
0.724534
0.760521
0.800993
0.845801
0.890543
1.8689
0.771408
0.282172
0.355349
0.428334
0.44779
0.443318
0.435957
0.430299
0.428405
0.428317
0.42872
0.429321
0.430225
0.431573
0.433354
0.435612
0.438219
0.441295
0.444721
0.448606
0.452673
0.45715
0.461794
0.466827
0.471981
0.477521
0.483249
0.489341
0.495665
0.502399
0.50947
0.51703
0.525166
0.533964
0.543711
0.554314
0.566335
0.579527
0.594597
0.611245
0.630225
0.651266
0.675022
0.70136
0.730667
0.762979
0.798103
0.836504
0.874179
1.86794
0.770094
0.284305
0.365062
0.443618
0.463692
0.457505
0.448129
0.441123
0.438392
0.437493
0.436895
0.436307
0.435905
0.435817
0.436088
0.436718
0.437721
0.439254
0.441238
0.443726
0.446643
0.450162
0.454164
0.458797
0.46394
0.469668
0.475919
0.482711
0.490081
0.497957
0.506545
0.515634
0.525586
0.536006
0.547449
0.559508
0.572779
0.586948
0.602623
0.619549
0.638281
0.658698
0.681197
0.705732
0.73254
0.761581
0.792783
0.826396
0.858923
1.86943
0.773376
0.2901
0.367276
0.443689
0.464289
0.459066
0.450546
0.443968
0.441605
0.44113
0.440952
0.440735
0.440624
0.440709
0.441015
0.441603
0.442511
0.443699
0.445181
0.446985
0.449219
0.45186
0.455071
0.458757
0.463137
0.468049
0.473769
0.480042
0.48724
0.494984
0.503744
0.513049
0.52342
0.534431
0.546565
0.559475
0.573574
0.58857
0.604825
0.622187
0.640926
0.661011
0.68266
0.705842
0.730689
0.757136
0.78523
0.815018
0.843667
1.87254
0.780058
0.297783
0.361235
0.429066
0.450304
0.448018
0.441951
0.436343
0.434468
0.434506
0.435036
0.435624
0.436338
0.437231
0.438403
0.439863
0.441548
0.443418
0.445525
0.447869
0.450532
0.453491
0.45686
0.460597
0.464874
0.46959
0.474999
0.480926
0.487698
0.495077
0.503399
0.512437
0.522482
0.533351
0.545262
0.558086
0.572004
0.586942
0.603043
0.620268
0.638752
0.658396
0.679339
0.70146
0.724933
0.749541
0.775265
0.80228
0.828117
1.88112
0.786638
0.300032
0.349025
0.412198
0.44124
0.44421
0.439522
0.43437
0.432089
0.431844
0.432367
0.433086
0.434006
0.435102
0.436435
0.438031
0.439887
0.442001
0.444397
0.447072
0.450078
0.453388
0.457088
0.461125
0.465643
0.470549
0.476049
0.48201
0.488683
0.495928
0.503986
0.512752
0.522409
0.532895
0.544361
0.556737
0.570156
0.58455
0.60004
0.616555
0.634203
0.652901
0.672751
0.693651
0.715635
0.738558
0.762382
0.787199
0.810848
2.26309
1.10601
0.407196
0.399181
0.459364
0.508058
0.519349
0.514457
0.507534
0.501486
0.49797
0.495499
0.493387
0.49137
0.489342
0.48737
0.485646
0.484157
0.48301
0.482163
0.481735
0.481686
0.48214
0.483073
0.484554
0.486619
0.489304
0.492664
0.496705
0.501515
0.507073
0.513486
0.52073
0.528923
0.538017
0.548144
0.559233
0.571401
0.584575
0.598859
0.614148
0.630543
0.647918
0.666328
0.685682
0.705971
0.727096
0.748976
0.771687
0.793295
2.2725
1.1279
0.391672
0.377128
0.449994
0.510708
0.529105
0.528223
0.524
0.520197
0.518755
0.51838
0.518364
0.518325
0.51791
0.517281
0.516609
0.515981
0.515413
0.514938
0.514572
0.514377
0.514376
0.514649
0.515232
0.516203
0.5176
0.519532
0.521996
0.525147
0.528934
0.533549
0.538907
0.545191
0.55233
0.560461
0.569556
0.57971
0.590907
0.60318
0.616552
0.630973
0.64647
0.662948
0.680376
0.698688
0.717789
0.737585
0.758141
0.777706
2.29743
1.17662
0.434253
0.383995
0.447091
0.503382
0.521859
0.522887
0.521062
0.519877
0.520296
0.521528
0.523322
0.525123
0.526532
0.527731
0.528855
0.530003
0.531152
0.532332
0.533519
0.534763
0.536056
0.537459
0.538973
0.54067
0.542568
0.54474
0.547233
0.550112
0.553445
0.557283
0.561724
0.566798
0.572626
0.579216
0.586688
0.595026
0.604332
0.614577
0.62581
0.638
0.651175
0.66532
0.680407
0.696407
0.71322
0.730693
0.748915
0.766298
1.90075
0.805031
0.30581
0.316891
0.374007
0.414892
0.429173
0.432999
0.435822
0.439473
0.444405
0.450151
0.456589
0.463083
0.469261
0.475258
0.481223
0.487185
0.49313
0.499015
0.504838
0.510576
0.51625
0.521837
0.527374
0.532836
0.538292
0.543712
0.54919
0.554714
0.560358
0.566166
0.572202
0.578534
0.585212
0.592338
0.599936
0.608127
0.6169
0.62639
0.636553
0.647526
0.659222
0.671745
0.684981
0.698948
0.713581
0.728905
0.74492
0.760235
2.30594
1.19376
0.449595
0.38664
0.440664
0.492236
0.509236
0.509296
0.50615
0.503672
0.502415
0.50223
0.502685
0.503081
0.503405
0.50391
0.504735
0.506011
0.507707
0.509865
0.512438
0.515479
0.518942
0.522868
0.527182
0.53194
0.537025
0.542528
0.548288
0.554424
0.560809
0.56755
0.574529
0.581868
0.58946
0.597443
0.605733
0.61446
0.623565
0.633163
0.643221
0.653823
0.664952
0.676643
0.688902
0.701715
0.715087
0.728929
0.743331
0.75705
2.31118
1.20373
0.432896
0.369732
0.438374
0.50063
0.522083
0.523495
0.521275
0.519805
0.519933
0.521064
0.522794
0.524298
0.525323
0.526171
0.527005
0.527954
0.529029
0.530318
0.531826
0.533641
0.535748
0.538233
0.541081
0.544357
0.548052
0.552206
0.556819
0.561902
0.567458
0.573472
0.579952
0.586871
0.594263
0.602068
0.610338
0.618996
0.628122
0.637622
0.647599
0.657944
0.66878
0.679983
0.691674
0.703727
0.71624
0.729073
0.742354
0.754956
2.3139
1.20956
0.437073
0.371774
0.441501
0.505353
0.527728
0.529409
0.527245
0.525897
0.526369
0.527886
0.530157
0.53235
0.534069
0.535598
0.537125
0.538757
0.540488
0.54235
0.544338
0.546485
0.548807
0.551336
0.554104
0.557137
0.560478
0.564141
0.568176
0.572585
0.577425
0.582681
0.588411
0.594585
0.601254
0.608379
0.616005
0.624088
0.632656
0.641675
0.651153
0.661069
0.671409
0.682165
0.693298
0.704818
0.716659
0.728834
0.741337
0.753228
2.31689
1.21728
0.463442
0.38783
0.447098
0.506224
0.528783
0.532013
0.531135
0.530764
0.531657
0.533585
0.536123
0.538422
0.540448
0.542352
0.54431
0.546351
0.548528
0.55081
0.553241
0.555792
0.558517
0.561389
0.564466
0.567725
0.571228
0.574955
0.578967
0.583253
0.58787
0.592816
0.598136
0.603834
0.609938
0.616456
0.623401
0.630792
0.638621
0.646911
0.655628
0.664803
0.674386
0.684403
0.694791
0.705567
0.716659
0.728067
0.739811
0.750987
1.90563
0.813585
0.324712
0.323678
0.37648
0.414373
0.42726
0.430302
0.432593
0.435933
0.440704
0.446615
0.453341
0.460159
0.466868
0.473528
0.480262
0.487056
0.493921
0.500799
0.507696
0.514575
0.521451
0.5283
0.535144
0.541973
0.548811
0.555658
0.562536
0.569457
0.576438
0.58351
0.590684
0.598002
0.605469
0.613139
0.621007
0.629128
0.637491
0.646139
0.655063
0.66429
0.673803
0.683627
0.693737
0.704142
0.714818
0.725754
0.736999
0.747675
2.31199
1.20859
0.46496
0.4035
0.466204
0.527387
0.549314
0.55024
0.546096
0.542264
0.540058
0.538686
0.538092
0.537695
0.536962
0.53624
0.535675
0.535522
0.53571
0.536398
0.537512
0.539125
0.541206
0.543795
0.546854
0.550411
0.554424
0.55892
0.56384
0.569209
0.57497
0.581131
0.587639
0.594506
0.60169
0.6092
0.617004
0.625107
0.633486
0.642152
0.651088
0.660302
0.669783
0.679529
0.689526
0.699761
0.710223
0.720886
0.731813
0.742176
2.29403
1.16958
0.460063
0.422689
0.485797
0.546193
0.566077
0.566116
0.562396
0.559159
0.558403
0.558806
0.559893
0.561157
0.562029
0.562668
0.563259
0.563917
0.564653
0.565476
0.566398
0.567461
0.568714
0.570198
0.571946
0.574004
0.576388
0.579131
0.58225
0.585765
0.58968
0.594018
0.598782
0.603981
0.60961
0.615669
0.622147
0.629035
0.636323
0.643991
0.652025
0.660403
0.669107
0.678119
0.687435
0.697022
0.706877
0.716964
0.727334
0.737187
1.88783
0.805072
0.340776
0.355365
0.406343
0.443122
0.452856
0.452685
0.45175
0.452601
0.455915
0.460538
0.466078
0.472143
0.478232
0.484354
0.49057
0.49689
0.503266
0.509653
0.516015
0.522341
0.528617
0.534847
0.541023
0.547157
0.553257
0.559348
0.56545
0.571594
0.577805
0.584104
0.590524
0.597085
0.603814
0.610728
0.617851
0.625192
0.63277
0.640587
0.648662
0.656988
0.66558
0.674416
0.683497
0.692811
0.702343
0.712083
0.72207
0.731563
1.87402
0.796328
0.339521
0.356661
0.398325
0.426967
0.434882
0.434835
0.433828
0.433316
0.434048
0.435682
0.43824
0.441447
0.444939
0.448771
0.453027
0.457746
0.462906
0.468488
0.474452
0.480775
0.487412
0.494341
0.501516
0.508913
0.51649
0.524229
0.532093
0.54007
0.548133
0.556294
0.564523
0.572843
0.581231
0.589717
0.598284
0.606961
0.615746
0.624643
0.63365
0.642786
0.65205
0.661457
0.671001
0.680694
0.69053
0.700504
0.710656
0.720268
1.88891
0.806047
0.345019
0.373648
0.430941
0.466893
0.473622
0.469568
0.464487
0.461384
0.460433
0.460403
0.460995
0.46196
0.463
0.464173
0.465605
0.467366
0.469493
0.471995
0.474898
0.478209
0.481959
0.48614
0.490772
0.495837
0.501347
0.507269
0.513606
0.520321
0.527418
0.534848
0.542611
0.550663
0.558994
0.567563
0.576363
0.585355
0.594529
0.603876
0.61339
0.623047
0.632846
0.642763
0.652802
0.662941
0.673188
0.683519
0.694003
0.703897
2.34072
1.12428
0.469025
0.447564
0.513131
0.57487
0.595487
0.594877
0.589579
0.584276
0.581265
0.579356
0.577791
0.57642
0.574867
0.573134
0.571361
0.569649
0.568039
0.566561
0.565239
0.564107
0.563193
0.562544
0.56219
0.56218
0.562531
0.563304
0.56449
0.566129
0.56825
0.57086
0.573986
0.577606
0.581749
0.586383
0.591526
0.597141
0.603238
0.609769
0.616735
0.624091
0.63182
0.639914
0.648327
0.657046
0.66603
0.675267
0.684764
0.693821
1.88937
0.807237
0.346157
0.363471
0.415822
0.456082
0.468553
0.469557
0.469009
0.468987
0.471274
0.474792
0.478999
0.483733
0.488556
0.493368
0.498208
0.503136
0.508111
0.513123
0.518112
0.523089
0.528013
0.532912
0.537754
0.542577
0.547356
0.552134
0.556912
0.561719
0.566563
0.571478
0.576463
0.58157
0.586798
0.5922
0.597764
0.603546
0.609527
0.615762
0.622224
0.628961
0.635947
0.643192
0.650684
0.658437
0.666428
0.674657
0.683139
0.691244
1.8891
0.807385
0.347468
0.364539
0.416094
0.454585
0.465035
0.46397
0.461095
0.458536
0.45807
0.458911
0.460497
0.462704
0.465123
0.467713
0.470581
0.47381
0.477403
0.481346
0.485612
0.490183
0.495039
0.50016
0.505526
0.511112
0.516896
0.522855
0.528971
0.535243
0.541646
0.548179
0.55483
0.561591
0.568456
0.575421
0.582488
0.589657
0.596934
0.604318
0.611819
0.619432
0.627171
0.635031
0.643027
0.651151
0.659416
0.667807
0.676373
0.684507
2.34274
1.12797
0.472709
0.449629
0.516384
0.580622
0.60307
0.603172
0.598092
0.593023
0.590241
0.588686
0.587559
0.586708
0.585705
0.58454
0.583315
0.582191
0.581154
0.580297
0.579558
0.579048
0.578703
0.578644
0.578802
0.579283
0.580048
0.581136
0.582563
0.584338
0.586468
0.588953
0.591793
0.594986
0.598531
0.602428
0.60667
0.611248
0.616154
0.621381
0.626913
0.632743
0.638853
0.645239
0.651879
0.65877
0.665891
0.673234
0.680803
0.688044
1.88982
0.80878
0.353427
0.381411
0.439686
0.479633
0.489591
0.48791
0.484864
0.483479
0.484905
0.48758
0.490929
0.494763
0.498663
0.502613
0.506675
0.510903
0.515266
0.519748
0.52431
0.528943
0.533625
0.538356
0.543126
0.547929
0.55277
0.557648
0.562572
0.567546
0.572579
0.577686
0.582866
0.588142
0.593513
0.599
0.604599
0.61033
0.616189
0.622191
0.62834
0.634646
0.64111
0.647736
0.654524
0.661479
0.668598
0.67587
0.683325
0.690424
1.87526
0.799751
0.351154
0.378101
0.427535
0.459446
0.467094
0.465964
0.464282
0.463569
0.464096
0.465294
0.467194
0.469479
0.471831
0.474312
0.47702
0.480003
0.483271
0.48682
0.490642
0.494728
0.499071
0.503662
0.508492
0.51355
0.518822
0.524297
0.52996
0.535799
0.541802
0.547951
0.554254
0.560685
0.567255
0.57394
0.580755
0.587681
0.59473
0.601885
0.609156
0.616526
0.624007
0.631586
0.639276
0.64706
0.654953
0.662942
0.671074
0.678774
1.87423
0.799385
0.351678
0.375349
0.422432
0.4541
0.462313
0.461851
0.460734
0.460115
0.460385
0.46121
0.462693
0.464529
0.466376
0.468278
0.470335
0.47259
0.475063
0.477753
0.48067
0.483817
0.487205
0.490833
0.494709
0.498831
0.503203
0.507821
0.512688
0.517796
0.523148
0.528734
0.534553
0.540593
0.54685
0.55331
0.559969
0.566812
0.573838
0.581034
0.588398
0.595919
0.603596
0.611413
0.619365
0.62744
0.635647
0.643977
0.652463
0.660521
1.88906
0.809113
0.354854
0.362658
0.413295
0.452093
0.463035
0.462621
0.460832
0.459586
0.459622
0.460432
0.461972
0.463875
0.465702
0.46751
0.469427
0.471519
0.473804
0.476279
0.478945
0.481804
0.48486
0.488115
0.491575
0.495241
0.499117
0.503203
0.507504
0.51202
0.516754
0.521705
0.526875
0.532262
0.537867
0.543686
0.549719
0.555961
0.56241
0.569059
0.575905
0.582939
0.590155
0.59755
0.605121
0.612864
0.620766
0.628819
0.637043
0.644866
2.31232
1.20465
0.485412
0.431471
0.492569
0.556797
0.582785
0.586278
0.583613
0.580882
0.579594
0.579279
0.579768
0.580598
0.581137
0.581427
0.58166
0.581943
0.582319
0.582787
0.583353
0.584017
0.584794
0.585689
0.586719
0.587888
0.589212
0.590693
0.592348
0.594179
0.596202
0.598418
0.600842
0.603474
0.606329
0.609403
0.612712
0.616249
0.620029
0.624044
0.628306
0.632804
0.637549
0.642529
0.647755
0.653209
0.658894
0.664787
0.670918
0.676812
2.32253
1.22874
0.466092
0.405364
0.481438
0.557497
0.588661
0.593339
0.590706
0.587843
0.586855
0.587309
0.588599
0.590414
0.592096
0.593493
0.594824
0.596237
0.59779
0.59947
0.601273
0.603185
0.605213
0.607353
0.609615
0.611993
0.614496
0.617118
0.61987
0.622745
0.625755
0.628894
0.632173
0.635587
0.639148
0.642849
0.646702
0.650703
0.654863
0.659175
0.663651
0.668285
0.673089
0.678056
0.683195
0.688494
0.693961
0.699582
0.705381
0.71092
2.31272
1.20616
0.486657
0.432537
0.494347
0.559805
0.586865
0.591015
0.588963
0.586851
0.586281
0.586938
0.588447
0.590437
0.592235
0.593829
0.595403
0.597086
0.598914
0.600889
0.602998
0.605243
0.60762
0.610138
0.612794
0.615595
0.618538
0.621628
0.624862
0.628246
0.631775
0.635455
0.639281
0.64326
0.647385
0.651664
0.656088
0.660667
0.665392
0.670271
0.675295
0.680473
0.685794
0.691269
0.696885
0.702652
0.708556
0.714608
0.720815
0.726753
1.88895
0.809181
0.356058
0.364304
0.416385
0.457004
0.469102
0.46912
0.467533
0.466519
0.467164
0.46879
0.471273
0.474229
0.477163
0.480129
0.483237
0.486565
0.490108
0.49387
0.497824
0.501978
0.506313
0.51084
0.515538
0.52042
0.525464
0.530682
0.536052
0.541587
0.547265
0.553099
0.559067
0.565184
0.571427
0.57781
0.584312
0.590948
0.597697
0.604572
0.611555
0.61866
0.625866
0.633188
0.640604
0.648133
0.655753
0.663488
0.671349
0.678837
1.87422
0.800022
0.355294
0.380472
0.428585
0.460131
0.467651
0.466484
0.464743
0.463861
0.464078
0.46493
0.466471
0.468353
0.470185
0.472036
0.474
0.476139
0.478451
0.480944
0.483609
0.486459
0.489487
0.492706
0.49611
0.499711
0.5035
0.50749
0.51167
0.516053
0.520628
0.525404
0.530371
0.535538
0.540892
0.546442
0.552176
0.558101
0.564202
0.570489
0.576946
0.58358
0.590375
0.597338
0.604454
0.611728
0.619145
0.626712
0.634437
0.641799
1.87704
0.803104
0.359365
0.395139
0.451552
0.484555
0.490476
0.486944
0.48276
0.480814
0.480803
0.481599
0.483009
0.484674
0.486272
0.487894
0.489638
0.49155
0.493625
0.495863
0.498255
0.500809
0.503521
0.506401
0.509443
0.512658
0.516039
0.519597
0.523325
0.527231
0.53131
0.53557
0.540004
0.54462
0.549411
0.554383
0.55953
0.564857
0.570357
0.576035
0.581883
0.587906
0.594094
0.600452
0.60697
0.613651
0.620484
0.627471
0.634616
0.641427
1.19154
1.04883
0.497528
0.190548
0.0108522
0.108731
0.160251
0.208593
0.230185
0.234545
0.222846
0.211378
0.201054
0.191519
0.179483
0.165029
0.147697
0.127763
0.105942
0.0827984
0.0589759
0.0352626
0.0158716
0.0232574
0.0469773
0.0712783
0.0954181
0.119123
0.142439
0.165341
0.187839
0.209914
0.231546
0.252687
0.272694
0.291795
0.311331
0.331703
0.351664
0.370828
0.389338
0.407331
0.424847
0.441896
0.458465
0.474557
0.49016
0.505276
0.519892
0.53401
0.547611
0.560695
0.573238
0.585235
0.596657
0.607492
0.617707
0.627285
0.636187
0.644393
0.65186
0.658566
0.664469
0.669551
0.673774
0.677135
0.679614
0.681235
0.682005
0.682177
0.681999
0.681437
0.680099
0.677592
0.67421
0.670601
0.666921
0.663201
0.659512
0.655932
0.652564
0.649479
0.646748
0.644403
0.642476
0.640967
0.639878
0.639182
0.638853
0.638827
0.638984
0.639321
0.639956
0.641046
0.642429
0.643943
0.645489
0.647159
0.648798
0.653574
1.12191
1.03599
0.806111
0.549196
0.502205
0.431245
0.381338
0.340597
0.310323
0.291765
0.260402
0.230129
0.210555
0.208808
0.215946
0.226497
0.238956
0.252869
0.267998
0.283852
0.300228
0.316698
0.333021
0.349192
0.365922
0.382904
0.400064
0.417161
0.434255
0.451184
0.468034
0.484661
0.501156
0.517387
0.533042
0.547956
0.562952
0.57867
0.594531
0.609753
0.624469
0.638838
0.652915
0.666688
0.680139
0.693253
0.706019
0.718429
0.730472
0.742139
0.753418
0.764294
0.774752
0.784774
0.794341
0.803429
0.812016
0.820074
0.827575
0.83449
0.840788
0.846438
0.85141
0.855676
0.859211
0.861999
0.86403
0.865307
0.865862
0.865872
0.865574
0.864906
0.863551
0.861163
0.857943
0.854465
0.850911
0.847343
0.843824
0.84043
0.837247
0.834347
0.831791
0.829612
0.827835
0.826461
0.825487
0.824885
0.824654
0.82468
0.824855
0.825188
0.825753
0.826717
0.827923
0.829262
0.830581
0.831994
0.833184
0.836984
1.07463
1.07546
1.00805
0.899604
0.831149
0.780865
0.744947
0.714854
0.690038
0.671945
0.656838
0.6425
0.632502
0.627367
0.625846
0.6261
0.627602
0.630005
0.633385
0.637648
0.642762
0.648531
0.654891
0.661721
0.669276
0.677433
0.686202
0.695355
0.704926
0.714727
0.724839
0.735087
0.745577
0.756122
0.766507
0.776449
0.786523
0.797303
0.808669
0.819762
0.830571
0.841186
0.851703
0.862097
0.872373
0.882479
0.892421
0.902154
0.911688
0.920979
0.930036
0.938813
0.947317
0.955499
0.963361
0.970854
0.977975
0.984671
0.990938
0.99672
1.00201
1.00676
1.01095
1.01453
1.01751
1.01983
1.02151
1.02252
1.02287
1.02275
1.02239
1.0217
1.02039
1.01818
1.01521
1.01197
1.00862
1.00527
1.00199
0.998846
0.995913