/*--------------------------------*- C++ -*----------------------------------*\
| =========                 |                                                 |
| \\      /  F ield         | OpenFOAM: The Open Source CFD Toolbox           |
|  \\    /   O peration     | Version:  2412                                  |
|   \\  /    A nd           | Website:  www.openfoam.com                      |
|    \\/     M anipulation  |                                                 |
\*---------------------------------------------------------------------------*/
FoamFile
{
    version     2.0;
    format      ascii;
    arch        "LSB;label=32;scalar=64";
    class       volScalarField;
    location    "25";
    object      p;
}
// * * * * * * * * * * * * * * * * * * * * * * * * * * * * * * * * * * * * * //

dimensions      [1 -1 -2 0 0 0 0];

internalField   nonuniform List<scalar> 
7000
(
1.63884
3.75683
11.4558
11.5282
11.0977
10.6883
10.5695
10.5841
10.6251
10.6648
10.6866
10.7004
10.7149
10.7326
10.753
10.7752
10.799
10.8245
10.8517
10.8807
10.9115
10.9442
10.9787
11.0151
11.0533
11.0933
11.1352
11.1789
11.2242
11.2713
11.3199
11.37
11.4215
11.4741
11.5276
11.5818
11.6364
11.691
11.7452
11.7986
11.8506
11.9006
11.9481
11.9923
12.0325
12.0681
12.0984
12.1229
12.1406
12.1535
1.63915
3.75554
11.4553
11.5276
11.0973
10.6879
10.5692
10.5838
10.6247
10.6644
10.6862
10.6999
10.7144
10.7321
10.7525
10.7747
10.7984
10.8239
10.851
10.88
10.9108
10.9435
10.9779
11.0143
11.0525
11.0925
11.1343
11.1779
11.2233
11.2703
11.3189
11.369
11.4204
11.4729
11.5264
11.5806
11.6352
11.6898
11.7441
11.7975
11.8495
11.8996
11.9472
11.9915
12.0318
12.0676
12.098
12.1226
12.1403
12.1533
1.63904
3.75461
11.4534
11.5268
11.0966
10.6872
10.5685
10.583
10.6239
10.6635
10.6852
10.6989
10.7134
10.731
10.7513
10.7734
10.7971
10.8225
10.8496
10.8785
10.9092
10.9418
10.9762
11.0124
11.0505
11.0904
11.1321
11.1756
11.2208
11.2677
11.3162
11.3661
11.4173
11.4697
11.5231
11.5771
11.6316
11.6861
11.7402
11.7935
11.8455
11.8956
11.943
11.9873
12.0277
12.0634
12.0939
12.1185
12.1361
12.149
1.63891
3.75332
11.4501
11.5257
11.0956
10.686
10.5673
10.5818
10.6226
10.6621
10.6836
10.6973
10.7117
10.7292
10.7494
10.7715
10.7951
10.8203
10.8473
10.8761
10.9067
10.9391
10.9733
11.0094
11.0473
11.0871
11.1286
11.1719
11.2169
11.2636
11.3118
11.3615
11.4125
11.4646
11.5177
11.5716
11.6258
11.68
11.734
11.7871
11.8389
11.8888
11.9362
11.9804
12.0207
12.0564
12.0868
12.1114
12.1289
12.1418
1.63873
3.75145
11.4453
11.5243
11.0943
10.6844
10.5656
10.5801
10.6208
10.66
10.6815
10.695
10.7093
10.7267
10.7468
10.7687
10.7921
10.8172
10.8441
10.8727
10.9031
10.9353
10.9693
11.0052
11.0428
11.0823
11.1236
11.1666
11.2113
11.2576
11.3055
11.3549
11.4055
11.4573
11.51
11.5635
11.6173
11.6713
11.7249
11.7777
11.8292
11.8789
11.9261
11.9702
12.0104
12.0461
12.0765
12.1012
12.1186
12.1315
1.63852
3.74893
11.4391
11.5225
11.0927
10.6823
10.5633
10.5777
10.6183
10.6574
10.6786
10.692
10.7061
10.7234
10.7433
10.765
10.7883
10.8132
10.8398
10.8681
10.8983
10.9303
10.964
10.9996
11.0369
11.076
11.1169
11.1595
11.2038
11.2497
11.2972
11.346
11.3962
11.4475
11.4997
11.5527
11.606
11.6594
11.7126
11.765
11.8161
11.8655
11.9124
11.9563
11.9964
12.032
12.0624
12.0871
12.1045
12.1175
1.63825
3.74569
11.4312
11.5202
11.0906
10.6797
10.5604
10.5748
10.6151
10.654
10.675
10.6881
10.7021
10.7192
10.7388
10.7603
10.7833
10.808
10.8343
10.8624
10.8923
10.9239
10.9573
10.9924
11.0294
11.068
11.1085
11.1506
11.1943
11.2397
11.2866
11.3348
11.3843
11.435
11.4865
11.5388
11.5915
11.6443
11.6968
11.7486
11.7992
11.8481
11.8946
11.9382
11.9781
12.0136
12.0439
12.0686
12.0859
12.0992
1.63793
3.7417
11.4215
11.5175
11.0881
10.6765
10.5568
10.5711
10.6112
10.6498
10.6705
10.6834
10.6971
10.714
10.7334
10.7546
10.7773
10.8016
10.8276
10.8553
10.8848
10.916
10.949
10.9836
11.0201
11.0582
11.098
11.1395
11.1826
11.2273
11.2734
11.3209
11.3696
11.4194
11.4702
11.5216
11.5734
11.6253
11.677
11.728
11.7779
11.8261
11.8721
11.9152
11.9548
11.99
12.0202
12.045
12.0623
12.0759
1.63756
3.73689
11.4099
11.5142
11.0851
10.6726
10.5525
10.5666
10.6065
10.6447
10.6651
10.6777
10.6911
10.7077
10.7268
10.7476
10.77
10.7939
10.8195
10.8468
10.8758
10.9065
10.9389
10.973
11.0088
11.0463
11.0855
11.1262
11.1685
11.2123
11.2575
11.3041
11.3518
11.4006
11.4503
11.5006
11.5513
11.6021
11.6527
11.7027
11.7516
11.799
11.8442
11.8866
11.9257
11.9606
11.9906
12.0153
12.0327
12.0466
1.63713
3.73122
11.3963
11.5103
11.0816
10.6681
10.5474
10.5613
10.6008
10.6386
10.6587
10.671
10.684
10.7002
10.7189
10.7394
10.7613
10.7848
10.8099
10.8367
10.8652
10.8953
10.9271
10.9605
10.9956
11.0322
11.0705
11.1104
11.1517
11.1945
11.2386
11.284
11.3306
11.3781
11.4265
11.4755
11.5248
11.5743
11.6235
11.6721
11.7198
11.7659
11.81
11.8516
11.8898
11.9242
11.9539
11.9785
11.9959
12.0101
1.63665
3.72464
11.3806
11.5059
11.0775
10.6629
10.5414
10.5551
10.5942
10.6315
10.6512
10.6631
10.6757
10.6915
10.7098
10.7298
10.7512
10.7742
10.7987
10.8249
10.8527
10.8821
10.9132
10.9458
10.98
11.0158
11.0531
11.0918
11.132
11.1736
11.2165
11.2605
11.3056
11.3516
11.3984
11.4457
11.4934
11.5412
11.5887
11.6356
11.6815
11.7261
11.7687
11.8089
11.8461
11.8796
11.9086
11.9329
11.9503
11.965
1.63609
3.7171
11.3626
11.5007
11.0728
10.6568
10.5344
10.5479
10.5865
10.6233
10.6425
10.6539
10.6661
10.6814
10.6991
10.7186
10.7395
10.7618
10.7858
10.8112
10.8383
10.8669
10.8971
10.9288
10.962
10.9967
11.0328
11.0704
11.1092
11.1494
11.1907
11.2332
11.2766
11.3208
11.3657
11.411
11.4566
11.5022
11.5476
11.5923
11.6361
11.6784
11.719
11.7573
11.7928
11.825
11.853
11.8768
11.8939
11.909
1.63547
3.70857
11.3423
11.4948
11.0674
10.6499
10.5264
10.5396
10.5776
10.6138
10.6324
10.6433
10.655
10.6697
10.6869
10.7058
10.726
10.7477
10.7709
10.7956
10.8218
10.8495
10.8787
10.9093
10.9414
10.9748
11.0096
11.0457
11.0831
11.1216
11.1612
11.2017
11.2431
11.2852
11.3278
11.3708
11.4139
11.4568
11.4995
11.5414
11.5823
11.6218
11.6596
11.6952
11.7283
11.7582
11.7845
11.8072
11.8237
11.8394
1.6348
3.69901
11.3196
11.4881
11.0612
10.6422
10.5174
10.5302
10.5674
10.6029
10.6209
10.6313
10.6423
10.6565
10.673
10.6912
10.7107
10.7316
10.7539
10.7778
10.803
10.8297
10.8578
10.8872
10.9179
10.95
10.9833
11.0178
11.0533
11.0899
11.1275
11.1658
11.2048
11.2444
11.2844
11.3245
11.3645
11.4043
11.4435
11.4819
11.5191
11.5548
11.5888
11.6205
11.6499
11.6765
11.7
11.7206
11.7359
11.7518
1.63408
3.68838
11.2946
11.4805
11.0543
10.6335
10.5071
10.5195
10.5557
10.5905
10.6078
10.6175
10.628
10.6414
10.6572
10.6746
10.6933
10.7134
10.7348
10.7576
10.7818
10.8073
10.8342
10.8622
10.8915
10.922
10.9536
10.9862
11.0197
11.0542
11.0894
11.1252
11.1615
11.1981
11.2349
11.2716
11.308
11.3439
11.3789
11.4128
11.4452
11.4759
11.5046
11.5309
11.5547
11.5759
11.5945
11.6112
11.6239
11.6402
1.63328
3.67677
11.2671
11.4721
11.0466
10.6239
10.4956
10.5073
10.5425
10.5764
10.593
10.602
10.6117
10.6244
10.6394
10.656
10.6738
10.6929
10.7133
10.7351
10.7581
10.7823
10.8077
10.8343
10.8619
10.8906
10.9202
10.9508
10.9821
11.014
11.0466
11.0795
11.1127
11.1459
11.179
11.2117
11.2437
11.2748
11.3047
11.3329
11.3593
11.3833
11.4047
11.4233
11.4389
11.4518
11.4622
11.4717
11.4789
11.4938
1.63243
3.66422
11.2373
11.463
11.0382
10.6131
10.4826
10.4936
10.5276
10.5605
10.5764
10.5846
10.5935
10.6053
10.6195
10.6352
10.652
10.6701
10.6894
10.7099
10.7316
10.7544
10.7783
10.8032
10.829
10.8557
10.8832
10.9114
10.9401
10.9693
10.9988
11.0285
11.0581
11.0874
11.1162
11.1442
11.1711
11.1966
11.2201
11.2414
11.2599
11.2752
11.2868
11.2945
11.2976
11.297
11.2935
11.2892
11.2852
11.2959
1.63153
3.65085
11.2055
11.4532
11.0291
10.6011
10.468
10.4782
10.5106
10.5425
10.5575
10.565
10.5731
10.584
10.5972
10.6119
10.6277
10.6447
10.6627
10.6819
10.7022
10.7235
10.7456
10.7687
10.7925
10.817
10.8422
10.8678
10.8937
10.9198
10.946
10.972
10.9975
11.0224
11.0463
11.0689
11.0898
11.1085
11.1244
11.1371
11.1459
11.1497
11.1481
11.1412
11.1262
11.1043
11.0765
11.0457
11.0155
11.0118
1.63059
3.63682
11.1721
11.4427
11.0192
10.5879
10.4516
10.4609
10.4916
10.5223
10.5365
10.5432
10.5504
10.5604
10.5726
10.5862
10.6009
10.6166
10.6334
10.6512
10.6699
10.6894
10.7098
10.7308
10.7525
10.7746
10.7971
10.8199
10.8427
10.8655
10.8879
10.9098
10.9308
10.9507
10.9691
10.9855
10.9995
11.0103
11.0174
11.0193
11.0165
11.0069
10.9875
10.9584
10.9177
10.8634
10.7941
10.7122
10.6217
10.5662
1.62964
3.62242
11.1379
11.4316
11.0084
10.573
10.4329
10.4411
10.4697
10.4992
10.5126
10.5185
10.5248
10.5338
10.545
10.5576
10.5711
10.5856
10.601
10.6172
10.6343
10.652
10.6704
10.6893
10.7085
10.7281
10.7478
10.7674
10.7869
10.8059
10.8243
10.8416
10.8577
10.8721
10.8843
10.8937
10.8999
10.9014
10.8986
10.8896
10.8711
10.8429
10.8021
10.7458
10.6689
10.5658
10.4279
10.2469
10.0131
9.75875
1.62883
3.60412
11.0972
11.4184
10.9947
10.5537
10.4081
10.4147
10.4405
10.4687
10.4813
10.4863
10.4914
10.4992
10.5091
10.5202
10.5323
10.5451
10.5587
10.5731
10.588
10.6034
10.6193
10.6354
10.6517
10.668
10.6841
10.6998
10.715
10.7293
10.7424
10.7541
10.7638
10.7711
10.7752
10.7752
10.7723
10.7635
10.7454
10.7187
10.6809
10.6288
10.5581
10.4619
10.331
10.1486
9.88559
9.48039
8.78203
7.25982
1.62803
3.58463
11.054
11.4011
10.9756
10.5254
10.3718
10.3765
10.399
10.4265
10.4389
10.4434
10.4476
10.4542
10.4628
10.4725
10.483
10.4941
10.5057
10.5178
10.5302
10.543
10.5558
10.5687
10.5814
10.5937
10.6056
10.6166
10.6266
10.6353
10.6422
10.647
10.6489
10.6479
10.6437
10.6338
10.6167
10.5923
10.5586
10.5129
10.4524
10.3721
10.2657
10.1234
9.93029
9.66262
9.27878
8.70985
7.86755
6.48129
1.62758
3.57336
11.0292
11.3896
10.9601
10.4971
10.3327
10.3349
10.3537
10.3809
10.3934
10.3972
10.4003
10.4055
10.4127
10.421
10.4298
10.439
10.4485
10.4583
10.4682
10.4781
10.4879
10.4974
10.5064
10.5148
10.5222
10.5284
10.5331
10.5359
10.5361
10.5347
10.5298
10.5196
10.5042
10.4828
10.4538
10.4157
10.3661
10.302
10.2196
10.1138
9.97643
9.79776
9.56241
9.24921
8.82895
8.26142
7.52957
6.55661
1.62694
3.56415
11.0059
11.3682
10.9321
10.4517
10.2777
10.2799
10.3003
10.3309
10.3449
10.3484
10.3506
10.3549
10.3611
10.3681
10.3754
10.3828
10.3903
10.3977
10.4051
10.4122
10.4188
10.4249
10.4302
10.4345
10.4376
10.4389
10.4385
10.4364
10.4312
10.4217
10.4083
10.39
10.3657
10.3345
10.2946
10.2442
10.1808
10.1013
10.0019
9.87736
9.72088
9.52369
9.27461
8.95985
8.5648
8.07373
7.49339
6.76436
1.62767
3.59852
11.0673
11.3655
10.9046
10.386
10.2008
10.206
10.2342
10.2721
10.2885
10.2921
10.2938
10.2974
10.303
10.3092
10.3153
10.3212
10.3269
10.3323
10.3374
10.3419
10.3458
10.3489
10.3508
10.3513
10.3506
10.3483
10.3431
10.3349
10.3235
10.3083
10.2884
10.2632
10.2313
10.1917
10.1426
10.0823
10.0084
9.91811
9.80786
9.6733
9.50911
9.30896
9.06558
8.77123
8.41866
8.0007
7.51977
6.96876
1.58995
3.70898
11.0722
11.2744
10.8238
10.3045
10.1317
10.1417
10.1783
10.2182
10.2347
10.2384
10.2404
10.2441
10.2489
10.2539
10.2584
10.2624
10.266
10.2691
10.2715
10.2733
10.2741
10.2739
10.2728
10.2699
10.2646
10.2574
10.2476
10.2346
10.2182
10.1976
10.172
10.1406
10.1023
10.0558
9.99983
9.9324
9.8516
9.75488
9.63937
9.50165
9.33786
9.14365
8.91459
8.64623
8.33523
7.97892
7.57929
7.13165
1.55514
4.81618
11.2233
10.9533
10.3122
10.0553
10.0509
10.0775
10.1249
10.1514
10.1611
10.1653
10.1696
10.1746
10.1797
10.1843
10.1881
10.1913
10.1937
10.1953
10.1958
10.1956
10.1946
10.1922
10.1877
10.1817
10.174
10.1639
10.1508
10.1343
10.1138
10.0888
10.0586
10.0223
9.97911
9.92772
9.86692
9.79513
9.71056
9.61117
9.49468
9.35852
9.19996
9.0161
8.80424
8.56193
8.28773
7.98162
7.64494
7.27047
1.55603
4.82315
11.1731
10.8842
10.2396
10.0003
10.0104
10.053
10.1014
10.1231
10.1291
10.1316
10.1347
10.1379
10.1405
10.1421
10.1428
10.1427
10.142
10.1402
10.1371
10.1332
10.1283
10.122
10.114
10.1041
10.0919
10.0772
10.0596
10.0388
10.0144
9.98583
9.9521
9.91223
9.86528
9.8104
9.74639
9.672
9.58583
9.48623
9.37148
9.23967
9.08888
8.91718
8.72294
8.50475
8.26189
7.99387
7.70699
7.39096
1.56618
4.84227
11.2356
10.9041
10.1833
9.92283
9.93795
9.99269
10.05
10.0744
10.0808
10.0835
10.0869
10.0902
10.0926
10.0936
10.0934
10.0925
10.0901
10.0859
10.0808
10.0745
10.0668
10.0574
10.0462
10.033
10.0174
9.99932
9.97834
9.95409
9.92587
9.89308
9.85513
9.81164
9.76185
9.70474
9.63936
9.5643
9.47836
9.38027
9.26887
9.14269
9.00054
8.8411
8.6634
8.46674
8.25145
8.01733
7.76823
7.49781
1.5565
4.82045
11.1597
10.8523
10.1593
9.89805
9.91013
9.95942
10.0156
10.0398
10.0454
10.0469
10.0489
10.0508
10.0515
10.0511
10.0495
10.046
10.0412
10.0353
10.0282
10.0198
10.0097
9.99784
9.98402
9.96802
9.94957
9.92848
9.90435
9.87686
9.84548
9.80979
9.76932
9.72335
9.67125
9.61211
9.54521
9.46974
9.3849
9.2896
9.18291
9.06358
8.9306
8.78317
8.62099
8.444
8.25239
8.04557
7.82717
7.59244
1.52732
4.76283
10.9522
10.7277
10.1507
9.90264
9.90358
9.933
9.98166
10.0049
10.0107
10.0114
10.0121
10.0123
10.0118
10.0101
10.0065
10.0014
9.99517
9.98777
9.97894
9.96855
9.95641
9.9424
9.92629
9.908
9.88717
9.86366
9.83704
9.80706
9.77334
9.73545
9.6929
9.64514
9.59165
9.53179
9.46491
9.39027
9.30719
9.21481
9.11234
8.99923
8.87495
8.73905
8.59102
8.43056
8.25779
8.07483
7.88213
7.67615
1.51125
4.71733
10.869
10.7328
10.2339
9.94123
9.88947
9.90782
9.94726
9.97135
9.97807
9.97779
9.97662
9.97431
9.97141
9.96758
9.9625
9.95613
9.94848
9.9395
9.92901
9.91692
9.90304
9.88731
9.86946
9.84939
9.82675
9.80142
9.77302
9.7413
9.70593
9.66651
9.62272
9.57405
9.52
9.46009
9.39382
9.32063
9.23994
9.15114
9.05367
8.94706
8.83092
8.70491
8.56892
8.42304
8.2676
8.10328
7.93131
7.74872
1.66809
3.29276
10.5074
11.013
10.597
10.0772
9.88912
9.89309
9.91836
9.95141
9.96212
9.96095
9.95699
9.95064
9.9448
9.93886
9.93195
9.9237
9.91405
9.90297
9.89041
9.87619
9.86017
9.84237
9.82248
9.80034
9.77567
9.74834
9.718
9.68448
9.64743
9.60654
9.56142
9.51172
9.45703
9.39703
9.33136
9.25957
9.18122
9.09589
9.00309
8.9025
8.79388
8.67697
8.55178
8.41844
8.27726
8.12872
7.974
7.81062
1.67601
3.16916
10.4417
11.1647
10.7159
10.1121
9.86734
9.85451
9.87226
9.90443
9.91486
9.91299
9.90698
9.89763
9.89
9.88347
9.87652
9.86831
9.85864
9.8475
9.83481
9.82047
9.80431
9.78616
9.76589
9.74331
9.71815
9.69028
9.65937
9.62531
9.58775
9.54651
9.50132
9.45191
9.39802
9.33923
9.27515
9.20543
9.12977
9.04774
8.95913
8.86377
8.76162
8.65282
8.53719
8.4148
8.28586
8.15081
8.01063
7.86319
1.64117
3.05464
9.91285
11.0087
10.6486
10.1098
9.88662
9.86577
9.87674
9.89506
9.89672
9.89277
9.88261
9.86925
9.85807
9.84837
9.83857
9.82781
9.81583
9.8026
9.78803
9.77199
9.75432
9.73483
9.71336
9.68972
9.66372
9.63511
9.60363
9.56911
9.53136
9.49014
9.4452
9.39628
9.34311
9.28539
9.22284
9.1552
9.08224
9.00384
8.91991
8.83022
8.73457
8.63281
8.52486
8.41108
8.2923
8.16882
8.04114
7.90729
1.43606
4.5491
10.3367
10.5122
10.2197
9.92512
9.81713
9.81452
9.82279
9.8333
9.83321
9.82968
9.82063
9.80866
9.79841
9.78928
9.77979
9.76917
9.75726
9.74406
9.72951
9.71346
9.69574
9.67618
9.65466
9.63099
9.60501
9.57646
9.54517
9.51106
9.47387
9.43334
9.38928
9.34148
9.2897
9.23373
9.17334
9.10836
9.0386
8.96395
8.88427
8.79944
8.7094
8.61417
8.51414
8.40939
8.29983
8.18567
8.06793
7.94514
1.63352
3.00317
9.72777
10.8964
10.5815
10.0813
9.86183
9.82758
9.83293
9.83941
9.83665
9.8275
9.81082
9.79501
9.78141
9.76884
9.75602
9.74218
9.72715
9.71106
9.69387
9.67538
9.65541
9.6338
9.61036
9.58499
9.5575
9.52784
9.49587
9.46126
9.4238
9.38329
9.33958
9.29252
9.24188
9.18743
9.12901
9.06644
8.99959
8.92834
8.8526
8.77233
8.68754
8.59827
8.50466
8.40684
8.30494
8.19937
8.09072
7.97773
1.64238
2.93506
9.72917
11.0213
10.64
10.049
9.79183
9.75833
9.76848
9.78413
9.78304
9.7759
9.75994
9.74284
9.729
9.71687
9.70462
9.69153
9.67741
9.66203
9.64526
9.62705
9.6073
9.58589
9.5627
9.53756
9.51034
9.48089
9.44907
9.41471
9.37766
9.33779
9.29491
9.2488
9.19934
9.1464
9.08987
9.02963
8.96556
8.89759
8.82565
8.74969
8.6697
8.58576
8.49793
8.40635
8.31123
8.21303
8.11216
8.00738
1.64069
2.91576
9.67467
10.9998
10.6149
10.0089
9.74237
9.70727
9.71841
9.73674
9.73623
9.72999
9.71501
9.69741
9.68329
9.67122
9.65913
9.64607
9.63179
9.61625
9.59936
9.58106
9.56126
9.53982
9.51663
9.49155
9.46445
9.43521
9.4037
9.36978
9.33333
9.2942
9.25225
9.20734
9.15933
9.10812
9.05363
8.99577
8.93446
8.86964
8.80126
8.72927
8.65371
8.57462
8.49212
8.40637
8.31742
8.22562
8.13144
8.03373
1.62632
2.92431
9.50658
10.8593
10.5493
9.99835
9.74277
9.6949
9.69961
9.70789
9.70557
9.69703
9.67981
9.66309
9.64876
9.63567
9.62245
9.6084
9.59329
9.57704
9.55959
9.54082
9.52062
9.49887
9.47544
9.45023
9.42311
9.39396
9.36267
9.32912
9.29316
9.25469
9.21358
9.16976
9.12315
9.07366
9.02117
8.96559
8.90686
8.84496
8.77984
8.7115
8.63995
8.56525
8.4875
8.40682
8.32345
8.23747
8.14921
8.05761
1.39429
4.48174
10.0358
10.3045
10.0239
9.73625
9.62839
9.61924
9.62465
9.63122
9.63016
9.62493
9.6136
9.60089
9.58943
9.57858
9.56722
9.55477
9.54104
9.52598
9.50957
9.49174
9.47241
9.45149
9.4289
9.40451
9.37823
9.34995
9.3196
9.28708
9.25228
9.21511
9.17546
9.13327
9.08844
9.04091
8.99058
8.93739
8.88132
8.82233
8.76044
8.69566
8.62798
8.55744
8.48408
8.408
8.32941
8.24836
8.16523
8.07904
1.63155
2.948
9.59385
10.8426
10.4986
9.90975
9.63627
9.59392
9.60422
9.62466
9.62624
9.62157
9.60918
9.59185
9.57693
9.5638
9.55058
9.53632
9.52076
9.50385
9.48573
9.46621
9.44532
9.42305
9.39935
9.37408
9.34709
9.31828
9.28755
9.25478
9.21997
9.18309
9.14405
9.10275
9.05911
9.01303
8.96446
8.91334
8.8596
8.80319
8.74408
8.68227
8.6178
8.55073
8.48115
8.40917
8.33491
8.25844
8.17999
8.09865
1.64179
3.07745
9.86665
10.7746
10.3921
9.78022
9.51833
9.49818
9.5155
9.5483
9.55776
9.5551
9.54673
9.5325
9.52001
9.50913
9.49806
9.48576
9.472
9.45687
9.44052
9.42288
9.40375
9.383
9.36053
9.33633
9.31037
9.28262
9.25301
9.2215
9.18803
9.1525
9.11483
9.07496
9.03281
8.98835
8.94152
8.89228
8.84061
8.7865
8.72994
8.671
8.60966
8.5459
8.4798
8.41144
8.3409
8.2683
8.19385
8.11668
1.40444
4.54564
10.1045
10.1595
9.85372
9.54635
9.4468
9.45211
9.47148
9.49146
9.49719
9.49567
9.49063
9.48117
9.47183
9.46276
9.45299
9.44189
9.42931
9.41528
9.39983
9.38291
9.36445
9.34436
9.32262
9.29921
9.27409
9.24721
9.2185
9.18792
9.15545
9.12105
9.08465
9.04619
9.00562
8.96289
8.91796
8.8708
8.82139
8.76972
8.71576
8.65951
8.60103
8.54038
8.47759
8.41272
8.34583
8.27697
8.2063
8.13304
1.38839
4.55536
10.0008
10.0256
9.78382
9.55158
9.46919
9.46655
9.47272
9.48213
9.48382
9.48174
9.47579
9.46575
9.45544
9.44503
9.43382
9.42143
9.40774
9.39277
9.3765
9.35892
9.33997
9.31958
9.2977
9.27428
9.24927
9.22263
9.19432
9.1643
9.13246
9.09876
9.06314
9.02556
8.98597
8.94435
8.90064
8.85479
8.8069
8.75703
8.70514
8.65115
8.59508
8.53696
8.4768
8.41463
8.35055
8.28467
8.21714
8.14721
1.42153
4.56881
10.2127
10.1825
9.79849
9.4631
9.36994
9.3819
9.41311
9.43758
9.4445
9.44312
9.43851
9.4299
9.42094
9.41183
9.40187
9.39058
9.37783
9.36363
9.34799
9.33089
9.31231
9.29226
9.27071
9.24762
9.22296
9.1967
9.16883
9.13929
9.10804
9.07503
9.04021
9.00358
8.96513
8.92484
8.8827
8.83874
8.79281
8.74487
8.69494
8.64305
8.58924
8.53353
8.47592
8.41647
8.35523
8.29225
8.22764
8.16058
1.53229
3.35222
9.88898
10.7069
10.3191
9.67691
9.39306
9.36724
9.38488
9.42075
9.4349
9.43387
9.42921
9.41943
9.40897
9.39897
9.38853
9.37688
9.36379
9.34927
9.33336
9.31609
9.29743
9.27732
9.25573
9.23262
9.20789
9.18153
9.15367
9.12417
9.09301
9.06013
9.02559
8.98935
8.9514
8.91171
8.87029
8.82709
8.78211
8.73533
8.68676
8.63646
8.5843
8.53034
8.47467
8.41735
8.35841
8.2979
8.23594
8.17181
1.39675
4.53413
10.0663
10.0952
9.79219
9.46711
9.34512
9.34357
9.35497
9.37643
9.38525
9.38456
9.38104
9.37338
9.36442
9.35566
9.34647
9.33611
9.32431
9.31106
9.29639
9.28032
9.26282
9.24385
9.22337
9.20136
9.17779
9.15265
9.12597
9.09773
9.0679
9.03649
9.00346
8.96873
8.93227
8.89409
8.85418
8.81254
8.76915
8.72402
8.67714
8.6285
8.57823
8.52634
8.47284
8.41773
8.36107
8.30291
8.24339
8.18195
1.39414
4.53125
10.0489
10.0823
9.7756
9.44773
9.32753
9.32783
9.34041
9.36316
9.37255
9.37166
9.3676
9.35901
9.34934
9.33985
9.32989
9.31878
9.30627
9.29238
9.27718
9.26067
9.24286
9.2237
9.20318
9.18127
9.15798
9.13329
9.10708
9.07932
9.04997
9.01902
8.9865
8.95241
8.91676
8.87952
8.84067
8.80018
8.75806
8.71431
8.66892
8.62192
8.57333
8.52316
8.47144
8.41817
8.36341
8.30719
8.2496
8.19015
1.53046
3.34022
9.84953
10.6878
10.3016
9.63711
9.33331
9.29759
9.31414
9.34894
9.36414
9.36325
9.35868
9.34883
9.33801
9.32805
9.318
9.30694
9.29452
9.28074
9.26563
9.24923
9.23149
9.2124
9.19192
9.16997
9.14671
9.12199
9.09579
9.06809
9.03888
9.00815
8.97592
8.94222
8.907
8.87026
8.83198
8.79217
8.75082
8.70793
8.66351
8.61757
8.57012
8.52118
8.47078
8.41895
8.3657
8.31111
8.25526
8.19775
1.40815
4.54768
10.1186
10.0923
9.70686
9.35401
9.24385
9.25311
9.28239
9.31136
9.32096
9.32004
9.31615
9.30808
9.29943
9.29095
9.28191
9.2717
9.26013
9.2472
9.23298
9.21747
9.20066
9.18252
9.16303
9.14216
9.11992
9.09628
9.07121
9.04469
9.0167
8.98728
8.95641
8.92406
8.89022
8.85489
8.81804
8.7797
8.73988
8.69854
8.65567
8.61128
8.56538
8.51802
8.46921
8.41897
8.36731
8.31433
8.2601
8.20424
1.3931
4.55547
10.0078
9.98193
9.66887
9.38851
9.30003
9.30305
9.31522
9.32603
9.32657
9.32407
9.31746
9.30736
9.29733
9.28741
9.27689
9.26535
9.25265
9.23878
9.22375
9.20756
9.19019
9.17162
9.15182
9.13077
9.10844
9.08481
9.05986
9.03359
9.00599
8.97699
8.94657
8.91471
8.8814
8.84663
8.81039
8.77269
8.73353
8.69293
8.65091
8.60748
8.56261
8.51633
8.46865
8.41958
8.36917
8.31741
8.26435
8.20952
1.38513
4.54774
9.95907
9.94767
9.65898
9.38725
9.29499
9.29431
9.30046
9.30817
9.30823
9.30597
9.29982
9.28991
9.27998
9.27017
9.25983
9.24852
9.23613
9.22265
9.20806
9.19234
9.17544
9.15733
9.138
9.11741
9.09555
9.07241
9.04795
9.02217
8.99505
8.96655
8.93667
8.9054
8.87274
8.83868
8.80324
8.76639
8.72812
8.68843
8.64732
8.6048
8.56086
8.51554
8.46886
8.42089
8.37159
8.3209
8.26889
8.21508
1.37723
4.50926
9.91952
10.0316
9.73127
9.40339
9.28215
9.27813
9.28673
9.29908
9.30118
9.29883
9.29214
9.28109
9.27037
9.26023
9.24975
9.23834
9.22582
9.21217
9.19742
9.18154
9.16453
9.14634
9.12697
9.10639
9.08458
9.06153
9.03722
9.01162
8.98473
8.95653
8.927
8.89614
8.86393
8.83036
8.79543
8.75913
8.72146
8.68242
8.64201
8.60025
8.55715
8.51274
8.46699
8.41987
8.37144
8.32174
8.2708
8.21827
1.62614
2.96908
9.52191
10.6176
10.2731
9.64744
9.338
9.2722
9.27976
9.29797
9.30541
9.30315
9.2956
9.28122
9.26803
9.25671
9.24585
9.2343
9.22166
9.20788
9.19302
9.17708
9.16005
9.14189
9.12258
9.10208
9.08037
9.05744
9.03326
9.00781
8.98109
8.95307
8.92374
8.8931
8.86112
8.82781
8.79316
8.75717
8.71983
8.68114
8.64113
8.59978
8.55712
8.51315
8.46788
8.42135
8.37359
8.32469
8.27469
8.22331
1.63546
2.85383
9.4843
10.8213
10.4149
9.67676
9.30965
9.23171
9.24227
9.26823
9.28288
9.28166
9.27552
9.26214
9.24801
9.23644
9.226
9.21508
9.203
9.18969
9.17526
9.15974
9.14314
9.12543
9.10658
9.08655
9.06533
9.04291
9.01925
8.99435
8.9682
8.94077
8.91205
8.88204
8.85072
8.81808
8.78413
8.74885
8.71224
8.67431
8.63506
8.5945
8.55262
8.50943
8.46495
8.41921
8.37226
8.32413
8.27491
8.22434
1.62649
2.96219
9.5065
10.6082
10.2637
9.63136
9.31383
9.24621
9.25459
9.2752
9.28536
9.28348
9.27643
9.26201
9.24815
9.23644
9.22549
9.21398
9.20141
9.18772
9.17298
9.15721
9.14041
9.12254
9.10357
9.08348
9.06224
9.03982
9.01621
8.9914
8.96535
8.93807
8.90953
8.87971
8.84862
8.81624
8.78256
8.74757
8.71129
8.6737
8.6348
8.5946
8.55312
8.51035
8.46631
8.42102
8.37449
8.32676
8.27787
8.22743
1.3742
4.50588
9.9001
10.0119
9.70747
9.36537
9.23669
9.23225
9.24176
9.25632
9.25944
9.25722
9.25071
9.23974
9.22913
9.21919
9.209
9.19795
9.18583
9.17264
9.15843
9.14319
9.1269
9.10954
9.09108
9.0715
9.05077
9.02888
9.00581
8.98154
8.95604
8.92932
8.90134
8.8721
8.84159
8.8098
8.77672
8.74234
8.70666
8.66968
8.6314
8.59181
8.55092
8.50874
8.46529
8.42058
8.37461
8.32738
8.27888
8.22863
1.37997
4.54112
9.92459
9.90712
9.60727
9.3302
9.24232
9.24462
9.25532
9.26529
9.26553
9.26294
9.25599
9.24515
9.23454
9.22426
9.21356
9.20197
9.18937
9.17577
9.16119
9.1456
9.129
9.11134
9.0926
9.07277
9.05181
9.02972
9.00646
8.98203
8.9564
8.92956
8.9015
8.87219
8.84164
8.80982
8.77674
8.74238
8.70674
8.66982
8.63162
8.59214
8.55138
8.50935
8.46607
8.42154
8.37579
8.32882
8.28064
8.23094
1.40415
4.56238
10.055
9.98761
9.59226
9.27621
9.19341
9.20501
9.23473
9.25514
9.2577
9.25504
9.24802
9.23763
9.22768
9.21799
9.20773
9.19646
9.18412
9.17076
9.1564
9.14103
9.12462
9.10717
9.08863
9.06899
9.04823
9.02633
9.00327
8.97904
8.9536
8.92696
8.89909
8.86998
8.83962
8.808
8.77512
8.74095
8.70551
8.66878
8.63078
8.59149
8.55092
8.50909
8.466
8.42167
8.37612
8.32936
8.28146
8.23218
3.04428
2.45912
3.00467
4.18118
4.1272
4.11028
4.04939
4.01171
3.99882
4.00159
4.02925
4.07292
4.11005
4.14074
4.17472
4.21742
4.26908
4.32715
4.38879
4.45168
4.51409
4.57482
4.63335
4.69028
4.74124
4.78656
4.82623
4.86062
4.88974
4.91375
4.93271
4.94678
4.95609
4.96085
4.96126
4.95963
4.9543
4.94301
4.92758
4.90982
4.88981
4.86748
4.84298
4.81654
4.78846
4.75899
4.7284
4.69691
4.66478
4.63221
4.59942
4.56663
4.53404
4.50185
4.47026
4.43947
4.40968
4.38109
4.3539
4.32829
4.30447
4.28262
4.26293
4.24556
4.23066
4.21836
4.20874
4.20184
4.19764
4.19619
4.19641
4.19751
4.20056
4.2073
4.21907
4.23211
4.24549
4.25906
4.27266
4.28599
4.29872
4.31051
4.32112
4.33035
4.3381
4.34433
4.34902
4.35223
4.35405
4.35466
4.35459
4.35421
4.35316
4.35085
4.34691
4.34254
4.33802
4.33333
4.32829
4.32386
4.0968
3.55497
3.75758
4.23575
4.15287
4.09616
4.0368
3.99636
3.98473
3.99697
4.03817
4.08866
4.12045
4.14235
4.17136
4.21228
4.26356
4.32159
4.3831
4.4459
4.50822
4.56908
4.6279
4.68456
4.73559
4.78093
4.8207
4.85523
4.88448
4.90863
4.92769
4.94188
4.95125
4.95604
4.95627
4.95509
4.95082
4.94082
4.92386
4.90548
4.88563
4.86364
4.83939
4.81311
4.78515
4.7558
4.72532
4.69394
4.66191
4.62944
4.59675
4.56404
4.53153
4.49941
4.46788
4.43715
4.40741
4.37886
4.35169
4.32612
4.30232
4.28049
4.26082
4.24347
4.2286
4.21634
4.20678
4.19999
4.19601
4.19506
4.19535
4.19652
4.19958
4.20621
4.21805
4.23141
4.24514
4.25899
4.27279
4.28629
4.29915
4.31107
4.32176
4.33106
4.33884
4.34507
4.34974
4.35291
4.35469
4.35521
4.35511
4.35473
4.35369
4.35143
4.34737
4.34287
4.33828
4.33366
4.32886
4.32605
5.2263
4.46533
4.23729
4.26904
4.24975
4.19718
4.115
4.06194
4.04192
4.04441
4.05697
4.0863
4.12157
4.153
4.18607
4.22671
4.27568
4.33124
4.39062
4.45155
4.5123
4.57175
4.62904
4.68355
4.73373
4.77857
4.81793
4.85198
4.8808
4.90454
4.92324
4.93706
4.94609
4.95045
4.95038
4.94929
4.94564
4.93702
4.91974
4.90037
4.87992
4.85782
4.83369
4.80757
4.77973
4.75048
4.7201
4.68884
4.65693
4.62458
4.592
4.55941
4.527
4.49498
4.46355
4.43291
4.40326
4.37479
4.34771
4.32221
4.29848
4.27673
4.25713
4.23986
4.22509
4.21296
4.20357
4.19706
4.19353
4.19322
4.19358
4.19487
4.19807
4.20487
4.21667
4.23028
4.24452
4.2589
4.27316
4.28701
4.30016
4.31229
4.32315
4.33255
4.34038
4.34661
4.35123
4.3543
4.35597
4.35628
4.35616
4.35572
4.3546
4.3522
4.34805
4.34341
4.3387
4.33415
4.32955
4.32848
5.82975
5.09674
4.66436
4.46772
4.42891
4.363
4.27064
4.19021
4.13838
4.11813
4.12045
4.13157
4.15784
4.19482
4.22832
4.26318
4.30405
4.3518
4.40487
4.46095
4.518
4.57452
4.62929
4.68159
4.73001
4.77375
4.81232
4.84562
4.87375
4.89687
4.91502
4.92832
4.93688
4.94066
4.94049
4.93937
4.936
4.92822
4.91233
4.89224
4.8709
4.84836
4.82421
4.7983
4.77073
4.74175
4.71163
4.68062
4.64896
4.61686
4.58453
4.55218
4.52001
4.48821
4.457
4.42656
4.39711
4.36884
4.34195
4.31663
4.29309
4.27152
4.2521
4.23502
4.22046
4.20856
4.19947
4.19338
4.19053
4.1906
4.19115
4.19273
4.19634
4.20377
4.21529
4.22896
4.24368
4.25873
4.27362
4.28798
4.30149
4.31389
4.32492
4.33443
4.3423
4.3485
4.35305
4.35603
4.35754
4.35756
4.3574
4.35685
4.35553
4.35281
4.34865
4.34396
4.33916
4.33465
4.33029
4.33037
6.23273
5.59779
5.12338
4.83423
4.68542
4.57246
4.46101
4.35945
4.28196
4.2345
4.21475
4.21572
4.22206
4.23855
4.27106
4.30383
4.3401
4.3814
4.42755
4.47731
4.52912
4.58142
4.63275
4.68198
4.72808
4.77008
4.80739
4.83954
4.86667
4.88896
4.90632
4.91889
4.92679
4.92981
4.92955
4.92831
4.92495
4.9175
4.90245
4.88271
4.86093
4.83783
4.81338
4.78748
4.76012
4.73143
4.70162
4.67093
4.63958
4.60779
4.57576
4.54371
4.51183
4.48033
4.44941
4.41927
4.39012
4.36214
4.33554
4.31051
4.28726
4.26598
4.24686
4.23008
4.21584
4.2043
4.19568
4.1901
4.18801
4.18819
4.18897
4.19094
4.19517
4.20345
4.21473
4.2283
4.2433
4.25888
4.27436
4.28924
4.30314
4.31579
4.32697
4.33655
4.34443
4.35059
4.35504
4.3579
4.3591
4.35904
4.35875
4.35798
4.35632
4.3532
4.34909
4.34441
4.33956
4.33507
4.33108
4.33138
6.53978
6.00474
5.55018
5.20647
4.97351
4.80709
4.66998
4.55069
4.45259
4.3805
4.33526
4.31341
4.31336
4.31655
4.32725
4.35043
4.38279
4.41878
4.45757
4.49948
4.54413
4.59039
4.63679
4.68206
4.72504
4.76472
4.80028
4.83118
4.85727
4.87861
4.89504
4.90685
4.91409
4.91632
4.91598
4.91463
4.91118
4.90378
4.88917
4.87025
4.8486
4.82517
4.8004
4.77439
4.74717
4.71879
4.68938
4.6591
4.62817
4.59679
4.56518
4.53353
4.50207
4.47099
4.44049
4.41078
4.38205
4.3545
4.32833
4.30374
4.28093
4.2601
4.24142
4.22508
4.21133
4.20033
4.19227
4.18723
4.18596
4.18623
4.18722
4.18963
4.19465
4.2035
4.21491
4.22844
4.24349
4.25931
4.27515
4.29039
4.30458
4.31743
4.32872
4.33833
4.34618
4.35228
4.35666
4.35936
4.36022
4.36012
4.3597
4.35871
4.35664
4.35331
4.34915
4.34447
4.33961
4.33516
4.33146
4.33187
6.78399
6.33351
5.91597
5.55692
5.27636
5.06463
4.89688
4.75689
4.63978
4.5463
4.47766
4.43296
4.40951
4.40379
4.40544
4.41216
4.42798
4.45644
4.48824
4.52349
4.56149
4.60134
4.64204
4.68257
4.72184
4.7587
4.79218
4.82157
4.84649
4.86681
4.88247
4.89351
4.90002
4.90147
4.90107
4.89959
4.89598
4.88834
4.8742
4.85596
4.83469
4.81129
4.78638
4.7603
4.73318
4.70507
4.67605
4.64624
4.61579
4.5849
4.55379
4.52264
4.49169
4.46112
4.43115
4.40198
4.37379
4.3468
4.3212
4.29718
4.27495
4.25471
4.23663
4.22096
4.2078
4.19739
4.18993
4.1855
4.18503
4.18539
4.1866
4.18943
4.19528
4.20465
4.21629
4.22978
4.2447
4.26045
4.27631
4.29162
4.30591
4.31883
4.33015
4.33975
4.34757
4.35361
4.35786