/*--------------------------------*- C++ -*----------------------------------*\
| =========                 |                                                 |
| \\      /  F ield         | OpenFOAM: The Open Source CFD Toolbox           |
|  \\    /   O peration     | Version:  2412                                  |
|   \\  /    A nd           | Website:  www.openfoam.com                      |
|    \\/     M anipulation  |                                                 |
\*---------------------------------------------------------------------------*/
FoamFile
{
    version     2.0;
    format      ascii;
    arch        "LSB;label=32;scalar=64";
    class       volScalarField;
    location    "25";
    object      T;
}
// * * * * * * * * * * * * * * * * * * * * * * * * * * * * * * * * * * * * * //

dimensions      [0 0 0 1 0 0 0];

internalField   nonuniform List<scalar> 
7000
(
1.31911
2.65686
2.71979
2.66983
2.66466
2.64798
2.64457
2.64731
2.64936
2.65156
2.65281
2.65382
2.65495
2.65631
2.65781
2.65944
2.66116
2.66302
2.66499
2.66709
2.66931
2.67166
2.67412
2.67672
2.67942
2.68226
2.6852
2.68827
2.69143
2.69471
2.69807
2.70153
2.70504
2.70863
2.71224
2.7159
2.71953
2.72317
2.72673
2.73022
2.73357
2.73678
2.73976
2.74254
2.74498
2.74714
2.74889
2.75029
2.75123
2.75177
1.31918
2.65708
2.72004
2.66993
2.66479
2.64811
2.64469
2.64743
2.64948
2.65167
2.65293
2.65393
2.65507
2.65642
2.65791
2.65954
2.66127
2.66312
2.66509
2.66718
2.6694
2.67174
2.6742
2.6768
2.6795
2.68233
2.68527
2.68834
2.69149
2.69477
2.69812
2.70157
2.70508
2.70866
2.71226
2.71591
2.71954
2.72316
2.7267
2.73018
2.73352
2.73672
2.73969
2.74243
2.74488
2.74699
2.74875
2.75004
2.75098
2.75133
1.31915
2.65699
2.71994
2.66991
2.66475
2.64805
2.64463
2.64739
2.64939
2.65162
2.65283
2.65387
2.65496
2.65635
2.6578
2.65947
2.66115
2.66304
2.66496
2.6671
2.66926
2.67165
2.67405
2.67669
2.67934
2.68221
2.68509
2.68819
2.6913
2.69461
2.69791
2.70139
2.70486
2.70846
2.71204
2.7157
2.71932
2.72294
2.7265
2.72996
2.73333
2.73649
2.7395
2.74218
2.74466
2.74675
2.74849
2.74984
2.75067
2.75109
1.31913
2.65682
2.71975
2.66991
2.6647
2.64795
2.64453
2.64724
2.64931
2.65146
2.65274
2.6537
2.65486
2.65616
2.6577
2.65926
2.66103
2.66282
2.66483
2.66685
2.66912
2.67138
2.67391
2.67639
2.67918
2.68189
2.68492
2.68784
2.69111
2.69422
2.69769
2.70096
2.7046
2.70799
2.71174
2.7152
2.71896
2.72241
2.72608
2.72945
2.73285
2.73604
2.73898
2.74183
2.74411
2.74633
2.748
2.74926
2.75028
2.75046
1.31909
2.65659
2.71952
2.66993
2.66466
2.64781
2.64442
2.64703
2.64925
2.65123
2.65265
2.65345
2.65475
2.6559
2.65756
2.65898
2.66087
2.66252
2.66464
2.66654
2.66889
2.67105
2.67363
2.67604
2.67885
2.68153
2.68453
2.68747
2.69065
2.69384
2.69716
2.70059
2.704
2.70763
2.71107
2.71483
2.71821
2.72202
2.72524
2.72896
2.73197
2.73538
2.7382
2.74099
2.74361
2.74541
2.74739
2.74865
2.74931
2.74988
1.31905
2.6563
2.71923
2.66997
2.6646
2.64769
2.64423
2.64703
2.64889
2.65121
2.65226
2.65341
2.65434
2.65585
2.65712
2.65891
2.66039
2.66243
2.66411
2.66642
2.66832
2.67089
2.67301
2.67584
2.67817
2.68126
2.6838
2.68712
2.68987
2.69339
2.69635
2.70002
2.70318
2.70692
2.71027
2.71398
2.71748
2.72104
2.72463
2.72787
2.73143
2.73413
2.73746
2.73981
2.74249
2.74474
2.74609
2.74767
2.7486
2.74858
1.319
2.65594
2.71887
2.67003
2.66454
2.64748
2.64403
2.64676
2.64871
2.65091
2.65206
2.65308
2.65413
2.65547
2.6569
2.6585
2.66016
2.66196
2.66388
2.6659
2.66808
2.67031
2.67276
2.67518
2.67791
2.6805
2.68351
2.68625
2.68954
2.6924
2.69593
2.6989
2.70263
2.7057
2.70954
2.71271
2.71654
2.71978
2.72345
2.72673
2.73005
2.73334
2.73592
2.73892
2.7409
2.74327
2.74517
2.74615
2.74686
2.7476
1.31894
2.65551
2.71843
2.6701
2.66446
2.64724
2.64378
2.64645
2.64847
2.65056
2.65178
2.6527
2.6538
2.65507
2.65652
2.65805
2.65973
2.66149
2.66339
2.66538
2.66751
2.66975
2.67211
2.67459
2.67716
2.6799
2.68266
2.68565
2.68856
2.69181
2.69483
2.69831
2.70137
2.70505
2.7081
2.71191
2.71495
2.71874
2.72178
2.72535
2.72842
2.73154
2.73471
2.73702
2.73973
2.74144
2.74309
2.74487
2.74571
2.74546
1.31887
2.65499
2.71791
2.67018
2.66438
2.64697
2.64347
2.64617
2.64809
2.65024
2.65135
2.65233
2.65334
2.65465
2.65602
2.65759
2.65918
2.66096
2.66278
2.66479
2.66685
2.66908
2.67138
2.67383
2.67636
2.67902
2.68178
2.68463
2.68761
2.69062
2.69381
2.69693
2.70034
2.70349
2.70711
2.71016
2.71393
2.71681
2.7206
2.72329
2.72688
2.7295
2.73248
2.7354
2.73716
2.73986
2.74127
2.74219
2.74291
2.74392
1.31879
2.65438
2.7173
2.67028
2.66427
2.64662
2.64311
2.6457
2.64777
2.64972
2.65098
2.65177
2.65291
2.65404
2.65553
2.65693
2.65863
2.66024
2.66217
2.66401
2.66615
2.66822
2.67059
2.67288
2.67546
2.67797
2.68075
2.68347
2.68643
2.68934
2.69246
2.69553
2.69876
2.70198
2.70526
2.7086
2.7118
2.71524
2.71821
2.72171
2.72427
2.72771
2.72985
2.73284
2.73527
2.73651
2.73876
2.74031
2.7411
2.74058
1.31869
2.65368
2.71659
2.6704
2.66415
2.64625
2.64267
2.64537
2.64718
2.64932
2.65034
2.65131
2.65222
2.65352
2.65478
2.65634
2.65781
2.65958
2.66127
2.66326
2.66517
2.66737
2.66951
2.67192
2.67428
2.67687
2.67944
2.68222
2.68498
2.68791
2.69085
2.6939
2.69699
2.70011
2.70331
2.70644
2.7097
2.71277
2.71601
2.7189
2.72203
2.72456
2.72747
2.72943
2.73208
2.73436
2.73508
2.73612
2.7368
2.73819
1.31859
2.65288
2.71579
2.67053
2.66401
2.64579
2.6422
2.64473
2.64675
2.64861
2.64984
2.65053
2.65166
2.65268
2.65415
2.65542
2.6571
2.65858
2.66047
2.66216
2.66428
2.66617
2.6685
2.67059
2.67312
2.6754
2.67812
2.68059
2.68348
2.6861
2.68913
2.6919
2.69501
2.69791
2.70104
2.70404
2.70708
2.71017
2.713
2.71614
2.71863
2.72169
2.72378
2.72635
2.72792
2.72982
2.73212
2.73329
2.73396
2.73305
1.31846
2.65196
2.71487
2.67068
2.66384
2.6453
2.64161
2.64421
2.64603
2.64802
2.64904
2.64987
2.65078
2.65194
2.65318
2.65461
2.65604
2.65767
2.65931
2.66115
2.66299
2.66504
2.66707
2.66932
2.67153
2.67398
2.67635
2.67897
2.68149
2.68427
2.68691
2.68982
2.69253
2.69554
2.69827
2.70133
2.70402
2.70705
2.70966
2.71248
2.71508
2.71737
2.72009
2.72174
2.72417
2.72539
2.72599
2.72688
2.7274
2.72925
1.31834
2.65096
2.7138
2.67105
2.66346
2.64474
2.64096
2.6435
2.64532
2.64721
2.64825
2.64897
2.64991
2.65095
2.65224
2.65351
2.65501
2.65647
2.65817
2.65981
2.66173
2.66355
2.66567
2.66766
2.66997
2.67212
2.67459
2.67689
2.6795
2.68193
2.68464
2.6872
2.68994
2.6926
2.69532
2.69802
2.70068
2.70332
2.70591
2.70832
2.71077
2.71288
2.71479
2.71682
2.71786
2.72001
2.72156
2.72238
2.72271
2.72109
1.3182
2.64988
2.71252
2.67176
2.66276
2.6441
2.64023
2.64267
2.64452
2.64626
2.64735
2.64794
2.64891
2.64983
2.65113
2.6523
2.65377
2.65515
2.6568
2.65838
2.66019
2.66198
2.66393
2.66594
2.668
2.67021
2.67237
2.67477
2.67698
2.67956
2.68178
2.6845
2.68672
2.68949
2.69171
2.6944
2.69663
2.6991
2.70133
2.7035
2.70558
2.70752
2.70926
2.71058
2.71193
2.71185
2.71225
2.7124
2.71296
2.71469
1.31805
2.64867
2.71117
2.67234
2.66211
2.6434
2.63937
2.64186
2.64348
2.64533
2.6462
2.64692
2.64765
2.64871
2.64974
2.65106
2.65226
2.65378
2.65514
2.65687
2.65836
2.66029
2.66193
2.66403
2.66579
2.66804
2.66993
2.67228
2.6743
2.67668
2.67883
2.68117
2.68346
2.68566
2.68804
2.69003
2.69241
2.69417
2.6963
2.69788
2.6995
2.7008
2.70202
2.70304
2.70357
2.70491
2.70454
2.70452
2.7032
2.70083
1.31788
2.64733
2.70972
2.6729
2.66143
2.64261
2.63841
2.64095
2.64232
2.64426
2.64493
2.64573
2.64628
2.6474
2.64826
2.64961
2.65066
2.65217
2.6534
2.65506
2.65648
2.65825
2.65986
2.66172
2.6635
2.66543
2.66738
2.66932
2.67141
2.67334
2.67551
2.67742
2.67958
2.68146
2.68348
2.68536
2.68707
2.68892
2.69021
2.6918
2.69275
2.69353
2.69384
2.69393
2.69328
2.69146
2.69076
2.6886
2.68795
2.68784
1.3177
2.64588
2.70816
2.67347
2.66069
2.64169
2.63735
2.63973
2.6412
2.64287
2.64369
2.64422
2.64493
2.64575
2.64679
2.64782
2.64905
2.65022
2.65163
2.65293
2.65451
2.65592
2.65765
2.65917
2.661
2.66262
2.66452
2.66622
2.66813
2.66991
2.67174
2.67356
2.67523
2.67703
2.67847
2.6801
2.6813
2.68246
2.68352
2.68389
2.68469
2.68461
2.68423
2.68327
2.68206
2.68042
2.67613
2.67255
2.66672
2.6607
1.31751
2.64434
2.70651
2.67405
2.65988
2.64067
2.63616
2.63841
2.63986
2.64138
2.64222
2.64262
2.64332
2.64403
2.64502
2.64596
2.6471
2.6482
2.64946
2.65073
2.65208
2.6535
2.65492
2.65648
2.65794
2.65961
2.66108
2.66282
2.66426
2.66603
2.66742
2.6691
2.67044
2.67188
2.67314
2.67417
2.67526
2.67562
2.67625
2.67608
2.67523
2.67447
2.67204
2.66993
2.66528
2.65993
2.65477
2.64502
2.63538
2.62274
1.3173
2.64274
2.70483
2.67462
2.65894
2.63956
2.63477
2.63708
2.63819
2.63987
2.64044
2.64101
2.64143
2.64231
2.64299
2.6441
2.64493
2.64617
2.64713
2.64849
2.64956
2.651
2.65217
2.65365
2.6549
2.65637
2.65768
2.65908
2.66041
2.66166
2.66298
2.66401
2.66523
2.66595
2.66695
2.66725
2.66791
2.66779
2.66744
2.66657
2.6655
2.66283
2.66061
2.65531
2.65066
2.64068
2.62785
2.61095
2.58208
2.51104
1.31729
2.64181
2.70047
2.67514
2.65754
2.63781
2.63271
2.63481
2.63594
2.63733
2.63803
2.63831
2.63886
2.63938
2.64025
2.64096
2.64197
2.64278
2.64392
2.64482
2.64606
2.647
2.64832
2.64928
2.65063
2.65158
2.6529
2.65379
2.65501
2.65579
2.65681
2.65741
2.65805
2.65836
2.65857
2.65825
2.65766
2.65676
2.65487
2.65282
2.64871
2.64512
2.63748
2.6314
2.61844
2.60621
2.58348
2.54736
2.48961
2.36405
1.31727
2.64083
2.69575
2.67532
2.65564
2.63544
2.62984
2.63191
2.63278
2.63421
2.63483
2.63513
2.63552
2.63605
2.63671
2.63743
2.63819
2.639
2.63983
2.64072
2.64158
2.64252
2.64338
2.64434
2.64515
2.64609
2.64678
2.64764
2.64815
2.64886
2.64909
2.6496
2.64955
2.64937
2.64889
2.64832
2.64679
2.64552
2.6424
2.63997
2.63488
2.62895
2.62129
2.60788
2.59492
2.56853
2.5418
2.49173
2.41722
2.31801
1.31724
2.64016
2.69329
2.67516
2.65405
2.63315
2.62692
2.62876
2.62953
2.63096
2.63153
2.63177
2.63206
2.63251
2.63307
2.63369
2.63434
2.63504
2.63574
2.6365
2.63723
2.63799
2.63871
2.63944
2.64009
2.64072
2.64123
2.64166
2.64193
2.64209
2.64192
2.64153
2.64099
2.6398
2.63856
2.63622
2.63413
2.63021
2.6271
2.6208
2.61617
2.60616
2.59868
2.58345
2.5668
2.54293
2.50653
2.46404
2.39208
2.31852
1.31712
2.63902
2.69247
2.67397
2.65211
2.63035
2.62366
2.6256
2.62644
2.62796
2.62848
2.62854
2.62865
2.62891
2.62916
2.62961
2.62992
2.63041
2.63076
2.63128
2.63165
2.63218
2.63257
2.63309
2.63347
2.63393
2.63424
2.63464
2.63475
2.63483
2.63471
2.63437
2.63378
2.63249
2.63122
2.62844
2.6261
2.62118
2.61682
2.60953
2.60135
2.59132
2.57735
2.56329
2.54112
2.51831
2.48442
2.44401
2.39091
2.32899
1.31689
2.64022
2.70398
2.6706
2.6521
2.62872
2.62152
2.62424
2.62521
2.62705
2.62753
2.62747
2.62744
2.62747
2.62756
2.62766
2.62772
2.62775
2.62774
2.6277
2.62762
2.62745
2.62729
2.62695
2.62668
2.62621
2.62584
2.62503
2.62455
2.62346
2.62281
2.62134
2.62047
2.61845
2.61714
2.61431
2.61179
2.60796
2.6028
2.59717
2.58814
2.57881
2.56471
2.54881
2.52839
2.50258
2.47341
2.43472
2.39202
2.34482
1.30178
2.58661
2.69854
2.67706
2.65967
2.63615
2.62926
2.63216
2.63322
2.63474
2.63461
2.63417
2.6335
2.63296
2.63237
2.63184
2.6312
2.63064
2.62998
2.62944
2.62876
2.62823
2.6275
2.62701
2.62613
2.62558
2.62434
2.62343
2.62157
2.62025
2.6176
2.61578
2.61227
2.61002
2.60555
2.60277
2.59709
2.59355
2.58642
2.58093
2.57196
2.56267
2.55066
2.53538
2.51801
2.49463
2.46888
2.43591
2.39829
2.35812
1.72048
2.46901
2.72876
2.70694
2.68436
2.67406
2.6746
2.67614
2.67754
2.67781
2.67662
2.67516
2.67354
2.67175
2.66979
2.66758
2.66517
2.66256
2.65973
2.65677
2.65355
2.6503
2.64675
2.64329
2.63931
2.63539
2.63096
2.62786
2.62401
2.62146
2.61779
2.61509
2.6108
2.60714
2.60192
2.59689
2.59074
2.58378
2.57683
2.56745
2.55926
2.54694
2.5364
2.52034
2.50556
2.48452
2.46327
2.4357
2.40598
2.37321
1.73238
2.4621
2.72326
2.7022
2.67742
2.66845
2.67234
2.67404
2.67673
2.67755
2.67775
2.6776
2.67734
2.67705
2.67637
2.67576
2.67444
2.67347
2.67144
2.67013
2.66739
2.66568
2.66226
2.65998
2.65604
2.65342
2.64902
2.64487
2.63924
2.63383
2.62723
2.62106
2.61487
2.60888
2.60317
2.59614
2.59013
2.58137
2.57387
2.56306
2.55341
2.54032
2.52777
2.51212
2.4958
2.47696
2.4561
2.43321
2.4078
2.38172
1.72914
2.46765
2.72523
2.7025
2.67385
2.66438
2.66921
2.67165
2.67482
2.67594
2.67628
2.67642
2.67659
2.67657
2.67647
2.67621
2.67562
2.67522
2.67431
2.67359
2.67201
2.67094
2.66871
2.66701
2.66414
2.6615
2.65808
2.65444
2.6503
2.64538
2.64067
2.63414
2.62808
2.61908
2.61182
2.60171
2.59375
2.58348
2.5749
2.56368
2.55334
2.54051
2.52748
2.51227
2.49617
2.4779
2.45811
2.43633
2.41283
2.38989
1.73184
2.46094
2.7207
2.697
2.67078
2.66114
2.66569
2.66795
2.67112
2.67237
2.67278
2.67306
2.67339
2.67369
2.67396
2.67399
2.67391
2.67366
2.67322
2.67253
2.67184
2.67054
2.66956
2.66756
2.66624
2.66354
2.66173
2.65804
2.65564
2.65072
2.64763
2.64138
2.63709
2.62957
2.62344
2.61425
2.6057
2.59434
2.58351
2.57072
2.55815
2.54442
2.5305
2.5152
2.49911
2.48151
2.46335
2.4433
2.42225
2.40155
1.74101
2.44278
2.70917
2.68465
2.66706
2.65768
2.66064
2.66235
2.66543
2.66649
2.66714
2.66723
2.66745
2.66757
2.66771
2.6677
2.66765
2.66748
2.66729
2.66682
2.66648
2.66568
2.66511
2.66384
2.66291
2.66085
2.65947
2.6565
2.65456
2.65055
2.64764
2.6427
2.63859
2.63262
2.62694
2.61965
2.61222
2.60319
2.59351
2.58228
2.57013
2.55619
2.54156
2.52547
2.50915
2.4914
2.47318
2.45388
2.43387
2.41437
1.73596
2.43635
2.70582
2.67713
2.66926
2.65603
2.65614
2.65815
2.66115
2.66226
2.66333
2.66343
2.6637
2.66389
2.66406
2.66413
2.66411
2.66401
2.66385
2.66351
2.66321
2.66254
2.66203
2.66092
2.66013
2.65841
2.65723
2.65473
2.65298
2.64968
2.64696
2.64278
2.63878
2.63365
2.62846
2.62207
2.61543
2.60754
2.59925
2.58963
2.5794
2.56767
2.55514
2.54099
2.5259
2.50943
2.49219
2.47384
2.45473
2.4361
1.35699
2.46745
2.67924
2.66854
2.64652
2.62388
2.61684
2.62088
2.62286
2.62573
2.62716
2.6282
2.62899
2.63001
2.63072
2.63181
2.63247
2.63345
2.63395
2.63479
2.6351
2.63584
2.63597
2.63615
2.63616
2.63605
2.63583
2.63524
2.63466
2.63346
2.63229
2.63039
2.6284
2.62541
2.62218
2.61759
2.61255
2.60616
2.59925
2.59099
2.58229
2.5722
2.56156
2.54971
2.53698
2.52307
2.50825
2.49238
2.47558
2.45912
1.36041
2.47701
2.68635
2.67711
2.65249
2.62352
2.61389
2.61471
2.6167
2.61866
2.61947
2.61957
2.61977
2.6198
2.62006
2.6204
2.62077
2.62109
2.62143
2.62166
2.62194
2.62202
2.62219
2.62211
2.62194
2.62155
2.62116
2.62029
2.6196
2.61812
2.61697
2.61476
2.61285
2.6099
2.60708
2.60354
2.59988
2.59543
2.59048
2.58482
2.5781
2.57052
2.56152
2.55161
2.54076
2.5291
2.51673
2.50352
2.48942
2.47562
1.34961
2.41269
2.66943
2.66958
2.65016
2.62377
2.61401
2.61406
2.61476
2.61532
2.61499
2.61412
2.61337
2.61233
2.61167
2.61097
2.61048
2.60983
2.60934
2.6087
2.60822
2.60758
2.60709
2.60642
2.60586
2.60508
2.60436
2.60353
2.60264
2.60156
2.60018
2.59864
2.59662
2.59446
2.59166
2.5887
2.58502
2.58116
2.5765
2.57144
2.5657
2.55962
2.55293
2.54564
2.53757
2.5282
2.51768
2.50659
2.4948
2.48343
1.74167
2.39664
2.67502
2.66132
2.65254
2.63863
2.63346
2.63371
2.63347
2.63318
2.63238
2.63115
2.62975
2.62809
2.62647
2.62489
2.62322
2.6215
2.61964
2.61778
2.61578
2.61382
2.61167
2.60961
2.60733
2.60521
2.60281
2.60072
2.59823
2.59581
2.59324
2.59061
2.5878
2.58476
2.58157
2.57794
2.57419
2.5698
2.56533
2.56004
2.55466
2.54835
2.54199
2.53466
2.52708
2.51907
2.51095
2.50192
2.4922
2.48261
1.34701
2.39565
2.66022
2.66583
2.64949
2.62422
2.61561
2.61427
2.61553
2.6158
2.61553
2.61518
2.61429
2.61337
2.61272
2.61187
2.61115
2.61009
2.60914
2.60781
2.60668
2.6053
2.60414
2.60264
2.60137
2.59951
2.59792
2.59542
2.59341
2.59068
2.58833
2.58525
2.58245
2.57889
2.57566
2.57173
2.56802
2.56362
2.55928
2.55429
2.54914
2.54336
2.53724
2.53059
2.52341
2.51583
2.5077
2.49929
2.49032
2.48171
1.34834
2.40654
2.6674
2.67129
2.65098
2.62225
2.61099
2.61081
2.61177
2.61248
2.61236
2.61166
2.6109
2.60991
2.60931
2.60857
2.60798
2.60708
2.60627
2.60514
2.604
2.60233
2.60066
2.5985
2.59632
2.59383
2.5913
2.58851
2.58559
2.58249
2.57919
2.5758
2.57223
2.56867
2.56472
2.5608
2.5564
2.55211
2.54724
2.54254
2.5372
2.53208
2.5262
2.5205
2.51403
2.50764
2.50045
2.49317
2.48535
2.478
1.34776
2.4022
2.66463
2.66933
2.64838
2.61896
2.60696
2.60681
2.60762
2.60853
2.60824
2.60739
2.60657
2.60546
2.60475
2.604
2.60337
2.60257
2.60181
2.60087
2.59991
2.59875
2.59747
2.59599
2.59428
2.59238
2.59016
2.58779
2.58504
2.58216
2.57886
2.57547
2.57163
2.56776
2.56347
2.55909
2.55425
2.5493
2.54394
2.53842
2.53261
2.52658
2.52033
2.51381
2.50714
2.50014
2.49311
2.48563
2.47808
2.4707
1.34492
2.37919
2.64747
2.66156
2.64242
2.61458
2.60277
2.60133
2.60164
2.60187
2.60122
2.60044
2.5991
2.59801
2.59693
2.59606
2.59502
2.59409
2.59294
2.59191
2.59064
2.58952
2.58814
2.5869
2.58538
2.58396
2.58222
2.58051
2.57844
2.57634
2.57388
2.57128
2.56829
2.56504
2.56142
2.5575
2.55329
2.54872
2.54388
2.5386
2.53312
2.52717
2.52105
2.51446
2.50774
2.50058
2.49333
2.48582
2.4782
2.47086
1.75128
2.37313
2.64569
2.64175
2.62829
2.6142
2.60932
2.60956
2.60954
2.60943
2.60885
2.60819
2.60696
2.60582
2.60454
2.60342
2.60205
2.60073
2.59915
2.59761
2.59582
2.59405
2.59207
2.59008
2.58789
2.58568
2.58329
2.58083
2.5782
2.57547
2.57266
2.56969
2.56663
2.56331
2.55988
2.55608
2.55216
2.54782
2.54328
2.53832
2.5331
2.5275
2.52171
2.51558
2.50927
2.50262
2.49575
2.48858
2.48108
2.47394
1.34702
2.38881
2.65261
2.65982
2.63928
2.60895
2.59761
2.59625
2.59788
2.5992
2.59904
2.59854
2.59795
2.59669
2.59601
2.5948
2.59407
2.59258
2.59163
2.5899
2.58837
2.58652
2.58471
2.58257
2.5805
2.57827
2.57619
2.57389
2.57175
2.56929
2.56676
2.56386
2.5609
2.55763
2.55428
2.55066
2.54691
2.54293
2.53883
2.5345
2.52999
2.52518
2.52008
2.51464
2.50888
2.50283
2.4965
2.48997
2.48312
2.47656
1.35072
2.41207
2.65482
2.64886
2.62692
2.59636
2.5856
2.58587
2.58765
2.58957
2.58991
2.58967
2.58921
2.58843
2.58792
2.5874
2.58694
2.58632
2.58566
2.58486
2.58398
2.58296
2.58181
2.58049
2.579
2.57717
2.57508
2.57269
2.57006
2.56718
2.56418
2.56099
2.55766
2.55415
2.55048
2.54662
2.5426
2.53841
2.53403
2.52948
2.52475
2.51985
2.51485
2.50973
2.50438
2.49889
2.49312
2.48717
2.48091
2.47495
1.77119
2.37219
2.63848
2.61754
2.61121
2.59592
2.59318
2.59393
2.59505
2.59633
2.59606
2.59558
2.59523
2.59456
2.59399
2.59341
2.59283
2.59215
2.59143
2.5906
2.58972
2.58872
2.58764
2.58641
2.58507
2.58356
2.58189
2.58001
2.57792
2.57552
2.57278
2.56976
2.56642
2.56283
2.55895
2.55486
2.5505
2.54596
2.54118
2.53625
2.53106
2.5257
2.52004
2.51423
2.50823
2.5021
2.4959
2.48959
2.48315
2.47703
1.79771
2.35516
2.62647
2.60587
2.6027
2.59277
2.58939
2.58961
2.58986
2.59041
2.59015
2.58954
2.5889
2.58787
2.58684
2.58572
2.58454
2.58321
2.58181
2.58027
2.57869
2.57698
2.57528
2.5735
2.57174
2.5699
2.56808
2.56616
2.56425
2.56229
2.5604
2.55837
2.55638
2.55419
2.55196
2.54946
2.54687
2.54392
2.5406
2.53691
2.53301
2.52884
2.52443
2.51972
2.51479
2.50955
2.50402
2.49819
2.49209
2.48618
1.76254
2.38165
2.65009
2.61929
2.6135
2.59935
2.59619
2.5983
2.59977
2.6006
2.60034
2.59985
2.5988
2.5976
2.59632
2.595
2.59357
2.59206
2.59042
2.58872
2.58691
2.58507
2.58298
2.58078
2.57834
2.57581
2.57304
2.57022
2.56716
2.5641
2.56081
2.55755
2.5541
2.55059
2.54688
2.54315
2.53922
2.53531
2.53141
2.52749
2.52341
2.51923
2.51486
2.51044
2.50585
2.50117
2.4963
2.49133
2.4861
2.48116
1.28618
2.49456
2.64472
2.64202
2.61676
2.58405
2.57199
2.57243
2.57507
2.57746
2.57871
2.57893
2.57916
2.57914
2.57908
2.579
2.57884
2.57854
2.57807
2.57742
2.57659
2.57555
2.57439
2.57304
2.57157
2.56988
2.56815
2.56601
2.56377
2.56137
2.55876
2.55598
2.55287
2.54968
2.54618
2.54261
2.53875
2.53483
2.53065
2.52644
2.522
2.51754
2.51304
2.50831
2.50345
2.49837
2.49319
2.48779
2.48229
2.47702
1.7718
2.36721
2.63952
2.61693
2.61064
2.59523
2.59029
2.5912
2.59162
2.59321
2.59283
2.59226
2.59181
2.59101
2.59027
2.58941
2.58864
2.58767
2.58674
2.58558
2.58448
2.58313
2.58183
2.58026
2.57873
2.57692
2.57512
2.57302
2.5707
2.56809
2.5653
2.56222
2.55914
2.55582
2.5525
2.54888
2.54525
2.5413
2.53733
2.53301
2.52868
2.52398
2.51912
2.51405
2.5089
2.50354
2.4981
2.49248
2.48676
2.48128
1.7732
2.36541
2.63743
2.61502
2.60878
2.59349
2.58853
2.58963
2.59069
2.59178
2.59232
2.59182
2.59139
2.59059
2.58973
2.5888
2.58781
2.58667
2.58543
2.58404
2.58257
2.58097
2.57928
2.5775
2.5756
2.57364
2.57155
2.56944
2.56737
2.56521
2.56304
2.56071
2.5582
2.5555
2.5526
2.54954
2.54632
2.54294
2.53938
2.53568
2.53178
2.52775
2.5235
2.51913
2.51454
2.50984
2.50491
2.49989
2.49463
2.48954
1.28559
2.49096
2.64203
2.63935
2.61361
2.57897
2.56603
2.56554
2.56806
2.57012
2.57108
2.57102
2.57088
2.57049
2.57018
2.56972
2.56942
2.5688
2.56836
2.56746
2.56682
2.56566
2.56478
2.56334
2.56223
2.5606
2.55896
2.55719
2.55529
2.55328
2.55115
2.54894
2.54662
2.54421
2.54168
2.53901
2.5362
2.53325
2.53016
2.52688
2.52346
2.51986
2.51612
2.5122
2.50815
2.5039
2.49954
2.49498
2.49031
2.48578
1.76674
2.37286
2.64062
2.60988
2.60346
2.58749
2.58443
2.58661
2.5875
2.58962
2.58938
2.58884
2.58838
2.58754
2.58675
2.58586
2.585
2.58396
2.5829
2.58167
2.58042
2.57902
2.57757
2.576
2.57433
2.57256
2.57067
2.56868
2.56654
2.56431
2.56193
2.55931
2.55656
2.55359
2.5505
2.54721
2.54381
2.54021
2.53652
2.53271
2.52882
2.5248
2.52065
2.51638
2.51197
2.50745
2.50278
2.498
2.49306
2.48834
1.79461
2.35598
2.62403
2.59593
2.59191
2.5802
2.57693
2.57813
2.57844
2.57915
2.57897
2.57856
2.5781
2.57736
2.57664
2.57589
2.57509
2.57418
2.5732
2.57211
2.57094
2.56967
2.56831
2.56686
2.56532
2.56369
2.56197
2.56015
2.55824
2.55624
2.55415
2.55209
2.54992
2.54775
2.54544
2.54312
2.54061
2.53802
2.53519
2.53223
2.52903
2.52574
2.52224
2.51865
2.51486
2.51097
2.50688
2.50269
2.49828
2.4941
1.79922
2.35074
2.619
2.59274
2.5891
2.57784
2.57403
2.57471
2.57489
2.57528
2.57514
2.57473
2.57423
2.57347
2.57269
2.57192
2.57105
2.57012
2.56907
2.56795
2.56671
2.5654
2.56395
2.56243
2.56077
2.55903
2.55715
2.55518
2.55308
2.55089
2.54855
2.54613
2.54357
2.54093
2.53816
2.5353
2.53231
2.5293
2.52619
2.52303
2.51977
2.51642
2.51293
2.50936
2.50565
2.50184
2.49789
2.49384
2.48963
2.48563
1.77978
2.35596
2.61657
2.603
2.59364
2.5772
2.57217
2.57265
2.57325
2.57388
2.57386
2.57339
2.57286
2.57203
2.57123
2.57044
2.5696
2.56868
2.56766
2.56657
2.56537
2.5641
2.56271
2.56123
2.55964
2.55796
2.55616
2.55426
2.55224
2.55011
2.54785
2.54548
2.54297
2.54036
2.53761
2.53474
2.53173
2.52861
2.52536
2.52199
2.51849
2.51489
2.51116
2.50732
2.50335
2.49927
2.49507
2.49076
2.48631
2.48207
1.34477
2.37987
2.638
2.63737
2.61519
2.58173
2.56752
2.56515
2.56645
2.56757
2.56752
2.56726
2.56657
2.56557
2.56466
2.56387
2.56304
2.56217
2.56117
2.5601
2.55891
2.55766
2.55627
2.55482
2.55322
2.55155
2.54973
2.54782
2.54577
2.54363
2.54134
2.53895
2.53641
2.53377
2.53097
2.52808
2.52502
2.52186
2.51854
2.51512
2.51153
2.50785
2.50399
2.50005
2.49593
2.49174
2.48737
2.48295
2.47835
2.47396
1.34602
2.38747
2.65288
2.657
2.63096
2.59246
2.57493
2.57258
2.57422
2.5755
2.57595
2.5756
2.57477
2.57377
2.57272
2.57184
2.57096
2.57006
2.56902
2.56794
2.56673
2.56548
2.5641
2.56268
2.56113
2.55952
2.55778
2.55599
2.55406
2.55206
2.54992
2.54772
2.54536
2.54293
2.54035
2.53769
2.53488
2.53198
2.52892
2.52577
2.52246
2.51905
2.51548
2.51182
2.50798
2.50406
2.49997
2.49579
2.49144
2.48727
1.34511
2.37934
2.63634
2.63634
2.61344
2.58011
2.56494
2.56295
2.56431
2.56523
2.56564
2.56521
2.5645
2.56347
2.56253
2.5617
2.5609
2.56002
2.55908
2.55803
2.55692
2.55572
2.55446
2.5531
2.55167
2.55013
2.54853
2.54681
2.54503
2.54312
2.54114
2.53903
2.53685
2.53453
2.53214
2.52961
2.52701
2.52426
2.52143
2.51845
2.51539
2.51218
2.50888
2.50543
2.5019
2.49821
2.49444
2.4905
2.48648
2.48256
1.78106
2.35423
2.61405
2.59971
2.59004
2.57216
2.56709
2.56745
2.56804
2.56908
2.56892
2.56838
2.56788
2.56701
2.56625
2.56543
2.56465
2.56373
2.56279
2.56171
2.56062
2.55937
2.55811
2.5567
2.55528
2.55369
2.55208
2.55031
2.54852
2.54655
2.54457
2.5424
2.54021
2.53784
2.53544
2.53286
2.53025
2.52745
2.52461
2.52158
2.51852
2.51526
2.51197
2.50848
2.50494
2.50122
2.49745
2.49347
2.48943
2.48549
1.80128
2.34723
2.61461
2.58739
2.58385
2.57258
2.56909
2.57017
2.57046
2.5709
2.57076
2.57024
2.56969
2.56879
2.56797
2.56708
2.5662
2.56517
2.56412
2.56293
2.56171
2.56035
2.55896
2.55741
2.55584
2.5541
2.55233
2.5504
2.54842
2.54628
2.54409
2.54174
2.53934
2.53677
2.53414
2.53135
2.5285
2.52547
2.52239
2.51914
2.51582
2.51233
2.50877
2.50505
2.50126
2.49731
2.49328
2.48909
2.48482
2.48068
1.78825
2.36085
2.62702
2.5954
2.58878
2.57467
2.57219
2.57422
2.57571
2.57663
2.5766
2.57609
2.57555
2.57472
2.57395
2.57312
2.57227
2.5713
2.57028
2.56914
2.56796
2.56665
2.56529
2.56381
2.56227
2.5606
2.55887
2.55701
2.55509
2.55302
2.55089
2.54862
2.54628
2.5438
2.54124
2.53853
2.53574
2.53281
2.5298
2.52663
2.52338
2.51999
2.5165
2.51286
2.50914
2.50527
2.50131
2.4972
2.493
2.48894
2.17224
2.34547
2.76265
2.8606
2.85557
2.81479
2.81336
2.8129
2.80579
2.80473
2.8079
2.80946
2.81089
2.81178
2.81365
2.81504
2.8172
2.81905
2.82072
2.82179
2.82228
2.82245
2.82139
2.82056
2.81769
2.81527
2.81142
2.80759
2.8028
2.79786
2.79223
2.78638
2.78005
2.7735
2.76683
2.75988
2.75284
2.74507
2.73704
2.72893
2.72085
2.71266
2.70448
2.69623
2.68804
2.67983
2.67172
2.66365
2.65573
2.64789
2.64025
2.63273
2.62546
2.61836
2.61156
2.60499
2.59877
2.59285
2.58733
2.58216
2.57746
2.57318
2.56943
2.56614
2.56345
2.56126
2.55968
2.55862
2.55815
2.55804
2.55816
2.55851
2.55938
2.56083
2.5629
2.56512
2.56733
2.5696
2.5718
2.57396
2.57596
2.57781
2.57942
2.58083
2.58196
2.58287
2.58351
2.58394
2.58414
2.58418
2.58408
2.58383
2.58348
2.58276
2.58201
2.58096
2.58011
2.57895
2.57804
2.57498
2.18041
2.26044
2.4506
2.62854
2.69733
2.73247
2.75881
2.78315
2.79703
2.80966
2.81754
2.82751
2.83298
2.83259
2.82872
2.82353
2.81619
2.80899
2.79992
2.79128
2.78127
2.77188
2.76153
2.75192
2.74121
2.73111
2.72009
2.70976
2.69867
2.68826
2.6772
2.66679
2.65583
2.6455
2.63493
2.62505
2.61487
2.60461
2.59394
2.58362
2.57354
2.56364
2.55388
2.54429
2.53486
2.52562
2.51657
2.50774
2.49913
2.49074
2.4826
2.47472
2.46712
2.4598
2.45279
2.44611
2.43979
2.43384
2.42828
2.42315
2.41847
2.41427
2.41056
2.40738
2.40475
2.40267
2.40116
2.40022
2.39982
2.39983
2.40011
2.40067
2.4018
2.40358
2.40605
2.40873
2.41146
2.41421
2.41691
2.41952
2.42196
2.42418
2.42613
2.42779
2.42914
2.43019
2.43092
2.43137
2.43154
2.43152
2.43138
2.43107
2.4307
2.42991
2.42915
2.42803
2.42718
2.426
2.42523
2.42236
2.2268
2.21304
2.27123
2.35868
2.41088
2.4609
2.49454
2.5218
2.54283
2.55866
2.57048
2.57961
2.58633
2.58884
2.58814
2.58649
2.58264
2.57822
2.57279
2.56693
2.56029
2.55355
2.54626
2.53912
2.53136
2.52376
2.51556
2.50766
2.49925
2.49122
2.48271
2.47463
2.46608
2.45801
2.44969
2.44207
2.43415
2.42615
2.41753
2.40921
2.40103
2.39307
2.38514
2.37736
2.36961
2.36205
2.35454
2.34725
2.34003
2.33305
2.32618
2.31956
2.31309
2.3069
2.3009
2.29521
2.28976
2.28467
2.27985
2.27544
2.27136
2.26774
2.2645
2.26176
2.25945
2.25768
2.25637
2.25561
2.25532
2.25542
2.25574
2.25626
2.2573
2.25894
2.26122
2.2637
2.26627
2.26882
2.27134
2.27373
2.27598
2.278
2.27978
2.28127
2.28249
2.28341
2.28406
2.28443
2.28456
2.28451
2.28438
2.28411
2.28378
2.28306
2.28239
2.28138
2.28065
2.27963
2.27915
2.27674
2.25964
2.2204
2.21604
2.24109
2.27159
2.29412
2.30936
2.32119
2.33173
2.34099
2.34865
2.35477
2.35951
2.36313
2.36467
2.36493
2.36488
2.36478
2.36459
2.36432
2.36382
2.36317
2.36242
2.36113
2.35958
2.35777
2.35546
2.35294
2.34995
2.34682
2.34325
2.33956
2.33544
2.33127
2.3269
2.3228
2.31842
2.31365
2.3082
2.30266
2.29708
2.29161
2.28602
2.28046
2.27477
2.26915
2.26343
2.25782
2.25215
2.24663
2.24109
2.23573
2.2304
2.22529
2.22025
2.21548
2.21083
2.2065
2.20234
2.19856
2.19499
2.19186
2.18899
2.18662
2.18456
2.18303
2.18187
2.18126
2.18106
2.18122
2.18155
2.18206
2.18308
2.18462
2.18674
2.18904
2.19152
2.19394
2.19636
2.19859
2.20072
2.20258
2.20426
2.20561
2.20675
2.20756
2.20816
2.20844
2.20856
2.20848
2.20838
2.20816
2.20786
2.20721
2.20665
2.20574
2.20514
2.20427
2.20402
2.20194
2.27511
2.24099
2.2193
2.21184
2.21889
2.22352
2.22557
2.22617
2.22719
2.22904
2.23188
2.23418
2.23626
2.23809
2.24085
2.24313
2.24535
2.24779
2.25049
2.25332
2.25623
2.259
2.26163
2.26386
2.2658
2.26716
2.26812
2.2686
2.26832
2.26777
2.26667
2.26522
2.26321
2.26095
2.25843
2.25599
2.2532
2.24993
2.2459
2.24158
2.23709
2.23259
2.22795
2.22327
2.21843
2.21357
2.20859
2.20364
2.19861
2.19365
2.18865
2.18378
2.17891
2.17422
2.16958
2.16517
2.16086
2.15683
2.15296
2.14942
2.14609
2.14315
2.14048
2.13825
2.13635
2.13493
2.13387
2.13338
2.13326
2.13346
2.13377
2.13434
2.13536
2.1369
2.13887
2.14107
2.14345
2.14583
2.14817
2.15035
2.15239
2.15418
2.15576
2.15704
2.1581
2.15886
2.15939
2.15964
2.15971
2.15963
2.15953
2.15928
2.15898
2.15831
2.15782
2.15693
2.1564
2.15558
2.15545
2.15345
2.29857
2.25477
2.23056
2.21069
2.20092
2.19404
2.18831
2.18221
2.17739
2.1736
2.17189
2.17141
2.17203
2.1724
2.1735
2.17573
2.17831
2.18149
2.18444
2.18806
2.19145
2.1953
2.19864
2.20215
2.2049
2.20761
2.20941
2.21104
2.21174
2.2123
2.21207
2.21142
2.21023
2.20872
2.20698
2.20524
2.20314
2.20053
2.19719
2.19349
2.18956
2.1855
2.18134
2.17709
2.17272
2.16828
2.16375
2.15917
2.15454
2.14992
2.14529
2.14071
2.13617
2.13174
2.1274
2.12322
2.11917
2.11534
2.1117
2.10832
2.1052
2.1024
2.0999
2.09778
2.096
2.09467
2.09375
2.09335
2.09332
2.09351
2.09383
2.09444
2.09549
2.09702
2.09888
2.10099
2.10327
2.10558
2.10785
2.10998
2.11194
2.11367
2.11518
2.11641
2.1174
2.11811
2.1186
2.11882
2.11886
2.11879
2.11867
2.11839
2.11808
2.1174
2.11695
2.11607
2.11559
2.11481
2.11475
2.11281
2.32219
2.2822
2.24853
2.22373
2.20329
2.18834
2.17594
2.16545
2.15594
2.14849
2.14262
2.13913
2.13702
2.13666
2.13671
2.13728
2.13916
2.142
2.14523
2.14862
2.15228
2.15605
2.15983
2.16353
2.16696
2.17008
2.17268
2.17485
2.17639
2.17751
2.17796
2.17808
2.17748
2.17656
2.1755
2.17433
2.17283
2.17076
2.16805
2.1649
2.1615
2.15787
2.15414
2.15026
2.14632
2.14224
2.1381
2.13387
2.1296
2.12527
2.12096
2.11664
2.11239
2.10819
2.1041
2.10011
2.0963
2.09263
2.08919
2.08596
2.08302
2.08034
2.07799
2.07595
2.07432
2.07307
2.07228
2.07196
2.072
2.07217
2.07251
2.07317
2.07426
2.07579
2.07759
2.07962
2.0818
2.08404
2.08624
2.08831
2.09021
2.09189
2.09333
2.09453
2.09547
2.09617
2.09662
2.09682
2.09684