/*--------------------------------*- C++ -*----------------------------------*\
| =========                 |                                                 |
| \\      /  F ield         | OpenFOAM: The Open Source CFD Toolbox           |
|  \\    /   O peration     | Version:  2412                                  |
|   \\  /    A nd           | Website:  www.openfoam.com                      |
|    \\/     M anipulation  |                                                 |
\*---------------------------------------------------------------------------*/
FoamFile
{
    version     2.0;
    format      ascii;
    arch        "LSB;label=32;scalar=64";
    class       volVectorField;
    location    "25";
    object      U;
}
// * * * * * * * * * * * * * * * * * * * * * * * * * * * * * * * * * * * * * //

dimensions      [0 1 -1 0 0 0 0];

internalField   nonuniform List<vector> 
7000
(
(2.59105 -7.24843e-05 0)
(1.62051 0.000178366 0)
(0.495637 0.000208979 0)
(0.552994 0.00035076 0)
(0.654684 0.000446556 0)
(0.719881 0.000524596 0)
(0.732763 0.000592439 0)
(0.72587 0.000662734 0)
(0.715807 0.000741196 0)
(0.70811 0.000831613 0)
(0.703642 0.000930255 0)
(0.700074 0.00103346 0)
(0.695989 0.00114043 0)
(0.691133 0.00125209 0)
(0.685669 0.00136948 0)
(0.679722 0.00149317 0)
(0.67331 0.00162345 0)
(0.666399 0.00176065 0)
(0.658955 0.00190518 0)
(0.650949 0.00205763 0)
(0.642362 0.00221857 0)
(0.633168 0.00238869 0)
(0.623343 0.00256868 0)
(0.61286 0.00275933 0)
(0.601689 0.00296144 0)
(0.5898 0.0031759 0)
(0.577162 0.00340361 0)
(0.56374 0.00364553 0)
(0.5495 0.00390265 0)
(0.534405 0.00417592 0)
(0.518418 0.00446633 0)
(0.501502 0.00477476 0)
(0.483617 0.0051021 0)
(0.464728 0.00544895 0)
(0.444798 0.00581592 0)
(0.423793 0.00620311 0)
(0.401683 0.00661055 0)
(0.378445 0.00703741 0)
(0.354062 0.00748277 0)
(0.328524 0.00794445 0)
(0.301838 0.00842006 0)
(0.27402 0.0089055 0)
(0.245106 0.00939684 0)
(0.215149 0.00988772 0)
(0.184223 0.0103736 0)
(0.152419 0.0108475 0)
(0.119821 0.0113135 0)
(0.0868493 0.0117555 0)
(0.0514912 0.0123442 0)
(0.0221145 0.0131963 0)
(2.59118 -4.80864e-05 0)
(1.62068 0.000347463 0)
(0.495325 0.000828099 0)
(0.552733 0.00113977 0)
(0.654446 0.00137489 0)
(0.719656 0.00159692 0)
(0.732538 0.00180493 0)
(0.725649 0.00202024 0)
(0.715596 0.00225775 0)
(0.707907 0.00252753 0)
(0.703446 0.00282032 0)
(0.699882 0.00312657 0)
(0.6958 0.00344408 0)
(0.69095 0.00377513 0)
(0.685491 0.00412236 0)
(0.67955 0.00448716 0)
(0.673143 0.00487024 0)
(0.666238 0.00527231 0)
(0.6588 0.00569444 0)
(0.650802 0.0061379 0)
(0.642221 0.00660421 0)
(0.633035 0.00709485 0)
(0.623218 0.00761155 0)
(0.612743 0.00815594 0)
(0.601581 0.00872995 0)
(0.589701 0.00933528 0)
(0.577072 0.00997395 0)
(0.563659 0.0106476 0)
(0.549429 0.0113581 0)
(0.534343 0.0121066 0)
(0.518366 0.0128949 0)
(0.501458 0.0137232 0)
(0.483581 0.0145924 0)
(0.464697 0.0155013 0)
(0.444771 0.0164492 0)
(0.423766 0.0174326 0)
(0.401653 0.0184482 0)
(0.378406 0.0194891 0)
(0.354007 0.0205482 0)
(0.328446 0.021614 0)
(0.301726 0.0226742 0)
(0.273862 0.0237121 0)
(0.244886 0.0247099 0)
(0.214852 0.0256467 0)
(0.183827 0.0265017 0)
(0.151907 0.0272555 0)
(0.119163 0.0279056 0)
(0.0860641 0.028426 0)
(0.0505455 0.0290767 0)
(0.0211885 0.0298265 0)
(2.59131 4.76375e-05 0)
(1.62097 0.000392383 0)
(0.495532 0.00160502 0)
(0.552786 0.00198058 0)
(0.654487 0.00230479 0)
(0.719698 0.00267041 0)
(0.73258 0.00303984 0)
(0.725703 0.00341868 0)
(0.71567 0.00382879 0)
(0.708004 0.0042867 0)
(0.703556 0.00478139 0)
(0.700002 0.00530002 0)
(0.69593 0.00583967 0)
(0.69109 0.0064032 0)
(0.685644 0.00699459 0)
(0.679717 0.00761584 0)
(0.673324 0.00826859 0)
(0.666434 0.00895392 0)
(0.659012 0.00967404 0)
(0.65103 0.0104309 0)
(0.642467 0.0112274 0)
(0.6333 0.0120659 0)
(0.623503 0.0129497 0)
(0.61305 0.0138815 0)
(0.601911 0.014865 0)
(0.590056 0.0159029 0)
(0.577452 0.0169991 0)
(0.564067 0.0181564 0)
(0.549865 0.0193786 0)
(0.534809 0.0206677 0)
(0.518861 0.0220269 0)
(0.501983 0.0234573 0)
(0.484136 0.0249605 0)
(0.465281 0.0265352 0)
(0.44538 0.0281804 0)
(0.424399 0.0298913 0)
(0.402304 0.0316621 0)
(0.379067 0.0334829 0)
(0.35467 0.0353405 0)
(0.329098 0.0372184 0)
(0.302353 0.0390935 0)
(0.274446 0.0409412 0)
(0.245406 0.0427287 0)
(0.215283 0.044424 0)
(0.184144 0.0459904 0)
(0.152084 0.0473928 0)
(0.11917 0.0486188 0)
(0.0859278 0.049629 0)
(0.0502699 0.0506813 0)
(0.020749 0.0516741 0)
(2.59148 5.41197e-05 0)
(1.62142 0.000535876 0)
(0.495959 0.00235106 0)
(0.552908 0.00281442 0)
(0.654609 0.0032371 0)
(0.71984 0.00375712 0)
(0.732728 0.00430344 0)
(0.725865 0.00485938 0)
(0.715862 0.00545211 0)
(0.708227 0.00610436 0)
(0.703803 0.00680586 0)
(0.700265 0.00754275 0)
(0.69621 0.00831122 0)
(0.69139 0.00911439 0)
(0.685966 0.00995682 0)
(0.680062 0.0108414 0)
(0.673693 0.0117703 0)
(0.666829 0.0127455 0)
(0.659433 0.0137699 0)
(0.65148 0.0148466 0)
(0.642947 0.0159792 0)
(0.633813 0.0171717 0)
(0.624051 0.0184281 0)
(0.613635 0.019753 0)
(0.602535 0.0211509 0)
(0.590722 0.0226266 0)
(0.578164 0.0241848 0)
(0.564825 0.0258306 0)
(0.550672 0.0275681 0)
(0.535667 0.0294021 0)
(0.519772 0.0313355 0)
(0.502947 0.033372 0)
(0.485153 0.035512 0)
(0.466351 0.0377568 0)
(0.4465 0.0401024 0)
(0.425565 0.0425459 0)
(0.403509 0.0450763 0)
(0.380304 0.0476838 0)
(0.355925 0.0503477 0)
(0.330357 0.0530474 0)
(0.303594 0.0557505 0)
(0.275647 0.0584211 0)
(0.246539 0.0610168 0)
(0.216316 0.0634863 0)
(0.185044 0.0657854 0)
(0.152817 0.0678578 0)
(0.119701 0.0696749 0)
(0.0862757 0.0711831 0)
(0.0504193 0.0726081 0)
(0.0206051 0.073764 0)
(2.59173 6.77548e-05 0)
(1.62205 0.000716425 0)
(0.496511 0.00310383 0)
(0.553019 0.00367979 0)
(0.654737 0.00421151 0)
(0.720012 0.00488561 0)
(0.732914 0.005609 0)
(0.726069 0.00634911 0)
(0.716102 0.00713322 0)
(0.708509 0.007986 0)
(0.704117 0.00889957 0)
(0.700607 0.00986105 0)
(0.696578 0.0108657 0)
(0.691787 0.0119169 0)
(0.686395 0.0130192 0)
(0.680524 0.0141767 0)
(0.674192 0.0153917 0)
(0.667365 0.0166677 0)
(0.660009 0.0180074 0)
(0.652098 0.0194162 0)
(0.643612 0.0208976 0)
(0.634526 0.0224579 0)
(0.624816 0.0241014 0)
(0.614456 0.0258351 0)
(0.603416 0.0276638 0)
(0.591666 0.0295951 0)
(0.579174 0.0316339 0)
(0.565906 0.0337881 0)
(0.551827 0.0360623 0)
(0.536898 0.0384636 0)
(0.521082 0.0409955 0)
(0.504339 0.0436631 0)
(0.486626 0.0464674 0)
(0.467904 0.0494099 0)
(0.448131 0.0524867 0)
(0.427267 0.0556926 0)
(0.405276 0.0590164 0)
(0.382122 0.0624421 0)
(0.35778 0.0659481 0)
(0.332226 0.0695025 0)
(0.305452 0.0730705 0)
(0.277461 0.0765988 0)
(0.248272 0.0800359 0)
(0.217926 0.0833116 0)
(0.186485 0.0863598 0)
(0.154049 0.0891149 0)
(0.120672 0.0915181 0)
(0.086996 0.0934922 0)
(0.0508511 0.0952297 0)
(0.020623 0.0964782 0)
(2.59207 8.00446e-05 0)
(1.62289 0.000900542 0)
(0.49721 0.00385569 0)
(0.553134 0.00455776 0)
(0.65488 0.00520477 0)
(0.720223 0.00603327 0)
(0.733151 0.00693923 0)
(0.726332 0.00786854 0)
(0.716409 0.00885267 0)
(0.708865 0.00991484 0)
(0.704516 0.0110489 0)
(0.701041 0.0122427 0)
(0.697048 0.013492 0)
(0.692296 0.0147999 0)
(0.686946 0.0161712 0)
(0.68112 0.0176106 0)
(0.674834 0.0191212 0)
(0.668057 0.0207072 0)
(0.660754 0.0223726 0)
(0.6529 0.0241231 0)
(0.644473 0.0259644 0)
(0.635453 0.027903 0)
(0.625812 0.0299457 0)
(0.615526 0.0320997 0)
(0.604566 0.0343729 0)
(0.5929 0.0367729 0)
(0.580498 0.0393082 0)
(0.567325 0.0419862 0)
(0.553345 0.0448156 0)
(0.538522 0.0478028 0)
(0.522814 0.0509553 0)
(0.506181 0.0542771 0)
(0.488581 0.0577727 0)
(0.469971 0.0614417 0)
(0.450307 0.0652826 0)
(0.429546 0.0692875 0)
(0.407647 0.0734455 0)
(0.384572 0.0777355 0)
(0.360286 0.0821327 0)
(0.334764 0.0865977 0)
(0.307986 0.0910854 0)
(0.279951 0.0955366 0)
(0.250667 0.0998797 0)
(0.220171 0.104033 0)
(0.188521 0.107901 0)
(0.155814 0.111394 0)
(0.122103 0.114432 0)
(0.0880672 0.116902 0)
(0.0515119 0.118952 0)
(0.0207744 0.120272 0)
(2.5925 9.27104e-05 0)
(1.62397 0.00108683 0)
(0.498066 0.00461534 0)
(0.553254 0.0054513 0)
(0.655038 0.00622006 0)
(0.720474 0.0072067 0)
(0.733441 0.0083027 0)
(0.726654 0.00942579 0)
(0.716786 0.0106167 0)
(0.709302 0.0118967 0)
(0.705005 0.0132593 0)
(0.701576 0.0146932 0)
(0.697629 0.016195 0)
(0.692926 0.0177676 0)
(0.687629 0.0194168 0)
(0.681859 0.0211468 0)
(0.675633 0.0229623 0)
(0.668918 0.0248676 0)
(0.661682 0.0268686 0)
(0.6539 0.0289712 0)
(0.64555 0.031183 0)
(0.636611 0.0335111 0)
(0.627059 0.0359646 0)
(0.616867 0.0385515 0)
(0.606006 0.0412819 0)
(0.594449 0.0441649 0)
(0.582161 0.0472109 0)
(0.569109 0.0504293 0)
(0.555257 0.0538303 0)
(0.540567 0.0574229 0)
(0.524999 0.0612157 0)
(0.50851 0.0652154 0)
(0.491057 0.0694268 0)
(0.472593 0.0738521 0)
(0.453073 0.0784891 0)
(0.432451 0.0833306 0)
(0.410678 0.0883638 0)
(0.387713 0.0935665 0)
(0.363512 0.0989086 0)
(0.338041 0.104345 0)
(0.311275 0.109822 0)
(0.283196 0.115266 0)
(0.253811 0.120594 0)
(0.223136 0.125703 0)
(0.191232 0.130476 0)
(0.158187 0.134794 0)
(0.124045 0.138536 0)
(0.0895422 0.141558 0)
(0.0524189 0.143968 0)
(0.0210218 0.145392 0)
(2.59303 0.000105492 0)
(1.62529 0.00127363 0)
(0.499093 0.00538079 0)
(0.553384 0.00635438 0)
(0.655214 0.00724849 0)
(0.72077 0.00839748 0)
(0.733792 0.0096861 0)
(0.727046 0.0110102 0)
(0.717244 0.0124163 0)
(0.709829 0.0139221 0)
(0.705595 0.0155209 0)
(0.702223 0.0172026 0)
(0.698333 0.0189648 0)
(0.693691 0.0208109 0)
(0.688459 0.0227463 0)
(0.682759 0.0247762 0)
(0.676605 0.0269056 0)
(0.669967 0.02914 0)
(0.662813 0.0314861 0)
(0.655118 0.0339511 0)
(0.646863 0.0365436 0)
(0.638025 0.0392727 0)
(0.628581 0.0421482 0)
(0.618505 0.0451806 0)
(0.607769 0.0483811 0)
(0.596344 0.0517612 0)
(0.584197 0.0553327 0)
(0.571295 0.0591078 0)
(0.557601 0.0630981 0)
(0.543078 0.0673155 0)
(0.527683 0.0717699 0)
(0.511374 0.0764705 0)
(0.494104 0.0814244 0)
(0.475826 0.0866345 0)
(0.456491 0.0921017 0)
(0.436045 0.0978178 0)
(0.414439 0.103771 0)
(0.39162 0.109937 0)
(0.367539 0.116283 0)
(0.342149 0.12276 0)
(0.315412 0.129304 0)
(0.287301 0.135831 0)
(0.257803 0.142237 0)
(0.226929 0.148405 0)
(0.194717 0.154184 0)
(0.161263 0.159425 0)
(0.126584 0.163976 0)
(0.0914602 0.167636 0)
(0.0536159 0.170464 0)
(0.0214115 0.172026 0)
(2.59367 0.000118341 0)
(1.62687 0.00146006 0)
(0.500305 0.00614939 0)
(0.553525 0.00726296 0)
(0.655412 0.00828562 0)
(0.721118 0.00960115 0)
(0.73421 0.0110881 0)
(0.727517 0.0126186 0)
(0.717793 0.014247 0)
(0.71046 0.0159866 0)
(0.706298 0.0178296 0)
(0.702995 0.0197673 0)
(0.699175 0.0217982 0)
(0.694607 0.0239261 0)
(0.689452 0.0261564 0)
(0.683834 0.0284947 0)
(0.677767 0.0309469 0)
(0.671222 0.0335192 0)
(0.664167 0.0362195 0)
(0.656577 0.0390562 0)
(0.648435 0.0420393 0)
(0.639718 0.0451792 0)
(0.630405 0.0484875 0)
(0.620469 0.0519764 0)
(0.609883 0.0556591 0)
(0.598618 0.0595488 0)
(0.586642 0.0636601 0)
(0.573922 0.0680069 0)
(0.560421 0.0726038 0)
(0.5461 0.0774643 0)
(0.530918 0.082602 0)
(0.514829 0.0880276 0)
(0.497785 0.0937515 0)
(0.479738 0.0997784 0)
(0.46063 0.106112 0)
(0.440409 0.112745 0)
(0.419014 0.119666 0)
(0.396387 0.126853 0)
(0.372466 0.134268 0)
(0.347194 0.141862 0)
(0.320516 0.14956 0)
(0.292388 0.157273 0)
(0.262781 0.164874 0)
(0.231682 0.172224 0)
(0.199115 0.179149 0)
(0.165163 0.185447 0)
(0.129834 0.190924 0)
(0.0939376 0.195331 0)
(0.0551452 0.198669 0)
(0.0219193 0.200423 0)
(2.59442 0.000131118 0)
(1.62874 0.00164485 0)
(0.501718 0.00691604 0)
(0.553682 0.008171 0)
(0.655637 0.0093244 0)
(0.721524 0.0108101 0)
(0.734705 0.0124992 0)
(0.728075 0.0142421 0)
(0.718445 0.0161004 0)
(0.711206 0.018082 0)
(0.70713 0.0201777 0)
(0.703908 0.0223797 0)
(0.70017 0.0246877 0)
(0.695688 0.0271056 0)
(0.690626 0.0296393 0)
(0.685105 0.0322946 0)
(0.67914 0.035078 0)
(0.672704 0.0379969 0)
(0.665764 0.04106 0)
(0.6583 0.0442773 0)
(0.650291 0.0476599 0)
(0.641718 0.0512199 0)
(0.632558 0.0549707 0)
(0.622788 0.0589263 0)
(0.61238 0.0631019 0)
(0.601305 0.067513 0)
(0.589533 0.0721765 0)
(0.57703 0.0771089 0)
(0.56376 0.0823276 0)
(0.549682 0.087849 0)
(0.534755 0.0936897 0)
(0.518933 0.0998639 0)
(0.502165 0.106385 0)
(0.484398 0.113261 0)
(0.465574 0.120498 0)
(0.445631 0.128093 0)
(0.424504 0.136036 0)
(0.402122 0.144306 0)
(0.378415 0.152866 0)
(0.353307 0.161665 0)
(0.326731 0.170622 0)
(0.298613 0.179639 0)
(0.268905 0.188576 0)
(0.237571 0.197264 0)
(0.204599 0.205498 0)
(0.170063 0.213036 0)
(0.133931 0.219622 0)
(0.0970631 0.224932 0)
(0.0571063 0.228893 0)
(0.0226248 0.230899 0)
(2.59529 0.000143697 0)
(1.6309 0.00182623 0)
(0.503344 0.0076734 0)
(0.553858 0.00907106 0)
(0.655894 0.0103575 0)
(0.721995 0.0120155 0)
(0.735286 0.013912 0)
(0.728736 0.0158721 0)
(0.719216 0.0179672 0)
(0.712083 0.0201993 0)
(0.708105 0.0225565 0)
(0.704977 0.0250316 0)
(0.701336 0.0276251 0)
(0.696956 0.0303415 0)
(0.692 0.0331868 0)
(0.68659 0.0361672 0)
(0.680745 0.0392899 0)
(0.674435 0.0425633 0)
(0.66763 0.0459973 0)
(0.66031 0.0496031 0)
(0.652456 0.0533934 0)
(0.644051 0.057382 0)
(0.635071 0.0615839 0)
(0.625494 0.0660151 0)
(0.615294 0.0706932 0)
(0.604443 0.0756361 0)
(0.59291 0.0808631 0)
(0.580662 0.0863937 0)
(0.567663 0.0922483 0)
(0.553874 0.0984468 0)
(0.539251 0.105009 0)
(0.523747 0.111954 0)
(0.50731 0.119297 0)
(0.489883 0.127053 0)
(0.471405 0.135231 0)
(0.451806 0.143834 0)
(0.431015 0.152854 0)
(0.408949 0.162277 0)
(0.385524 0.172065 0)
(0.360647 0.182169 0)
(0.334227 0.192506 0)
(0.306169 0.202971 0)
(0.276385 0.213412 0)
(0.244813 0.223634 0)
(0.2114 0.233399 0)
(0.176186 0.242401 0)
(0.139116 0.250319 0)
(0.101045 0.25675 0)
(0.0595847 0.26152 0)
(0.0235145 0.263876 0)
(2.59629 0.000155782 0)
(1.63338 0.00200216 0)
(0.505199 0.00841036 0)
(0.554058 0.009954 0)
(0.656187 0.0113766 0)
(0.722541 0.0132058 0)
(0.735965 0.0153132 0)
(0.72951 0.0174958 0)
(0.72012 0.019836 0)
(0.71311 0.022328 0)
(0.709244 0.024956 0)
(0.706224 0.027713 0)
(0.702693 0.0306005 0)
(0.698428 0.0336237 0)
(0.693595 0.0367886 0)
(0.688314 0.0401018 0)
(0.682604 0.0435713 0)
(0.676438 0.0472064 0)
(0.669789 0.0510183 0)
(0.662635 0.0550196 0)
(0.65496 0.0592245 0)
(0.646747 0.0636485 0)
(0.637975 0.0683086 0)
(0.628621 0.0732231 0)
(0.618662 0.0784115 0)
(0.608069 0.0838947 0)
(0.596814 0.0896946 0)
(0.584864 0.095834 0)
(0.572182 0.102337 0)
(0.558731 0.109226 0)
(0.544465 0.116527 0)
(0.529338 0.124262 0)
(0.513295 0.132453 0)
(0.496276 0.141119 0)
(0.478217 0.150275 0)
(0.459041 0.159932 0)
(0.438667 0.170088 0)
(0.417003 0.180734 0)
(0.393949 0.191841 0)
(0.36939 0.203363 0)
(0.343211 0.21522 0)
(0.315285 0.2273 0)
(0.285485 0.239448 0)
(0.253696 0.251443 0)
(0.219822 0.263012 0)
(0.183837 0.273802 0)
(0.145636 0.283386 0)
(0.106104 0.291242 0)
(0.0627946 0.297061 0)
(0.0247286 0.299901 0)
(2.59741 0.000165199 0)
(1.63619 0.00217211 0)
(0.507293 0.00910935 0)
(0.554291 0.0108073 0)
(0.656523 0.0123737 0)
(0.723169 0.0143651 0)
(0.736754 0.0166883 0)
(0.730415 0.0190997 0)
(0.721178 0.0216938 0)
(0.714307 0.0244559 0)
(0.710566 0.0273647 0)
(0.707668 0.0304128 0)
(0.704263 0.033603 0)
(0.70013 0.0369411 0)
(0.695434 0.0404333 0)
(0.690299 0.0440866 0)
(0.684743 0.0479097 0)
(0.678741 0.051913 0)
(0.672267 0.0561089 0)
(0.665302 0.0605115 0)
(0.65783 0.0651365 0)
(0.649837 0.0700015 0)
(0.641301 0.0751252 0)
(0.632204 0.0805283 0)
(0.62252 0.0862328 0)
(0.612224 0.0922625 0)
(0.601289 0.098642 0)
(0.589681 0.105398 0)
(0.577368 0.112558 0)
(0.564309 0.12015 0)
(0.550461 0.128202 0)
(0.535776 0.136745 0)
(0.520198 0.145805 0)
(0.503666 0.155409 0)
(0.48611 0.165579 0)
(0.46745 0.176335 0)
(0.447595 0.187685 0)
(0.42644 0.19963 0)
(0.403869 0.212152 0)
(0.379749 0.225212 0)
(0.353927 0.238745 0)
(0.326245 0.25264 0)
(0.29652 0.266739 0)
(0.264582 0.28081 0)
(0.230262 0.294536 0)
(0.193462 0.307504 0)
(0.153971 0.319194 0)
(0.112634 0.328926 0)
(0.0669414 0.336194 0)
(0.0262951 0.339742 0)
(2.59868 0.00017052 0)
(1.63933 0.00233395 0)
(0.509625 0.00975649 0)
(0.554565 0.0116127 0)
(0.656901 0.0133284 0)
(0.723877 0.0154726 0)
(0.737664 0.0180219 0)
(0.731463 0.0206686 0)
(0.722405 0.0235253 0)
(0.715692 0.0265683 0)
(0.71209 0.0297682 0)
(0.709329 0.0331172 0)
(0.706065 0.0366188 0)
(0.70208 0.0402798 0)
(0.69754 0.0441064 0)
(0.692567 0.0481061 0)
(0.687184 0.0522883 0)
(0.681366 0.0566647 0)
(0.67509 0.061249 0)
(0.668337 0.0660568 0)
(0.661095 0.0711056 0)
(0.65335 0.0764148 0)
(0.645083 0.0820052 0)
(0.636275 0.0879002 0)
(0.626904 0.094124 0)
(0.616947 0.100704 0)
(0.606376 0.107667 0)
(0.595162 0.115044 0)
(0.58327 0.122867 0)
(0.570664 0.131169 0)
(0.5573 0.139983 0)
(0.54313 0.149346 0)
(0.5281 0.159292 0)
(0.512144 0.169858 0)
(0.495191 0.181074 0)
(0.477156 0.19297 0)
(0.45794 0.205571 0)
(0.437428 0.218889 0)
(0.415485 0.232925 0)
(0.391957 0.247656 0)
(0.36666 0.263034 0)
(0.339387 0.278965 0)
(0.309902 0.295301 0)
(0.277944 0.311812 0)
(0.24325 0.328162 0)
(0.205598 0.343871 0)
(0.164651 0.358295 0)
(0.121175 0.370555 0)
(0.0725088 0.379859 0)
(0.0284949 0.38447 0)
(2.60007 0.000178107 0)
(1.64281 0.00247663 0)
(0.512193 0.010356 0)
(0.554884 0.0123515 0)
(0.657328 0.0141998 0)
(0.724676 0.0165123 0)
(0.738714 0.0192864 0)
(0.732673 0.0221787 0)
(0.723825 0.0253147 0)
(0.71729 0.0286513 0)
(0.713842 0.0321532 0)
(0.711231 0.0358129 0)
(0.708124 0.0396352 0)
(0.704304 0.0436275 0)
(0.699935 0.0477958 0)
(0.695143 0.0521485 0)
(0.689951 0.0566953 0)
(0.684338 0.0614494 0)
(0.678282 0.0664255 0)
(0.671767 0.0716413 0)
(0.664783 0.0771156 0)
(0.657315 0.0828701 0)
(0.649349 0.0889278 0)
(0.640868 0.0953144 0)
(0.63185 0.102057 0)
(0.622275 0.109186 0)
(0.612118 0.116732 0)
(0.60135 0.12473 0)
(0.58994 0.133216 0)
(0.577852 0.142229 0)
(0.565046 0.151809 0)
(0.551473 0.161999 0)
(0.537081 0.172842 0)
(0.521804 0.184384 0)
(0.505569 0.19667 0)
(0.488288 0.209742 0)
(0.469856 0.223643 0)
(0.45015 0.238404 0)
(0.429019 0.25405 0)
(0.406286 0.270587 0)
(0.381736 0.287993 0)
(0.355111 0.306209 0)
(0.32611 0.325112 0)
(0.29438 0.344498 0)
(0.259517 0.364033 0)
(0.22113 0.383206 0)
(0.178639 0.401244 0)
(0.132608 0.41705 0)
(0.0800914 0.429389 0)
(0.0315269 0.435738 0)
(2.6016 0.000187958 0)
(1.64662 0.00259404 0)
(0.515025 0.0108871 0)
(0.555252 0.0129953 0)
(0.657825 0.0149558 0)
(0.725608 0.0174543 0)
(0.739934 0.0204581 0)
(0.734095 0.0236079 0)
(0.725489 0.02704 0)
(0.719147 0.0306844 0)
(0.715867 0.0344998 0)
(0.71342 0.0384794 0)
(0.710485 0.0426296 0)
(0.706844 0.0469588 0)
(0.702662 0.0514731 0)
(0.698067 0.0561815 0)
(0.693085 0.0610947 0)
(0.687697 0.0662273 0)
(0.681884 0.0715957 0)
(0.675631 0.0772191 0)
(0.66893 0.0831182 0)
(0.66177 0.0893168 0)
(0.654139 0.09584 0)
(0.64602 0.102716 0)
(0.637397 0.109975 0)
(0.62825 0.117649 0)
(0.618557 0.125775 0)
(0.608292 0.134391 0)
(0.597427 0.143537 0)
(0.585929 0.153257 0)
(0.573759 0.163601 0)
(0.560873 0.174617 0)
(0.547219 0.18636 0)
(0.532736 0.198886 0)
(0.517349 0.212255 0)
(0.500972 0.226527 0)
(0.483498 0.241764 0)
(0.464796 0.258025 0)
(0.444707 0.275366 0)
(0.423033 0.293831 0)
(0.399531 0.313445 0)
(0.373895 0.334206 0)
(0.34575 0.356046 0)
(0.314634 0.378815 0)
(0.279978 0.402278 0)
(0.241125 0.425897 0)
(0.197196 0.448789 0)
(0.148338 0.469681 0)
(0.0910094 0.486697 0)
(0.0361561 0.496107 0)
(2.60325 0.000194241 0)
(1.65075 0.00268385 0)
(0.518106 0.0112994 0)
(0.555671 0.0135036 0)
(0.658411 0.0155704 0)
(0.726703 0.0182552 0)
(0.741365 0.0215122 0)
(0.735768 0.024936 0)
(0.727439 0.0286812 0)
(0.721308 0.0326545 0)
(0.718204 0.0368034 0)
(0.715933 0.0411197 0)
(0.713182 0.045612 0)
(0.709735 0.0502892 0)
(0.705755 0.0551588 0)
(0.701374 0.0602293 0)
(0.69662 0.0655132 0)
(0.691477 0.0710256 0)
(0.685928 0.0767852 0)
(0.679963 0.0828125 0)
(0.673574 0.089131 0)
(0.666754 0.095766 0)
(0.659491 0.102746 0)
(0.651774 0.1101 0)
(0.643588 0.117864 0)
(0.634916 0.126072 0)
(0.625739 0.134764 0)
(0.616037 0.143982 0)
(0.605783 0.153773 0)
(0.594948 0.164187 0)
(0.583499 0.17528 0)
(0.571397 0.187109 0)
(0.558592 0.199741 0)
(0.545029 0.213243 0)
(0.530638 0.227692 0)
(0.515335 0.24317 0)
(0.499017 0.259761 0)
(0.481554 0.277559 0)
(0.462784 0.296658 0)
(0.442499 0.317157 0)
(0.420441 0.339129 0)
(0.396263 0.362688 0)
(0.369516 0.387859 0)
(0.339674 0.414519 0)
(0.305953 0.442714 0)
(0.267304 0.472031 0)
(0.222422 0.501633 0)
(0.170703 0.530075 0)
(0.107365 0.554884 0)
(0.0434831 0.570064 0)
(2.605 0.000196887 0)
(1.65517 0.0027349 0)
(0.521415 0.0115428 0)
(0.556156 0.0138281 0)
(0.659107 0.0159958 0)
(0.728001 0.0188689 0)
(0.743059 0.0223975 0)
(0.737744 0.0261132 0)
(0.729736 0.0301892 0)
(0.723835 0.0345047 0)
(0.720919 0.0389941 0)
(0.718833 0.0436496 0)
(0.716277 0.0484838 0)
(0.713036 0.0535079 0)
(0.709272 0.0587308 0)
(0.705118 0.064162 0)
(0.700607 0.0698148 0)
(0.695726 0.0757059 0)
(0.690462 0.0818554 0)
(0.684806 0.0882856 0)
(0.678755 0.0950216 0)
(0.672303 0.10209 0)
(0.665443 0.109522 0)
(0.658164 0.11735 0)
(0.650457 0.12561 0)
(0.642308 0.134341 0)
(0.633702 0.143586 0)
(0.624622 0.153392 0)
(0.615048 0.163811 0)
(0.604956 0.174899 0)
(0.594317 0.186718 0)
(0.583099 0.199337 0)
(0.571262 0.212831 0)
(0.558756 0.227284 0)
(0.545522 0.24279 0)
(0.531484 0.259451 0)
(0.516549 0.277384 0)
(0.500599 0.296718 0)
(0.483482 0.317588 0)
(0.464984 0.340205 0)
(0.444875 0.364631 0)
(0.422806 0.391071 0)
(0.398168 0.419903 0)
(0.370515 0.451184 0)
(0.338953 0.485052 0)
(0.301909 0.521514 0)
(0.257457 0.560238 0)
(0.203861 0.600012 0)
(0.133822 0.638293 0)
(0.0565604 0.666334 0)
(2.60684 0.000195364 0)
(1.65981 0.00273586 0)
(0.524916 0.0115436 0)
(0.556731 0.0138942 0)
(0.659948 0.0161702 0)
(0.729549 0.0192593 0)
(0.745073 0.023109 0)
(0.740084 0.0271761 0)
(0.732432 0.0316493 0)
(0.726768 0.0363604 0)
(0.724039 0.0412309 0)
(0.722141 0.0462565 0)
(0.719789 0.0514553 0)
(0.716766 0.0568421 0)
(0.713232 0.0624256 0)
(0.709322 0.0682166 0)
(0.705072 0.0742305 0)
(0.700475 0.0804869 0)
(0.695519 0.0870082 0)
(0.690199 0.0938197 0)
(0.684515 0.100949 0)
(0.678463 0.108425 0)
(0.672039 0.116282 0)
(0.665238 0.124554 0)
(0.658053 0.133282 0)
(0.650474 0.142506 0)
(0.642492 0.152273 0)
(0.634095 0.162635 0)
(0.625268 0.173648 0)
(0.615996 0.185373 0)
(0.606257 0.197881 0)
(0.596028 0.211248 0)
(0.585279 0.225562 0)
(0.573974 0.240919 0)
(0.562066 0.257433 0)
(0.549496 0.275229 0)
(0.536193 0.294438 0)
(0.522051 0.315284 0)
(0.506995 0.337854 0)
(0.490748 0.362397 0)
(0.473059 0.389345 0)
(0.453921 0.418922 0)
(0.432711 0.451615 0)
(0.408626 0.487922 0)
(0.380858 0.528294 0)
(0.347861 0.573459 0)
(0.306992 0.624238 0)
(0.255015 0.680966 0)
(0.180394 0.74301 0)
(0.083231 0.803167 0)
(2.60873 0.00014187 0)
(1.66458 0.00273052 0)
(0.52851 0.0112106 0)
(0.557419 0.013556 0)
(0.660995 0.0159253 0)
(0.731446 0.019213 0)
(0.747539 0.0233858 0)
(0.742943 0.0278079 0)
(0.73569 0.0326817 0)
(0.730259 0.037782 0)
(0.727704 0.0430207 0)
(0.725986 0.0484061 0)
(0.723836 0.0539667 0)
(0.721029 0.0597195 0)
(0.717724 0.065673 0)
(0.714059 0.0718372 0)
(0.710076 0.0782276 0)
(0.705771 0.0848648 0)
(0.701137 0.0917723 0)
(0.696172 0.0989766 0)
(0.690878 0.106506 0)
(0.685254 0.114393 0)
(0.679301 0.12267 0)
(0.673015 0.131376 0)
(0.666395 0.140552 0)
(0.659436 0.150243 0)
(0.652133 0.160499 0)
(0.644482 0.171375 0)
(0.636474 0.182932 0)
(0.628102 0.195238 0)
(0.619355 0.208369 0)
(0.610222 0.222411 0)
(0.600685 0.23746 0)
(0.590728 0.253625 0)
(0.580321 0.271046 0)
(0.569414 0.289901 0)
(0.558027 0.310212 0)
(0.545995 0.332256 0)
(0.533208 0.356419 0)
(0.519847 0.382907 0)
(0.505629 0.41224 0)
(0.490261 0.444853 0)
(0.473487 0.481236 0)
(0.454815 0.522374 0)
(0.433603 0.569443 0)
(0.408677 0.624262 0)
(0.377648 0.689728 0)
(0.336608 0.770913 0)
(0.270945 0.878171 0)
(0.14644 1.0434 0)
(2.6111 8.1337e-05 0)
(1.67036 0.00260037 0)
(0.532264 0.0103855 0)
(0.557938 0.0128209 0)
(0.662137 0.0154352 0)
(0.733802 0.0191876 0)
(0.750722 0.0239851 0)
(0.746678 0.0290442 0)
(0.739961 0.0345614 0)
(0.734821 0.0402291 0)
(0.732498 0.0459577 0)
(0.731051 0.0517831 0)
(0.729215 0.0577558 0)
(0.726749 0.0639025 0)
(0.723805 0.070238 0)
(0.720524 0.0767765 0)
(0.716956 0.0835389 0)
(0.713105 0.0905508 0)
(0.708967 0.0978405 0)
(0.704543 0.105438 0)
(0.699841 0.113375 0)
(0.694865 0.121686 0)
(0.68962 0.130407 0)
(0.68411 0.139578 0)
(0.678339 0.149242 0)
(0.672311 0.159446 0)
(0.66603 0.170242 0)
(0.659501 0.181688 0)
(0.652729 0.193848 0)
(0.645719 0.206794 0)
(0.638479 0.220607 0)
(0.631015 0.235377 0)
(0.62333 0.251231 0)
(0.61545 0.268255 0)
(0.60744 0.28654 0)
(0.59907 0.306335 0)
(0.59039 0.327869 0)
(0.58188 0.351324 0)
(0.573395 0.377129 0)
(0.564714 0.405646 0)
(0.555957 0.437223 0)
(0.547208 0.472571 0)
(0.53866 0.512525 0)
(0.530538 0.558371 0)
(0.523384 0.611895 0)
(0.518374 0.675858 0)
(0.518229 0.754724 0)
(0.531153 0.855923 0)
(0.587124 0.990633 0)
(0.657199 1.18531 0)
(2.61362 5.93634e-05 0)
(1.67651 0.00194255 0)
(0.536786 0.00776448 0)
(0.559572 0.00992498 0)
(0.66478 0.0125062 0)
(0.738192 0.0166811 0)
(0.756191 0.0222116 0)
(0.752748 0.0280514 0)
(0.746491 0.0343824 0)
(0.74142 0.0407706 0)
(0.739113 0.0471474 0)
(0.737767 0.0535889 0)
(0.736112 0.0601601 0)
(0.73387 0.0668875 0)
(0.73118 0.0737817 0)
(0.728188 0.0808579 0)
(0.724955 0.0881393 0)
(0.721489 0.0956544 0)
(0.717791 0.103434 0)
(0.713865 0.111509 0)
(0.709719 0.119913 0)
(0.705364 0.128683 0)
(0.700808 0.137857 0)
(0.69606 0.147478 0)
(0.691131 0.15759 0)
(0.686032 0.168244 0)
(0.680776 0.179495 0)
(0.675378 0.191402 0)
(0.669857 0.204031 0)
(0.664231 0.217463 0)
(0.658521 0.2318 0)
(0.652792 0.24706 0)
(0.647023 0.263361 0)
(0.641137 0.280918 0)
(0.635375 0.299863 0)
(0.629949 0.320332 0)
(0.62475 0.342667 0)
(0.619847 0.367067 0)
(0.615469 0.393723 0)
(0.61177 0.423089 0)
(0.609025 0.455683 0)
(0.607712 0.492162 0)
(0.608497 0.533439 0)
(0.612473 0.580666 0)
(0.621464 0.635506 0)
(0.638789 0.700116 0)
(0.670456 0.777413 0)
(0.725474 0.870832 0)
(0.836624 0.980398 0)
(0.984478 1.09496 0)
(2.61507 7.01993e-05 0)
(1.68006 0.00130466 0)
(0.539643 0.00545824 0)
(0.56132 0.00790986 0)
(0.668131 0.0111027 0)
(0.743956 0.0164652 0)
(0.763401 0.0232628 0)
(0.760689 0.0301972 0)
(0.754901 0.0372578 0)
(0.749825 0.0440637 0)
(0.747527 0.050738 0)
(0.746318 0.057458 0)
(0.744868 0.0643038 0)
(0.74285 0.071296 0)
(0.740395 0.0784407 0)
(0.737666 0.0857614 0)
(0.734733 0.0932912 0)
(0.731613 0.101065 0)
(0.728309 0.109116 0)
(0.724827 0.117478 0)
(0.721182 0.126184 0)
(0.717389 0.135271 0)
(0.713462 0.144774 0)
(0.709417 0.154736 0)
(0.705272 0.165199 0)
(0.701048 0.17621 0)
(0.696767 0.187821 0)
(0.692452 0.2001 0)
(0.688142 0.213098 0)
(0.683907 0.226846 0)
(0.679653 0.241457 0)
(0.675415 0.257077 0)
(0.671527 0.273766 0)
(0.668027 0.291687 0)
(0.664833 0.311036 0)
(0.662101 0.331896 0)
(0.660006 0.354439 0)
(0.658723 0.37893 0)
(0.658533 0.405659 0)
(0.659803 0.434969 0)
(0.662999 0.467319 0)
(0.66887 0.503225 0)
(0.678476 0.543349 0)
(0.693301 0.588454 0)
(0.715728 0.639397 0)
(0.749212 0.697021 0)
(0.799342 0.761598 0)
(0.871717 0.832173 0)
(0.984644 0.903788 0)
(1.12028 0.956616 0)
(2.61628 3.70167e-05 0)
(1.68313 -0.00152814 0)
(0.545005 -0.00484952 0)
(0.56729 -0.00305232 0)
(0.6759 0.000995626 0)
(0.754091 0.00905022 0)
(0.774413 0.0185843 0)
(0.771476 0.0278683 0)
(0.765093 0.0364542 0)
(0.759425 0.0442552 0)
(0.756949 0.0517468 0)
(0.755824 0.0592248 0)
(0.754541 0.0667667 0)
(0.752708 0.0743922 0)
(0.750466 0.0820964 0)
(0.748005 0.0899153 0)
(0.745404 0.0978941 0)
(0.742673 0.106074 0)
(0.739811 0.114494 0)
(0.736824 0.123189 0)
(0.733727 0.1322 0)
(0.730536 0.141565 0)
(0.727268 0.151325 0)
(0.723946 0.16152 0)
(0.720592 0.172197 0)
(0.717233 0.183416 0)
(0.713918 0.195197 0)
(0.710665 0.207584 0)
(0.707433 0.220679 0)
(0.70435 0.23456 0)
(0.701626 0.249278 0)
(0.69923 0.264998 0)
(0.697175 0.28181 0)
(0.695628 0.299731 0)
(0.694692 0.318913 0)
(0.694531 0.339515 0)
(0.695365 0.361705 0)
(0.697448 0.385682 0)
(0.701139 0.411672 0)
(0.706866 0.43993 0)
(0.715237 0.470737 0)
(0.727063 0.504424 0)
(0.743479 0.54127 0)
(0.765979 0.581555 0)
(0.79662 0.62536 0)
(0.838092 0.672407 0)
(0.894029 0.721637 0)
(0.967126 0.770463 0)
(1.06831 0.814666 0)
(1.18132 0.840221 0)
(2.61195 0.00228848 0)
(1.67311 -0.00676368 0)
(0.549533 -0.0137852 0)
(0.583064 -0.00801601 0)
(0.696127 -0.000387808 0)
(0.777884 0.00988842 0)
(0.798487 0.0200821 0)
(0.794064 0.0297282 0)
(0.785732 0.0382406 0)
(0.778689 0.0461003 0)
(0.775575 0.0537803 0)
(0.774095 0.0614369 0)
(0.772511 0.0691047 0)
(0.770372 0.0768155 0)
(0.767838 0.0846219 0)
(0.76515 0.0925769 0)
(0.762391 0.100725 0)
(0.759564 0.109103 0)
(0.75667 0.117745 0)
(0.753721 0.126684 0)
(0.750734 0.135953 0)
(0.747728 0.145583 0)
(0.744725 0.15561 0)
(0.741752 0.166064 0)
(0.738862 0.176958 0)
(0.736035 0.188348 0)
(0.733269 0.200317 0)
(0.730726 0.212881 0)
(0.728501 0.226107 0)
(0.726577 0.240102 0)
(0.725016 0.254897 0)
(0.723924 0.270518 0)
(0.723389 0.287078 0)
(0.723556 0.304667 0)
(0.724588 0.32339 0)
(0.726667 0.343379 0)
(0.730043 0.364754 0)
(0.734994 0.387666 0)
(0.741896 0.412248 0)
(0.751216 0.438652 0)
(0.763551 0.467006 0)
(0.779675 0.497415 0)
(0.800561 0.529898 0)
(0.827459 0.56434 0)
(0.861893 0.600395 0)
(0.905694 0.637303 0)
(0.961148 0.673729 0)
(1.02986 0.707338 0)
(1.11622 0.735204 0)
(1.20904 0.748952 0)
(2.60368 0.00790391 0)
(1.64291 -0.073511 0)
(0.584838 -0.0725451 0)
(0.623926 -0.0457585 0)
(0.731374 -0.00575947 0)
(0.808993 0.0165315 0)
(0.826989 0.026631 0)
(0.821028 0.0352882 0)
(0.811512 0.0426515 0)
(0.804153 0.0507654 0)
(0.80078 0.0592946 0)
(0.798922 0.0677259 0)
(0.796941 0.0759357 0)
(0.794499 0.0840041 0)
(0.791775 0.0920678 0)
(0.788945 0.100206 0)
(0.786065 0.108466 0)
(0.783138 0.11689 0)
(0.780161 0.12552 0)
(0.777148 0.134403 0)
(0.774119 0.143588 0)
(0.771102 0.153098 0)
(0.768118 0.162952 0)
(0.76516 0.173201 0)
(0.762305 0.183912 0)
(0.759696 0.195094 0)
(0.757318 0.206803 0)
(0.755171 0.219096 0)
(0.753374 0.231995 0)
(0.752001 0.245555 0)
(0.751127 0.259848 0)
(0.750863 0.274937 0)
(0.751336 0.290884 0)
(0.752701 0.307768 0)
(0.755133 0.32565 0)
(0.75883 0.344617 0)
(0.764042 0.364737 0)
(0.771069 0.386091 0)
(0.780262 0.408749 0)