/*--------------------------------*- C++ -*----------------------------------*\
| =========                 |                                                 |
| \\      /  F ield         | OpenFOAM: The Open Source CFD Toolbox           |
|  \\    /   O peration     | Version:  2412                                  |
|   \\  /    A nd           | Website:  www.openfoam.com                      |
|    \\/     M anipulation  |                                                 |
\*---------------------------------------------------------------------------*/
FoamFile
{
    version     2.0;
    format      ascii;
    arch        "LSB;label=32;scalar=64";
    class       volScalarField;
    location    "2.5";
    object      Ma;
}
// * * * * * * * * * * * * * * * * * * * * * * * * * * * * * * * * * * * * * //

dimensions      [0 0 0 0 0 0 0];

internalField   nonuniform List<scalar> 
7000
(
3.00001
3.00001
3.00001
3.00001
3.00001
3.00001
3.00001
3.00001
3.00001
3
3
2.99998
2.99998
2.99986
2.99981
2.99909
2.99874
2.99496
2.99214
2.9724
2.94481
2.82398
2.60455
2.03344
1.05473
0.543355
0.354319
0.381134
0.409851
0.415596
0.405645
0.38699
0.367919
0.353103
0.340075
0.326419
0.31135
0.29514
0.278057
0.259798
0.239913
0.218436
0.195746
0.172059
0.147562
0.122393
0.0968092
0.0707379
0.0425669
0.0202221
3.00001
3.00001
3.00001
3.00001
3.00001
3.00001
3.00001
3.00001
3.00001
3
3
2.99999
2.99998
2.9999
2.99987
2.99923
2.99887
2.9957
2.99197
2.97268
2.94604
2.82143
2.6069
2.03802
1.05833
0.543157
0.352304
0.380712
0.410617
0.417233
0.408168
0.390628
0.372623
0.358522
0.345682
0.331653
0.315754
0.298464
0.28029
0.261108
0.240571
0.218728
0.19591
0.172255
0.147904
0.122995
0.0978528
0.0726772
0.0467766
0.0291756
3.00001
3.00001
3.00001
3.00001
3.00001
3.00001
3.00001
3.00001
3.00001
3
3
2.99998
2.99998
2.99985
2.99982
2.9991
2.99895
2.99541
2.99231
2.97752
2.94223
2.83988
2.59512
2.0282
1.06717
0.550297
0.356323
0.384247
0.413844
0.420028
0.410251
0.392043
0.373372
0.358833
0.345849
0.331923
0.316276
0.299278
0.281356
0.262362
0.24198
0.220319
0.197763
0.174486
0.150675
0.126535
0.102539
0.0793061
0.0572049
0.0444231
3.00001
3.00001
3.00001
3.00001
3.00001
3.00001
3.00001
3.00001
3.00001
3
3
2.99998
2.99997
2.99985
2.99983
2.99916
2.99893
2.99564
2.99177
2.97381
2.94647
2.83564
2.60889
2.0395
1.08458
0.560978
0.357599
0.385236
0.416085
0.423406
0.414365
0.39653
0.377748
0.362883
0.349504
0.335197
0.319235
0.302018
0.283984
0.264983
0.244704
0.223277
0.201118
0.178426
0.155443
0.132456
0.110075
0.0892436
0.0708195
0.0611863
3.00001
3.00001
3.00001
3.00001
3.00001
3.00001
3.00001
3.00001
3.00001
3
3
2.99998
2.99998
2.99985
2.99981
2.99914
2.99884
2.99551
2.99314
2.97496
2.94526
2.83929
2.6181
2.06918
1.09903
0.570263
0.355525
0.384304
0.417165
0.426207
0.418407
0.401448
0.383038
0.368226
0.354658
0.340012
0.32366
0.306089
0.287816
0.268744
0.248581
0.22747
0.205853
0.183956
0.162064
0.140531
0.120042
0.101686
0.0863509
0.0788048
3.00001
3.00001
3.00001
3.00001
3.00001
3.00001
3.00001
3.00001
3.00001
3
3
2.99998
2.99997
2.99985
2.99984
2.99915
2.99893
2.99558
2.9924
2.97474
2.94876
2.8499
2.62423
2.06855
1.12587
0.582493
0.355865
0.386274
0.421606
0.432239
0.425
0.408159
0.389376
0.37417
0.360254
0.345282
0.32864
0.310841
0.292452
0.27343
0.253512
0.232875
0.211987
0.191097
0.170517
0.15065
0.13219
0.116224
0.103449
0.0973886
3.00001
3.00001
3.00001
3.00001
3.00001
3.00001
3.00001
3.00001
3.00001
3
3
2.99998
2.99998
2.99985
2.99983
2.9991
2.999
2.99497
2.99333
2.9712
2.95654
2.84786
2.64121
2.10363
1.16336
0.603847
0.358759
0.389684
0.427327
0.439462
0.432674
0.416016
0.396908
0.381359
0.367086
0.351733
0.334728
0.316638
0.298108
0.279166
0.259602
0.239599
0.219621
0.199925
0.180816
0.162733
0.146333
0.13257
0.12193
0.117039
3.00001
3.00001
3.00001
3.00001
3.00001
3.00001
3.00001
3.00001
3.00001
3
3
2.99998
2.99998
2.99986
2.99981
2.99916
2.99881
2.99545
2.99308
2.97418
2.95582
2.83185
2.67552
2.11123
1.20964
0.627997
0.361868
0.394211
0.435447
0.449905
0.44386
0.427361
0.407578
0.391218
0.376116
0.359955
0.342253
0.32367
0.304915
0.286061
0.266921
0.247685
0.228788
0.210445
0.192946
0.176707
0.162318
0.150604
0.141753
0.137777
3.00001
3.00001
3.00001
3.00001
3.00001
3.00001
3.00001
3.00001
3.00001
3
3
2.99998
2.99998
2.99986
2.99982
2.9992
2.99892
2.99558
2.99323
2.97662
2.95708
2.85434
2.67782
2.14255
1.25493
0.651651
0.363902
0.400788
0.446745
0.463805
0.458147
0.441126
0.420005
0.402249
0.38592
0.368748
0.350342
0.331396
0.31262
0.294068
0.275543
0.257231
0.239565
0.222694
0.206906
0.192531
0.180051
0.170175
0.162921
0.159774
3.00001
3.00001
3.00001
3.00001
3.00001
3.00001
3.00001
3.00001
3.00001
3
3
2.99998
2.99998
2.99986
2.99982
2.9992
2.99885
2.99555
2.99399
2.97516
2.96263
2.86423
2.69584
2.19005
1.32179
0.687531
0.368731
0.408156
0.458487
0.477431
0.47127
0.453246
0.430589
0.411489
0.394201
0.376434
0.357779
0.338977
0.320688
0.302918
0.285405
0.268303
0.252028
0.236744
0.222688
0.210206
0.199614
0.191462
0.185543
0.183098
3.00001
3.00001
3.00001
3.00001
3.00001
3.00001
3.00001
3.00001
3.00001
3
3
2.99998
2.99998
2.99986
2.99983
2.99926
2.99904
2.99585
2.99423
2.97866
2.95861
2.87103
2.71652
2.23988
1.3874
0.719924
0.372488
0.415436
0.468424
0.487471
0.479511
0.460373
0.436952
0.417448
0.400122
0.382586
0.364435
0.346385
0.329084
0.312521
0.296415
0.280827
0.266188
0.252643
0.240392
0.229733
0.220933
0.214385
0.209882
0.20812
3.00001
3.00001
3.00001
3.00001
3.00001
3.00001
3.00001
3.00001
3.00001
3
3
2.99998
2.99997
2.99985
2.99983
2.99918
2.99913
2.99563
2.99467
2.97718
2.96574
2.86857
2.72646
2.28504
1.45221
0.753406
0.375107
0.418472
0.472023
0.490304
0.480957
0.461837
0.438853
0.420191
0.403961
0.387511
0.370505
0.353771
0.337899
0.322906
0.30853
0.294781
0.281993
0.270347
0.260043
0.251314
0.244337
0.239415
0.236029
0.234962
3.00001
3.00001
3.00001
3.00001
3.00001
3.00001
3.00001
3.00001
3.00001
3
3
2.99998
2.99997
2.99985
2.99981
2.99917
2.999
2.99569
2.99447
2.97867
2.96739
2.87705
2.73059
2.31166
1.48626
0.774988
0.365754
0.41393
0.468572
0.486883
0.477263
0.458711
0.437047
0.420208
0.406093
0.391575
0.376385
0.361383
0.347292
0.334188
0.321816
0.310181
0.299557
0.289992
0.281684
0.274965
0.269866
0.266551
0.264668
0.264277
3.00001
3.00001
3.00001
3.00001
3.00001
3.00001
3.00001
3.00001
3
3
2.99999
2.99999
2.99991
2.9999
2.99947
2.9994
2.99717
2.99634
2.98681
2.98567
2.95006
2.94722
2.74866
2.34983
1.52373
0.777262
0.341368
0.397894
0.456693
0.478082
0.471569
0.455301
0.435802
0.42075
0.408232
0.395721
0.382649
0.369915
0.357713
0.346527
0.336256
0.326893
0.318677
0.311523
0.305628
0.301073
0.298063
0.296642
0.295996
0.296525
3.00001
3.00001
3.00001
3.00001
3.00001
3.00001
3.00001
3.00001
3
3
2.99999
2.99998
2.9999
2.99988
2.99938
2.99928
2.99653
2.99504
2.981
2.98581
2.91046
3.09568
2.77826
2.37595
1.52536
0.795571
0.345615
0.39822
0.453355
0.475831
0.470947
0.456057
0.437784
0.423681
0.412182
0.401209
0.390135
0.3794
0.369658
0.360583
0.352395
0.345409
0.339634
0.334999
0.331732
0.32979
0.329187
0.32991
0.331375
0.332892
3.00001
3.00001
3.00001
3.00001
3.00001
3.00001
3.00001
3.00001
3
3
2.99999
2.99999
2.9999
2.99989
2.99942
2.99933
2.99672
2.99545
2.98187
2.98822
2.91804
3.10973
2.80258
2.40405
1.5592
0.826167
0.358808
0.404558
0.454206
0.477419
0.47331
0.459274
0.441751
0.428349
0.417906
0.408311
0.39897
0.390187
0.382501
0.375988
0.370145
0.365601
0.362648
0.360912
0.36061
0.36176
0.364164
0.367882
0.371484
0.374904
3.00001
3.00001
3.00001
3.00001
3.00001
3.00001
3.00001
3.00001
3
3
2.99999
2.99999
2.99992
2.99992
2.99954
2.99945
2.99747
2.99652
2.98591
2.99361
2.92626
3.1257
2.8272
2.42996
1.59523
0.855226
0.373249
0.411523
0.456738
0.480268
0.477382
0.464455
0.447644
0.434919
0.425572
0.417484
0.40994
0.403116
0.397514
0.393295
0.390233
0.387999
0.387711
0.389132
0.392505
0.397268
0.403703
0.411293
0.419408
0.425535
3.00001
3.00001
3.00001
3.00001
3.00001
3.00001
3.00001
3.00001
3.00001
3.00001
3
2.99999
2.99994
2.99994
2.99966
2.99958
2.99813
2.99745
2.9893
2.99747
2.93506
3.12791
2.84519
2.46648
1.65377
0.908749
0.401634
0.422097
0.463406
0.486999
0.484952
0.472877
0.456815
0.44469
0.436166
0.42917
0.423163
0.418288
0.414695
0.412815
0.41246
0.413521
0.41593
0.42056
0.427592
0.437469
0.449285
0.46339
0.477551
0.490847
3.00001
3.00001
3.00001
3.00001
3.00001
3.00001
3.00001
3.00001
3.00001
3.00001
3
3
2.99997
2.99996
2.99978
2.99971
2.99877
2.99836
2.99251
3.00114
2.94412
3.12796
2.86379
2.50891
1.72342
0.976326
0.442127
0.434414
0.473757
0.497729
0.496266
0.484467
0.469041
0.457678
0.450382
0.444423
0.439678
0.43628
0.434498
0.434534
0.436688
0.440868
0.446935
0.45548
0.467249
0.482724
0.50266
0.526021
0.55413
0.583599
3.00001
3.00001
3.00001
3.00001
3.00001
3.00001
3.00001
3.00001
3.00001
3.00001
3
3
2.99998
2.99998
2.99988
2.99982
2.99935
2.99912
2.99584
3.00368
2.95265
3.125
2.88197
2.55484
1.80474
1.05904
0.489922
0.449552
0.486042
0.511389
0.510707
0.499065
0.483912
0.472918
0.466479
0.462004
0.458632
0.4569
0.456866
0.458896
0.463114
0.469875
0.480026
0.493445
0.510877
0.533582
0.563573
0.603707
0.658079
0.754342
3.00001
3.00001
3.00001
3.00001
3.00001
3.00001
3.00001
3.00001
3.00001
3.00001
3.00001
3.00001
3
2.99999
2.99994
2.99992
2.99963
2.99989
2.99793
3.00597
2.96271
3.11784
2.90311
2.61107
1.91825
1.17987
0.55763
0.472781
0.50443
0.529717
0.53028
0.519098
0.504554
0.494032
0.488687
0.485911
0.484785
0.485473
0.488121
0.492892
0.500435
0.511698
0.526794
0.546723
0.571905
0.605464
0.652264
0.718962
0.826082
0.990219
3.00001
3.00001
3.00001
3.00001
3.00001
3.00001
3.00001
3.00001
3.00001
3.00001
3.00001
3.00001
3.00001
3.00001
3
3.00002
3.00002
3.00032
2.99992
3.00324
2.99076
3.06644
2.93369
2.79627
2.09465
1.35324
0.597607
0.482877
0.508804
0.5314
0.53515
0.526863
0.515681
0.508067
0.505626
0.505875
0.507727
0.511261
0.51686
0.525536
0.537678
0.553691
0.573766
0.598917
0.63256
0.675152
0.73365
0.81616
0.941206
1.11021
3.00001
3.00001
3.00001
3.00001
3.00001
3.00001
3.00001
3.00001
3.00001
3.00001
3.00001
3
3
2.99998
2.99997
2.99983
2.99999
2.99867
3.00226
2.99706
2.97958
3.01065
2.90482
2.77808
2.24097
1.52724
0.726845
0.525436
0.528953
0.543057
0.547829
0.54045
0.530283
0.524202
0.52339
0.525621
0.529188
0.535139
0.54436
0.556738
0.572574
0.592204
0.617396
0.647887
0.686786
0.737606
0.800733
0.885054
1.00026
1.133
3.00001
3.00001
3.00001
3.00001
3.00001
3.00001
3.00001
3.00001
3.00001
3.00001
3.00001
3
3
2.99998
2.99996
2.99983
2.99974
2.99902
2.9984
2.9949
2.98987
2.97233
2.93041
2.79273
2.49793
1.85227
0.925166
0.606717
0.566239
0.572588
0.574779
0.568017
0.558767
0.552189
0.550638
0.552648
0.557032
0.564216
0.574751
0.58796
0.60543
0.627015
0.654104
0.688199
0.729053
0.781791
0.845935
0.924699
1.02701
1.13515
3.00001
3.00001
3.00001
3.00001
3.00001
3.00001
3.00001
3.00001
3.00001
3.00001
3.00001
3
3
2.99998
2.99998
2.99985
2.99982
2.99918
2.99879
2.99531
2.99282
2.97006
2.95665
2.83357
2.66324
2.10305
1.21752
0.776098
0.63185
0.618054
0.616401
0.61214
0.603032
0.595256
0.59066
0.589686
0.593505
0.601332
0.611564
0.6249
0.641741
0.662995
0.689573
0.722725
0.762792
0.812395
0.872355
0.943441
1.03184
1.12402
3.00001
3.00001
3.00001
3.00001
3.00001
3.00001
3.00001
3.00001
3.00001
3.00001
3.00001
3.00001
2.99999
2.99999
2.99992
2.9999
2.99949
2.9994
2.99705
2.99577
2.98344
2.98816
2.92146
3.09365
2.80866
2.464
1.67737
1.04016
0.70693
0.665438
0.664184
0.665024
0.658861
0.650727
0.644089
0.641074
0.641521
0.646144
0.653829
0.665616
0.681578
0.701928
0.727221
0.758096
0.795196
0.839027
0.892171
0.954485
1.03018
1.10914
3.00001
3.00001
3.00001
3.00001
3.00001
3.00001
3.00001
3.00001
3.00001
3.00001
3.00001
3.00001
3
3
2.99997
2.99997
2.99981
2.99977
2.99896
2.99859
2.99494
2.99166
2.97442
2.94859
2.85076
2.62967
2.06705
1.22166
0.81458
0.691559
0.688001
0.69567
0.702939
0.701732
0.69779
0.694867
0.694386
0.696288
0.702188
0.710987
0.724904
0.742715
0.766043
0.793686
0.828015
0.867163
0.913744
0.966145
1.0298
1.09713
3.00001
3.00001
3.00001
3.00001
3.00001
3.00001
3.00001
3.00001
3.00001
3.00001
3.00001
3
3
2.99999
2.99999
2.99992
2.9999
2.9995
2.99933
2.9974
2.99555
2.98447
2.9839
2.92197
3.00704
2.79833
2.46233
1.69926
1.07927
0.756346
0.720624
0.730029
0.741885
0.74727
0.746302
0.743978
0.743854
0.745171
0.750105
0.757698
0.769323
0.784999
0.805298
0.830279
0.860182
0.896189
0.936658
0.984132
1.03738
1.09284
3.00001
3.00001
3.00001
3.00001
3.00001
3.00001
3.00001
3.00001
3.00001
3.00001
3.00001
3.00001
3.00001
3
3
2.99999
2.99999
2.99992
2.99989
2.99946
2.99942
2.99589
3.00286
2.96241
3.09944
2.90363
2.64349
2.02657
1.33087
0.81093
0.728229
0.741206
0.760468
0.775735
0.780249
0.780023
0.780973
0.784021
0.789756
0.797916
0.809018
0.823581
0.841846
0.86424
0.890927
0.922553
0.959328
1.00061
1.04931
1.0983
3.00001
3.00001
3.00001
3.00001
3.00001
3.00001
3.00001
3.00001
3.00001
3.00001
3.00001
3.00001
3.00001
3.00001
3
3
2.99996
2.99995
2.99976
2.9997
2.99869
2.99818
2.99305
2.98907
2.95981
2.92279
2.69448
2.42891
1.70379
0.966588
0.756199
0.748613
0.772394
0.790697
0.797778
0.800794
0.804745
0.810733
0.81891
0.829094
0.841323
0.856078
0.87368
0.894381
0.918563
0.946719
0.979193
1.01613
1.05839
1.10256
3.00001
3.00001
3.00001
3.00001
3.00001
3.00001
3.00001
3.00001
3.00001
3.00001
3.00001
3.00001
3.00001
3.00001
3
3
2.99998
2.99998
2.99986
2.99983
2.99919
2.99897
2.99536
2.99352
2.97566
2.95219
2.85376
2.65214
2.11959
1.25261
0.897221
0.807691
0.805594
0.812416
0.818181
0.821752
0.826313
0.832893
0.841851
0.85328
0.866563
0.881924
0.899618
0.919808
0.942514
0.968463
0.997666
1.03109
1.06864
1.10786
3.00001
3.00001
3.00001
3.00001
3.00001
3.00001
3.00001
3.00001
3.00001
3.00001
3.00001
3.00001
3.00001
3.00001
3.00001
3
3
2.99995
2.99994
2.99961
2.99955
2.99771
2.99686
2.98659
2.99318
2.93757
3.10143
2.84545
2.53869
1.80066
1.19697
0.895141
0.85172
0.84674
0.850424
0.856592
0.861067
0.866008
0.872869
0.882391
0.89402
0.907789
0.92393
0.94266
0.963682
0.987694
1.01393
1.04381
1.07753
1.11244
3.00001
3.00001
3.00001
3.00001
3.00001
3.00001
3.00001
3.00001
3.00001
3.00001
3.00001
3.00001
3.00001
3.00001
3.00001
3
3
2.99998
2.99997
2.99986
2.99983
2.99924
2.99901
2.99637
2.99415
2.98344
2.96055
2.88606
2.7353
2.3331
1.58007
1.10295
0.905943
0.880002
0.881539
0.889496
0.896748
0.903896
0.910786
0.919684
0.929382
0.941077
0.953975
0.969033
0.986531
1.00713
1.03066
1.05668
1.08698
1.11732
3.00001
3.00001
3.00001
3.00001
3.00001
3.00001
3.00001
3.00001
3.00001
3.00001
3.00001
3.00001
3.00001
3.00001
3.00001
3.00001
3
3
2.99999
2.99998
2.99988
2.99984
2.99918
2.99893
2.99456
3.00048
2.96124
3.08935
2.89862
2.64452
2.07235
1.41518
0.971628
0.901572
0.898203
0.910008
0.923553
0.934982
0.94363
0.95186
0.961426
0.972009
0.984481
0.998311
1.01348
1.03043
1.04957
1.07168
1.09807
1.12552
3.00001
3.00001
3.00001
3.00001
3.00001
3.00001
3.00001
3.00001
3.00001
3.00001
3.00001
3.00001
3.00001
3.00001
3.00001
3.00001
3.00001
3
3
2.99997
2.99996
2.99981
2.99973
2.9989
2.99837
2.99389
2.99115
2.9658
2.93304
2.78339
2.51646
1.93472
1.21055
0.966707
0.924701
0.930642
0.943385
0.95771
0.967742
0.976026
0.984771
0.995363
1.00734
1.02096
1.03641
1.05279
1.07164
1.09101
1.11344
1.13634
3.00001
3.00001
3.00001
3.00001
3.00001
3.00001
3.00001
3.00001
3.00001
3.00001
3.00001
3.00001
3.00001
3.00001
3.00001
3.00001
3.00001
3.00001
3
3
2.99997
2.99995
2.99983
2.99949
2.99897
2.99535
2.99649
2.97063
3.03422
2.90727
2.64566
2.36169
1.6512
1.11017
0.987475
0.963536
0.970552
0.980462
0.990249
0.997937
1.00523
1.01419
1.02513
1.0378
1.05279
1.06923
1.0872
1.10742
1.12867
1.15125
3.00001
3.00001
3.00001
3.00001
3.00001
3.00001
3.00001
3.00001
3.00001
3.00001
3.00001
3.00001
3.00001
3.00001
3.00001
3.00001
3.00001
3.00001
3
3
2.99998
2.99998
2.9999
2.99985
2.99948
2.9993
2.99743
3.00278
2.96993
3.09667
2.90822
2.70813
2.14379
1.50528
1.06221
0.999277
0.994473
1.00299
1.01357
1.02228
1.02877
1.0355
1.04383
1.0546
1.0681
1.0835
1.10052
1.11965
1.14093
1.16238
3.00001
3.00001
3.00001
3.00001
3.00001
3.00001
3.00001
3.00001
3.00001
3.00001
3.00001
3.00001
3.00001
3.00001
3.00001
3.00001
3.00001
3.00001
3.00001
3
3
2.99997
2.99997
2.99983
2.99978
2.99911
2.99853
2.99474
2.99204
2.97088
2.94288
2.80641
2.60163
2.06955
1.37989
1.10843
1.04526
1.03635
1.03929
1.04683
1.05483
1.06223
1.06918
1.07712
1.08713
1.09983
1.11489
1.13211
1.15202
1.17231
3.00001
3.00001
3.00001
3.00001
3.00001
3.00001
3.00001
3.00001
3.00001
3.00001
3.00001
3.00001
3.00001
3.00001
3.00001
3.00001
3.00001
3.00001
3.00001
3.00001
3.00001
3.00002
3.00002
3.00009
3.00003
3.00044
2.9993
2.99901
2.9881
2.99224
2.94274
3.08517
2.85839
2.58303
1.93954
1.41224
1.13745
1.08777
1.0777
1.07783
1.08323
1.09081
1.09753
1.10547
1.11355
1.12304
1.13438
1.14842
1.16568
1.18395
3.00001
3.00001
3.00001
3.00001
3.00001
3.00001
3.00001
3.00001
3.00001
3.00001
3.00001
3.00001
3.00001
3.00001
3.00001
3.00001
3.00001
3.00001
3.00001
3.00001
3.00001
3
3
2.99997
2.99996
2.99977
2.99971
2.99876
2.9982
2.99487
2.98953
2.9767
2.92822
2.84403
2.46004
1.95258
1.37282
1.16586
1.1178
1.1092
1.10975
1.11543
1.12272
1.1302
1.13901
1.14833
1.15954
1.17138
1.18532
1.20034
3.00001
3.00001
3.00001
3.00001
3.00001
3.00001
3.00001
3.00001
3.00001
3.00001
3.00001
3.00001
3.00001
3.00001
3.00001
3.00001
3.00001
3.00001
3.00001
3.00001
3.00001
3.00001
3
3
2.99998
2.99998
2.99983
2.99973
2.99927
2.99761
2.99511
2.98275
2.98078
2.92807
2.87105
2.45509
1.93112
1.36756
1.18864
1.14893
1.14168
1.14195
1.14691
1.15389
1.16186
1.17098
1.18131
1.19338
1.20649
1.22094
3.00001
3.00001
3.00001
3.00001
3.00001
3.00001
3.00001
3.00001
3.00001
3.00001
3.00001
3.00001
3.00001
3.00001
3.00001
3.00001
3.00001
3.00001
3.00001
3.00001
3.00001
3.00001
3
3
2.99999
2.99998
2.99989
2.99987
2.99934
2.99923
2.99653
2.99603
2.98245
2.99315
2.9204
2.85644
2.4385
1.92842
1.37489
1.2146
1.18023
1.17441
1.17448
1.17943
1.18607
1.194
1.20281
1.21351
1.22547
1.23864
3.00001
3.00001
3.00001
3.00001
3.00001
3.00001
3.00001
3.00001
3.00001
3.00001
3.00001
3.00001
3.00001
3.00001
3.00001
3.00001
3.00001
3.00001
3.00001
3.00001
3.00001
3.00001
3.00001
3
3
2.99999
2.99998
2.99989
2.99985
2.99941
2.99925
2.9971
2.99645
2.98848
2.97703
2.92897
2.79057
2.51327
1.93104
1.47202
1.26584
1.22133
1.21195
1.21138
1.21684
1.22484
1.23183
1.23948
1.24899
1.25948
3.00001
3.00001
3.00001
3.00001
3.00001
3.00001
3.00001
3.00001
3.00001
3.00001
3.00001
3.00001
3.00001
3.00001
3.00001
3.00001
3.00001
3.00001
3.00001
3.00001
3.00001
3.00001
3.00001
3.00001
3.00001
3.00001
3.00002
3.00002
3.00009
3.00004
3.00045
2.99925
2.99865
2.98619
2.98582
2.93847
2.99253
2.837
2.53231
1.95685
1.51767
1.29281
1.24509
1.2376
1.23935
1.24719
1.25635
1.26577
1.27553
1.28547
3.00001
3.00001
3.00001
3.00001
3.00001
3.00001
3.00001
3.00001
3.00001
3.00001
3.00001
3.00001
3.00001
3.00001
3.00001
3.00001
3.00001
3.00001
3.00001
3.00001
3.00001
3.00001
3.00001
3.00001
3.00001
3.00001
3
3
2.99998
2.99994
2.99988
2.99958
2.99956
2.99671
2.99688
2.98194
2.99592
2.9249
2.83772
2.46161
2.02206
1.51225
1.31802
1.26931
1.26321
1.2658
1.27386
1.28426
1.29516
1.30603
3.00001
3.00001
3.00001
3.00001
3.00001
3.00001
3.00001
3.00001
3.00001
3.00001
3.00001
3.00001
3.00001
3.00001
3.00001
3.00001
3.00001
3.00001
3.00001
3.00001
3.00001
3.00001
3.00001
3.00001
3.00001
3.00001
3.00001
3.00001
3
2.99999
2.99994
2.99991
2.99957
2.99953
2.99764
2.99821
2.99004
2.97922
2.9123
2.83784
2.57012
2.08017
1.60505
1.36133
1.31136
1.29853
1.29747
1.30159
1.31144
1.32243
3.00001
3.00001
3.00001
3.00001
3.00001
3.00001
3.00001
3.00001
3.00001
3.00001
3.00001
3.00001
3.00001
3.00001
3.00001
3.00001
3.00001
3.00001
3.00001
3.00001
3.00001
3.00001
3.00001
3.00001
3.00001
3.00001
3.00001
3.00001
3
3
2.99998
2.99998
2.99987
3.00018
2.99893
2.99867
2.99007
2.98976
2.94551
3.01182
2.86074
2.62435
2.14398
1.66645
1.39375
1.33861
1.32537
1.32338
1.32744
1.33617
3.00001
3.00001
3.00001
3.00001
3.00001
3.00001
3.00001
3.00001
3.00001
3.00001
3.00001
3.00001
3.00001
3.00001
3.00001
3.00001
3.00001
3.00001
3.00001
3.00001
3.00001
3.00001
3.00001
3.00001
3.00001
3.00001
3.00001
3.00001
3.00001
3
3
2.99996
2.99994
2.99972
2.99963
2.99844
2.99748
2.99078
2.99112
2.95502
3.02496
2.87661
2.67779
2.2238
1.75913
1.44369
1.36645
1.34955
1.34781
1.35282
3.00001
3.00001
3.00001
3.00001
3.00001
3.00001
3.00001
3.00001
3.00001
3.00001
3.00001
3.00001
3.00001
3.00001
3.00001
3.00001
3.00001
3.00001
3.00001
3.00001
3.00001
3.00001
3.00001
3.00001
3.00001
3.00001
3.00001
3.00001
3.00001
3.00001
3
3
2.99997
2.99997
2.99982
2.99976
2.99897
2.99849
2.99516
2.99102
2.97232
2.95787
2.83615
2.71523
2.34106
1.87032
1.54577
1.42013
1.38779
1.38331
3.00001
3.00001
3.00001
3.00001
3.00001
3.00001
3.00001
3.00001
3.00001
3.00001
3.00001
3.00001
3.00001
3.00001
3.00001
3.00001
3.00001
3.00001
3.00001
3.00001
3.00001
3.00001
3.00001
3.00001
3.00001
3.00001
3.00001
3.00001
3.00001
3.00001
3.00001
3.00001
3
2.99999
2.99996
2.99986
2.9998
2.99918
2.99887
2.99608
2.99313
2.97965
2.96375
2.89225
2.77172
2.48334
2.02288
1.65613
1.4748
1.43483
3.00001
3.00001
3.00001
3.00001
3.00001
3.00001
3.00001
3.00001
3.00001
3.00001
3.00001
3.00001
3.00001
3.00001
3.00001
3.00001
3.00001
3.00001
3.00001
3.00001
3.00001
3.00001
3.00001
3.00001
3.00001
3.00001
3.00001
3.00001
3.00001
3.00001
3.00001
3.00001
3
3
2.99998
2.99998
2.99988
2.99981
2.99935
2.99906
2.99629
2.9948
2.98166
2.97086
2.90291
2.82453
2.58262
2.16929
1.76935
1.54183
3.00001
3.00001
3.00001
3.00001
3.00001
3.00001
3.00001
3.00001
3.00001
3.00001
3.00001
3.00001
3.00001
3.00001
3.00001
3.00001
3.00001
3.00001
3.00001
3.00001
3.00001
3.00001
3.00001
3.00001
3.00001
3.00001
3.00001
3.00001
3.00001
3.00001
3.00001
3.00001
3.00001
3.00001
3
3
2.99996
2.99995
2.99974
2.9997
2.99865
2.99838
2.99524
2.98812
2.98214
2.93406
2.87096
2.63574
2.28787
1.87691
3.00001
3.00001
3.00001
3.00001
3.00001
3.00001
3.00001
3.00001
3.00001
3.00001
3.00001
3.00001
3.00001
3.00001
3.00001
3.00001
3.00001
3.00001
3.00001
3.00001
3.00001
3.00001
3.00001
3.00001
3.00001
3.00001
3.00001
3.00001
3.00001
3.00001
3.00001
3.00001
3.00001
3.00001
3.00001
3
3
2.99996
2.99996
2.99978
2.99974
2.99878
2.99837
2.99357
2.99388
2.97104
3.01818
2.9077
2.80284
2.37275
3.00001
3.00001
3.00001
3.00001
3.00001
3.00001
3.00001
3.00001
3.00001
3.00001
3.00001
3.00001
3.00001
3.00001
3.00001
3.00001
3.00001
3.00001
3.00001
3.00001
3.00001
3.00001
3.00001
3.00001
3.00001
3.00001
3.00001
3.00001
3.00001
3.00001
3.00001
3.00001
3.00001
3.00001
3.00001
3.00001
3.00001
3
3
2.99997
2.99996
2.99982
2.99977
2.99907
3.0009
2.98996
3.03204
2.97138
2.90858
2.66564
3.00001
3.00001
3.00001
3.00001
3.00001
3.00001
3.00001
3.00001
3.00001
3.00001
3.00001
3.00001
3.00001
3.00001
3.00001
3.00001
3.00001
3.00001
3.00001
3.00001
3.00001
3.00001
3.00001
3.00001
3.00001
3.00001
3.00001
3.00001
3.00001
3.00001
3.00001
3.00001
3.00001
3.00001
3.00001
3.00001
3
3
2.99999
2.99999
2.99992
2.99991
2.99952
2.9994
2.99745
2.99675
2.98658
2.9846
2.94911
2.91029
3.00001
3.00001
3.00001
3.00001
3.00001
3.00001
3.00001
3.00001
3.00001
3.00001
3.00001
3.00001
3.00001
3.00001
3.00001
3.00001
3.00001
3.00001
3.00001
3.00001
3.00001
3.00001
3.00001
3.00001
3.00001
3.00001
3.00001
3.00001
3.00001
3.00001
3.00001
3.00001
3.00001
3.00001
3.00001
3.00001
3.00001
3.00001
3
3
2.99996
2.99995
2.99976
2.99969
2.99867
2.99827
2.99295
2.99235
2.97341
2.95031
3.00001
3.00001
3.00001
3.00001
3.00001
3.00001
3.00001
3.00001
3.00001
3.00001
3.00001
3.00001
3.00001
3.00001
3.00001
3.00001
3.00001
3.00001
3.00001
3.00001
3.00001
3.00001
3.00001
3.00001
3.00001
3.00001
3.00001
3.00001
3.00001
3.00001
3.00001
3.00001
3.00001
3.00001
3.00001
3.00001
3.00001
3.00001
3
3
2.99998
2.99998
2.99986
2.99983
2.9992
2.99903
2.99565
2.99545
2.98512
2.97329
3.00001
3.00001
3.00001
3.00001
3.00001
3.00001
3.00001
3.00001
3.00001
3.00001
3.00001
3.00001
3.00001
3.00001
3.00001
3.00001
3.00001
3.00001
3.00001
3.00001
3.00001
3.00001
3.00001
3.00001
3.00001
3.00001
3.00001
3.00001
3.00001
3.00001
3.00001
3.00001
3.00001
3.00001
3.00001
3.00001
3.00001
3.00001
3.00001
3
2.99999
2.99996
2.99993
2.99971
2.99976
2.99858
3.00189
2.99612
2.98776
2.96932
3.00001
3.00001
3.00001
3.00001
3.00001
3.00001
3.00001
3.00001
3.00001
3.00001
3.00001
3.00001
3.00001
3.00001
3.00001
3.00001
3.00001
3.00001
3.00001
3.00001
3.00001
3.00001
3.00001
3.00001
3.00001
3.00001
3.00001
3.00001
3.00001
3.00001
3.00001
3.00001
3.00001
3.00001
3.00001
3.00001
3.00001
3.00001
3.00001
3.00001
3
3.00001
2.99997
3.00016
2.99983
2.99954
2.99813
2.99644
2.98837
2.97217
3.00001
3.00001
3.00001
3.00001
3.00001
3.00001
3.00001
3.00001
3.00001
3.00001
3.00001
3.00001
3.00001
3.00001
3.00001
3.00001
3.00001
3.00001
3.00001
3.00001
3.00001
3.00001
3.00001
3.00001
3.00001
3.00001
3.00001
3.00001
3.00001
3.00001
3.00001
3.00001
3.00001
3.00001
3.00001
3.00001
3.00001
3.00001
3.00001
3.00001
3.00001
3.00003
2.99999
3.00021
2.99989
2.9996
2.99818
2.99656
2.98917
2.97282
1.40597
1.58158
1.61727
1.54079
1.42752
1.28221
1.15316
1.05039
1.01349
1.00404
1.00097
0.991433
0.975062
0.955665
0.940511
0.930625
0.923689
0.917974
0.913303
0.909418
0.906205
0.903314
0.898576
0.887853
0.863754
0.810725
0.693629
0.448318
0.167056
0.197868
0.278145
0.323948
0.358978
0.36261
0.318251
0.26041
0.196549
0.131505
0.0726887
0.0371769
0.0614995
0.103695
0.145385
0.184254
0.221114
0.2548
0.286826
0.31862
0.350672
0.381845
0.41237
0.441562
0.470074
0.497388
0.524331
0.550242
0.57588
0.600557
0.624995
0.648534
0.671933
0.694541
0.717129
0.738985
0.760868
0.781924
0.802996
0.823143
0.843283
0.862468
0.881645
0.899885
0.918179
0.935558
0.953091
0.969736
0.986626
1.00264
1.01896
1.03443
1.05026
1.06525
1.08068
1.09523
1.11026
1.12446
1.1392
1.15311
1.16754
1.18115
1.1952
1.20851
1.22211
1.23507
1.24817
1.26057
1.27278
1.28354
1.2929
1.29781
1.36579
1.47698
1.51932
1.52615
1.53268
1.55222
1.56614
1.55848
1.52308
1.47383
1.4315
1.41351
1.40811
1.4048
1.4001
1.39369
1.38685
1.38112
1.37687
1.37397
1.37218
1.37074
1.36794
1.36058
1.34211
1.29855
1.20101
0.98994
0.659822
0.413273
0.290223
0.199046
0.113318
0.0573022
0.0785484
0.138022
0.191581
0.239708
0.282995
0.323696
0.361099
0.396672
0.431257
0.464395
0.496528
0.526507
0.555161
0.583281
0.611889
0.63984
0.666843
0.692525
0.717333
0.741138
0.764329
0.78679
0.80886
0.830269
0.851384
0.871782
0.892066
0.911711
0.931442
0.950495
0.969624
0.988055
1.00653
1.02437
1.04228
1.05954
1.0769
1.09361
1.11045
1.12668
1.14305
1.15881
1.17471
1.19005
1.20551
1.22056
1.23572
1.25064
1.26555
1.2804
1.2952
1.30997
1.32472
1.33938
1.35407
1.36865
1.38334
1.39765
1.41243
1.42619
1.44094
1.45385
1.46807
1.47917
1.49085
1.49632
1.31484
1.4111
1.48863
1.56535
1.64612
1.71817
1.75461
1.75472
1.74571
1.71845
1.68071
1.64786
1.62439
1.61042
1.60196
1.59684
1.59346
1.59074
1.5883
1.58639
1.58485
1.58352
1.58161
1.5769
1.56533
1.53749
1.47384
1.3341
1.06124
0.773745
0.631729
0.521769
0.430133
0.382608
0.389838
0.432281
0.477899
0.515909
0.545418
0.572104
0.597843
0.623709
0.649987
0.676261
0.702797
0.728355
0.753263
0.777706
0.80301
0.828343
0.853122
0.876468
0.898993
0.920224
0.940846
0.960358
0.979486
0.997657
1.01572
1.03289
1.05012
1.06662
1.08333
1.09952
1.11587
1.13168
1.14739
1.16255
1.17742
1.19191
1.20626
1.22026
1.23443
1.2481
1.26223
1.27582
1.29001
1.30378
1.31799
1.33178
1.34581
1.35945
1.37319
1.38662
1.40016
1.41334
1.42686
1.4398
1.45349
1.46621
1.48028
1.49272
1.50728
1.5195
1.53423
1.54652
1.5604
1.57271
1.58346
1.59188
1.28815
1.38336
1.46895
1.55054
1.62746
1.69314
1.7504
1.7944
1.81587
1.81783
1.81366
1.79737
1.77285
1.74816
1.72811
1.71485
1.70747
1.70385
1.70201
1.70092
1.69976
1.69865
1.69745
1.69448
1.68752
1.67102
1.63294
1.54785
1.35929
1.07596
0.85667
0.725822
0.624623
0.58512
0.596651
0.638403
0.683431
0.719266
0.745085
0.763847
0.77982
0.796478
0.814431
0.833494
0.853999
0.875127
0.896121
0.916442
0.937313
0.958409
0.979639
0.999644
1.01893
1.03688
1.05428
1.07063
1.08673
1.10207
1.11742
1.13223
1.1472
1.16167
1.17631
1.19061
1.20508
1.21942
1.23366
1.24791
1.26172
1.27561
1.28894
1.30224
1.31518
1.32781
1.34052
1.35266
1.36508
1.37692
1.38912
1.40097
1.41308
1.42508
1.43724
1.44935
1.46168
1.47386
1.48649
1.49863
1.51178
1.52387
1.53766
1.54972
1.56423
1.57635
1.59107
1.60364
1.61738
1.63035
1.64109
1.65042
1.26308
1.35789
1.44289
1.52217
1.59615
1.66516
1.72715
1.7835
1.83096
1.86109
1.87388
1.87435
1.86925
1.8547
1.83446
1.81524
1.79792
1.78565
1.77829
1.77397
1.77212
1.77097
1.77035
1.76854
1.76473
1.75441
1.73272
1.67914
1.56402
1.32347
1.03687
0.845065
0.712631
0.689767
0.711188
0.763353
0.82099
0.863673
0.893271
0.916983
0.93259
0.943278
0.954167
0.966474
0.980441
0.996943
1.01442
1.03138
1.04773
1.0636
1.07931
1.09375
1.10746
1.12015
1.13271
1.14475
1.15714
1.16916
1.18167
1.19401
1.20702
1.2199
1.2333
1.24655
1.26011
1.27359
1.28703
1.30048
1.31344
1.32653
1.33896
1.35157
1.36376
1.37589
1.38786
1.39951
1.41127
1.42251
1.43406
1.44507
1.45641
1.46746
1.47872
1.4899
1.50138
1.51276
1.52471
1.53638
1.54915
1.56111
1.57489
1.58712
1.60183
1.6142
1.62922
1.64186
1.65587
1.66871
1.67968
1.68885
1.23461
1.3274
1.41204
1.49049
1.56401
1.63219
1.69533
1.7524
1.80368
1.84933
1.88481
1.90686
1.91591
1.9162
1.91194
1.90046
1.8842
1.86787
1.85223
1.84145
1.83426
1.83103
1.82929
1.82861
1.82587
1.81999
1.80435
1.77091
1.69112
1.52454
1.21432
0.904675
0.738041
0.726445
0.762801
0.831447
0.905748
0.962587
1.00134
1.02778
1.04596
1.05863
1.06664
1.07304
1.08163
1.09232
1.10373
1.11495
1.12501
1.13424
1.14367
1.15355
1.16323
1.17256
1.18209
1.19158
1.20172
1.21183
1.22287
1.23392
1.24602
1.25788
1.2706
1.28298
1.29605
1.30896
1.32202
1.33525
1.3479
1.36115
1.37336
1.38632
1.39817
1.4105
1.42216
1.43372
1.44519
1.45614
1.46742
1.47802
1.48913
1.49972
1.5107
1.52145
1.53273
1.54367
1.55565
1.56704
1.57988
1.5918
1.60556
1.61777
1.63224
1.64446
1.65917
1.67114
1.68517
1.69668
1.70796
1.71565
1.20738
1.29447
1.37631
1.45416
1.52676
1.59542
1.65836
1.71771
1.77105
1.82056
1.86397
1.90197
1.9279
1.94412
1.94945
1.94932
1.94507
1.93531
1.92181
1.90808
1.8947
1.8849
1.87819