/*--------------------------------*- C++ -*----------------------------------*\
| =========                 |                                                 |
| \\      /  F ield         | OpenFOAM: The Open Source CFD Toolbox           |
|  \\    /   O peration     | Version:  2412                                  |
|   \\  /    A nd           | Website:  www.openfoam.com                      |
|    \\/     M anipulation  |                                                 |
\*---------------------------------------------------------------------------*/
FoamFile
{
    version     2.0;
    format      ascii;
    arch        "LSB;label=32;scalar=64";
    class       surfaceScalarField;
    location    "2.5";
    object      phi;
}
// * * * * * * * * * * * * * * * * * * * * * * * * * * * * * * * * * * * * * //

dimensions      [1 0 -1 0 0 0 0];

oriented        oriented;

internalField   nonuniform List<scalar> 
13790
(
0.00290515
2.84561e-13
0.00290515
-3.04801e-13
0.00290515
1.29922e-12
0.00290515
-1.79435e-12
0.00290515
5.44449e-12
0.00290515
-7.93035e-12
0.00290515
5.05282e-11
0.00290515
-6.76185e-11
0.00290515
2.13212e-10
0.00290515
-2.7154e-10
0.00290515
1.70305e-09
0.00290515
-2.21762e-09
0.00290515
6.32351e-09
0.00290514
-7.85707e-09
0.00290512
6.96863e-08
0.00290484
-7.62205e-08
0.00290529
7.3263e-08
0.00290346
3.07856e-08
0.00290319
1.43721e-07
0.00291541
6.63727e-07
0.00290067
5.22102e-07
0.00297336
1.6154e-06
0.00288061
1.13165e-06
0.00307492
-8.23641e-06
0.00284434
3.04033e-05
0.00269335
9.30072e-05
0.00259742
0.000103356
0.00252231
8.46147e-05
0.00246328
6.80673e-05
0.00240433
6.09909e-05
0.00234591
5.89397e-05
0.00228348
6.08517e-05
0.00222093
6.36207e-05
0.00215628
6.64038e-05
0.00208612
6.96579e-05
0.00200804
7.41512e-05
0.00192249
8.04127e-05
0.00183118
8.87158e-05
0.00173239
9.89716e-05
0.00162178
0.000110536
0.00149802
0.000122444
0.00136361
0.000133992
0.0012206
0.000144846
0.0010686
0.000154743
0.000908834
0.000163409
0.000740201
0.000171132
0.000563915
0.000177824
0.000380556
0.000183423
0.00019031
0.00019117
0.000191944
0.00301309
-4.36644e-13
0.00301309
-7.4605e-15
0.00301309
-2.44239e-12
0.00301309
-1.58877e-13
0.00301309
-1.15454e-11
0.00301309
-2.13011e-12
0.00301309
-8.13242e-11
0.00301309
-4.78001e-12
0.00301309
-3.82136e-10
0.00301309
-1.68615e-11
0.0030131
-2.51802e-09
0.0030131
1.7092e-10
0.00301311
-1.04864e-08
0.00301311
8.62957e-10
0.00301333
-8.23442e-08
0.0030128
6.47627e-08
0.00301339
-5.20781e-08
0.00301211
5.58459e-08
0.0030107
4.32095e-07
0.00302571
1.28167e-07
0.00300921
1.51921e-06
0.00308288
2.43779e-06
0.00298763
2.12688e-06
0.00315127
-5.30474e-06
0.00293369
5.74942e-05
0.00277791
0.000195634
0.00268364
0.000204775
0.00261533
0.000162386
0.00256189
0.000130813
0.00250615
0.000118788
0.00245215
0.000114496
0.00239453
0.00011822
0.00233557
0.000124726
0.00227181
0.000132643
0.00219878
0.000142529
0.0021139
0.000154918
0.0020186
0.000169978
0.00191621
0.00018787
0.00180636
0.000208481
0.00168556
0.00023085
0.00155284
0.000253558
0.00141064
0.00027567
0.00126061
0.000296757
0.00110184
0.000316308
0.000935326
0.000333692
0.000759884
0.000349126
0.000576881
0.000362382
0.000387203
0.00037315
0.000193812
0.000385542
0.000387472
0.00312505
-2.11179e-13
0.00312505
-3.3338e-13
0.00312505
-1.11106e-12
0.00312505
-1.48347e-12
0.00312505
-6.3027e-12
0.00312505
-9.30945e-12
0.00312505
-3.85171e-11
0.00312505
-3.34523e-11
0.00312505
-1.76983e-10
0.00312505
-2.37211e-10
0.00312504
-9.762e-10
0.00312504
-7.403e-10
0.00312504
-3.58548e-09
0.00312504
-3.34808e-09
0.003125
-2.05185e-08
0.00312498
1.30291e-08
0.00312504
2.29035e-09
0.00312488
1.12259e-07
0.00312529
-1.14524e-07
0.00313113
-1.48875e-07
0.00313058
7.93845e-07
0.00314852
-1.17539e-06
0.00310585
1.1011e-05
0.00320536
1.29075e-05
0.00301532
8.79953e-05
0.00289725
0.00028946
0.00280875
0.000303668
0.00273677
0.000244317
0.0026771
0.000200653
0.00261468
0.000183618
0.00255333
0.000177576
0.0024886
0.000182815
0.00242334
0.000191746
0.00235484
0.000203155
0.00227858
0.000218284
0.00219138
0.000237832
0.00209391
0.000261708
0.00198882
0.000289818
0.0018753
0.000321745
0.00174967
0.000355925
0.00161123
0.000390247
0.0014628
0.000423466
0.00130632
0.000455134
0.00114088
0.000484573
0.000967534
0.000510919
0.000785059
0.000534172
0.00059497
0.000554019
0.000398409
0.00056972
0.000199382
0.000585572
0.000588625
0.00324116
-7.37917e-14
0.00324116
-1.76452e-13
0.00324116
-6.02956e-13
0.00324116
-1.05487e-12
0.00324116
-2.9315e-12
0.00324116
-6.78962e-12
0.00324116
-1.41433e-11
0.00324116
-2.78626e-11
0.00324116
-6.40411e-11
0.00324116
-6.01154e-11
0.00324116
-2.58953e-10
0.00324115
-5.01897e-10
0.00324115
-6.40483e-10
0.00324115
-2.52534e-10
0.00324113
9.724e-10
0.00324116
-1.73991e-08
0.00324108
2.75059e-08
0.00324147
-7.2028e-08
0.00324
4.14783e-07
0.00324391
3.68277e-07
0.00324656
1.58002e-06
0.00323858
6.3298e-06
0.0032074
4.98484e-06
0.00328513
4.63779e-05
0.00313038
8.03309e-05
0.00302022
0.000385072
0.00292481
0.00040957
0.00285228
0.000326743
0.00279581
0.000267077
0.00273553
0.000246853
0.00267462
0.000241035
0.00260799
0.000249973
0.0025389
0.000262968
0.0024653
0.000278896
0.00238312
0.000299818
0.00228956
0.000326771
0.00218554
0.00035957
0.00207393
0.000397994
0.00195385
0.000441413
0.00182145
0.000487631
0.00167596
0.000533777
0.00152042
0.000578243
0.00135685
0.000620551
0.00118431
0.000659897
0.00100385
0.000695272
0.000814122
0.000726457
0.000616715
0.000752977
0.000412863
0.000773559
0.000206645
0.000792822
0.00079714
0.00336158
-3.75474e-14
0.00336158
-7.0778e-14
0.00336158
-2.31099e-13
0.00336158
-4.24769e-13
0.00336158
-8.48404e-13
0.00336158
-1.77223e-12
0.00336158
-1.84037e-12
0.00336158
-8.35686e-12
0.00336158
9.36696e-12
0.00336158
-5.77433e-11
0.00336158
9.59163e-11
0.00336158
7.30288e-11
0.00336158
3.27658e-10
0.00336157
-8.70104e-11
0.00336164
-2.58322e-09
0.00336124
2.50613e-08
0.00336184
-2.40702e-08
0.00335982
3.6922e-08
0.00336203
-1.09909e-07
0.00336442
-5.53978e-08
0.00335422
1.16157e-06
0.00346157
-2.37831e-06
0.00337114
1.78761e-05
0.0036953
-1.02058e-05
0.00330173
0.000169155
0.00312336
0.000486091
0.00302835
0.00051139
0.00296494
0.000401228
0.0029142
0.000327212
0.00285866
0.000305588
0.00280101
0.000302128
0.00273595
0.000316821
0.00266613
0.000335693
0.00258905
0.000358127
0.00250106
0.00038668
0.00240022
0.000422461
0.00228811
0.00046508
0.00216813
0.000514249
0.00203978
0.000569251
0.00189916
0.000627456
0.00174551
0.00068525
0.001582
0.000740711
0.00141078
0.000793405
0.00123085
0.000842475
0.00104314
0.000886874
0.000846002
0.00092617
0.000640895
0.000959625
0.000429008
0.00098541
0.000215073
0.00100779
0.00101412
0.00348648
-1.18287e-14
0.00348648
-1.27544e-14
0.00348648
-1.43668e-13
0.00348648
-1.52406e-13
0.00348648
-1.56119e-13
0.00348648
-2.54691e-13
0.00348648
1.68335e-12
0.00348648
7.0519e-13
0.00348648
1.73251e-11
0.00348648
2.7167e-11
0.00348648
1.13991e-10
0.00348648
2.30788e-10
0.00348648
3.80092e-10
0.00348648
1.52429e-09
0.00348647
2.00809e-10
0.00348652
-2.7349e-09
0.00348645
-1.95164e-08
0.00348683
-2.54176e-09
0.00348614
-9.78452e-08
0.00348623
2.39171e-08
0.00349519
4.99217e-07
0.00349955
5.44426e-07
0.00344108
1.6443e-05
0.00353138
2.39132e-05
0.00336901
0.000166384
0.00324419
0.000572494
0.00316246
0.0006049
0.0031096
0.000468002
0.00306306
0.000384428
0.00300788
0.000365022
0.00294726
0.000366487
0.0028784
0.000388092
0.00280356
0.000413646
0.00272027
0.000443137
0.00262513
0.000479963
0.0025165
0.000525259
0.00239616
0.000578405
0.00226762
0.000638824
0.00213061
0.000705687
0.00198126
0.000775846
0.00181892
0.0008451
0.00164698
0.000911284
0.00146774
0.000974087
0.0012801
0.00103269
0.00108489
0.00108597
0.000880085
0.00113353
0.00066705
0.00117414
0.000446826
0.00120544
0.000224003
0.00123154
0.00124011
0.00361602
-2.34877e-14
0.00361602
-7.40639e-14
0.00361602
-3.22092e-14
0.00361602
-9.71959e-14
0.00361602
-7.75634e-14
0.00361602
-1.63084e-13
0.00361602
1.46798e-12
0.00361602
2.27402e-12
0.00361602
1.93505e-11
0.00361602
3.25111e-11
0.00361602
1.55403e-10
0.00361602
3.21873e-10
0.00361602
1.04974e-09
0.00361602
2.91743e-09
0.003616
7.32394e-09
0.00361605
-1.57531e-09
0.00361577
5.50729e-08
0.00361685
-5.22212e-08
0.00361545
2.01981e-07
0.00361546
7.98019e-07
0.00362587
6.9557e-07
0.00359013
-3.51916e-07
0.00357652
1.49223e-05
0.00365415
3.1237e-05
0.00349691
0.000186393
0.00339909
0.000656784
0.00332712
0.000703203
0.00327771
0.000537909
0.00322827
0.000442592
0.0031704
0.000426845
0.0031057
0.000434438
0.00303337
0.00046329
0.002954
0.000496372
0.00286428
0.000534203
0.00276104
0.000580668
0.00264329
0.00063676
0.00251308
0.00070131
0.00237431
0.000773406
0.00222714
0.000852017
0.00206811
0.000933672
0.0018966
0.00101381
0.00171598
0.00109022
0.00152844
0.00116284
0.00133269
0.00123087
0.00112951
0.00129292
0.000916665
0.00134888
0.000694958
0.00139733
0.000465894
0.00143433
0.000233907
0.00146454
0.00147581
0.00375038
-4.58162e-15
0.00375038
-2.47901e-14
0.00375038
-6.30657e-14
0.00375038
-1.60175e-13
0.00375038
-1.80772e-13
0.00375038
-4.07129e-13
0.00375038
5.09199e-13
0.00375038
1.53165e-13
0.00375038
1.62867e-11
0.00375038
2.29925e-11
0.00375038
1.39515e-10
0.00375038
3.40195e-10
0.00375037
9.56759e-10
0.00375039
8.95081e-10
0.00375038
4.74468e-09
0.00375041
1.78556e-08
0.00375042
2.76064e-08
0.00375003
2.11311e-08
0.00375181
4.29276e-07
0.00373711
3.95682e-07
0.00374113
2.72587e-06
0.00371977
5.32828e-06
0.00377229
1.28565e-05
0.00342117
2.34515e-05
0.00371443
0.000202443
0.00357336
0.000730247
0.00351374
0.000788553
0.00347207
0.000599297
0.00342428
0.000497672
0.00336503
0.000489401
0.00329688
0.00050571
0.00321932
0.000543629
0.00313175
0.000586716
0.00303105
0.000635669
0.00291513
0.00069361
0.00278405
0.000761363
0.00264048
0.00083744
0.00248876
0.000920745
0.00232944
0.00101018
0.00215932
0.00110214
0.00197795
0.00119191
0.00178851
0.00127756
0.00159277
0.00135945
0.00138892
0.00143678
0.00117753
0.00150802
0.000956273
0.00157263
0.000725887
0.00162902
0.000486679
0.0016734
0.000244177
0.00170798
0.00172174
0.00388972
-1.58036e-14
0.00388972
-2.87562e-14
0.00388972
-1.25296e-13
0.00388972
-2.74459e-13
0.00388972
-7.88776e-13
0.00388972
-1.43415e-12
0.00388972
-3.60432e-12
0.00388972
-6.12946e-12
0.00388972
-1.30799e-11
0.00388972
-2.19063e-11
0.00388972
1.21842e-11
0.00388972
-1.83156e-10
0.00388972
3.87922e-10
0.00388974
1.82878e-09
0.00388969
3.52471e-09
0.00388994
2.48447e-09
0.00388983
3.56004e-09
0.0038899
5.55624e-08
0.0038895
1.41544e-07
0.00389273
-2.01449e-07
0.00391021
3.39283e-06
0.00378071
2.50266e-06
0.00388064
1.7716e-05
0.00364276
4.24112e-05
0.00382575
0.000193304
0.00373953
0.000732365
0.00372804
0.000823702
0.0037071
0.00063804
0.00365905
0.000552016
0.00359477
0.000555822
0.00351695
0.000584105
0.00342803
0.000633167
0.00332589
0.000690243
0.00320859
0.000752723
0.00307605
0.000823043
0.00292937
0.000901921
0.00277158
0.000988244
0.00260686
0.00108125
0.0024356
0.00118015
0.00225451
0.00128115
0.00206318
0.0013794
0.00186493
0.00147337
0.00166104
0.00156395
0.00144929
0.00165031
0.0012296
0.0017313
0.000999063
0.00180549
0.000758822
0.00187068
0.000509822
0.00192217
0.000256145
0.00196236
0.00197963
0.00403424
-1.27621e-14
0.00403424
-1.38993e-14
0.00403424
-1.80182e-13
0.00403424
-3.46622e-13
0.00403424
-1.15319e-12
0.00403424
-2.26598e-12
0.00403424
-5.74188e-12
0.00403424
-9.28003e-12
0.00403424
-2.11634e-11
0.00403424
-4.14128e-11
0.00403424
-7.07008e-11
0.00403424
-2.06225e-10
0.00403424
1.99886e-10
0.00403423
-2.49143e-09
0.00403421
4.50134e-09
0.0040344
5.00002e-09
0.00403404
2.33541e-08
0.00403488
1.48441e-07
0.00403667
1.00952e-07
0.00402154
1.15823e-06
0.00406486
-3.43577e-07
0.00391901
1.43692e-06
0.00400986
1.33362e-05
0.00382897
3.5359e-05
0.00403395
0.000183447
0.00397884
0.000698967
0.00398385
0.000840964
0.00396234
0.000678532
0.00390168
0.00061434
0.00382466
0.000632207
0.00373108
0.000675159
0.003627
0.000736328
0.00350736
0.000810535
0.00337319
0.000886911
0.00322516
0.000968297
0.0030647
0.00105631
0.00289508
0.00115065
0.00272041
0.00125143
0.00254058
0.00135834
0.00235158
0.00146771
0.00215238
0.00157439
0.00194615
0.00167672
0.0017343
0.00177608
0.00151437
0.00187191
0.00128656
0.0019626
0.0010471
0.00204728
0.000796364
0.00212265
0.000534885
0.00218327
0.000268898
0.0022293
0.00225049
0.00418414
1.30826e-13
0.00418414
2.06581e-14
0.00418414
2.46764e-14
0.00418414
-7.33692e-13
0.00418414
-3.09497e-13
0.00418414
-4.16865e-12
0.00418414
-1.34141e-12
0.00418414
7.82941e-12
0.00418414
-2.8327e-11
0.00418414
-1.92115e-11
0.00418414
-2.83164e-10
0.00418413
-2.39215e-10
0.00418415
-2.11308e-09
0.00418406
-2.15806e-09
0.00418419
-1.1555e-08
0.00418384
-1.36633e-08
0.00418385
-2.75436e-08
0.00418469
-2.5467e-08
0.00418395
1.56475e-08
0.004195
-1.71174e-07
0.00417445
1.35496e-06
0.00424474
2.13567e-07
0.00419124
1.02401e-05
0.00395606
1.72603e-05
0.00424286
0.000150151
0.00421585
0.000613473
0.00425308
0.000813549
0.00421439
0.000725471
0.00412211
0.00070091
0.00401997
0.000728894
0.00390458
0.000784726
0.00378469
0.000856195
0.00365555
0.000943635
0.00351186
0.00103231
0.00335431
0.00112331
0.00318547
0.0012189
0.00300862
0.00131989
0.00282771
0.00142726
0.0026425
0.00154128
0.0024488
0.0016586
0.00224442
0.00177405
0.00203227
0.00188553
0.00181371
0.0019946
0.00158599
0.00210102
0.00134903
0.0022029
0.00109952
0.00229892
0.000837607
0.00238561
0.000564733
0.00245566
0.000284097
0.00251059
0.00253651
0.0043396
7.16763e-13
0.0043396
-8.30943e-13
0.0043396
1.29224e-12
0.0043396
-4.49066e-12
0.0043396
4.89983e-12
0.0043396
-1.52852e-11
0.0043396
2.03936e-11
0.0043396
-3.75728e-11
0.0043396
-1.17443e-11
0.0043396
-1.57138e-10
0.0043396
-3.83577e-10
0.0043396
-1.4029e-09
0.0043396
-2.4748e-09
0.0043396
-9.1337e-09
0.00433961
-1.58005e-08
0.00433962
-5.20685e-08
0.00433971
-7.64695e-08
0.00433978
-2.88873e-07
0.00434068
-3.25658e-07
0.00433834
-1.28995e-06
0.00434549
1.29107e-07
0.00431824
7.02462e-07
0.00433583
6.62737e-06
0.00416042
1.71875e-05
0.00441308
8.88704e-05
0.00446229
0.000460483
0.00449542
0.000778797
0.00439801
0.000817204
0.00427518
0.00081198
0.00415066
0.000848444
0.00402357
0.000911648
0.00389664
0.000988526
0.00376673
0.00108231
0.00362358
0.00118203
0.0034646
0.00128234
0.00329267
0.00138531
0.00311292
0.00149187
0.00292931
0.00160535
0.00274164
0.0017261
0.0025458
0.00185136
0.00233912
0.00197616
0.00212309
0.00209828
0.00189914
0.00221867
0.00166489
0.0023368
0.00141985
0.00245133
0.00116025
0.00256077
0.000885998
0.00266089
0.00059728
0.00274398
0.000301237
0.00280693
0.00283936
0.00450084
1.40587e-13
0.00450084
-4.17535e-13
0.00450084
-4.48771e-13
0.00450084
-4.44186e-12
0.00450084
-4.41483e-12
0.00450084
-3.33033e-11
0.00450084
-2.24111e-11
0.00450084
-2.52282e-10
0.00450084
8.49235e-12
0.00450084
-1.41923e-09
0.00450084
3.60661e-11
0.00450085
-7.49729e-09
0.00450084
2.55548e-10
0.00450087
-4.26081e-08
0.00450085
-3.57973e-09
0.00450107
-2.38394e-07
0.004501
-4.22186e-08
0.00450183
-1.25307e-06
0.00450291
-4.83272e-07
0.0045061
-6.08414e-06
0.00451308
-9.86261e-07
0.00448018
-2.56798e-06
0.00449719
1.08941e-06
0.00439596
1.34572e-05
0.00447656
8.96755e-05
0.00459502
0.000334516
0.00461892
0.000766037
0.00451863
0.000915393
0.00437081
0.000951504
0.00423269
0.000981838
0.00409921
0.00104637
0.00397136
0.00112425
0.00384541
0.00122164
0.00371077
0.00132879
0.00356039
0.00143779
0.0033919
0.00154828
0.00321292
0.00166368
0.00302847
0.00178442
0.00284042
0.00191125
0.00264469
0.00204383
0.00243809
0.00217806
0.00222113
0.00231181
0.00199342
0.00244633
0.00175278
0.00257873
0.00149924
0.0027081
0.00122926
0.00283329
0.0009416
0.00294945
0.000638486
0.00304659
0.00032225
0.00312354
0.00316308
0.00466806
-1.56261e-15
0.00466806
-9.57862e-14
0.00466806
-1.8942e-13
0.00466806
-1.22186e-12
0.00466806
-1.98865e-12
0.00466806
-1.04109e-11
0.00466806
-1.55851e-11
0.00466806
-8.35031e-11
0.00466806
-1.30143e-10
0.00466806
-4.77915e-10
0.00466806
-5.58752e-10
0.00466806
-2.68591e-09
0.00466805
-3.65923e-09
0.00466805
-1.50742e-08
0.00466801
-2.13686e-08
0.00466805
-9.16352e-08
0.0046677
-1.39628e-07
0.00466859
-6.45162e-07
0.00466802
-1.36239e-06
0.00467983
-5.673e-06
0.00465049
-3.52104e-06
0.00472941
-1.75676e-05
0.00470003
1.94351e-05
0.00463757
6.48606e-05
0.00460756
9.54881e-05
0.00459541
0.000318236
0.00455105
0.000807416
0.00447781
0.000984083
0.00438773
0.00103286
0.00428212
0.00108578
0.00416876
0.00116264
0.0040512
0.00125141
0.00392817
0.00135795
0.00379566
0.00147035
0.00365012
0.00158543
0.00348867
0.00170531
0.00331566
0.00182977
0.0031332
0.00196052
0.00294385
0.00209623
0.00274747
0.00223604
0.00254129
0.002379
0.00232518
0.00252495
0.00209691
0.00267399
0.00185347
0.00282346
0.00159278
0.00297199
0.00131227
0.00311587
0.00101032
0.00325235
0.000686458
0.00337017
0.00034842
0.00346164
0.00351303
0.00484151
5.33699e-16
0.00484151
1.90531e-13
0.00484151
4.00704e-13
0.00484151
1.30781e-12
0.00484151
2.36431e-12
0.00484151
6.53847e-12
0.00484151
1.14616e-11
0.00484151
3.08637e-11
0.00484151
5.14718e-11
0.00484151
1.50035e-10
0.00484151
2.58871e-10
0.0048415
8.52787e-10
0.0048415
1.29212e-09
0.00484148
4.80635e-09
0.00484144
8.34293e-09
0.00484134
2.93401e-08
0.0048411
5.73136e-08
0.00484047
1.56923e-07
0.00483871
3.49795e-07
0.00483353
4.10501e-07
0.00482845
1.84137e-06
0.00480249
5.50912e-06
0.00480614
1.61766e-05
0.00483037
4.14083e-05
0.00481479
0.00010535
0.00477483
0.00033644
0.00469108
0.000880378
0.00458451
0.00107961
0.00448783
0.00112153
0.00438476
0.00118767
0.0042725
0.00127588
0.00415504
0.00137515
0.00403023
0.00149153
0.0038945
0.0016102
0.00374827
0.00173082
0.00359115
0.00185779
0.00342271
0.0019909
0.00324701
0.00212987
0.00306156
0.0022769
0.00286469
0.00242731
0.00265842
0.00257918
0.00244236
0.00273712
0.00221314
0.00290199
0.00196753
0.00306939
0.00170254
0.0032401
0.00141219
0.00340887
0.00109496
0.00357055
0.000751515
0.00371378
0.00038286
0.00383089
0.00389748
0.00502139
-1.8055e-14
0.00502139
4.037e-13
0.00502139
7.92902e-13
0.00502139
2.99959e-12
0.00502139
5.25148e-12
0.00502139
1.75167e-11
0.00502139
3.0001e-11
0.00502139
9.86642e-11
0.00502139
1.6774e-10
0.00502139
5.5723e-10
0.00502139
9.3902e-10
0.00502139
3.21291e-09
0.00502139
5.19754e-09
0.00502137
1.78685e-08
0.00502134
3.71259e-08
0.00502126
1.08998e-07
0.00502113
1.8014e-07
0.00502063
6.71693e-07
0.00501978
1.16742e-06
0.00501647
3.98693e-06
0.00501262
5.81247e-06
0.00500514
1.37505e-05
0.00500028
2.08827e-05
0.00500081
3.98969e-05
0.00501523
8.8657e-05
0.00500559
0.000323549
0.00489334
0.000983145
0.00476446
0.00119891
0.00462769
0.00125228
0.00450907
0.00130605
0.00438903
0.00139735
0.00426704
0.00150264
0.00414011
0.0016257
0.00400269
0.00175015
0.00385566
0.00187569
0.00370024
0.00200831
0.00353562
0.0021485
0.00336378
0.00229517
0.00318529
0.00245032
0.0029939
0.0026132
0.00278971
0.00277703
0.00257719
0.00294539
0.00235075
0.00312646
0.00210529
0.00331478
0.00183783
0.00351109
0.00153982
0.00370931
0.00120712
0.00390464
0.00083584
0.0040848
0.000431783
0.00423489
0.00433081
0.00520796
-7.89061e-15
0.00520796
4.51059e-13
0.00520796
9.05102e-13
0.00520796
3.47949e-12
0.00520796
6.12962e-12
0.00520796
2.05308e-11
0.00520796
3.54503e-11
0.00520796
1.16129e-10
0.00520796
1.99949e-10
0.00520796
6.51111e-10
0.00520796
1.12296e-09
0.00520796
3.6342e-09
0.00520796
6.34277e-09
0.00520796
2.05726e-08
0.00520796
3.29235e-08
0.00520794
1.15003e-07
0.00520796
1.89516e-07
0.00520798
6.40808e-07
0.00520643
1.15855e-06
0.00521805
3.60798e-06
0.005206
5.50673e-06
0.00520792
1.17443e-05
0.00520977
1.77126e-05
0.00522046
2.62869e-05
0.00520273
0.000103727
0.00519372
0.000316196
0.00500982
0.00115475
0.00489058
0.00131409
0.00476855
0.00137403
0.00464735
0.00142988
0.004523
0.0015253
0.00439661
0.00163378
0.00426585
0.00176121
0.00412651
0.00189058
0.00398023
0.0020202
0.00382847
0.00215716
0.00366916
0.00230325
0.00350272
0.00245752
0.00333006
0.00262047
0.00314726
0.00279389
0.00294754
0.00297386
0.00273559
0.00315555
0.00251298
0.00334808
0.00227247
0.00355551
0.00200621
0.00378026
0.00170462
0.00401357
0.00135781
0.00425194
0.000961157
0.00448204
0.000504173
0.00469212
0.00483638
0.00540147
-1.54292e-14
0.00540147
4.33185e-13
0.00540147
8.58875e-13
0.00540147
3.31522e-12
0.00540147
5.8423e-12
0.00540147
1.96002e-11
0.00540147
3.38566e-11
0.00540147
1.11032e-10
0.00540147
1.9088e-10
0.00540147
6.19756e-10
0.00540147
1.06878e-09
0.00540147
3.45106e-09
0.00540147
6.0045e-09
0.00540146
1.94432e-08
0.00540147
3.06387e-08
0.00540146
1.06174e-07
0.0054015
1.74986e-07
0.00540153
5.82398e-07
0.00540055
1.0843e-06
0.00540873
3.07785e-06
0.00540161
5.05435e-06
0.00540172
1.04615e-05
0.00540267
1.57497e-05
0.00540668
2.18332e-05
0.0054059
0.000102743
0.00540276
0.00030798
0.00524048
0.00131183
0.00508228
0.00146495
0.00494797
0.00150709
0.00482115
0.00155876
0.00469296
0.00165728
0.00456281
0.00176792
0.00442829
0.00189858
0.00428463
0.00203312
0.00413396
0.00216746
0.00398126
0.00230636
0.00382679
0.00245635
0.00366689
0.00261621
0.0035019
0.00278513
0.00332924
0.00296622
0.0031436
0.00315909
0.00293849
0.00336078
0.00271857
0.00356969
0.00248382
0.0037923
0.00222905
0.00403803
0.00193025
0.00431512
0.00157531
0.00460923
0.00114676
0.00490985
0.000630698
0.00520857
0.00546854
0.00560216
-8.0334e-15
0.00560216
3.54048e-13
0.00560216
7.14107e-13
0.00560216
2.77299e-12
0.00560216
4.86689e-12
0.00560216
1.64057e-11
0.00560216
2.96453e-11
0.00560216
9.22169e-11
0.00560216
1.58219e-10
0.00560216
5.1181e-10
0.00560216
9.14429e-10
0.00560216
2.85676e-09
0.00560216
4.68967e-09
0.00560216
1.60068e-08
0.00560217
2.54624e-08
0.00560217
8.5605e-08
0.00560222
1.40844e-07
0.00560202
4.72199e-07
0.00560357
8.75688e-07
0.00559028
3.23841e-06
0.00559768
4.02272e-06
0.00560138
8.75464e-06
0.0056036
1.37431e-05
0.00560765
1.81476e-05
0.00560805
0.000100965
0.00561276
0.000293646
0.00549438
0.00142254
0.00532919
0.00162926
0.00517464
0.00165894
0.00503217
0.0017011
0.00489455
0.00179636
0.00475934
0.0019063
0.00462304
0.00203845
0.00448212
0.00217576
0.00433203
0.00231501
0.00417733
0.00245778
0.0040224
0.00261025
0.00386536
0.00277375
0.00370456
0.00294681
0.00353995
0.00313158
0.00336737
0.00333191
0.0031843
0.00354479
0.00298463
0.0037709
0.0027602
0.00402008
0.00250984
0.00429254
0.00223086
0.0045977
0.00188859
0.00495328
0.00145585
0.00534348
0.000869366
0.00579481
0.00633934
0.00581031
-7.61966e-15
0.00581031
2.65137e-13
0.00581031
5.3142e-13
0.00581031
2.11397e-12
0.00581031
3.52445e-12
0.00581031
1.49173e-11
0.00581031
1.68327e-11
0.00581031
6.62281e-11
0.00581031
1.13161e-10
0.00581031
3.4182e-10
0.00581031
5.83974e-10
0.00581031
1.80934e-09
0.00581029
3.51362e-09
0.00581033
9.60021e-09
0.00581024
1.7062e-08
0.00581033
5.17106e-08
0.00581044
9.59923e-08
0.0058106
2.44639e-07
0.00581081
6.55142e-07
0.00581179
1.85613e-06
0.00581267
3.09051e-06
0.00581355
6.65196e-06
0.00581488
1.1708e-05
0.00581911
1.45373e-05
0.00582395
9.45417e-05
0.0058309
0.000278836
0.00575714
0.00148406
0.00560389
0.00178105
0.00543508
0.00182694
0.00528
0.00185379
0.00513275
0.00194258
0.00498892
0.00204905
0.00484659
0.00218014
0.00470442
0.00231662
0.00455932
0.00245622
0.00440968
0.00260195
0.00425939
0.00275692
0.00410814
0.00292387
0.00395424
0.00310061
0.00379898
0.00328815
0.00364466
0.00348791
0.00348129
0.00370978
0.00329815
0.00395611
0.00310143
0.00421932
0.00288834
0.0045098
0.00264862
0.00484268
0.00236024
0.00524503
0.00196885
0.00573564
0.0013881
0.00637665
0.00772956
0.00840003
-1.68538e-14
0.00840003
1.09469e-13
0.00840003
1.25798e-13
0.00840003
6.8591e-13
0.00840003
1.00411e-12
0.00840003
2.46372e-12
0.00840003
7.58692e-12
0.00840003
2.44992e-11
0.00840003
3.19052e-11
0.00840003
1.49965e-10
0.00840003
1.928e-10
0.00840003
8.3383e-10
0.00840004
1.2474e-09
0.00840003
4.95618e-09
0.00840004
7.87943e-09
0.00840005
2.87781e-08
0.00840009
5.56271e-08
0.00840009
1.84462e-07
0.00840031
3.36555e-07
0.00840113
8.18357e-07
0.00840374
6.31919e-07
0.00840628
3.28491e-06
0.00840875
8.88715e-06
0.00843203
4.87723e-06
0.00845056
6.34091e-05
0.00843339
0.000286532
0.00851526
0.00137765
0.00829965
0.00198953
0.00801251
0.00210739
0.00775137
0.00210712
0.0075218
0.00216757
0.00730778
0.00225836
0.00710777
0.00237863
0.0069147
0.00250907
0.00672358
0.00264307
0.00653423
0.00278342
0.00634935
0.00293455
0.00616983
0.00309832
0.00599708
0.00327065
0.00582731
0.00345728
0.0056503
0.00366524
0.00546948
0.00389206
0.00529412
0.00413309
0.00511818
0.00439904
0.00494019
0.00469215
0.0047834
0.00500496
0.00467467
0.00535958
0.00469018
0.00572219
0.00508675
0.00598024
0.00559063
0.00722862
0.00840003
-2.43144e-14
0.00840003
-2.65383e-14
0.00840003
-2.25369e-13
0.00840003
-2.47544e-13
0.00840003
-1.47536e-12
0.00840003
-2.53336e-12
0.00840003
-8.97792e-12
0.00840003
-1.26249e-11
0.00840003
-4.80057e-11
0.00840003
-6.37661e-11
0.00840003
-2.54942e-10
0.00840003
-2.78164e-10
0.00840003
-1.37982e-09
0.00840004
-1.38573e-09
0.00840005
-8.41623e-09
0.00840014
-1.22448e-08
0.00840031
-6.59024e-08
0.00840086
-6.24287e-08
0.00840211
-3.55079e-07
0.00840718
-6.94432e-07
0.00842628
-1.50652e-06
0.00839274
-5.87872e-06
0.00846453
-9.68657e-06
0.00901461
-2.23069e-05
0.00854271
6.25216e-05
0.00872492
0.000114997
0.00841384
0.00159488
0.00810538
0.00227379
0.00781438
0.00238934
0.00757941
0.00234258
0.00737207
0.0023729
0.00719662
0.00243641
0.00704061
0.00254238
0.0068949
0.00266616
0.00675186
0.00279165
0.00660902
0.00292417
0.00647467
0.00306363
0.00635312
0.00321405
0.00623436
0.00338429
0.0061169
0.00357012
0.00601414
0.00376695
0.00592505
0.00398074
0.0058424
0.00421589
0.00578511
0.00445791
0.00576105
0.00472187
0.005789
0.00498452
0.00594467
0.00521126
0.00629079
0.00538211
0.00690283
0.00537101
0.00485403
0.00764239
0.00840003
-3.04576e-14
0.00840003
-5.50828e-14
0.00840003
-1.23783e-13
0.00840003
-2.43614e-13
0.00840003
-5.77635e-13
0.00840003
-9.02178e-13
0.00840003
-3.45259e-12
0.00840003
-6.67365e-12
0.00840003
-2.1064e-11
0.00840003
-4.4406e-11
0.00840003
-1.20683e-10
0.00840003
-3.03824e-10
0.00840002
-8.30892e-10
0.00840004
-1.64923e-09
0.00839996
-5.28287e-09
0.00839996
-4.75492e-09
0.00839953
-1.53982e-08
0.00839879
-7.64949e-08
0.00839927
-1.91951e-07
0.00839287
-1.87827e-07
0.00842181
-2.50701e-06
0.00831299
2.07293e-07
0.00841857
-5.4498e-06
0.00870849
-2.37036e-05
0.0084595
0.00010364
0.00883125
0.000151981
0.00859659
0.00141123
0.00823819
0.00257334
0.00794275
0.0026764
0.00765065
0.00262196
0.00741946
0.00259438
0.00722576
0.00261412
0.00707392
0.00269668
0.00694984
0.00281024
0.00683293
0.0029263
0.00672248
0.00304706
0.00661895
0.0031715
0.00652365
0.00330762
0.00644283
0.00346035
0.00638753
0.00362248
0.00634967
0.00380115
0.00634063
0.00399004
0.00635833
0.00419712
0.00640511
0.00440899
0.00651568
0.00461312
0.00668572
0.00482171
0.00694207
0.00496306
0.00730905
0.00502395
0.0077378
0.00494896
0.00447861
0.00811796
0.00840003
5.40796e-15
0.00840003
1.35605e-14
0.00840003
7.63077e-14
0.00840003
1.47204e-13
0.00840003
4.94726e-13
0.00840003
4.2148e-13
0.00840003
2.38988e-12
0.00840003
5.29142e-12
0.00840003
1.2722e-11
0.00840003
1.86418e-11
0.00840003
2.78517e-11
0.00840002
1.38082e-10
0.00840003
9.86249e-12
0.00840003
-4.66085e-10
0.00839997
5.47452e-10
0.0084002
-3.78854e-09
0.00839996
8.34977e-09
0.00840052
-2.29531e-08
0.00840017
6.59432e-09
0.0083995
-5.20009e-08
0.008402
-2.66435e-07
0.00838984
-1.72347e-07
0.00838548
3.42475e-06
0.00846069
-1.01553e-06
0.00832714
6.60804e-05
0.00853836
0.000131493
0.00878973
0.000856411
0.00871106
0.00276179
0.00830945
0.00309979
0.0079751
0.00294968
0.0077622
0.00279074
0.00754537
0.0028216
0.00738289
0.00285779
0.00725292
0.00295432
0.00713982
0.00305832
0.00703974
0.00316456
0.0069408
0.00328278
0.00684493
0.00340909
0.00677062
0.00353839
0.0067246
0.00367302
0.00671169
0.0038183
0.00673492
0.00397031
0.0068048
0.00412998
0.00691568
0.00429502
0.0070839
0.00444145
0.0073235
0.00458311
0.00761685
0.00467381
0.00796274
0.00468573
0.00831522
0.00460492
0.00425646
0.00854473
0.00840003
5.75436e-14
0.00840003
2.50236e-14
0.00840003
3.00399e-13
0.00840003
4.93599e-13
0.00840003
9.78453e-13
0.00840003
3.43987e-13
0.00840003
7.23401e-12
0.00840003
1.08824e-11
0.00840003
2.94816e-11
0.00840003
6.67608e-12
0.00840003
1.85946e-10
0.00840003
3.16633e-10
0.00840003
3.09105e-10
0.00840003
-1.15256e-09
0.00840002
3.77785e-09
0.00840005
-1.04773e-08
0.00840001
1.8813e-08
0.00840021
-5.88426e-08
0.00839921
1.02081e-07
0.00840287
-3.1042e-07
0.00840019
3.91803e-07
0.00836934
-1.562e-06
0.00846192
6.39548e-06
0.00814221
5.28411e-06
0.00835982
6.07951e-05
0.00769902
0.000109405
0.00879115
0.000636849
0.00917005
0.00215631
0.00895314
0.00330157
0.00871422
0.00318705
0.00837694
0.0031201
0.00813767
0.0030493
0.0079267
0.00306067
0.00776495
0.00311477
0.00762705
0.00319489
0.00750325
0.00328934
0.00739971
0.00339036
0.00731836
0.00349487
0.0072574
0.00360469
0.00721508
0.00372343
0.00719848
0.00384537
0.00721534
0.00396596
0.00727413
0.00408371
0.00738327
0.00419575
0.00754221
0.00428873
0.00776624
0.00436152
0.0080406
0.00440316
0.00834645
0.00438503
0.00865753
0.00430099
0.00405239
0.00886911
0.00840003
4.18938e-15
0.00840003
7.8432e-15
0.00840003
3.55255e-14
0.00840003
-1.40531e-13
0.00840003
8.43097e-13
0.00840003
1.31825e-12
0.00840003
3.28865e-12
0.00840003
-7.58217e-13
0.00840003
2.6734e-11
0.00840003
4.70732e-11
0.00840003
1.33549e-10
0.00840003
-1.80271e-11
0.00840003
1.3823e-09
0.00840002
2.82008e-09
0.00840002
5.57783e-09
0.00839998
1.88419e-08
0.00839998
3.35515e-08
0.00839976
1.11489e-07
0.00839968
1.92941e-07
0.00839853
6.52831e-07
0.00839741
1.33341e-06
0.00839113
3.97865e-06
0.00839377
4.24205e-06
0.00838077
1.01679e-05
0.00839848
3.21573e-05
0.0084696
-7.3858e-06
0.0087316
0.000399703
0.00979318
0.000992701
0.00992561
0.00316132
0.00946307
0.00366166
0.00910633
0.00348698
0.00885848
0.00329705
0.00863818
0.00327613
0.00843353
0.00331323
0.00824725
0.00337447
0.00808611
0.00344403
0.00795687
0.00351381
0.00785759
0.00359001
0.00778648
0.00367477