/*--------------------------------*- C++ -*----------------------------------*\
| =========                 |                                                 |
| \\      /  F ield         | OpenFOAM: The Open Source CFD Toolbox           |
|  \\    /   O peration     | Version:  2412                                  |
|   \\  /    A nd           | Website:  www.openfoam.com                      |
|    \\/     M anipulation  |                                                 |
\*---------------------------------------------------------------------------*/
FoamFile
{
    version     2.0;
    format      ascii;
    arch        "LSB;label=32;scalar=64";
    class       volVectorField;
    location    "2.5";
    object      U;
}
// * * * * * * * * * * * * * * * * * * * * * * * * * * * * * * * * * * * * * //

dimensions      [0 1 -1 0 0 0 0];

internalField   nonuniform List<vector> 
7000
(
(3 1.55506e-10 0)
(3 -6.86192e-11 0)
(3 7.53698e-10 0)
(3 -4.6387e-10 0)
(3 3.32417e-09 0)
(3 -1.72978e-09 0)
(3 2.89788e-08 0)
(3 -1.6654e-08 0)
(3 1.22517e-07 0)
(3 -5.92868e-08 0)
(3 9.65794e-07 0)
(2.99999 -5.76172e-07 0)
(2.99999 3.6888e-06 0)
(2.99996 -1.93094e-06 0)
(2.99993 3.62555e-05 0)
(2.99978 -2.38696e-05 0)
(2.99961 3.7015e-05 0)
(2.99866 2.08757e-05 0)
(2.99766 5.64689e-05 0)
(2.99163 0.000288375 0)
(2.98607 0.000203914 0)
(2.93833 0.000409521 0)
(2.89497 0.000547791 0)
(2.57881 -0.00261985 0)
(1.56108 0.00507358 0)
(0.870294 0.0085551 0)
(0.577442 0.00763675 0)
(0.619849 0.00657497 0)
(0.665406 0.0057193 0)
(0.674903 0.00540243 0)
(0.659685 0.00536835 0)
(0.63049 0.00553213 0)
(0.600584 0.00564396 0)
(0.577151 0.00566105 0)
(0.556622 0.00567562 0)
(0.535379 0.00581583 0)
(0.512104 0.00617828 0)
(0.486664 0.00679899 0)
(0.459134 0.00765391 0)
(0.429406 0.00867596 0)
(0.397177 0.00977671 0)
(0.362281 0.01087 0)
(0.324956 0.0118916 0)
(0.285569 0.0128122 0)
(0.244659 0.0136356 0)
(0.202582 0.014415 0)
(0.159865 0.0151829 0)
(0.116367 0.0159921 0)
(0.0686624 0.0171849 0)
(0.028726 0.0176331 0)
(3 -3.58392e-11 0)
(3 -7.72597e-11 0)
(3 -2.84071e-10 0)
(3 -4.92253e-10 0)
(3 -1.46429e-09 0)
(3 -2.61663e-09 0)
(3 -7.35539e-09 0)
(3 -1.98277e-08 0)
(3 -4.11758e-08 0)
(3 -7.4011e-08 0)
(3 -2.063e-07 0)
(3 -5.56598e-07 0)
(2.99999 -1.13399e-06 0)
(2.99998 -1.90019e-06 0)
(2.99992 -4.04771e-06 0)
(2.99978 -3.43482e-06 0)
(2.99964 7.24512e-07 0)
(2.99867 1.36656e-05 0)
(2.99782 0.000189042 0)
(2.99172 0.00024035 0)
(2.98615 0.000714692 0)
(2.93856 0.00153345 0)
(2.89313 0.000563662 0)
(2.58062 -0.00434165 0)
(1.56632 0.0136084 0)
(0.869308 0.0268369 0)
(0.573778 0.0236237 0)
(0.618957 0.018939 0)
(0.666605 0.0153663 0)
(0.677588 0.0138454 0)
(0.663793 0.0132972 0)
(0.636261 0.0136352 0)
(0.607951 0.0142323 0)
(0.585594 0.0149469 0)
(0.565314 0.0158545 0)
(0.543433 0.0170439 0)
(0.518803 0.0185611 0)
(0.491596 0.0204017 0)
(0.462239 0.0225107 0)
(0.430907 0.0247931 0)
(0.397454 0.027129 0)
(0.361738 0.029391 0)
(0.323918 0.031466 0)
(0.284234 0.0332804 0)
(0.243121 0.0347985 0)
(0.20087 0.0360839 0)
(0.157997 0.0371672 0)
(0.114504 0.0381088 0)
(0.0670693 0.0393758 0)
(0.0282883 0.039545 0)
(3 -2.41497e-10 0)
(3 -1.04993e-10 0)
(3 -1.30944e-09 0)
(3 -4.72447e-10 0)
(3 -6.52463e-09 0)
(3 -3.51201e-09 0)
(3 -4.55963e-08 0)
(3 -1.21101e-08 0)
(3 -2.09329e-07 0)
(3 -8.57802e-08 0)
(3 -1.3621e-06 0)
(2.99999 -1.62196e-07 0)
(2.99999 -5.39856e-06 0)
(2.99996 -9.60296e-07 0)
(2.99993 -4.03497e-05 0)
(2.99978 2.53584e-05 0)
(2.99962 -2.15329e-05 0)
(2.99877 4.75348e-05 0)
(2.99779 5.72626e-05 0)
(2.99195 -0.000109453 0)
(2.98685 0.000466505 0)
(2.93802 -0.000231578 0)
(2.89145 0.00309814 0)
(2.57844 0.0026019 0)
(1.5739 0.0238221 0)
(0.880239 0.0457963 0)
(0.579631 0.0391154 0)
(0.624163 0.0313597 0)
(0.671456 0.025963 0)
(0.681773 0.0237333 0)
(0.666901 0.0227838 0)
(0.638284 0.0232432 0)
(0.608909 0.0241898 0)
(0.585848 0.025494 0)
(0.565297 0.0272776 0)
(0.543478 0.0295993 0)
(0.51908 0.0324411 0)
(0.492112 0.0357427 0)
(0.46288 0.039401 0)
(0.431518 0.0432765 0)
(0.397909 0.0472068 0)
(0.361977 0.0510172 0)
(0.323943 0.0545431 0)
(0.284067 0.0576684 0)
(0.242792 0.0603326 0)
(0.200389 0.0626023 0)
(0.157351 0.0645314 0)
(0.113825 0.0662049 0)
(0.0664025 0.068088 0)
(0.0280456 0.0685063 0)
(3 -7.14421e-11 0)
(3 -1.45935e-10 0)
(3 -4.55138e-10 0)
(3 -7.66452e-10 0)
(3 -2.61108e-09 0)
(3 -4.78641e-09 0)
(3 -1.3785e-08 0)
(3 -1.70187e-08 0)
(3 -6.41442e-08 0)
(3 -8.74744e-08 0)
(3 -2.67583e-07 0)
(2.99999 -3.51939e-07 0)
(2.99999 -7.77067e-07 0)
(2.99996 -7.72663e-07 0)
(2.99993 3.73687e-07 0)
(2.99979 -2.67547e-06 0)
(2.99965 1.76719e-05 0)
(2.99871 2.33179e-05 0)
(2.99772 6.45375e-05 0)
(2.99197 0.000125596 0)
(2.98605 0.000760297 0)
(2.94005 0.00146305 0)
(2.89495 0.00375117 0)
(2.58655 0.0171597 0)
(1.59465 0.0277985 0)
(0.895714 0.0634214 0)
(0.580806 0.053538 0)
(0.625206 0.0432077 0)
(0.674624 0.0364747 0)
(0.686816 0.0340192 0)
(0.6731 0.0330542 0)
(0.645065 0.0338454 0)
(0.615468 0.0350958 0)
(0.591816 0.0367768 0)
(0.570545 0.0391741 0)
(0.547983 0.0424226 0)
(0.522877 0.0464952 0)
(0.495265 0.0512713 0)
(0.465452 0.05656 0)
(0.433561 0.0621265 0)
(0.399476 0.0677267 0)
(0.363134 0.073123 0)
(0.32477 0.0781058 0)
(0.284639 0.0825352 0)
(0.243178 0.0863506 0)
(0.200628 0.0896172 0)
(0.157429 0.0924089 0)
(0.113852 0.0948126 0)
(0.0663205 0.097262 0)
(0.0279696 0.0980277 0)
(3 -3.18903e-11 0)
(3 -6.83997e-11 0)
(3 -2.391e-10 0)
(3 -4.23467e-10 0)
(3 -1.06119e-09 0)
(3 -2.37817e-09 0)
(3 -4.21375e-09 0)
(3 -9.95719e-09 0)
(3 -1.14938e-08 0)
(3 -2.87608e-08 0)
(3 -2.65441e-08 0)
(2.99999 -9.24418e-08 0)
(2.99999 -2.88001e-09 0)
(2.99996 1.63609e-08 0)
(2.99993 -4.03321e-07 0)
(2.99979 2.05107e-06 0)
(2.99964 8.08986e-07 0)
(2.9988 -2.33453e-05 0)
(2.99786 0.000112482 0)
(2.99241 5.56269e-05 0)
(2.98775 0.000859154 0)
(2.93963 0.00121495 0)
(2.90183 0.00519294 0)
(2.59537 0.00878566 0)
(1.61414 0.0406817 0)
(0.90786 0.0835803 0)
(0.575747 0.069773 0)
(0.622752 0.0555685 0)
(0.675876 0.0465249 0)
(0.690939 0.0435583 0)
(0.679109 0.0426293 0)
(0.652423 0.0440423 0)
(0.623282 0.0459727 0)
(0.599614 0.0484611 0)
(0.577955 0.0518709 0)
(0.554675 0.0563365 0)
(0.528635 0.0617965 0)
(0.500017 0.0680939 0)
(0.46924 0.0749925 0)
(0.436499 0.0822031 0)
(0.401709 0.0894195 0)
(0.364812 0.0963478 0)
(0.326038 0.102733 0)
(0.285619 0.108412 0)
(0.24396 0.113329 0)
(0.201265 0.117549 0)
(0.157898 0.121158 0)
(0.114237 0.124236 0)
(0.0665302 0.127157 0)
(0.0279894 0.128229 0)
(3 -1.37146e-11 0)
(3 -1.80678e-11 0)
(3 -9.52912e-11 0)
(3 -1.37991e-10 0)
(3 -2.08879e-10 0)
(3 -2.54383e-10 0)
(3 8.66345e-10 0)
(3 -9.31957e-10 0)
(3 1.27246e-08 0)
(3 -2.55126e-09 0)
(3 8.48564e-08 0)
(2.99999 1.38763e-07 0)
(2.99999 2.55824e-07 0)
(2.99996 3.28034e-07 0)
(2.99994 -1.19805e-06 0)
(2.99979 6.75882e-06 0)
(2.99964 -1.73214e-05 0)
(2.99879 7.75849e-06 0)
(2.99777 -8.47301e-05 0)
(2.99246 -0.000131375 0)
(2.98678 0.000205817 0)
(2.94295 -0.00102996 0)
(2.9003 0.00945242 0)
(2.60229 0.00370501 0)
(1.64524 0.0568297 0)
(0.924479 0.104274 0)
(0.57453 0.0849502 0)
(0.624954 0.0663445 0)
(0.682406 0.055487 0)
(0.700035 0.0526856 0)
(0.689021 0.0523557 0)
(0.662402 0.054767 0)
(0.632514 0.057609 0)
(0.608096 0.0610726 0)
(0.585734 0.0656383 0)
(0.561672 0.0714359 0)
(0.534737 0.0783645 0)
(0.505157 0.0862272 0)
(0.473427 0.0947485 0)
(0.439814 0.103591 0)
(0.404284 0.112401 0)
(0.366809 0.120835 0)
(0.327615 0.128599 0)
(0.286905 0.135507 0)
(0.245045 0.141515 0)
(0.202193 0.146693 0)
(0.15864 0.151135 0)
(0.114855 0.154905 0)
(0.0669079 0.158305 0)
(0.0280353 0.159705 0)
(3 -1.00878e-11 0)
(3 -2.20467e-11 0)
(3 -4.58645e-11 0)
(3 -6.35155e-11 0)
(3 -3.9551e-11 0)
(3 -7.89122e-11 0)
(3 9.76575e-10 0)
(3 1.52923e-09 0)
(3 1.12198e-08 0)
(3 1.86949e-08 0)
(3 7.81692e-08 0)
(2.99999 1.55426e-07 0)
(2.99999 3.83711e-07 0)
(2.99996 1.33043e-06 0)
(2.99993 2.04797e-06 0)
(2.99978 -3.27105e-06 0)
(2.99964 6.84946e-06 0)
(2.99876 -9.98599e-06 0)
(2.99777 -3.87893e-06 0)
(2.99261 0.000217455 0)
(2.98716 0.000276342 0)
(2.94642 -0.000105908 0)
(2.90571 0.00846906 0)
(2.61809 0.0175075 0)
(1.69041 0.0619948 0)
(0.955617 0.122615 0)
(0.577383 0.0987189 0)
(0.629423 0.0760816 0)
(0.691127 0.0641068 0)
(0.711093 0.0621263 0)
(0.700679 0.0627509 0)
(0.674145 0.0662234 0)
(0.643533 0.0699908 0)
(0.618385 0.0744756 0)
(0.59522 0.0803065 0)
(0.570146 0.0875908 0)
(0.542017 0.096143 0)
(0.511184 0.105687 0)
(0.478262 0.115888 0)
(0.443607 0.126362 0)
(0.407243 0.136727 0)
(0.369153 0.146619 0)
(0.329534 0.155725 0)
(0.288537 0.163856 0)
(0.246469 0.17096 0)
(0.203436 0.177137 0)
(0.159655 0.182477 0)
(0.115684 0.187004 0)
(0.067443 0.19094 0)
(0.0281399 0.192713 0)
(3 -7.0479e-12 0)
(3 -2.66837e-11 0)
(3 -2.2094e-11 0)
(3 -6.918e-11 0)
(3 -4.53549e-11 0)
(3 -1.04505e-10 0)
(3 8.50007e-10 0)
(3 1.2146e-09 0)
(3 1.20265e-08 0)
(3 1.98008e-08 0)
(3 9.7457e-08 0)
(2.99999 2.26915e-07 0)
(2.99999 6.85668e-07 0)
(2.99996 1.0119e-06 0)
(2.99993 3.95863e-06 0)
(2.99979 6.0384e-06 0)
(2.99963 3.08685e-05 0)
(2.99878 -7.22048e-06 0)
(2.99793 0.000212708 0)
(2.99265 0.000369529 0)
(2.9865 0.00104892 0)
(2.94871 0.00147007 0)
(2.91377 0.00768969 0)
(2.62858 0.0136547 0)
(1.73783 0.0701445 0)
(0.990602 0.144045 0)
(0.580272 0.113445 0)
(0.635646 0.086424 0)
(0.703536 0.0731977 0)
(0.727041 0.0720335 0)
(0.717671 0.0737064 0)
(0.691217 0.0783582 0)
(0.659379 0.0833313 0)
(0.63271 0.0891865 0)
(0.607835 0.096571 0)
(0.580866 0.10553 0)
(0.550803 0.11579 0)
(0.518179 0.127012 0)
(0.483724 0.138815 0)
(0.447848 0.150799 0)
(0.410579 0.162585 0)
(0.371868 0.173818 0)
(0.331849 0.184189 0)
(0.290581 0.193516 0)
(0.248306 0.201736 0)
(0.205078 0.208956 0)
(0.161013 0.215254 0)
(0.116778 0.220631 0)
(0.0681373 0.225199 0)
(0.0282819 0.227428 0)
(3 -4.44748e-12 0)
(3 -1.28627e-11 0)
(3 -5.41169e-11 0)
(3 -1.25486e-10 0)
(3 -2.70707e-10 0)
(3 -5.09106e-10 0)
(3 -7.13575e-10 0)
(3 -1.40968e-09 0)
(3 1.40943e-09 0)
(3 1.33516e-09 0)
(3 4.1968e-08 0)
(2.99999 4.06697e-08 0)
(2.99999 3.42787e-07 0)
(2.99996 7.35168e-07 0)
(2.99994 2.34682e-06 0)
(2.9998 4.17751e-06 0)
(2.99963 5.28029e-06 0)
(2.99889 1.03268e-05 0)
(2.99805 0.000147691 0)
(2.99323 1.21496e-06 0)
(2.98802 0.00179896 0)
(2.95092 0.00275388 0)
(2.91527 0.0088935 0)
(2.64177 0.0163315 0)
(1.79586 0.0727107 0)
(1.02363 0.157972 0)
(0.582026 0.122253 0)
(0.645282 0.0936134 0)
(0.720862 0.0813469 0)
(0.748225 0.0818691 0)
(0.739327 0.0851553 0)
(0.712008 0.0914161 0)
(0.677812 0.0981919 0)
(0.648544 0.10591 0)
(0.621096 0.115144 0)
(0.591666 0.12586 0)
(0.559396 0.137757 0)
(0.524943 0.150499 0)
(0.489064 0.163717 0)
(0.452137 0.177024 0)
(0.414137 0.190072 0)
(0.374946 0.202525 0)
(0.334625 0.21409 0)
(0.293138 0.224584 0)
(0.25066 0.233961 0)
(0.2072 0.242298 0)
(0.162785 0.249655 0)
(0.118191 0.255976 0)
(0.0690754 0.261263 0)
(0.028538 0.264014 0)
(3 -8.80543e-12 0)
(3 -1.7198e-11 0)
(3 -9.42464e-11 0)
(3 -1.90336e-10 0)
(3 -5.92579e-10 0)
(3 -1.11202e-09 0)
(3 -2.78258e-09 0)
(3 -4.8728e-09 0)
(3 -1.08146e-08 0)
(3 -2.04064e-08 0)
(3 -1.85573e-08 0)
(2.99999 -1.29817e-07 0)
(2.99999 2.21853e-07 0)
(2.99996 -5.79746e-09 0)
(2.99994 3.4259e-06 0)
(2.9998 3.57016e-06 0)
(2.99964 1.14904e-05 0)
(2.99889 6.87643e-05 0)
(2.99792 5.44994e-05 0)
(2.99394 0.000262613 0)
(2.98861 0.000812517 0)
(2.95403 0.000686277 0)
(2.92438 0.0084223 0)
(2.66348 0.0232216 0)
(1.8687 0.0720513 0)
(1.07615 0.160766 0)
(0.590037 0.125499 0)
(0.656984 0.0988092 0)
(0.739314 0.0897634 0)
(0.769158 0.0928831 0)
(0.759262 0.0984745 0)
(0.729954 0.106718 0)
(0.692686 0.115871 0)
(0.660543 0.125696 0)
(0.630705 0.13671 0)
(0.599311 0.148917 0)
(0.565517 0.162113 0)
(0.529976 0.17605 0)
(0.493371 0.190419 0)
(0.455981 0.204861 0)
(0.417702 0.219051 0)
(0.378351 0.232672 0)
(0.337923 0.245435 0)
(0.296325 0.257148 0)
(0.253677 0.267759 0)
(0.209962 0.27731 0)
(0.165126 0.285842 0)
(0.12003 0.293265 0)
(0.0702539 0.299417 0)
(0.0288783 0.302756 0)
(3 -3.72986e-12 0)
(3 2.23395e-11 0)
(3 -1.38452e-10 0)
(3 -1.59014e-10 0)
(3 -8.86291e-10 0)
(3 -1.82227e-09 0)
(3 -5.29772e-09 0)
(3 -3.50748e-09 0)
(3 -2.55242e-08 0)
(3 -3.60911e-08 0)
(3 -1.30579e-07 0)
(2.99999 -1.79131e-07 0)
(2.99999 -5.20478e-07 0)
(2.99997 -1.54309e-06 0)
(2.99994 -1.88965e-06 0)
(2.99981 -1.39543e-06 0)
(2.99968 4.5874e-07 0)
(2.99893 4.14117e-05 0)
(2.99821 4.92913e-05 0)
(2.99383 0.000322528 0)
(2.98834 0.000321414 0)
(2.95706 0.000275333 0)
(2.93292 0.00654346 0)
(2.68543 0.014804 0)
(1.94174 0.065533 0)
(1.12507 0.156848 0)
(0.596854 0.125359 0)
(0.668205 0.104502 0)
(0.755024 0.100466 0)
(0.784581 0.106684 0)
(0.77159 0.114875 0)
(0.73966 0.125003 0)
(0.699873 0.136334 0)
(0.665881 0.148016 0)
(0.634999 0.160494 0)
(0.602974 0.173888 0)
(0.568824 0.188125 0)
(0.533162 0.203072 0)
(0.496605 0.218466 0)
(0.459362 0.233978 0)
(0.421281 0.249297 0)
(0.38213 0.26413 0)
(0.341846 0.278182 0)
(0.30028 0.291251 0)
(0.257508 0.303259 0)
(0.213501 0.314211 0)
(0.168169 0.324103 0)
(0.122452 0.332777 0)
(0.0718515 0.339954 0)
(0.0293904 0.343986 0)
(3 2.71792e-10 0)
(3 -1.92724e-10 0)
(3 4.77271e-10 0)
(3 -1.35449e-09 0)
(3 1.93758e-09 0)
(3 -4.6213e-09 0)
(3 9.85399e-09 0)
(3 9.72263e-09 0)
(3 6.80599e-09 0)
(3 4.27327e-08 0)
(3 -1.31395e-07 0)
(2.99999 -7.1134e-08 0)
(2.99999 -1.23023e-06 0)
(2.99996 -1.324e-06 0)
(2.99994 -7.50249e-06 0)
(2.9998 -9.83229e-06 0)
(2.99967 -2.59152e-05 0)
(2.99893 -4.49467e-05 0)
(2.99815 -2.97056e-05 0)
(2.99417 -0.000147923 0)
(2.98858 0.000715146 0)
(2.95918 0.00061223 0)
(2.93639 0.00542878 0)
(2.70209 0.0111401 0)
(2.01708 0.0462872 0)
(1.17656 0.13305 0)
(0.603806 0.117076 0)
(0.673257 0.112333 0)
(0.760703 0.115349 0)
(0.788275 0.124221 0)
(0.772355 0.134412 0)
(0.739049 0.145847 0)
(0.698602 0.158518 0)
(0.664516 0.171704 0)
(0.63417 0.185455 0)
(0.602877 0.199959 0)
(0.569508 0.21514 0)
(0.534651 0.231046 0)
(0.498877 0.247463 0)
(0.46236 0.264088 0)
(0.424938 0.280628 0)
(0.386355 0.296806 0)
(0.346494 0.312323 0)
(0.30516 0.326943 0)
(0.26238 0.340588 0)
(0.218103 0.353189 0)
(0.172167 0.364715 0)
(0.125623 0.374924 0)
(0.073913 0.383353 0)
(0.0300885 0.388216 0)
(3 2.70546e-10 0)
(3 -3.92435e-10 0)
(3 2.36189e-10 0)
(3 -2.85843e-09 0)
(3 1.5204e-10 0)
(3 -1.53407e-08 0)
(3 -1.43598e-10 0)
(3 -8.94838e-08 0)
(3 3.33601e-09 0)
(3 -4.79182e-07 0)
(3 -7.4877e-08 0)
(2.99999 -2.75222e-06 0)
(2.99999 -3.62115e-07 0)
(2.99996 -1.57529e-05 0)
(2.99993 -4.22678e-06 0)
(2.99979 -8.91715e-05 0)
(2.99965 -3.01951e-05 0)
(2.99893 -0.0004789 0)
(2.99812 -0.000247941 0)
(2.99447 -0.00220458 0)
(2.989 -0.000151512 0)
(2.96112 0.000584211 0)
(2.94215 0.00094875 0)
(2.70646 0.0045567 0)
(2.06598 0.0302597 0)
(1.21845 0.100384 0)
(0.590467 0.108751 0)
(0.663316 0.124926 0)
(0.750868 0.136163 0)
(0.778283 0.146312 0)
(0.761602 0.156968 0)
(0.728662 0.168497 0)
(0.689533 0.181443 0)
(0.657188 0.195594 0)
(0.62876 0.210446 0)
(0.599337 0.226002 0)
(0.567736 0.242327 0)
(0.534601 0.259373 0)
(0.500353 0.276948 0)
(0.465144 0.294824 0)
(0.428838 0.312761 0)
(0.391194 0.330498 0)
(0.352052 0.347757 0)
(0.31118 0.364253 0)
(0.268531 0.379875 0)
(0.224026 0.394518 0)
(0.177454 0.40806 0)
(0.129896 0.420174 0)
(0.0767604 0.430215 0)
(0.0311041 0.436126 0)
(3 8.35988e-14 0)
(3 -1.88456e-10 0)
(3 -3.58055e-10 0)
(3 -1.85137e-09 0)
(3 -2.77414e-09 0)
(3 -1.45281e-08 0)
(3 -1.73298e-08 0)
(3 -1.18175e-07 0)
(3 -6.08172e-08 0)
(3 -6.65375e-07 0)
(3 -2.46624e-07 0)
(2.99999 -3.52383e-06 0)
(2.99998 -1.32034e-06 0)
(2.99996 -1.96138e-05 0)
(2.99987 -9.3308e-06 0)
(2.99977 -0.000112065 0)
(2.99932 -6.84279e-05 0)
(2.99873 -0.000645471 0)
(2.99658 -0.000697257 0)
(2.99423 -0.00391437 0)
(2.99113 -0.00201245 0)
(2.95978 -0.0066541 0)
(2.93956 0.00351161 0)
(2.71311 0.0203276 0)
(2.1008 0.0371941 0)
(1.22969 0.0902787 0)
(0.548454 0.114206 0)
(0.633057 0.140636 0)
(0.725953 0.155222 0)
(0.757841 0.166387 0)
(0.74537 0.177741 0)
(0.715787 0.18991 0)
(0.679564 0.203562 0)
(0.649495 0.218568 0)
(0.622827 0.234512 0)
(0.595226 0.251279 0)
(0.565563 0.269008 0)
(0.53428 0.287476 0)
(0.5018 0.306481 0)
(0.468218 0.325851 0)
(0.433354 0.345452 0)
(0.396975 0.365056 0)
(0.358863 0.384386 0)
(0.318712 0.403169 0)
(0.276435 0.421206 0)
(0.23182 0.438432 0)
(0.184527 0.454577 0)
(0.135701 0.469202 0)
(0.0806524 0.48138 0)
(0.0325647 0.488689 0)
(3 9.40761e-13 0)
(3 3.77514e-11 0)
(3 8.95573e-11 0)
(3 1.08785e-10 0)
(3 2.98011e-10 0)
(3 -5.73629e-10 0)
(3 7.52175e-11 0)
(3 -8.22296e-09 0)
(3 -1.97678e-08 0)
(3 -6.75117e-08 0)
(3 -9.04628e-08 0)
(2.99999 -4.18644e-07 0)
(2.99997 -9.40256e-07 0)
(2.99995 -2.50983e-06 0)
(2.99985 -5.18498e-06 0)
(2.99973 -1.5958e-05 0)
(2.99916 -2.89231e-05 0)
(2.99834 -0.000136444 0)
(2.99511 -0.000316574 0)
(2.99324 -0.00148146 0)
(2.98639 -0.000761686 0)
(2.96609 -0.0039618 0)
(2.96596 0.0107067 0)
(2.7242 0.0353924 0)
(2.11244 0.0443584 0)
(1.25897 0.0965168 0)
(0.551479 0.127143 0)
(0.629398 0.155181 0)
(0.716717 0.168429 0)
(0.749536 0.181629 0)
(0.738548 0.195289 0)
(0.710265 0.209691 0)
(0.674956 0.225152 0)
(0.645515 0.241316 0)
(0.619588 0.258376 0)
(0.593071 0.27643 0)
(0.564818 0.295479 0)
(0.535112 0.315361 0)
(0.50429 0.335906 0)
(0.472401 0.356973 0)
(0.439185 0.378512 0)
(0.404309 0.400325 0)
(0.367494 0.422144 0)
(0.328333 0.443707 0)
(0.286674 0.464776 0)
(0.24217 0.485257 0)
(0.194208 0.504834 0)
(0.143862 0.522854 0)
(0.0862931 0.538073 0)
(0.0347713 0.547404 0)
(3 -5.20709e-12 0)
(3 1.7891e-10 0)
(3 3.72066e-10 0)
(3 1.3336e-09 0)
(3 2.41571e-09 0)
(3 7.55266e-09 0)
(3 1.33581e-08 0)
(3 4.11673e-08 0)
(3 7.21135e-08 0)
(3 2.27842e-07 0)
(3 3.9717e-07 0)
(2.99999 1.31184e-06 0)
(2.99997 2.20975e-06 0)
(2.99996 7.38267e-06 0)
(2.99986 1.53374e-05 0)
(2.99975 4.55196e-05 0)
(2.9992 8.18857e-05 0)
(2.99846 0.000275631 0)
(2.99531 0.000543208 0)
(2.99384 0.00157144 0)
(2.98851 0.00286079 0)
(2.97109 0.0064133 0)
(2.97482 0.0126707 0)
(2.73514 0.025873 0)
(2.15372 0.0385981 0)
(1.31305 0.0990102 0)
(0.570046 0.141034 0)
(0.635127 0.171399 0)
(0.713519 0.186021 0)
(0.746944 0.200373 0)
(0.736328 0.215315 0)
(0.708472 0.231112 0)
(0.673275 0.24787 0)
(0.643937 0.26501 0)
(0.618592 0.283001 0)
(0.593027 0.302105 0)
(0.566011 0.322293 0)
(0.537775 0.34346 0)
(0.508578 0.365499 0)
(0.478439 0.388331 0)
(0.44704 0.411916 0)
(0.413932 0.436189 0)
(0.378752 0.460881 0)
(0.340972 0.485791 0)
(0.300295 0.510651 0)
(0.256208 0.535313 0)
(0.207716 0.559498 0)
(0.15561 0.582385 0)
(0.0946825 0.602108 0)
(0.0382515 0.614722 0)
(3 -7.83097e-12 0)
(3 2.5695e-10 0)
(3 5.22478e-10 0)
(3 1.97786e-09 0)
(3 3.52942e-09 0)
(3 1.16706e-08 0)
(3 2.03976e-08 0)
(3 6.61486e-08 0)
(3 1.15176e-07 0)
(3 3.736e-07 0)
(3 6.48795e-07 0)
(2.99999 2.12409e-06 0)
(2.99998 3.64023e-06 0)
(2.99997 1.19186e-05 0)
(2.99989 2.23407e-05 0)
(2.9998 6.99787e-05 0)
(2.99939 0.000117502 0)
(2.9988 0.000410182 0)
(2.99641 0.000737912 0)
(2.99557 0.0023403 0)
(2.99118 0.00373309 0)
(2.9763 0.00683942 0)
(2.98419 0.0122169 0)
(2.74432 0.0219992 0)
(2.19939 0.0409832 0)
(1.37609 0.103691 0)
(0.5862 0.16507 0)
(0.638963 0.191748 0)
(0.710302 0.20717 0)
(0.744198 0.221588 0)
(0.734956 0.237052 0)
(0.70827 0.253501 0)
(0.67359 0.271122 0)
(0.644522 0.289173 0)
(0.619921 0.308061 0)
(0.595459 0.328131 0)
(0.569762 0.349377 0)
(0.543055 0.371763 0)
(0.515556 0.395266 0)
(0.487209 0.419879 0)
(0.457778 0.445608 0)
(0.42676 0.472533 0)
(0.393626 0.500477 0)
(0.357752 0.529306 0)
(0.318619 0.558919 0)
(0.275536 0.588909 0)
(0.227068 0.619376 0)
(0.173195 0.649409 0)
(0.107977 0.676525 0)
(0.044164 0.694896 0)
(3 -6.96974e-12 0)
(3 2.64227e-10 0)
(3 5.33313e-10 0)
(3 2.04433e-09 0)
(3 3.62988e-09 0)
(3 1.20906e-08 0)
(3 2.10287e-08 0)
(3 6.83933e-08 0)
(3 1.18537e-07 0)
(3 3.82821e-07 0)
(3 6.64424e-07 0)
(3 2.13119e-06 0)
(2.99998 3.73386e-06 0)
(2.99997 1.20468e-05 0)
(2.99992 1.92158e-05 0)
(2.99985 6.58563e-05 0)
(2.99955 0.000109229 0)
(2.9991 0.000364626 0)
(2.9973 0.000668079 0)
(2.99694 0.00194719 0)
(2.9931 0.00317756 0)
(2.98018 0.00559268 0)
(2.98952 0.0101278 0)
(2.75895 0.0155069 0)
(2.26052 0.0452842 0)
(1.46137 0.108552 0)
(0.624321 0.196197 0)
(0.64821 0.215546 0)
(0.713714 0.228692 0)
(0.747444 0.243091 0)
(0.738793 0.259372 0)
(0.712617 0.276445 0)
(0.678182 0.294704 0)
(0.649127 0.313581 0)
(0.625043 0.333353 0)
(0.601531 0.354334 0)
(0.577064 0.376594 0)
(0.551864 0.400132 0)
(0.526125 0.425023 0)
(0.499723 0.451377 0)
(0.472434 0.479338 0)
(0.443831 0.508998 0)
(0.413312 0.540615 0)
(0.380219 0.573849 0)
(0.343515 0.609066 0)
(0.30248 0.646209 0)
(0.255349 0.685375 0)
(0.200622 0.726078 0)
(0.130311 0.765805 0)
(0.0549921 0.796455 0)
(3 -7.03005e-12 0)
(3 2.34452e-10 0)
(3 4.72215e-10 0)
(3 1.82224e-09 0)
(3 3.21696e-09 0)
(3 1.07558e-08 0)
(3 1.89795e-08 0)
(3 6.10159e-08 0)
(3 1.05194e-07 0)
(3 3.39672e-07 0)
(3 5.99323e-07 0)
(3 1.89953e-06 0)
(2.99999 3.23969e-06 0)
(2.99998 1.0659e-05 0)
(2.99994 1.70126e-05 0)
(2.9999 5.77498e-05 0)
(2.99971 9.58583e-05 0)
(2.9994 0.00031752 0)
(2.9981 0.000596434 0)
(2.99826 0.0018853 0)
(2.99505 0.00285288 0)
(2.98402 0.00506917 0)
(2.99448 0.00930048 0)
(2.77581 0.0135424 0)
(2.32965 0.0465362 0)
(1.56569 0.111442 0)
(0.67952 0.225808 0)
(0.660181 0.242428 0)
(0.722023 0.252583 0)
(0.756741 0.266379 0)
(0.748467 0.283167 0)
(0.722124 0.300734 0)
(0.687678 0.319459 0)
(0.658571 0.338914 0)
(0.634829 0.35937 0)
(0.612116 0.381133 0)
(0.588782 0.404309 0)
(0.565011 0.428917 0)
(0.541055 0.455107 0)
(0.516804 0.483119 0)
(0.491928 0.513265 0)
(0.466227 0.545559 0)
(0.438948 0.580594 0)
(0.409547 0.619004 0)
(0.377344 0.660961 0)
(0.340649 0.707121 0)
(0.297257 0.758014 0)
(0.244682 0.814749 0)
(0.171384 0.876758 0)
(0.0779945 0.937188 0)
(3 -4.27751e-12 0)
(3 1.85007e-10 0)
(3 3.73193e-10 0)
(3 1.46545e-09 0)
(3 2.53325e-09 0)
(3 9.54379e-09 0)
(3 1.41533e-08 0)
(3 4.75167e-08 0)
(3 8.15501e-08 0)
(3 2.55397e-07 0)
(3 4.4754e-07 0)
(3 1.39059e-06 0)
(2.99999 2.4415e-06 0)
(2.99999 7.59582e-06 0)
(2.99997 1.25639e-05 0)
(2.99994 4.05564e-05 0)
(2.99984 6.95864e-05 0)
(2.99966 0.000206885 0)
(2.99905 0.000445116 0)
(2.99944 0.00149974 0)
(2.9966 0.00220938 0)
(2.9876 0.00413076 0)
(2.99875 0.00785329 0)
(2.79451 0.010804 0)
(2.40525 0.0459105 0)
(1.68788 0.112273 0)
(0.749083 0.251261 0)
(0.673771 0.270962 0)
(0.731417 0.280524 0)
(0.768891 0.292461 0)
(0.761781 0.308328 0)
(0.735449 0.325492 0)
(0.701076 0.344297 0)
(0.671996 0.36398 0)
(0.64876 0.384837 0)
(0.626999 0.407199 0)
(0.604924 0.431154 0)
(0.582716 0.456737 0)
(0.56073 0.484153 0)
(0.538954 0.513638 0)
(0.516846 0.545431 0)
(0.494341 0.580245 0)
(0.471791 0.618975 0)
(0.448191 0.662595 0)
(0.422454 0.711701 0)
(0.393667 0.767771 0)
(0.35968 0.833254 0)
(0.317782 0.913655 0)
(0.253577 1.01885 0)
(0.133401 1.18034 0)
(3 -7.05098e-12 0)
(3 1.11921e-10 0)
(3 1.97318e-10 0)
(3 8.33699e-10 0)
(3 1.36717e-09 0)
(3 5.04742e-09 0)
(3 7.67438e-09 0)
(3 2.74123e-08 0)
(3 4.44688e-08 0)
(3 1.49611e-07 0)
(3 2.40201e-07 0)
(3 8.00428e-07 0)
(3 1.45925e-06 0)
(3 4.43656e-06 0)
(2.99999 7.78417e-06 0)
(2.99997 2.46183e-05 0)
(2.99991 4.86626e-05 0)
(2.99987 0.000132048 0)
(2.99969 0.000306639 0)
(3.00046 0.000816793 0)
(2.99835 0.00112855 0)
(2.99136 0.0030977 0)
(3.00279 0.00802243 0)
(2.81839 0.00920625 0)
(2.5026 0.0398498 0)
(1.85475 0.131205 0)
(0.852913 0.266071 0)
(0.701542 0.29685 0)
(0.747321 0.315215 0)
(0.784736 0.328192 0)
(0.779424 0.34364 0)
(0.753623 0.360263 0)
(0.719734 0.37869 0)
(0.691023 0.398122 0)
(0.669104 0.418927 0)
(0.649529 0.441478 0)
(0.63023 0.465831 0)
(0.611311 0.492086 0)
(0.593054 0.520182 0)
(0.575255 0.55057 0)
(0.558406 0.584143 0)
(0.543232 0.621926 0)
(0.529069 0.66468 0)
(0.515574 0.713213 0)
(0.503529 0.769364 0)
(0.494011 0.835926 0)
(0.490007 0.916957 0)
(0.500498 1.02035 0)
(0.557748 1.15737 0)
(0.637159 1.35864 0)
(3 -1.19056e-11 0)
(3 1.99353e-11 0)
(3 -4.71763e-11 0)
(3 5.98654e-11 0)
(3 -3.48758e-10 0)
(3 -7.77472e-10 0)
(3 -1.75427e-09 0)
(3 4.30633e-10 0)
(3 -1.17897e-08 0)
(3 8.19556e-09 0)
(3 -5.25252e-08 0)
(3 8.24071e-08 0)
(3 -2.09803e-07 0)
(3 6.56855e-07 0)
(3 -9.02852e-07 0)
(3 2.70912e-06 0)
(3.00001 -7.98243e-06 0)
(3.00005 2.97206e-05 0)
(3.00007 -2.12205e-05 0)
(3.00062 -4.75433e-05 0)
(3.00007 -0.000345048 0)
(2.9988 -0.0012925 0)
(3.00849 -0.00100763 0)
(2.84676 -0.00626773 0)
(2.6803 0.0284052 0)
(2.107 0.0959284 0)
(0.894055 0.298185 0)
(0.693376 0.337247 0)
(0.729023 0.358309 0)
(0.765536 0.367404 0)
(0.767211 0.379831 0)
(0.747372 0.394256 0)
(0.718758 0.411635 0)
(0.694865 0.430455 0)
(0.678315 0.450873 0)
(0.664353 0.473225 0)
(0.650711 0.497437 0)
(0.637088 0.523599 0)
(0.624132 0.552117 0)
(0.613245 0.583475 0)
(0.604561 0.618535 0)
(0.59772 0.657829 0)
(0.593142 0.702009 0)
(0.59193 0.752575 0)
(0.59645 0.811299 0)
(0.610391 0.880804 0)
(0.640198 0.964352 0)
(0.696571 1.06594 0)
(0.8218 1.18623 0)
(0.991587 1.31776 0)
(3 -1.78068e-11 0)
(3 -3.46925e-11 0)
(3 -1.32854e-10 0)
(3 -2.2276e-10 0)
(3 -8.05086e-10 0)
(3 -1.38008e-09 0)
(3 -4.91043e-09 0)
(3 -8.77012e-09 0)
(3 -2.76376e-08 0)
(3 -5.05434e-08 0)
(3 -1.52682e-07 0)
(3 -2.73426e-07 0)
(3 -8.86398e-07 0)
(2.99999 -1.4706e-06 0)
(2.99999 -5.40754e-06 0)
(2.99996 -8.58884e-06 0)
(2.99996 -3.37145e-05 0)
(2.99985 -6.31278e-05 0)
(2.99956 -0.000221983 0)
(2.99992 -0.000395683 0)
(2.99627 -0.00147795 0)
(2.99023 -0.00209455 0)
(2.99488 -0.00652132 0)
(2.86912 -0.0171983 0)
(2.74881 0.0409366 0)
(2.27612 0.0718828 0)
(1.07437 0.362034 0)
(0.721815 0.413173 0)
(0.724895 0.415333 0)
(0.753459 0.411102 0)
(0.76089 0.414809 0)
(0.74584 0.423611 0)
(0.721767 0.43863 0)
(0.701117 0.456713 0)
(0.688555 0.476749 0)
(0.679155 0.498621 0)
(0.670354 0.522275 0)
(0.662789 0.548438 0)
(0.657029 0.577892 0)
(0.653426 0.610617 0)
(0.652406 0.646577 0)
(0.654212 0.686222 0)
(0.659863 0.730358 0)
(0.671216 0.780169 0)
(0.69102 0.837002 0)
(0.723687 0.902001 0)
(0.776328 0.97625 0)
(0.855786 1.05948 0)
(0.990383 1.14661 0)
(1.15919 1.2156 0)
(3 -1.04212e-11 0)
(3 -1.64677e-11 0)
(3 -2.48593e-11 0)
(3 -5.41704e-11 0)
(3 -3.66355e-11 0)
(3 -4.5358e-11 0)
(3 -6.91015e-11 0)
(3 -1.01327e-11 0)
(3 -1.25251e-09 0)
(3 -1.33915e-09 0)
(3 -1.74358e-08 0)
(3 -3.43498e-08 0)
(3 -1.68073e-07 0)
(2.99999 -3.31665e-07 0)
(2.99999 -8.79516e-07 0)
(2.99995 -6.57016e-07 0)
(2.99992 2.01597e-06 0)
(2.99974 -1.52066e-05 0)
(2.99951 -3.56032e-05 0)
(2.99853 2.05004e-05 0)
(2.99724 -0.000729855 0)
(2.99035 0.00088436 0)
(2.98407 0.000620213 0)
(2.92037 -0.00425285 0)
(2.85311 0.0472893 0)
(2.49169 0.0850675 0)
(1.35666 0.340334 0)
(0.837938 0.465789 0)
(0.763427 0.466152 0)
(0.780508 0.454913 0)
(0.787015 0.447975 0)
(0.773473 0.451742 0)
(0.751485 0.462594 0)
(0.729924 0.479048 0)
(0.715867 0.497897 0)
(0.706043 0.5181 0)
(0.699227 0.540481 0)
(0.696121 0.566397 0)
(0.695757 0.595523 0)
(0.697819 0.627785 0)
(0.702935 0.663161 0)
(0.711956 0.702012 0)
(0.726166 0.744833 0)
(0.74754 0.792046 0)
(0.778635 0.844238 0)
(0.822637 0.901153 0)
(0.885301 0.961934 0)
(0.970675 1.02443 0)
(1.09562 1.08368 0)
(1.24175 1.12327 0)
(3 2.20848e-11 0)
(3 2.23775e-11 0)
(3 1.41489e-10 0)
(3 2.74547e-10 0)
(3 5.54993e-10 0)
(3 3.33261e-10 0)
(3 3.20914e-09 0)
(3 6.34998e-09 0)
(3 1.5025e-08 0)
(3 7.83588e-09 0)
(3 7.02491e-08 0)
(3 1.74951e-07 0)
(3 1.0548e-07 0)
(2.99999 -7.27238e-07 0)
(2.99999 1.15082e-06 0)
(2.99996 -6.23003e-06 0)
(2.99993 6.40372e-06 0)
(2.99978 -3.24038e-05 0)
(2.99962 3.27783e-05 0)
(2.99876 -0.000169554 0)
(2.99772 6.48845e-05 0)
(2.99256 -0.00106387 0)
(2.98647 0.00241292 0)
(2.94665 0.00162032 0)
(2.90989 0.0348097 0)
(2.62491 0.0737664 0)
(1.72922 0.265759 0)
(1.09154 0.520566 0)
(0.841882 0.537097 0)
(0.828675 0.51475 0)
(0.836402 0.494658 0)
(0.83104 0.48936 0)
(0.811826 0.494223 0)
(0.790249 0.506148 0)
(0.771453 0.521559 0)
(0.757371 0.539221 0)
(0.749311 0.559754 0)
(0.745974 0.583262 0)
(0.745597 0.609572 0)
(0.748958 0.638919 0)
(0.756997 0.671498 0)
(0.770616 0.707538 0)
(0.790641 0.747106 0)
(0.8186 0.790039 0)
(0.856159 0.835936 0)
(0.90516 0.88407 0)
(0.969799 0.93305 0)
(1.0526 0.980011 0)
(1.16382 1.02123 0)
(1.28795 1.04614 0)
(3 2.02983e-11 0)
(3 1.21664e-11 0)
(3 1.03934e-10 0)
(3 8.54086e-11 0)
(3 5.9262e-10 0)
(3 4.97336e-10 0)
(3 3.40047e-09 0)
(3 2.54209e-09 0)
(3 1.82823e-08 0)
(3 1.42344e-08 0)
(3 1.02296e-07 0)
(3 7.68062e-08 0)
(3 5.57619e-07 0)
(2.99999 4.21813e-07 0)
(2.99998 3.07554e-06 0)
(2.99996 2.17462e-06 0)
(2.99987 1.74079e-05 0)
(2.99978 1.29783e-05 0)
(2.99929 9.71202e-05 0)
(2.99859 8.26142e-05 0)
(2.99575 0.00056582 0)
(2.99422 0.000612807 0)
(2.98851 0.0034847 0)
(2.97219 0.00400909 0)
(2.97398 0.0263032 0)
(2.76823 0.0221351 0)
(2.24031 0.241253 0)
(1.51765 0.452471 0)
(0.963053 0.56972 0)
(0.889371 0.563155 0)
(0.895562 0.54696 0)
(0.901003 0.534787 0)
(0.888651 0.535734 0)
(0.867964 0.543938 0)
(0.847553 0.555677 0)
(0.831026 0.569924 0)
(0.819413 0.586608 0)
(0.812315 0.60537 0)
(0.809377 0.626843 0)
(0.811215 0.651413 0)
(0.818737 0.679275 0)
(0.832782 0.710425 0)
(0.854042 0.744631 0)
(0.8835 0.781489 0)
(0.922551 0.820131 0)
(0.972779 0.859709 0)
(1.03599 0.89871 0)
(1.11306 0.934699 0)
(1.21057 0.965107 0)
(1.31621 0.982909 0)
(3 -8.99623e-12 0)
(3 3.66062e-12 0)
(3 -3.06167e-11 0)
(3 -8.58123e-11 0)
(3 9.57775e-11 0)
(3 7.70624e-10 0)
(3 4.57885e-10 0)
(3 -1.5999e-11 0)
(3 4.45569e-09 0)
(3 2.89542e-08 0)
(3 2.62261e-08 0)
(3 1.36586e-08 0)
(3 3.92182e-07 0)
(3 1.63831e-06 0)
(2.99999 1.81587e-06 0)
(2.99999 1.07911e-05 0)
(2.99995 1.13575e-05 0)
(2.99992 6.28754e-05 0)
(2.99974 6.79354e-05 0)
(2.99954 0.000365106 0)
(2.99861 0.000481914 0)
(2.99743 0.0020701 0)
(2.99226 0.00155189 0)
(2.98683 0.00526847 0)
(2.94242 0.00853551 0)
(2.90228 0.000339898 0)
(2.61001 0.117029 0)
(1.73291 0.287797 0)
(1.13826 0.560653 0)
(0.920566 0.593599 0)
(0.918354 0.585588 0)
(0.937339 0.574851 0)
(0.946887 0.574475 0)
(0.937414 0.582402 0)
(0.921295 0.593474 0)
(0.906008 0.605651 0)
(0.894011 0.618735 0)
(0.885684 0.633215 0)
(0.881231 0.649802 0)
(0.881396 0.669001 0)
(0.887172 0.691056 0)
(0.89945 0.716008 0)
(0.91897 0.743632 0)
(0.946568 0.773499 0)
(0.983191 0.804814 0)
(1.02987 0.836471 0)