/*--------------------------------*- C++ -*----------------------------------*\
| =========                 |                                                 |
| \\      /  F ield         | OpenFOAM: The Open Source CFD Toolbox           |
|  \\    /   O peration     | Version:  2412                                  |
|   \\  /    A nd           | Website:  www.openfoam.com                      |
|    \\/     M anipulation  |                                                 |
\*---------------------------------------------------------------------------*/
FoamFile
{
    version     2.0;
    format      ascii;
    arch        "LSB;label=32;scalar=64";
    class       volScalarField;
    location    "10";
    object      Ma;
}
// * * * * * * * * * * * * * * * * * * * * * * * * * * * * * * * * * * * * * //

dimensions      [0 0 0 0 0 0 0];

internalField   nonuniform List<scalar> 
7000
(
2.56998
1.68155
0.608676
0.266866
0.331772
0.387275
0.417228
0.426885
0.425472
0.418495
0.411954
0.40781
0.404716
0.401518
0.397902
0.393968
0.389635
0.384972
0.380448
0.376257
0.372324
0.368314
0.364247
0.359939
0.354888
0.349097
0.342617
0.335252
0.326965
0.317985
0.308392
0.298263
0.287695
0.276648
0.265034
0.252798
0.239974
0.226607
0.212592
0.197923
0.182563
0.166033
0.148313
0.130144
0.111589
0.0920996
0.0714814
0.0508958
0.0305856
0.0142755
2.56987
1.68128
0.608633
0.267026
0.332055
0.387581
0.41755
0.427282
0.426076
0.419449
0.413389
0.409828
0.407363
0.404781
0.401737
0.398303
0.394376
0.389784
0.385018
0.38038
0.375885
0.371253
0.366513
0.361605
0.356033
0.349816
0.342998
0.335368
0.326894
0.317784
0.308098
0.297903
0.287289
0.276216
0.264601
0.252397
0.239639
0.226371
0.212483
0.197969
0.182789
0.166473
0.149007
0.131153
0.112994
0.0939855
0.0738618
0.0537471
0.0344593
0.021216
2.5696
1.68065
0.608284
0.266823
0.33211
0.387751
0.417761
0.427538
0.426368
0.41976
0.413692
0.410109
0.407617
0.405009
0.401941
0.398485
0.394534
0.389943
0.385197
0.380567
0.376055
0.371365
0.366507
0.361417
0.355607
0.349107
0.341978
0.33402
0.325266
0.315972
0.306215
0.296069
0.285612
0.274783
0.263478
0.251624
0.239236
0.226337
0.212808
0.198639
0.183797
0.167838
0.150766
0.13337
0.115761
0.0974449
0.0782448
0.0595039
0.0426945
0.0328288
2.56916
1.67961
0.607662
0.266386
0.332138
0.387997
0.418064
0.42787
0.426669
0.419973
0.413745
0.409936
0.407181
0.404301
0.400978
0.397297
0.393168
0.388585
0.383987
0.379602
0.375408
0.37109
0.366638
0.361964
0.356564
0.35043
0.343623
0.335945
0.327371
0.318159
0.308405
0.298194
0.287625
0.276666
0.265239
0.253297
0.240872
0.227999
0.214561
0.200549
0.185941
0.170304
0.153645
0.136771
0.119817
0.102364
0.0843696
0.0674101
0.0531625
0.0455184
2.56854
1.67817
0.606889
0.266083
0.332398
0.388494
0.418657
0.428599
0.427609
0.421186
0.415243
0.411704
0.409178
0.406467
0.403249
0.399616
0.395494
0.390829
0.386074
0.381496
0.377125
0.372674
0.368108
0.363396
0.358042
0.352007
0.345347
0.337876
0.329514
0.320472
0.31085
0.300721
0.29019
0.27924
0.267805
0.255856
0.243443
0.230626
0.217305
0.203477
0.189138
0.173876
0.157698
0.14143
0.125241
0.108792
0.0921916
0.0771174
0.0651069
0.0589377
2.56769
1.67615
0.605735
0.265249
0.33238
0.388842
0.419014
0.42891
0.427704
0.420902
0.414456
0.410417
0.407487
0.40451
0.401173
0.39755
0.39355
0.38918
0.384792
0.380581
0.376545
0.372396
0.368083
0.363584
0.358446
0.352608
0.34614
0.338884
0.330736
0.321898
0.312495
0.302585
0.292269
0.281526
0.270295
0.258549
0.24635
0.23377
0.220721
0.207215
0.19327
0.178506
0.162927
0.14739
0.132102
0.116796
0.101679
0.0884479
0.0783091
0.0731779
2.56661
1.67361
0.60439
0.264573
0.33272
0.389593
0.419817
0.429863
0.428879
0.422324
0.416126
0.412348
0.409683
0.406959
0.403857
0.400435
0.396607
0.392309
0.387864
0.383498
0.379267
0.374947
0.370445
0.365793
0.360614
0.354767
0.348323
0.341164
0.33311
0.324344
0.315049
0.305271
0.295103
0.284527
0.273485
0.261958
0.25001
0.237723
0.225017
0.211914
0.198452
0.184288
0.169423
0.154727
0.140452
0.126391
0.112784
0.101245
0.0926569
0.088282
2.56522
1.67033
0.602559
0.263403
0.332949
0.390409
0.420689
0.430862
0.430023
0.423596
0.417451
0.413653
0.410912
0.408074
0.404823
0.401198
0.397179
0.392868
0.388478
0.384194
0.380082
0.375953
0.371652
0.367211
0.362326
0.356776
0.350616
0.343796
0.336075
0.327528
0.318433
0.308837
0.29884
0.288442
0.277601
0.266312
0.254648
0.242698
0.230385
0.21775
0.20484
0.191355
0.177294
0.163526
0.150337
0.13755
0.125436
0.11544
0.108113
0.104351
2.56351
1.66627
0.600461
0.262188
0.333326
0.391409
0.421697
0.432032
0.431456
0.425308
0.419391
0.415784
0.41319
0.410443
0.407219
0.403517
0.399396
0.395026
0.390551
0.38613
0.381864
0.377648
0.373288
0.368802
0.364014
0.358636
0.352683
0.346152
0.338793
0.330574
0.3218
0.312529
0.302857
0.292794
0.282302
0.271384
0.260122
0.248619
0.236808
0.224745
0.212486
0.199791
0.18664
0.173878
0.161847
0.15036
0.139631
0.131006
0.124781
0.121479
2.56136
1.66116
0.597989
0.260688
0.333647
0.392439
0.422669
0.433138
0.432825
0.426954
0.421278
0.417882
0.415467
0.412865
0.409702
0.405968
0.401845
0.397531
0.393115
0.38869
0.384361
0.380075
0.37565
0.371043
0.366213
0.360888
0.355022
0.348646
0.341593
0.333686
0.325203
0.316296
0.30703
0.297416
0.287415
0.277024
0.26632
0.255415
0.244253
0.232898
0.22142
0.209639
0.197511
0.185839
0.175003
0.164831
0.155445
0.148063
0.142767
0.139916
2.55867
1.65536
0.595073
0.259046
0.3341
0.393777
0.423942
0.434585
0.434586
0.429008
0.423566
0.420356
0.418099
0.415602
0.412471
0.40875
0.404656
0.400404
0.396091
0.39173
0.387377
0.383045
0.378607
0.373939
0.369032
0.363785
0.358026
0.351789
0.345019
0.337472
0.329293
0.320739
0.311867
0.302695
0.293201
0.283389
0.273328
0.263131
0.252745
0.242236
0.231679
0.220948
0.209959
0.199476
0.189919
0.181085
0.173019
0.166809
0.162355
0.159847
2.55535
1.64846
0.591568
0.256787
0.334115
0.394642
0.424277
0.434544
0.434143
0.428034
0.422082
0.418519
0.416107
0.413638
0.410709
0.407353
0.403776
0.400099
0.396386
0.39261
0.388748
0.384776
0.380653
0.376277
0.371589
0.366571
0.361108
0.355186
0.348804
0.341735
0.333994
0.325881
0.317477
0.308808
0.299869
0.290679
0.281314
0.271894
0.262378
0.252826
0.243327
0.233785
0.224063
0.21486
0.206651
0.19923
0.192458
0.187393
0.183806
0.181729
2.55144
1.64029
0.587764
0.254868
0.334783
0.396379
0.425855
0.43648
0.436903
0.431726
0.426533
0.42349
0.421332
0.418838
0.415632
0.411858
0.407814
0.403715
0.399675
0.395688
0.391685
0.387641
0.3835
0.379147
0.374558
0.369677
0.364443
0.358838
0.352846
0.346315
0.339153
0.331581
0.323748
0.315685
0.307399
0.298924
0.290344
0.281792
0.273246
0.264763
0.256452
0.248229
0.239925
0.232142
0.225407
0.219496
0.21418
0.210334
0.207593
0.205917
2.54712
1.63061
0.583298
0.252574
0.335315
0.398231
0.427281
0.437893
0.43865
0.433893
0.429109
0.426453
0.424636
0.422377
0.419289
0.415538
0.411456
0.407282
0.403143
0.399068
0.395006
0.390911
0.386764
0.382461
0.377944
0.373201
0.368193
0.362888
0.357271
0.35127
0.344753
0.337821
0.330663
0.323318
0.315797
0.308144
0.300453
0.292873
0.28541
0.278115
0.271119
0.264353
0.257637
0.25145
0.24637
0.242167
0.23844
0.235961
0.234331
0.23331
2.54205
1.61909
0.578274
0.250212
0.335504
0.399209
0.426975
0.436664
0.436884
0.431662
0.426663
0.424046
0.422495
0.420678
0.418181
0.415115
0.411748
0.408272
0.404773
0.401252
0.397648
0.39391
0.390043
0.385997
0.381708
0.377202
0.372481
0.367517
0.362298
0.35681
0.350944
0.344702
0.338279
0.331725
0.325059
0.318336
0.311662
0.305196
0.298958
0.292997
0.287465
0.282317
0.277389
0.273011
0.269844
0.267671
0.2659
0.265211
0.265024
0.264701
2.53612
1.60598
0.572719
0.248144
0.336448
0.401853
0.429245
0.439214
0.44029
0.436028
0.431766
0.429582
0.428199
0.426326
0.423602
0.420229
0.416531
0.41274
0.408981
0.4053
0.401648
0.397939
0.39414
0.390224
0.386114
0.38182
0.377377
0.372772
0.367985
0.363012
0.357801
0.35231
0.346684
0.341003
0.335276
0.329563
0.323988
0.318739
0.313858
0.309365
0.305491
0.30217
0.299264
0.297062
0.29616
0.296457
0.297232
0.29889
0.300821
0.30218
2.52924
1.59081
0.56657
0.246271
0.336912
0.403272
0.429112
0.438046
0.438743
0.434351
0.430261
0.428452
0.427604
0.426369
0.424333
0.421654
0.418588
0.415331
0.412
0.408665
0.40532
0.401899
0.398368
0.394726
0.390908
0.38693
0.382825
0.378625
0.374321
0.369908
0.365387
0.360721
0.355954
0.351203
0.346498
0.3419
0.337536
0.333612
0.330215
0.327338
0.325287
0.324052
0.323508
0.323858
0.325724
0.329207
0.333459
0.33876
0.344331
0.348215
2.52149
1.57371
0.559975
0.245216
0.338089
0.405925
0.430757
0.439198
0.440049
0.435955
0.432226
0.430765
0.43024
0.429343
0.427619
0.425212
0.422389
0.419336
0.416187
0.413009
0.409838
0.406638
0.40334
0.399953
0.396432
0.392795
0.389032
0.385236
0.381433
0.377611
0.373786
0.369945
0.366089
0.362337
0.358713
0.355293
0.352232
0.349759
0.347989
0.34691
0.346893
0.347999
0.350139
0.353567
0.358906
0.366562
0.37585
0.386637
0.398696
0.409457
2.51282
1.55487
0.553008
0.244904
0.339204
0.408158
0.43164
0.439297
0.440231
0.436508
0.433256
0.432248
0.432128
0.431603
0.430274
0.428264
0.425821
0.423144
0.420332
0.417448
0.414557
0.411657
0.4087
0.405656
0.402495
0.399261
0.395945
0.392591
0.389284
0.386073
0.382973
0.380006
0.37717
0.374442
0.371971
0.369816
0.368113
0.367154
0.367105
0.368009
0.370155
0.373934
0.379269
0.386496
0.396311
0.409332
0.425794
0.446072
0.470365
0.498147
2.50356
1.53482
0.54607
0.246017
0.341027
0.411115
0.433445
0.440352
0.44146
0.438185
0.435514
0.435047
0.435465
0.435437
0.434501
0.432859
0.430665
0.428153
0.425492
0.422751
0.420005
0.417297
0.414627
0.411961
0.409212
0.406402
0.403566
0.400729
0.397956
0.395345
0.392961
0.39083
0.388979
0.387461
0.386192
0.385243
0.384989
0.385681
0.387442
0.390297
0.39481
0.401635
0.410622
0.42213
0.437207
0.457499
0.483803
0.51957
0.570718
0.664778
2.49226
1.51059
0.538307
0.249284
0.343639
0.414626
0.435424
0.44107
0.442092
0.439182
0.437065
0.437111
0.437968
0.438531
0.438258
0.437241
0.435748
0.433862
0.431766
0.429566
0.427293
0.42502
0.422812
0.420666
0.41853
0.41634
0.414142
0.412037
0.410081
0.408387
0.407046
0.406078
0.405569
0.405552
0.406118
0.407257
0.408819
0.411362
0.4154
0.421344
0.429461
0.440404
0.454442
0.471994
0.494784
0.525651
0.568787
0.630482
0.729013
0.881009
2.48023
1.48491
0.531755
0.256136
0.347552
0.418558
0.437494
0.441324
0.441921
0.439575
0.438432
0.439403
0.441098
0.442441
0.443064
0.442864
0.442055
0.440868
0.439393
0.437758
0.436052
0.434315
0.432623
0.431012
0.429471
0.428018
0.426574
0.425099
0.423794
0.422822
0.422332
0.422372
0.422971
0.424295
0.426431
0.429248
0.432873
0.437651
0.444368
0.453144
0.464197
0.478217
0.496642
0.520011
0.549872
0.589296
0.643063
0.717989
0.829501
0.967034
2.47186
1.46712
0.529806
0.265441
0.351806
0.421739
0.438918
0.440816
0.44051
0.438565
0.438514
0.440562
0.443369
0.446029
0.447955
0.449158
0.449763
0.449829
0.44946
0.448814
0.447986
0.446981
0.445883
0.444757
0.443633
0.442574
0.441599
0.440581
0.43966
0.439234
0.439466
0.440306
0.441857
0.444309
0.447449
0.451521
0.457105
0.464186
0.472979
0.483892
0.497455
0.514639
0.536027
0.563718
0.597397
0.641027
0.696637
0.768689
0.865964
0.970557
2.46658
1.45589
0.527166
0.268358
0.351634
0.420871
0.437431
0.438383
0.437804
0.436911
0.438351
0.441646
0.445713
0.449667
0.45313
0.456092
0.458585
0.460544
0.462051
0.463176
0.463946
0.464358
0.464442
0.464276
0.463906
0.463415
0.462853
0.462262
0.461363
0.460576
0.460678
0.461659
0.463368
0.46592
0.46999
0.475651
0.482528
0.490704
0.500646
0.512897
0.527988
0.546693
0.569705
0.598715
0.634191
0.677057
0.729802
0.792658
0.871961
0.954188
2.47645
1.47755
0.544652
0.274914
0.35045
0.416052
0.431782
0.432293
0.43162
0.431179
0.433225
0.436901
0.441337
0.445729
0.449749
0.453398
0.45675
0.459845
0.462689
0.465318
0.467727
0.469904
0.471858
0.47359
0.475112
0.476471
0.477709
0.47886
0.479958
0.480838
0.481746
0.483232
0.485482
0.488871
0.49359
0.499906
0.507888
0.517224
0.528066
0.54109
0.556801
0.575795
0.598756
0.626489
0.660339
0.700711
0.748049
0.803492
0.867905
0.934675
2.47829
1.48314
0.559764
0.276007
0.350761
0.420403
0.43872
0.438833
0.436504
0.433629
0.432964
0.434461
0.436801
0.43946
0.442133
0.444861
0.447697
0.450671
0.45375
0.456928
0.460181
0.463504
0.466906
0.470336
0.473828
0.477333
0.480885
0.484445
0.488044
0.491614
0.494869
0.498248
0.502567
0.507913
0.514016
0.521165
0.529936
0.540429
0.552644
0.566533
0.582906
0.601786
0.624115
0.650225
0.680697
0.717229
0.758826
0.807084
0.861492
0.916672
2.26939
1.38839
0.707731
0.316808
0.387533
0.461892
0.48799
0.484687
0.473061
0.460109
0.449391
0.441287
0.43461
0.428718
0.423875
0.420349
0.418318
0.417793
0.418741
0.42097
0.424298
0.428523
0.433544
0.439132
0.445257
0.45187
0.458861
0.466183
0.473702
0.481172
0.48854
0.49621
0.504475
0.513189
0.522371
0.532203
0.543159
0.555594
0.569494
0.585039
0.602209
0.62188
0.64363
0.668991
0.697014
0.729785
0.766151
0.807664
0.85376
0.900351
2.31789
1.47047
0.739958
0.28945
0.374025
0.45335
0.483884
0.48447
0.474967
0.463807
0.454335
0.447489
0.441829
0.436535
0.431531
0.427045
0.423287
0.420402
0.418508
0.417564
0.417644
0.418849
0.421123
0.424476
0.428808
0.434205
0.440637
0.448002
0.456132
0.465119
0.47503
0.485487
0.49634
0.507777
0.519513
0.53217
0.545657
0.560217
0.576172
0.593699
0.612249
0.632882
0.654851
0.679594
0.706251
0.736026
0.768716
0.80488
0.84467
0.883929
2.32294
1.48102
0.747134
0.28965
0.372348
0.451349
0.48548
0.489048
0.481853
0.472784
0.464522
0.458508
0.453597
0.448985
0.44452
0.440367
0.436713
0.433643
0.431183
0.429353
0.428183
0.427683
0.427975
0.429119
0.43116
0.4341
0.437992
0.442993
0.449275
0.457033
0.466201
0.476631
0.488103
0.500404
0.513594
0.527639
0.542373
0.558222
0.575299
0.593715
0.613632
0.634985
0.657659
0.681985
0.708188
0.736152
0.766334
0.798357
0.833467
0.867088
2.31491
1.47959
0.744633
0.291463
0.373686
0.453513
0.488795
0.493117
0.486521
0.478063
0.47037
0.46496
0.460663
0.456659
0.452789
0.449184
0.446037
0.44343
0.44137
0.439884
0.438984
0.438626
0.43888
0.439758
0.441273
0.443401
0.4461
0.44966
0.454438
0.460453
0.467543
0.475929
0.485757
0.496953
0.509476
0.523313
0.538316
0.554527
0.571903
0.590302
0.610096
0.631401
0.654278
0.678222
0.703636
0.730142
0.758396
0.787771
0.819458
0.849257
2.32044
1.47704
0.748469
0.300752
0.381335
0.462031
0.497397
0.500478
0.492049
0.481982
0.473356
0.467319
0.462586
0.458354
0.454437
0.450941
0.448012
0.445711
0.444019
0.442929
0.442428
0.442529
0.443218
0.44445
0.44629
0.448607
0.45138
0.455045
0.4597
0.465167
0.471433
0.478742
0.487344
0.497228
0.508441
0.521
0.534927
0.550249
0.566892
0.584898
0.604326
0.625047
0.647293
0.670694
0.69547
0.720957
0.747535
0.774542
0.803017
0.830398
2.26741
1.38934
0.718046
0.33684
0.401374
0.475461
0.508575
0.510261
0.501014
0.49062
0.482024
0.475777
0.47067
0.466043
0.461772
0.457914
0.454586
0.451802
0.449588
0.447994
0.447023
0.446632
0.446878
0.447746
0.449146
0.451092
0.453759
0.45737
0.461839
0.467036
0.473032
0.480021
0.48813
0.497366
0.507751
0.519298
0.532044
0.54611
0.561465
0.578277
0.596393
0.615893
0.636926
0.659187
0.682786
0.707578
0.732982
0.759297
0.786097
0.811087
2.49249
1.5182
0.592829
0.304042
0.369527
0.439381
0.461064
0.462293
0.461132
0.460256
0.46165
0.464485
0.467885
0.471186
0.474152
0.476742
0.478946
0.480746
0.482145
0.483185
0.483946
0.484426
0.484786
0.485038
0.485381
0.485739
0.486534
0.488001
0.490056
0.492825
0.496475
0.50103
0.506533
0.513153
0.520975
0.530018
0.540284
0.551781
0.564627
0.578872
0.594377
0.611265
0.629682
0.649446
0.670773
0.693295
0.716735
0.741619
0.766197
0.790506
2.4972
1.52348
0.588913
0.305295
0.365189
0.428731
0.447035
0.448814
0.450512
0.453311
0.458297
0.464897
0.472185
0.479441
0.486344
0.492755
0.498634
0.503945
0.508653
0.512767
0.516298
0.519251
0.521675
0.523659
0.525246
0.526631
0.528047
0.529576
0.531224
0.533136
0.535605
0.538617
0.542231
0.546518
0.551727
0.557977
0.565194
0.573786
0.583326
0.59421
0.606415
0.619988
0.634583
0.650766
0.668114
0.687225
0.707062
0.728834
0.750961
0.77243
2.48857
1.5089
0.578857
0.299043
0.374583
0.450883
0.475187
0.477479
0.477454
0.478296
0.481572
0.486908
0.493134
0.499396
0.5054
0.511064
0.516361
0.521318
0.525948
0.530279
0.534344
0.538149
0.541716
0.545062
0.548245
0.55139
0.554531
0.557657
0.560801
0.563998
0.567262
0.570677
0.574389
0.578451
0.582971
0.588156
0.593885
0.600753
0.608462
0.617064
0.626802
0.637891
0.649685
0.662923
0.676637
0.692194
0.708235
0.725906
0.74445
0.762511
2.25733
1.37155
0.713742
0.356927
0.422219
0.498824
0.532744
0.532781
0.521269
0.509486
0.499812
0.493226
0.488569
0.484993
0.482375
0.480776
0.479921
0.479898
0.480962
0.483177
0.486484
0.490741
0.495773
0.501536
0.508042
0.515171
0.52274
0.530568
0.538633
0.546806
0.554924
0.563182
0.571364
0.57944
0.587543
0.59557
0.603614
0.611928
0.620532
0.629769
0.639452
0.650045
0.661075
0.673497
0.685917
0.699528
0.713519
0.728598
0.744318
0.759501
2.49777
1.52918
0.585889
0.297852
0.380449
0.46295
0.492314
0.497304
0.497531
0.497431
0.498826
0.502005
0.505845
0.509535
0.512808
0.51558
0.517851
0.519705
0.521247
0.522602
0.523955
0.525435
0.527164
0.529159
0.531678
0.534881
0.538664
0.543038
0.548082
0.553801
0.560056
0.566863
0.574265
0.582104
0.590284
0.598958
0.608076
0.617385
0.626948
0.636798
0.646924
0.657648
0.668513
0.679952
0.69171
0.703905
0.716741
0.729814
0.743944
0.757206
2.50855
1.54787
0.590829
0.296799
0.370406
0.444632
0.469722
0.474965
0.47785
0.481135
0.48575
0.492147
0.499436
0.506827
0.513979
0.520746
0.527024
0.532822
0.538173
0.543128
0.547738
0.551982
0.555879
0.559483
0.562861
0.566019
0.568835
0.571556
0.574664
0.578147
0.581973
0.586294
0.591148
0.596803
0.603167
0.610197
0.617938
0.626345
0.63511
0.644354
0.654003
0.663913
0.674288
0.685098
0.69631
0.707749
0.719682
0.731792
0.744124
0.756025
2.51848
1.5692
0.601481
0.301003
0.374793
0.448889
0.477421
0.486073
0.490522
0.494265
0.498268
0.503555
0.509484
0.515527
0.521635
0.52771
0.533585
0.53929
0.544928
0.55053
0.556056
0.561483
0.566791
0.571943
0.576881
0.58156
0.585631
0.589056
0.592372
0.595697
0.599235
0.603086
0.607148
0.611543
0.616678
0.622753
0.629315
0.63648
0.644099
0.652191
0.660778
0.669777
0.679413
0.689316
0.699768
0.710487
0.72136
0.732792
0.744261
0.755335
2.52986
1.60027
0.62061
0.299219
0.3798
0.459944
0.489638
0.495841
0.497304
0.498361
0.500846
0.504885
0.509665
0.514688
0.519811
0.524915
0.529745
0.534351
0.53889
0.543451
0.548091
0.552863
0.557802
0.562928
0.568239
0.573679
0.579197
0.584478
0.589335
0.594238
0.599327
0.604614
0.610077
0.615609
0.621276
0.627405
0.634169
0.641207
0.648702
0.656506
0.66473
0.673258
0.682246
0.691543
0.70128
0.711392
0.721586
0.732269
0.74296
0.753376
2.35726
1.53782
0.795207
0.357651
0.417907
0.492312
0.537447
0.5473
0.54235
0.536046
0.530549
0.527196
0.525071
0.523774
0.522998
0.522234
0.521663
0.521433
0.521597
0.522257
0.523345
0.524958
0.527184
0.530146
0.534096
0.538912
0.544321
0.550328
0.556974
0.563962
0.571139
0.57873
0.586657
0.594906
0.603463
0.612148
0.620952
0.629809
0.638821
0.647921
0.657212
0.66648
0.675974
0.685615
0.695309
0.705578
0.715564
0.726259
0.73683
0.746997
2.5671
1.6829
0.660923
0.306467
0.377414
0.450486
0.485054
0.495096
0.497069
0.498036
0.499446
0.502317
0.506107
0.510735
0.515713
0.520435
0.524974
0.529491
0.53404
0.538607
0.543149
0.547622
0.552013
0.556356
0.560701
0.565038
0.569323
0.573554
0.577828
0.582072
0.586253
0.590768
0.595767
0.601227
0.607076
0.613465
0.620708
0.628598
0.636676
0.644884
0.653297
0.661969
0.670817
0.679876
0.688936
0.698429
0.708071
0.717875
0.728147
0.737633
2.56147
1.6726
0.662286
0.304245
0.369194
0.438377
0.469725
0.479154
0.482194
0.484418
0.486889
0.490049
0.494012
0.498666
0.503363
0.507882
0.512359
0.516971
0.52183
0.526952
0.532333
0.537964
0.543832
0.549939
0.556254
0.56271
0.569237
0.575727
0.58208
0.588176
0.593687
0.598605
0.603422
0.6084
0.6136
0.618903
0.62439
0.630601
0.637802
0.645128
0.652542
0.660186
0.66799
0.676216
0.684656
0.693233
0.701945
0.710714
0.719933
0.728672
2.41687
1.64672
0.861545
0.371394
0.418399
0.479854
0.528696
0.543357
0.542016
0.538152
0.534987
0.533259
0.532677
0.533054
0.533418
0.53346
0.533331
0.533227
0.533309
0.533545
0.534004
0.534767
0.535929
0.537601
0.539911
0.543128
0.547522
0.552746
0.5585
0.564768
0.57153
0.578222
0.584327
0.590548
0.597052
0.603818
0.610832
0.617895
0.625147
0.633046
0.641419
0.649773
0.658257
0.666863
0.675644
0.684322
0.693345
0.702283
0.71141
0.719809
2.44808
1.68366
0.893457
0.365086
0.410213
0.473336
0.524738
0.539573
0.53739
0.532801
0.529084
0.527572
0.527332
0.528295
0.529614
0.530554
0.531252
0.531887
0.532497
0.533019
0.533401
0.533626
0.533668
0.533678
0.533797
0.534168
0.535003
0.536708
0.539877
0.544307
0.549528
0.555223
0.561503
0.568452
0.575522
0.582746
0.590291
0.598316
0.606919
0.615739
0.624696
0.634027
0.643564
0.653069
0.662759
0.672429
0.682202
0.692123
0.701922
0.711251
2.46009
1.69675
0.908222
0.380747
0.415047
0.474344
0.52493
0.541568
0.541923
0.538888
0.536444
0.53528
0.535289
0.536246
0.537111
0.537714
0.538239
0.538854
0.539632
0.540552
0.541515
0.542401
0.543169
0.543787
0.544074
0.544233
0.544476
0.544821
0.545414
0.546907
0.549559
0.552933
0.557257
0.562468
0.568399
0.574977
0.58226
0.59022
0.598601
0.607119
0.61592
0.625169
0.634635
0.644152
0.653842
0.6638
0.673942
0.684132
0.694204
0.703765
2.6006
1.77097
0.72104
0.33929
0.390246
0.45603
0.493438
0.502915
0.501661
0.499288
0.497526
0.496924
0.497587
0.499369
0.501501
0.503709
0.506119
0.50895
0.512313
0.516213
0.520639
0.525563
0.530836
0.536324
0.541904
0.547477
0.552932
0.558163
0.56291
0.566877
0.57061
0.574471
0.578297
0.582128
0.586163
0.590553
0.595506
0.60111
0.60743
0.614424
0.621861
0.629669
0.637898
0.646381
0.655145
0.664007
0.673045
0.682167
0.691433
0.700298
2.46825
1.70853
0.918837
0.388682
0.418925
0.47768
0.528421
0.545106
0.545396
0.542557
0.540312
0.539525
0.539727
0.541018
0.542447
0.543429
0.544135
0.544802
0.545539
0.546405
0.547424
0.548529
0.549667
0.550903
0.552202
0.553561
0.555369
0.557615
0.560331
0.563502
0.567008
0.570905
0.575042
0.579356
0.584017
0.589023
0.59432
0.599996
0.606344
0.613387
0.620916
0.628889
0.637127
0.645608
0.654271
0.662989
0.67169
0.68048
0.689237
0.69763
2.4639
1.72183
0.923529
0.392872
0.420751
0.479881
0.530566
0.546904
0.546965
0.544038
0.541629
0.540843
0.54099
0.542229
0.543819
0.54502
0.54592
0.546738
0.547575
0.548439
0.549334
0.550226
0.551042
0.551825
0.552455
0.552763
0.553224
0.554149
0.555525
0.557328
0.560121
0.5641
0.568576
0.573491
0.578836
0.584558
0.590627
0.597093
0.604005
0.611331
0.619001
0.626938
0.635059
0.64329
0.651554
0.659893
0.668283
0.676769
0.685245
0.6933
2.60765
1.79119
0.737182
0.353599
0.396756
0.460427
0.500691
0.512001
0.511639
0.509652
0.508155
0.507765
0.508248
0.509671
0.511424
0.51299
0.514467
0.516109
0.518082
0.520484
0.523388
0.526912
0.531011
0.535535
0.540395
0.545563
0.551016
0.556581
0.561764
0.566392
0.570956
0.575527
0.580181
0.584995
0.589906
0.594809
0.599753
0.604956
0.610907
0.617559
0.624525
0.631655
0.638811
0.645918
0.653002
0.660152
0.667403
0.674797
0.682195
0.689385
2.47687
1.72567
0.940083
0.405283
0.425397
0.48412
0.536286
0.554728
0.555732
0.552901
0.550326
0.549301
0.549217
0.55018
0.551569
0.552679
0.553535
0.554296
0.555035
0.555757
0.556465
0.557147
0.557777
0.558377
0.55899
0.559517
0.560168
0.561304
0.562931
0.5651
0.567899
0.571148
0.574862
0.578955
0.583259
0.587913
0.593045
0.598526
0.60438
0.610975
0.618155
0.625433
0.632776
0.640164
0.64757
0.654954
0.662288
0.669671
0.677154
0.684327
2.4592
1.72662
0.9319
0.394091
0.420549
0.48207
0.536047
0.554304
0.554685
0.551151
0.547966
0.546895
0.547024
0.548193
0.549845
0.551273
0.552511
0.553696
0.554859
0.555978
0.55702
0.557936
0.558694
0.55919
0.559322
0.559313
0.559368
0.559623
0.560134
0.560919
0.562432
0.565222
0.568834
0.572885
0.577435
0.582477
0.587999
0.593954
0.600355
0.607214
0.614426
0.621726
0.628923
0.636118
0.643361
0.650696
0.65819
0.665793
0.673419
0.680618
2.46274
1.7333
0.93894
0.402552
0.427627
0.48893
0.542796
0.560746
0.560578
0.556496
0.552683
0.551275
0.551209
0.5522
0.553696
0.555002
0.556069
0.557019
0.557905
0.558694
0.559318
0.559732
0.559889
0.559733
0.55937
0.558966
0.558671
0.558579
0.558739
0.559156
0.560424
0.56309
0.566466
0.57029
0.57466
0.579622
0.585202
0.591383
0.598102
0.605321
0.612973
0.620484
0.627481
0.634459
0.641478
0.648559
0.655781
0.663217
0.670751
0.677766
2.44805
1.7016
0.91501
0.413228
0.443798
0.503116
0.555236
0.572268
0.572581
0.569461
0.566502
0.565607
0.565676
0.566329
0.567083
0.567488
0.567605
0.567575
0.56748
0.567317
0.567036
0.566629
0.566052
0.56513
0.564092
0.563334
0.562956
0.562932
0.563285
0.564485
0.566627
0.569183
0.57212
0.575419
0.579122
0.583339
0.588134
0.593551
0.59954
0.606042
0.61297
0.620162
0.627329
0.633959
0.640195
0.646575
0.653132
0.659954
0.666952
0.673461
2.59628
1.75666
0.717475
0.356289
0.401701
0.464722
0.501229
0.51009
0.509056
0.507192
0.506098
0.506155
0.506879
0.50826
0.509987
0.511625
0.513326
0.515288
0.517637
0.520455
0.523753
0.527581
0.531891
0.536458
0.541353
0.546771
0.55262
0.558797
0.565176
0.571594
0.577848
0.583699
0.589025
0.593863
0.598364
0.602692
0.606972
0.611137
0.615023
0.619473
0.625033
0.630494
0.635547
0.640195
0.644681
0.649276
0.653824
0.658731
0.664244
0.669659
2.62447
1.81638
0.734911
0.364708
0.400524
0.454363
0.485777
0.492703
0.491235
0.489491
0.488652
0.488675
0.489182
0.490329
0.491742
0.492947
0.494366
0.496418
0.499225
0.502794
0.507231
0.512655
0.518902
0.525926
0.533696
0.54214
0.551108
0.56026
0.568943
0.576894
0.584359
0.591223
0.59743
0.602995
0.607951
0.612323
0.616086
0.619068
0.621485
0.624677
0.628923
0.632973
0.636822
0.640518
0.644165
0.647866
0.651832
0.656315
0.661116
0.66608
2.59888
1.76329
0.720558
0.358776
0.402839
0.465246
0.502487
0.511868
0.511306
0.510152
0.509691
0.510111
0.510889
0.512138
0.513484
0.514556
0.515549
0.516739
0.518312
0.520427
0.523204
0.5267
0.530954
0.535905
0.541424
0.547474
0.554003
0.560904
0.568031
0.575172
0.58204
0.588313
0.593776
0.598389
0.602301
0.605768
0.609001
0.612061
0.614775
0.617511
0.621499
0.626513
0.631397
0.636207
0.640961
0.645741
0.650641
0.655801
0.661419
0.666953
2.45408
1.7114
0.923781
0.419279
0.447513
0.50639
0.558836
0.576728
0.577851
0.575229
0.572766
0.572171
0.572541
0.573343
0.573974
0.573769
0.573293
0.572819
0.572478
0.57226
0.572068
0.571827
0.571539
0.5712
0.570833
0.570449
0.57023
0.570305
0.570655
0.571395
0.572972
0.575426
0.578168
0.581116
0.584384
0.588024
0.591657
0.595441
0.599768
0.604603
0.609791
0.615201
0.620733
0.626282
0.631855
0.637618
0.643611
0.649815
0.656311
0.662765
2.46783
1.7417
0.948449
0.409052
0.42973
0.491318
0.546478
0.566042
0.567078
0.56349
0.560024
0.558491
0.55793
0.55814
0.558847
0.559566
0.560324
0.561194
0.562152
0.563157
0.56417
0.565099
0.565903
0.566644
0.567304
0.567759
0.568033
0.568213
0.568386
0.568671
0.569149
0.570165
0.572445
0.575687
0.579227
0.583061
0.587202
0.591696
0.596694
0.602068
0.606901
0.611139
0.615726
0.620697
0.626105
0.632013
0.638373
0.644952
0.651658
0.658606
2.47779
1.73919
0.958832
0.412544
0.427113
0.488647
0.544341
0.565478
0.567541
0.564533
0.561417
0.559697
0.558799
0.558744
0.559381
0.56016
0.56095
0.561831
0.56283
0.563957
0.565207
0.566473
0.567704
0.568929
0.570038
0.570879
0.57147
0.571788
0.571844
0.571932
0.572071
0.572368
0.573576
0.576016
0.57877
0.581771
0.585042
0.588672
0.59298
0.597401
0.600997
0.604662
0.609081
0.614205
0.620013
0.626438
0.633298
0.640204
0.647518
0.655561
1.19463
1.05705
0.51066
0.19508
0.0164983
0.12002
0.179667
0.229533
0.245651
0.24331
0.232372
0.223449
0.214165
0.202345
0.187142
0.167954
0.145375
0.120426
0.0939549
0.066552
0.0391697
0.0164772
0.0270436
0.0538437
0.0811024
0.107697
0.13357
0.158686
0.183086
0.206786
0.22974
0.251905
0.272906
0.292832
0.31283
0.333473
0.353719
0.37311
0.391823
0.409966
0.427631
0.444799
0.461506
0.477759
0.493536
0.508878
0.523684
0.538048
0.551864
0.565159
0.57794
0.590134
0.601795
0.612866
0.623356
0.633272
0.642576
0.65128
0.65939
0.666891
0.67377
0.680051
0.68572
0.690778
0.695241
0.699098
0.702408
0.705173
0.707386
0.709133
0.710504
0.711548
0.712271
0.712804
0.713365
0.713868
0.714255
0.714416
0.71441
0.714506
0.714888
0.715423
0.716102
0.716953
0.717966
0.719122
0.720485
0.722186
0.724259
0.726515
0.728781
0.730988
0.733413
0.735762
0.738191
0.740321
0.742531
0.744344
0.746132
0.750122
1.1256
1.04333
0.813924
0.551547
0.5076
0.435418
0.383248
0.335592
0.297155
0.261366
0.219072
0.187517
0.174532
0.181558
0.192376
0.205117
0.220623
0.238092
0.25691
0.276538
0.29638
0.316178
0.336073
0.356394
0.37689
0.397314
0.4175
0.437478
0.457113
0.476274
0.494974
0.513258
0.530709
0.547076
0.563073
0.579504
0.595969
0.611716
0.626863
0.641574
0.655886
0.669817
0.683383
0.696664
0.709624
0.722401
0.734807
0.746986
0.75881
0.770232
0.781329
0.79193
0.802128
0.811786
0.820929
0.829507
0.837517
0.844973
0.85184
0.858183
0.863997
0.869213
0.873912
0.878126
0.881738
0.884788
0.887396
0.889466
0.890947
0.892025
0.892742
0.893006
0.89292
0.892516
0.891797
0.891106
0.890275
0.88916
0.887888
0.886736
0.885942
0.885482
0.885229
0.88521
0.885589
0.886049
0.886912
0.88794
0.889799
0.891684
0.894049
0.896486
0.898875
0.90178
0.90418
0.907297
0.909724
0.912597
0.914323
0.919148
1.07825
1.08337
1.01574
0.904635
0.837189
0.790552
0.755029
0.721063
0.68929
0.664204
0.642223
0.623885
0.611738
0.601141
0.593695
0.589007
0.587397
0.588564
0.593038
0.599482
0.607335
0.616072
0.625455
0.635702
0.646685
0.65826
0.670225
0.682417
0.694844
0.707422
0.720122
0.732831
0.74538
0.757298
0.768741
0.780478
0.792783
0.805007
0.816877
0.828489
0.839948
0.851303
0.862546
0.873616
0.88444
0.894931
0.905055
0.914803
0.924221
0.933376
0.94232
0.951087
0.959645
0.967944
0.975901
0.983425
0.990457
0.99694
1.00285
1.00818
1.01302
1.01735
1.02123
1.02466
1.02772
1.03043
1.03272
1.03472
1.03656
1.03815
1.03941
1.04039
1.0412
1.04193
1.04278
1.04358
1.04414
1.04418
1.04397
1.04377
1.04376
1.04391
1.04389
1.04353
1.04312
1.04255
1.04166