/*--------------------------------*- C++ -*----------------------------------*\
| =========                 |                                                 |
| \\      /  F ield         | OpenFOAM: The Open Source CFD Toolbox           |
|  \\    /   O peration     | Version:  2412                                  |
|   \\  /    A nd           | Website:  www.openfoam.com                      |
|    \\/     M anipulation  |                                                 |
\*---------------------------------------------------------------------------*/
FoamFile
{
    version     2.0;
    format      ascii;
    arch        "LSB;label=32;scalar=64";
    class       volScalarField;
    location    "10";
    object      p;
}
// * * * * * * * * * * * * * * * * * * * * * * * * * * * * * * * * * * * * * //

dimensions      [1 -1 -2 0 0 0 0];

internalField   nonuniform List<scalar> 
7000
(
1.49109
1.77545
6.01621
11.1525
10.9241
10.4021
10.1694
10.1349
10.1694
10.2538
10.3456
10.4172
10.476
10.5328
10.5916
10.6514
10.7107
10.7691
10.8259
10.8814
10.9359
10.9886
11.043
11.0963
11.1505
11.2062
11.2639
11.3226
11.3837
11.4463
11.5098
11.5739
11.6379
11.7015
11.7645
11.8269
11.8887
11.95
12.0105
12.0706
12.1297
12.187
12.2426
12.2957
12.3446
12.3877
12.4245
12.455
12.477
12.4916
1.49114
1.77606
6.0179
11.1531
10.9243
10.4015
10.1685
10.1339
10.1684
10.2527
10.3446
10.4162
10.4752
10.5319
10.5907
10.6505
10.71
10.7682
10.8251
10.8807
10.9351
10.988
11.0422
11.0956
11.1497
11.2055
11.2631
11.3217
11.3827
11.4453
11.5087
11.5728
11.6368
11.7004
11.7633
11.8257
11.8875
11.9488
12.0092
12.0694
12.1285
12.1859
12.2416
12.2948
12.3439
12.3873
12.4242
12.4548
12.477
12.4918
1.49135
1.77728
6.02201
11.1543
10.9243
10.4
10.1665
10.1318
10.1662
10.2505
10.3425
10.4142
10.4732
10.53
10.5889
10.6486
10.7081
10.7665
10.8234
10.879
10.9335
10.9864
11.0406
11.0939
11.148
11.2037
11.2612
11.3196
11.3805
11.4428
11.5061
11.57
11.6338
11.6972
11.76
11.8222
11.8839
11.945
12.0053
12.0654
12.1244
12.1818
12.2375
12.2906
12.3397
12.3832
12.4204
12.4511
12.4732
12.4882
1.49167
1.77931
6.02875
11.1561
10.9244
10.3977
10.1635
10.1284
10.1629
10.2472
10.3393
10.4111
10.4702
10.527
10.586
10.6457
10.7052
10.7636
10.8205
10.8762
10.9307
10.9837
11.0378
11.0911
11.1451
11.2006
11.2579
11.3162
11.3768
11.4389
11.5019
11.5655
11.6291
11.6922
11.7548
11.8168
11.8782
11.9391
11.9991
12.059
12.1179
12.1751
12.2307
12.2837
12.3328
12.3764
12.4137
12.4445
12.4667
12.4818
1.49212
1.78212
6.03811
11.159
10.9245
10.3945
10.1593
10.1239
10.1582
10.2424
10.3346
10.4066
10.4658
10.5227
10.5817
10.6416
10.7011
10.7596
10.8166
10.8723
10.9268
10.98
11.0339
11.0872
11.1411
11.1962
11.2531
11.3113
11.3713
11.4331
11.4958
11.559
11.6222
11.685
11.7472
11.8089
11.87
11.9305
11.9902
12.0497
12.1083
12.1654
12.2208
12.2737
12.3228
12.3665
12.4039
12.4348
12.457
12.4723
1.49275
1.78602
6.05105
11.1624
10.9243
10.39
10.1539
10.118
10.1522
10.2363
10.3286
10.4007
10.46
10.517
10.576
10.636
10.6954
10.7539
10.8111
10.8668
10.9213
10.9747
11.0283
11.0817
11.1353
11.1902
11.2467
11.3047
11.364
11.4253
11.4875
11.5502
11.6129
11.6753
11.737
11.7982
11.8588
11.9188
11.9781
12.0372
12.0954
12.1523
12.2074
12.2602
12.3092
12.3529
12.3904
12.4215
12.4436
12.4592
1.49356
1.7909
6.06753
11.1666
10.924
10.3847
10.1472
10.1108
10.1447
10.2284
10.3207
10.393
10.4524
10.5096
10.5686
10.6287
10.6883
10.7469
10.8042
10.86
10.9145
10.9682
11.0212
11.0748
11.1281
11.1825
11.2386
11.2962
11.3546
11.4153
11.4769
11.539
11.601
11.6627
11.7239
11.7845
11.8444
11.9038
11.9624
12.021
12.0786
12.1353
12.19
12.2425
12.2914
12.3351
12.3726
12.4037
12.4259
12.4418
1.49459
1.79722
6.08876
11.1715
10.9235
10.378
10.1391
10.1023
10.1359
10.2192
10.3115
10.3837
10.4432
10.5004
10.5594
10.6197
10.6792
10.7379
10.7952
10.851
10.9056
10.9594
11.012
11.0657
11.1187
11.1727
11.2282
11.285
11.3429
11.4028
11.4637
11.5249
11.5861
11.647
11.7075
11.7672
11.8264
11.8849
11.9427
12.0006
12.0576
12.114
12.1678
12.2201
12.2687
12.3123
12.3498
12.3809
12.4032
12.4193
1.49589
1.80503
6.115
11.1771
10.9225
10.3698
10.1293
10.0921
10.1253
10.2081
10.3001
10.3723
10.4319
10.4891
10.5481
10.6085
10.6683
10.7271
10.7844
10.8402
10.8949
10.9486
11.0012
11.0545
11.1071
11.1606
11.2153
11.2713
11.3286
11.3874
11.4473
11.5076
11.5678
11.6278
11.6872
11.746
11.8041
11.8616
11.9185
11.9755
12.0316
12.0875
12.1403
12.192
12.2403
12.2837
12.3211
12.3522
12.3744
12.391
1.49754
1.81474
6.14751
11.1832
10.9207
10.3598
10.118
10.0805
10.1134
10.1954
10.287
10.359
10.4185
10.4758
10.5348
10.5951
10.6551
10.7138
10.7711
10.827
10.8816
10.9353
10.9878
11.0405
11.093
11.1458
11.1997
11.2549
11.3116
11.3686
11.4276
11.4867
11.5458
11.6045
11.6628
11.7203
11.7771
11.8334
11.8891
11.9449
12
12.0549
12.1065
12.1575
12.2052
12.2483
12.2853
12.3163
12.3386
12.3555
1.49966
1.82553
6.18838
11.1899
10.9176
10.3469
10.1046
10.0672
10.0997
10.1809
10.2719
10.3435
10.4028
10.4601
10.5192
10.5795
10.6395
10.6983
10.7555
10.8114
10.8659
10.9193
10.9718
11.0239
11.076
11.1281
11.181
11.2352
11.2908
11.3466
11.4042
11.4619
11.5196
11.5769
11.6336
11.6896
11.7449
11.7996
11.8538
11.9081
11.9618
12.0152
12.0655
12.1152
12.162
12.2044
12.2409
12.2717
12.2939
12.3114
1.50234
1.83822
6.23919
11.1962
10.9121
10.3312
10.0888
10.052
10.0841
10.1644
10.2546
10.3258
10.3848
10.442
10.5011
10.5614
10.6213
10.68
10.7371
10.7928
10.8471
10.9003
10.9525
11.0041
11.0554
11.107
11.1589
11.2119
11.266
11.3207
11.3766
11.4328
11.4888
11.5444
11.5993
11.6534
11.7068
11.7596
11.8119
11.8642
11.916
11.9673
12.0158
12.0638
12.1092
12.1506
12.186
12.2164
12.2384
12.2564
1.50556
1.85324
6.2995
11.2019
10.9046
10.3126
10.0706
10.0348
10.0666
10.146
10.2354
10.306
10.3647
10.4218
10.4808
10.5411
10.6009
10.6594
10.7163
10.7717
10.8256
10.8783
10.9301
10.981
11.0316
11.082
11.1329
11.1845
11.237
11.2905
11.3442
11.3986
11.4528
11.5063
11.5591
11.611
11.6621
11.7126
11.7626
11.8122
11.8613
11.9099
11.956
12.0016
12.0446
12.0842
12.1178
12.1473
12.1688
12.1876
1.50882
1.87188
6.37164
11.2084
10.894
10.2892
10.0485
10.0147
10.0463
10.125
10.2135
10.2836
10.342
10.3988
10.4577
10.5179
10.5776
10.6358
10.6924
10.7474
10.8009
10.853
10.904
10.9542
11.0038
11.0531
11.1027
11.1527
11.2036
11.2553
11.3068
11.3591
11.411
11.4622
11.5125
11.5618
11.6102
11.6578
11.7047
11.7509
11.7965
11.8415
11.8842
11.9262
11.9658
12.0024
12.0332
12.0607
12.0811
12.1003
1.51259
1.89431
6.45894
11.2126
10.8787
10.2617
10.0234
9.99233
10.0238
10.1019
10.1895
10.2588
10.3166
10.3731
10.4317
10.4915
10.551
10.6089
10.6651
10.7196
10.7724
10.8239
10.8741
10.9233
10.9718
11.0198
11.0679
11.1162
11.1651
11.2146
11.264
11.3138
11.3631
11.4115
11.459
11.5052
11.5502
11.5942
11.6372
11.679
11.7203
11.7604
11.7984
11.8351
11.8694
11.9009
11.927
11.9506
11.9687
11.9885
1.51676
1.92106
6.56155
11.2156
10.8584
10.229
9.99377
9.96661
9.99812
10.0759
10.163
10.2318
10.2893
10.3453
10.4036
10.4631
10.5221
10.5795
10.6351
10.6888
10.7408
10.7913
10.8404
10.8884
10.9354
10.982
11.0283
11.0746
11.1213
11.1683
11.2154
11.2621
11.3084
11.3537
11.3978
11.4403
11.4814
11.521
11.5591
11.5955
11.6312
11.6646
11.696
11.7249
11.7511
11.7745
11.7926
11.8093
11.8218
11.8408
1.52138
1.95303
6.68176
11.2167
10.8328
10.1917
9.95994
9.93769
9.96935
10.047
10.1335
10.2017
10.2585
10.314
10.3716
10.4305
10.489
10.5458
10.6008
10.6537
10.7049
10.7543
10.8022
10.8488
10.8943
10.9391
10.9834
11.0276
11.0717
11.116
11.1601
11.2036
11.2466
11.2883
11.3284
11.3667
11.403
11.4372
11.4694
11.4992
11.5274
11.5522
11.5745
11.5917
11.606
11.6162
11.6204
11.6233
11.6244
11.6396
1.52613
1.99083
6.81894
11.215
10.8013
10.1495
9.92058
9.90424
9.93655
10.0148
10.1013
10.1693
10.2257
10.2806
10.3375
10.3956
10.4533
10.5094
10.5634
10.6154
10.6654
10.7135
10.7599
10.8049
10.8485
10.8913
10.9333
10.9749
11.0163
11.0574
11.0982
11.1382
11.1773
11.2148
11.2504
11.2837
11.3144
11.3423
11.3674
11.3889
11.4074
11.421
11.4302
11.4317
11.4283
11.4177
11.3977
11.3736
11.348
11.3495
1.53088
2.03466
6.97156
11.2095
10.7652
10.1043
9.87763
9.86808
9.90092
9.97958
10.0661
10.1339
10.1898
10.2438
10.2997
10.3568
10.4135
10.4686
10.5216
10.5725
10.6212
10.6679
10.7128
10.7559
10.7976
10.838
10.8775
10.9163
10.9546
10.9923
11.0293
11.0654
11.1004
11.133
11.1635
11.1911
11.2153
11.2359
11.2524
11.2639
11.2702
11.2693
11.2617
11.243
11.2117
11.1674
11.1066
11.0296
10.9421
10.8916
1.53525
2.08364
7.1335
11.1982
10.7257
10.0568
9.83059
9.82772
9.86146
9.94114
10.028
10.0959
10.1513
10.2046
10.2595
10.3154
10.3708
10.4247
10.4765
10.5261
10.5733
10.6184
10.6614
10.7024
10.7417
10.7796
10.8162
10.8519
10.8867
10.9207
10.9536
10.9853
11.0154
11.043
11.0673
11.0886
11.1054
11.1173
11.1239
11.1231
11.116
11.0983
11.066
11.019
10.9515
10.8575
10.7264
10.5488
10.3134
10.0603
1.53954
2.14607
7.32753
11.1765
10.6779
10.0011
9.77353
9.77654
9.81254
9.89286
9.97915
10.0461
10.1012
10.1532
10.2064
10.2607
10.3144
10.3666
10.4167
10.4646
10.51
10.553
10.5936
10.632
10.6685
10.7029
10.736
10.7676
10.798
10.8273
10.8551
10.881
10.905
10.9258
10.9428
10.956
10.9621
10.9627
10.9579
10.9431
10.9127
10.8692
10.8067
10.7195
10.5968
10.421
10.1612
9.75376
9.04009
7.48138
1.54239
2.21622
7.5221
11.1322
10.6231
9.94623
9.71788
9.72257
9.7621
9.84519
9.92668
9.99068
10.0437
10.0938
10.1446
10.1961
10.2473
10.2969
10.3445
10.3898
10.4325
10.4727
10.5102
10.5452
10.5779
10.6084
10.6369
10.6636
10.6889
10.7123
10.7338
10.753
10.7693
10.782
10.7899
10.792
10.7892
10.778
10.7542
10.7165
10.6636
10.5912
10.4939
10.359
10.1724
9.90841
9.52455
8.9486
8.08815
6.65486
1.54138
2.27048
7.63841
11.0571
10.5598
9.89468
9.66882
9.67402
9.71403
9.79866
9.87469
9.93452
9.98422
10.0313
10.0791
10.1276
10.1756
10.2224
10.2669
10.3094
10.3492
10.3863
10.4206
10.4521
10.4811
10.5077
10.5321
10.5534
10.5733
10.5911
10.6062
10.6184
10.6268
10.6312
10.6301
10.6242
10.6092
10.5798
10.5391
10.4838
10.4098
10.3118
10.1812
10.0092
9.77822
9.46716
9.04484
8.46969
7.72264
6.72261
1.53987
2.30381
7.69645
11.0149
10.5346
9.88871
9.66776
9.67252
9.7071
9.77985
9.84392
9.89377
9.93627
9.97747
10.0199
10.0633
10.1066
10.1489
10.1895
10.2282
10.2644
10.2981
10.3287
10.3566
10.3819
10.4041
10.4241
10.4423
10.4556
10.4681
10.4772
10.4828
10.4837
10.4813
10.4733
10.4551
10.4255
10.3852
10.3315
10.2613
10.1701
10.0526
9.90113
9.70958
9.46335
9.1492
8.75131
8.25183
7.65491
6.91209
1.53038
2.24713
7.4592
10.8645
10.4467
9.85112
9.6522
9.65988
9.69563
9.75939
9.81197
9.85313
9.88816
9.92243
9.95818
9.99511
10.0323
10.069
10.1046
10.1386
10.1707
10.2004
10.2276
10.2519
10.2736
10.2925
10.3085
10.3222
10.333
10.3394
10.3438
10.3437
10.3408
10.3317
10.3129
10.2855
10.248
10.1992
10.136
10.055
9.95258
9.82432
9.66447
9.46783
9.2265
8.93201
8.57668
8.1533
7.66589
7.09532
1.505
2.27494
7.32527
10.9175
10.4906
9.87377
9.65161
9.65299
9.68149
9.7394
9.78675
9.81991
9.84703
9.87341
9.90195
9.93206
9.96289
9.99368
10.0238
10.0528
10.0802
10.1055
10.1285
10.1488
10.1665
10.1814
10.1936
10.2028
10.2091
10.2122
10.2112
10.2078
10.1986
10.1804
10.155
10.1214
10.0793
10.0236
9.95361
9.86634
9.75864
9.627
9.4676
9.27616
9.04807
8.77891
8.46426
8.10209
7.69451
7.23171
0.922968
3.12484
6.01443
11.095
10.8028
10.0886
9.71604
9.65089
9.67063
9.7187
9.76445
9.79292
9.81257
9.83128
9.85114
9.87271
9.89556
9.91905
9.94275
9.9661
9.9887
10.0098
10.0289
10.0457
10.0597
10.0709
10.0792
10.0842
10.0861
10.0852
10.0813
10.0716
10.0545
10.032
10.0031
9.96583
9.91894
9.85945
9.78609
9.69633
9.5877
9.45762
9.30341
9.1222
8.91127
8.66796
8.3912
8.07868
7.73436
7.34787
0.909547
3.00221
5.4821
11.236
10.8544
10.0979
9.70671
9.61836
9.63475
9.67864
9.72482
9.75247
9.76973
9.78558
9.80302
9.8223
9.84248
9.86299
9.88323
9.90269
9.92099
9.93729
9.95177
9.9639
9.97303
9.97962
9.98321
9.9838
9.98243
9.97767
9.96713
9.95023
9.92861
9.90138
9.8671
9.82461
9.77327
9.71119
9.63567
9.54616
9.4396
9.31413
9.16783
8.99876
8.80546
8.58641
8.34126
8.07022
7.77536
7.44895
0.910997
2.98132
5.39257
11.2017
10.8387
10.1173
9.71782
9.61087
9.62089
9.65278
9.69184
9.71494
9.72756
9.73852
9.75108
9.76566
9.78159
9.79798
9.81459
9.83093
9.84642
9.86048
9.87262
9.88224
9.88963
9.89318
9.89384
9.89242
9.88755
9.87681
9.86019
9.83943
9.81424
9.78354
9.74638
9.70195
9.64805
9.58406
9.50722
9.4177
9.31318
9.19321
9.05615
8.89987
8.72414
8.52778
8.31076
8.07295
7.81771
7.53846
0.93261
2.94535
5.42116
11.1657
10.8051
10.0866
9.6832
9.57196
9.58036
9.60875
9.6443
9.66428
9.67403
9.68245
9.69253
9.70467
9.71812
9.73222
9.74656
9.76066
9.77395
9.78589
9.79592
9.80348
9.80829
9.81023
9.8094
9.80607
9.79777
9.78277
9.76365
9.74051
9.71226
9.67834
9.63809
9.59064
9.53494
9.47004
9.39496
9.30935
9.21048
9.0972
8.96872
8.82478
8.66357
8.48503
8.29014
8.07994
7.85748
7.61603
0.914427
2.97192
5.42459
11.1028
10.7519
10.0258
9.61283
9.50455
9.51634
9.55023
9.58549
9.60342
9.61185
9.61909
9.62815
9.63908
9.65105
9.6635
9.67607
9.68838
9.69995
9.71029
9.71857
9.72476
9.72827
9.72871
9.72708
9.72195
9.71073
9.69406
9.67355
9.64843
9.61826
9.58239
9.54031
9.49136
9.43495
9.37031
9.29659
9.21297
9.11824
9.01145
8.89201
8.75958
8.6136
8.45441
8.28129
8.0944
7.89479
7.68161
0.932663
3.07105
5.93121
10.8437
10.5998
9.94493
9.55191
9.46028
9.47494
9.51099
9.54049
9.55351
9.5589
9.56391
9.57096
9.57995
9.59
9.60055
9.61123
9.62158
9.63121
9.63962
9.64635
9.65078
9.65276
9.6522
9.64934
9.64204
9.62861
9.61119
9.58948
9.56295
9.53101
9.49355
9.45021
9.4006
9.34414
9.28029
9.20835
9.12774
9.03761
8.93717
8.82611
8.70419
8.57104
8.42659
8.27086
8.10459
7.92991
7.74144
1.48995
2.19795
6.9774
10.6473
10.3161
9.69364
9.43916
9.41547
9.43058
9.46109
9.48023
9.48968
9.49503
9.50061
9.50813
9.51725
9.52727
9.53769
9.54808
9.55789
9.5671
9.57486
9.58098
9.58484
9.58617
9.5853
9.58162
9.57284
9.55842
9.54014
9.51742
9.48989
9.45715
9.41891
9.37486
9.32471
9.26815
9.20463
9.13371
9.05474
8.96747
8.87185
8.76738
8.65404
8.53203
8.40061
8.26013
8.11082
7.95371
7.78552
1.50577
2.14354
6.95453
10.476
10.1864
9.62447
9.40998
9.39743
9.40906
9.43071
9.44317
9.44861
9.45139
9.45483
9.45996
9.46659
9.47404
9.48173
9.48931
9.49648
9.50293
9.50831
9.5122
9.51429
9.5141
9.51226
9.507
9.49641
9.48225
9.46399
9.44112
9.41338
9.38078
9.34275
9.29907
9.24957
9.19376
9.13141
9.06246
8.98699
8.90476
8.81509
8.71781
8.61242
8.4987
8.37702
8.24766
8.11249
7.97128
7.82133
1.49987
2.21237
7.10968
10.6935
10.3033
9.62517
9.34392
9.31063
9.3237
9.35125
9.37133
9.38253
9.38902
9.39497
9.40197
9.40959
9.4173
9.42472
9.43151
9.4374
9.44217
9.44561
9.44749
9.44745
9.44629
9.44275
9.43529
9.42413
9.4097
9.39091
9.36775
9.33939
9.3057
9.26691
9.22275
9.17326
9.11838
9.05814
8.99219
8.92016
8.84186
8.75737
8.6668
8.56929
8.46436
8.35276
8.2351
8.11137
7.98331
7.84854
0.938651
3.1237
6.12025
10.8046
10.5333
9.8143
9.36536
9.25159
9.26309
9.29399
9.32395
9.33891
9.34476
9.3486
9.35287
9.35717
9.36124
9.36527
9.36854
9.37099
9.37262
9.37324
9.37303
9.37163
9.36806
9.3622
9.35384
9.34249
9.32755
9.30864
9.28547
9.25781
9.22537
9.18802
9.14589
9.09938
9.04748
8.99067
8.928
8.85953
8.7851
8.70446
8.61717
8.52443
8.42697
8.32441
8.217
8.10569
7.98985
7.86847
1.50577
2.14465
6.98236
10.7077
10.3059
9.57726
9.25449
9.19711
9.20901
9.23947
9.2718
9.29226
9.30337
9.31092
9.31741
9.32306
9.32785
9.3319
9.33476
9.33622
9.33647
9.33575
9.33337
9.3283
9.32154
9.31274
9.30144
9.28715
9.26941
9.24839
9.22292
9.19409
9.16106
9.12395
9.08197
9.03657
8.98528
8.92912
8.86806
8.80178
8.73013
8.65351
8.57249
8.48692
8.39659
8.30148
8.20179
8.0977
7.99016
7.87893
1.51349
2.06747
6.82501
10.5294
10.1732
9.51067
9.23078
9.18367
9.19076
9.21021
9.23477
9.2513
9.26061
9.26644
9.27074
9.27394
9.27605
9.27728
9.27748
9.27687
9.27458
9.27064
9.26563
9.2593
9.25102
9.24135
9.22786
9.21281
9.19482
9.17351
9.14905
9.12082
9.08866
9.05305
9.01333
8.96932
8.92038
8.86675
8.80865
8.74613
8.67937
8.60804
8.53189
8.45107
8.36597
8.27685
8.18395
8.08796
7.98939
7.88729
1.51562
2.00276
6.66906
10.519
10.1825
9.52912
9.2446
9.18453
9.18934
9.20601
9.22997
9.24428
9.25039
9.25172
9.25148
9.25044
9.24802
9.24522
9.24151
9.23656
9.23039
9.22307
9.21449
9.20465
9.19311
9.18075
9.16488
9.14799
9.12862
9.10659
9.0816
9.0534
9.02168
8.98604
8.94761
8.90416
8.85703
8.80625
8.75149
8.69267
8.6296
8.56223
8.4905
8.41483
8.33552
8.25278
8.16694
8.07804
7.98658
7.89137
1.49501
1.96486
6.41903
10.582
10.2087
9.48263
9.16421
9.11233
9.12576
9.15844
9.18807
9.20273
9.20788
9.20778
9.20616
9.20223
9.19755
9.19291
9.18733
9.18038
9.17219
9.16282
9.15231
9.14061
9.12747
9.11299
9.0971
9.0785
9.05858
9.03606
9.01107
8.98338
8.95287
8.9189
8.88139
8.84145
8.79692
8.74873
8.69676
8.6408
8.58112
8.51775
8.45093
8.38067
8.30702
8.23035
8.15069
8.068
7.98286
7.89453
0.941436
2.84051
5.20125
10.7664
10.5067
9.85715
9.34187
9.15961
9.15994
9.17527
9.20061
9.20851
9.20633
9.19949
9.18841
9.17885
9.17027
9.16137
9.15142
9.1402
9.1281
9.11494
9.10102
9.08554
9.07021
9.05286
9.03455
9.01496
8.99407
8.97049
8.94577
8.9185
8.88842
8.85555
8.81982
8.7807
8.73901
8.69301
8.64374
8.59103
8.53526
8.47663
8.41473
8.34947
8.28105
8.20946
8.13491
8.05798
7.97896
7.89689
1.4666
1.80809
5.82805
10.4593
10.1787
9.57017
9.24609
9.15091
9.15197
9.161
9.17487
9.17797
9.17552
9.16824
9.15617
9.14538
9.13582
9.12607
9.11534
9.10348
9.09061
9.07673
9.06193
9.04601
9.02919
9.01104
8.99167
8.97065
8.94872
8.92393
8.89759
8.86937
8.83867
8.80542
8.76958
8.73111
8.69116
8.64716
8.60036
8.55101
8.49863
8.44302
8.38436
8.32277
8.25855
8.19138
8.12205
8.05064
7.9774
7.90127
1.46882
1.81616
5.82474
10.3762
10.1043
9.53587
9.24886
9.16678
9.16202
9.16568
9.17021
9.1687
9.16243
9.14906
9.13349
9.1192
9.10587
9.09255
9.07843
9.06343
9.04763
9.03108
9.01386
8.99579
8.97685
8.95698
8.93608
8.91401
8.89083
8.86664
8.83961
8.81177
8.78223
8.7505
8.71651
8.68026
8.64118
8.60136
8.55739
8.51141
8.46265
8.41087
8.35611
8.29875
8.23891
8.17698
8.11254
8.04599
7.97724
7.90591
0.936047
2.70714
4.51528
10.4479
10.2446
9.84274
9.36809
9.1697
9.14638
9.15389
9.16401
9.1622
9.15424
9.13656
9.11594
9.09834
9.08295
9.06794
9.05219
9.03547
9.01787
8.99949
8.98033
8.96011
8.93936
8.9173
8.89497
8.8713
8.84633
8.82096
8.79392
8.76544
8.73546
8.70437
8.67114
8.63677
8.60031
8.56182
8.52026
8.47793
8.43126
8.38265
8.33187
8.27868
8.22311
8.16515
8.10499
8.04266
7.97832
7.91178
0.906472
2.69188
4.25213
10.3257
10.2205
9.82074
9.31541
9.10433
9.08653
9.09865
9.12066
9.1233
9.11832
9.10459
9.08383
9.06527
9.04909
9.03342
9.01711
9.00003
8.98191
8.96349
8.94366
8.92351
8.90235
8.88027
8.85746
8.83311
8.80901
8.7828
8.75582
8.7274
8.69874
8.66888
8.63618
8.60326
8.56801
8.53055
8.49122
8.44966
8.40621
8.36106
8.31317
8.26341
8.21143
8.15695
8.1002
8.04182
7.98132
7.9186
0.90815
2.67204
4.19946
10.1948
10.1968
9.82941
9.35175
9.14351
9.11049
9.11616
9.12468
9.12248
9.11346
9.0941
9.07249
9.05303
9.03516
9.01766
8.99974
8.9812
8.96193
8.94211
8.92145
8.90064
8.87805
8.85554
8.83218
8.80786
8.78202
8.75737
8.72995
8.70199
8.67306
8.64298
8.61157
8.57882
8.54496
8.50903
8.47186
8.43231
8.39124
8.34783
8.30175
8.254
8.20418
8.15213
8.0983
8.04228
7.98484
7.92514
1.40855
1.72307
5.27361
10.2227
10.0478
9.56748
9.22076
9.09661
9.08419
9.0879
9.09038
9.08722
9.07735
9.05825
9.03814
9.01952
9.00257
8.98587
8.96882
8.9512
8.93283
8.91402
8.8943
8.8741
8.85293
8.83103
8.80838
8.78461
8.76033
8.73419
8.70808
8.68056
8.65186
8.62257
8.59188
8.55982
8.52659
8.4918
8.45554
8.4175
8.37762
8.33598
8.29196
8.24584
8.19787
8.14802
8.09635
8.04304
7.98805
7.93066
0.909868
2.64205
4.13841
10.0672
10.1062
9.74751
9.27667
9.07658
9.05388
9.06272
9.07645
9.07544
9.06839
9.05161
9.02953
9.00971
8.99211
8.97499
8.9574
8.93903
8.91988
8.90007
8.87926
8.85849
8.8358
8.81301
8.78967
8.7649
8.74021
8.71422
8.68788
8.66028
8.63169
8.60243
8.57228
8.54087
8.50855
8.47439
8.44004
8.40299
8.36441
8.32397
8.2819
8.23807
8.19239
8.14469
8.09526
8.04406
7.9911
7.93582
0.938324
2.57481
4.12562
9.98226
10.0677
9.70885
9.23642
9.03751
9.01526
9.0244
9.03944
9.03899
9.0335
9.01952
8.99908
8.98051
8.96401
8.94795
8.9313
8.91389
8.89576
8.87697
8.85739
8.83747
8.81662
8.79429
8.77218
8.74909
8.72471
8.69914
8.67472
8.64776
8.62003
8.59161
8.56213
8.53139
8.49949
8.46615
8.43157
8.39522
8.35731
8.31775
8.27655
8.23365
8.18883
8.14244
8.09436
8.04445
7.99335
7.94003
1.4023
1.69293
5.18439
10.0744
9.94469
9.51186
9.15305
9.01929
9.00634
9.01186
9.01926
9.01785
9.01164
8.99783
8.97962
8.96239
8.94658
8.93104
8.91498
8.8983
8.88059
8.86274
8.84397
8.82466
8.80449
8.78368
8.76183
8.73978
8.71487
8.69029
8.66484
8.63798
8.61015
8.58141
8.55174
8.52089
8.48926
8.45557
8.4226
8.38681
8.34971
8.31116
8.27101
8.22909
8.18567
8.1401
8.09394
8.04564
7.99525
7.94377
0.908689
2.61778
4.04829
9.88297
10.033
9.68936
9.21479
8.99822
8.96462
8.97212
8.9876
8.98963
8.986
8.97558
8.95829
8.94203
8.92739
8.91306
8.89813
8.8824
8.86583
8.84851
8.83054
8.81157
8.79246
8.77102
8.7498
8.72746
8.70395
8.67961
8.6546
8.62849
8.60101
8.573
8.54335
8.51308
8.48175
8.44913
8.41484
8.38112
8.3443
8.30627
8.26694
8.22603
8.18354
8.13929
8.09366
8.0468
7.99812
7.94782
0.93694
2.57219
4.07911
9.9163
10.0303
9.66643
9.16752
8.94775
8.92019
8.93142
8.95472
8.96225
8.95967
8.95126
8.93534
8.92032
8.90682
8.89364
8.87965
8.86486
8.84924
8.83293
8.81592
8.79811
8.77925
8.7599
8.73947
8.71811
8.69531
8.67165
8.64663
8.62216
8.59446
8.56643
8.53752
8.50771
8.47675
8.44463
8.41128
8.37681
8.34098
8.30299
8.26368
8.22337
8.18151
8.1382
8.09366
8.04761
8.00027
7.95157
0.93808
2.56172
4.05116
9.86128
9.99443
9.63348
9.13229
8.91201
8.889
8.90229
8.92981
8.94032
8.93819
8.93073
8.9161
8.90223
8.88969
8.87743
8.86442
8.8505
8.83579
8.82044
8.80438
8.78724
8.76968
8.75111
8.73135
8.7107
8.68844
8.66509
8.64089
8.61644
8.58893
8.56118
8.53255
8.50291
8.47223
8.44049
8.4075
8.37353
8.3388
8.30071
8.26212
8.22263
8.18132
8.13866
8.09474
8.04942
8.00296
7.95532
0.938974
2.59694
4.19433
9.90364
9.9436
9.58812
9.09593
8.88632
8.86716
8.88003
8.9063
8.91634
8.91462
8.90841
8.8958
8.88322
8.87182
8.86054
8.84844
8.83563
8.82201
8.8077
8.79311
8.77644
8.76011
8.74256
8.72377
8.70377
8.68165
8.66039
8.63621
8.61092
8.58456
8.55704
8.52844
8.4988
8.4682
8.43654
8.40362
8.36994
8.33489
8.29782
8.26048
8.21948
8.17948
8.13755
8.09416
8.04953
8.00392
7.95779
1.44126
1.67955
5.33168
9.90722
9.74999
9.30149
8.97606
8.87209
8.87413
8.88563
8.89876
8.90109
8.89877
8.89207
8.88025
8.86857
8.85755
8.84615
8.83427
8.82173
8.80877
8.79542
8.78193
8.76661
8.75157
8.73534
8.71765
8.69864
8.67792
8.65587
8.63215
8.60684
8.58016
8.55238
8.52359
8.49396
8.46347
8.4321
8.39824
8.36695
8.33258
8.29563
8.25813
8.21894
8.17894
8.138
8.09421
8.05081
8.00618
7.96126
1.42508
1.59652
5.09929
9.70585
9.59865
9.23137
8.94622
8.85968
8.86209
8.87215
8.88121
8.88229
8.88053
8.87547
8.86628
8.856
8.84695
8.83716
8.82659
8.81509
8.80326
8.79068
8.77731
8.7632
8.74817
8.73233
8.71482
8.69661
8.67463
8.65294
8.62945
8.60426
8.5778
8.55019
8.52159
8.492
8.46156
8.42987
8.39542
8.36585
8.33016
8.29336
8.25611
8.21744
8.17789
8.13668
8.09499
8.0526
8.00771
7.96345
1.43905
1.66998
5.30147
9.8851
9.73561
9.29767
8.9664
8.85809
8.85918
8.86815
8.8789
8.87993
8.87768
8.87135
8.86076
8.85071
8.84139
8.83169
8.82107
8.80958
8.79721
8.78399
8.77036
8.75593
8.74057
8.72462
8.70741
8.68889
8.6688
8.64722
8.62423
8.59933
8.57341
8.54591
8.51744
8.48817
8.45779
8.427
8.39453
8.36041
8.33015
8.29335
8.2565
8.21863
8.17972
8.13939
8.0984
8.05556
8.01339
7.96898
0.939188
2.58274
4.14815
9.83847
9.90394
9.55253
9.06307
8.84695
8.82111
8.83282
8.85742
8.86855
8.86733
8.86266
8.85224
8.84188
8.83303
8.82409
8.8142
8.80324
8.79127
8.77841
8.76485
8.74996
8.73462
8.71759
8.70002
8.681
8.66094
8.63874
8.61718
8.59274
8.56711
8.54051
8.51301
8.48516
8.45423
8.42442
8.3932
8.3611
8.32746
8.29298
8.25706
8.21983
8.18092
8.14143
8.10064
8.05869
8.01596
7.97203
0.937184
2.54773
4.00388
9.76619
9.95083
9.59394
9.08365
8.85213
8.8202
8.83204
8.8572
8.86811
8.8663
8.86065
8.84966
8.83946
8.83076
8.82217
8.81265
8.80183
8.78977
8.77662
8.7624
8.74763
8.7316
8.71441
8.69663
8.67757
8.65762
8.63628
8.61423
8.58944
8.56686
8.54003
8.51263
8.4845
8.45544
8.42523
8.39478
8.36359
8.32752
8.29404
8.25882
8.22163
8.18337
8.14406
8.10386
8.06244
8.01949
7.97622
0.906759
2.60456
3.95133
9.73614
9.97252
9.62043
9.11138
8.87079
8.82566
8.83374
8.85244
8.86236
8.86142
8.85721
8.84774
8.83736
8.8285
8.82
8.81061
8.7999
8.7879
8.77468
8.76037
8.74541
8.72907
8.71166
8.69411
8.67461
8.65453
8.6335
8.61136
8.587
8.5645
8.53831
8.51119
8.48338
8.45473
8.42457
8.39517
8.36316
8.32722
8.29467
8.25954
8.22264
8.18459
8.14544
8.10528
8.06378
8.02142
7.98072
3.12914
2.50131
3.04972
4.22887
4.16414
4.10925
4.00758
3.95168
3.9331
3.93312
3.95776
3.98552
4.0081
4.03317
4.07107
4.12367
4.18603
4.25387
4.32439
4.39571
4.46622
4.53396
4.60086
4.66007
4.71201
4.75704
4.79527
4.82684
4.85194
4.87072
4.88352
4.89075
4.8928
4.89167
4.88736
4.87781
4.86386
4.8476
4.829
4.80804
4.78497
4.76018
4.73392
4.70639
4.67776
4.64814
4.6177
4.58652
4.55476
4.52253
4.48997
4.45722
4.42442
4.39174
4.35935
4.32746
4.29625
4.26594
4.23673
4.20882
4.1824
4.15764
4.13468
4.11365
4.09462
4.07766
4.0628
4.05004
4.03934
4.03062
4.02379
4.0188
4.01546
4.01353
4.01271
4.01273
4.01301
4.01389
4.01587
4.01863
4.02107
4.02316
4.02485
4.02604
4.02671
4.02669
4.02644
4.02563
4.02381
4.02107
4.01785
4.01444
4.01081
4.00688
4.00283
3.99846
3.99437
3.99022
3.98649
3.98459
4.20099
3.61997
3.81802
4.27995
4.17684
4.08039
3.98509
3.93325
3.92673
3.94239
3.97905
4.00522
4.01278
4.0275
4.06133
4.11521
4.17776
4.24545
4.3159
4.38726
4.45811
4.52741
4.59333
4.6526
4.70472
4.75003
4.78871
4.82075
4.8463
4.86556
4.87876
4.88628
4.88844
4.88767
4.88441
4.87635
4.86128
4.84449
4.82599
4.80526
4.78236
4.7576
4.73133
4.70375
4.67506
4.64538
4.61486
4.58361
4.55178
4.51949
4.48688
4.4541
4.42129
4.38863
4.35629
4.32447
4.29336
4.26317
4.2341
4.20634
4.18008
4.15548
4.13269
4.11182
4.09296
4.07617
4.06147
4.04886
4.03832
4.02978
4.02324
4.01837
4.01525
4.0135
4.01297
4.01302
4.01336
4.01433
4.01647
4.01953
4.02233
4.02445
4.02606
4.02706
4.02794
4.02791
4.02774
4.02711
4.02569
4.02278
4.01944
4.01591
4.01213
4.00804
4.00378
3.99942
3.99512
3.99093
3.98705
3.98708
5.34705
4.55174
4.29631
4.31497
4.27968
4.18904
4.06886
3.99859
3.97109
3.97144
3.97794
3.99348
4.01398
4.04048
4.077
4.12677
4.18646
4.25176
4.32007
4.38977
4.45919
4.52668
4.59087
4.6495
4.70128
4.74641
4.78484
4.8166
4.8418
4.86077
4.87379
4.88115
4.88301
4.88236
4.87969
4.87285
4.85867
4.84061
4.82125
4.80038
4.77764
4.75305
4.72684
4.69925
4.67048
4.64069
4.61002
4.57862
4.54664
4.51423
4.48153
4.44871
4.4159
4.38329
4.35104
4.31936
4.28842
4.25844
4.2296
4.2021
4.17612
4.15182
4.12932
4.10876
4.0902
4.07373
4.05938
4.0471
4.03695
4.02885
4.02276
4.01841
4.0156
4.01427
4.01406
4.01419
4.01471
4.016
4.0187
4.02204
4.02501
4.02739
4.02861
4.03008
4.03106
4.03108
4.03093
4.03038
4.02899
4.02605
4.02225
4.01826
4.01409
4.00963
4.00507
4.00037
3.99596
3.99156
3.98826
3.98839
5.94491
5.18296
4.72454
4.5097
4.44635
4.34636
4.22186
4.12206
4.06238
4.03863
4.03935
4.04528
4.06009
4.0852
4.11374
4.15507
4.20784
4.26738
4.33127
4.39739
4.46378
4.52861
4.59023
4.64712
4.69729
4.7411
4.77839
4.80925
4.83398
4.85251
4.86529
4.87252
4.8741
4.87355
4.87134
4.86563
4.85339
4.83447
4.814
4.79261
4.76984
4.74539
4.71929
4.69173
4.66291
4.63306
4.60233
4.57086
4.53882
4.50636
4.47363
4.4408
4.40804
4.37553
4.34346
4.31198
4.28132
4.25167
4.22322
4.19613
4.17058
4.1467
4.12466
4.10454
4.08643
4.07042
4.05658
4.04491
4.03534
4.02773
4.02222
4.01851
4.01621
4.01534
4.01539
4.01568
4.01655
4.01847
4.02199
4.02561
4.02886
4.03161
4.03359
4.03514
4.03591
4.03597
4.03584
4.03536
4.03409
4.03137
4.02729
4.02284
4.01806
4.01336
4.00845
4.00281
3.99854
3.9932
3.99086
3.99115
6.3326
5.67173
5.17399
4.86245
4.68923
4.54924
4.41112
4.28947
4.20038
4.14684
4.12216
4.11804
4.12068
4.12998
4.15172
4.19176
4.24064
4.29508
4.35365
4.41483
4.47662
4.53762
4.59575
4.64988
4.69796
4.73997
4.77594
4.80545
4.8291
4.84629
4.85834
4.86497
4.86579
4.8652
4.86304
4.85766
4.84621
4.82706
4.8058
4.78368
4.76057
4.73608
4.71007
4.6826
4.65383
4.62399
4.59323
4.56169
4.52958
4.49707
4.46434
4.43155
4.39891
4.36658
4.33476
4.30359
4.27331
4.24408
4.21612
4.18954
4.16452
4.1412
4.11971
4.10018
4.08273
4.0674
4.05419
4.0431
4.03411
4.0271
4.02239
4.01929
4.0177
4.01756
4.01772
4.01832
4.01979
4.02283
4.02687
4.03087
4.03449
4.03751
4.03994
4.0415
4.04248
4.04243
4.04224
4.04168
4.04035
4.03757
4.03313
4.02816
4.02294
4.01742
4.01177
4.00595
4.0009
3.99527
3.9934
3.99396
6.6179
6.06204
5.58573
5.22098
4.9673
4.77872
4.61841
4.47937
4.36719
4.28683
4.23693
4.21217
4.20736
4.20993
4.21904
4.24046
4.28207
4.33073
4.38327
4.43807
4.49386
4.54942
4.60294
4.65333
4.6986
4.73852
4.77271
4.8004
4.82241
4.83865
4.84948
4.85525
4.85526
4.85467
4.85254
4.84729
4.83619
4.81761
4.79625
4.77366
4.7501
4.72539
4.69933
4.67189
4.64318
4.61331
4.58252
4.55101
4.51892
4.48645
4.45378
4.42111
4.38864
4.35657
4.32507
4.29427
4.26445
4.23567
4.20834
4.18236
4.15797
4.13528
4.11451
4.09575
4.07908
4.06447
4.05195
4.04154
4.03331
4.02707
4.02301
4.02081
4.02014
4.02025
4.02067
4.02182
4.02436
4.02838
4.03289
4.03726
4.04123
4.0446
4.04728
4.04912
4.05005
4.05002
4.04981
4.04919
4.04777
4.04486
4.04019
4.03474
4.0289
4.02277
4.01634
4.00988
4.00443
3.99784
3.9961
3.99674
6.84338
6.3746
5.93865
5.5622
5.26222
5.03107
4.84305
4.68486
4.55307
4.45002
4.37593
4.32862
4.30394
4.2977
4.29961
4.3074
4.32681
4.36629
4.41379
4.46351
4.51367
4.56358
4.61211
4.65818
4.70046
4.7378
4.76974
4.79576
4.81657
4.83128
4.84115
4.8456
4.84546
4.84458
4.84209
4.83643
4.8248
4.80698
4.78591
4.76307
4.73908
4.71401
4.68776
4.66029
4.63163
4.60187
4.57117
4.53969
4.50765
4.47527
4.44275
4.41025
4.37801
4.34628
4.3152
4.28476
4.25556
4.22724
4.20077
4.17539
4.15188
4.12992
4.1099
4.092
4.0761
4.0623
4.05059
4.04099
4.03351
4.02818
4.0248
4.02365
4.02369
4.024
4.02489
4.02685
4.03067
4.03508
4.0402
4.0451
4.04934
4.05302
4.05592
4.05799
4.05883
4.05877
4.05851
4.05778
4.05617