/*--------------------------------*- C++ -*----------------------------------*\
| =========                 |                                                 |
| \\      /  F ield         | OpenFOAM: The Open Source CFD Toolbox           |
|  \\    /   O peration     | Version:  2412                                  |
|   \\  /    A nd           | Website:  www.openfoam.com                      |
|    \\/     M anipulation  |                                                 |
\*---------------------------------------------------------------------------*/
FoamFile
{
    version     2.0;
    format      ascii;
    arch        "LSB;label=32;scalar=64";
    class       surfaceScalarField;
    location    "10";
    object      phi;
}
// * * * * * * * * * * * * * * * * * * * * * * * * * * * * * * * * * * * * * //

dimensions      [1 0 -1 0 0 0 0];

oriented        oriented;

internalField   nonuniform List<scalar> 
13790
(
0.0028352
-4.34915e-08
0.00279246
-3.85527e-07
0.0025678
-2.69435e-06
0.00248911
-5.07615e-06
0.00246685
-2.94923e-06
0.00249911
2.58733e-07
0.0025211
2.89669e-06
0.00252707
5.268e-06
0.00252921
7.42012e-06
0.00252627
9.46739e-06
0.00252009
1.12633e-05
0.00251183
1.2858e-05
0.00250262
1.42741e-05
0.00249269
1.55126e-05
0.00248126
1.65647e-05
0.00246718
1.7502e-05
0.00244769
1.80451e-05
0.00242668
1.8703e-05
0.00240764
1.93753e-05
0.00239186
2.03256e-05
0.00237811
2.16661e-05
0.00236404
2.35535e-05
0.00235082
2.59056e-05
0.00233305
2.8688e-05
0.00230953
3.18748e-05
0.00228068
3.53329e-05
0.00224572
3.90627e-05
0.00220294
4.29538e-05
0.00215405
4.69093e-05
0.00209998
5.09788e-05
0.00204173
5.51442e-05
0.00198015
5.94531e-05
0.0019153
6.39644e-05
0.0018463
6.86983e-05
0.0017725
7.36555e-05
0.00169408
7.88551e-05
0.00161171
8.43602e-05
0.00152497
9.02374e-05
0.00143268
9.64214e-05
0.00133403
0.000102868
0.00122736
0.000109405
0.00110957
0.000115872
0.000986423
0.000122351
0.000857388
0.00012901
0.000721293
0.000134879
0.000578552
0.000138698
0.000435871
0.000140471
0.00029361
0.00014187
0.000147801
0.000146792
0.00014737
0.00294054
-1.29908e-07
0.00289624
-7.73269e-07
0.00266361
-6.38248e-06
0.0025832
-1.12955e-05
0.00256038
-6.13022e-06
0.00259372
5.91174e-07
0.00261684
5.55567e-06
0.00262396
9.84002e-06
0.00262799
1.33769e-05
0.00262768
1.66405e-05
0.00262481
1.95896e-05
0.00262031
2.23356e-05
0.00261493
2.50219e-05
0.00260862
2.76996e-05
0.00260063
3.03698e-05
0.00258971
3.30619e-05
0.00257168
3.57261e-05
0.00254922
3.83288e-05
0.00252687
4.11529e-05
0.00250686
4.42607e-05
0.00248855
4.78401e-05
0.00246946
5.19844e-05
0.00245132
5.67581e-05
0.00242906
6.21167e-05
0.00240139
6.80829e-05
0.00236881
7.45637e-05
0.00233038
8.15735e-05
0.00228434
8.90112e-05
0.0022325
9.67254e-05
0.00217558
0.000104721
0.00211453
0.000113004
0.00205015
0.000121626
0.00198246
0.000130676
0.0019106
0.000140168
0.00183395
0.000150104
0.00175274
0.000160529
0.00166763
0.000171568
0.00157816
0.000183355
0.00148309
0.000195793
0.00138155
0.000208797
0.00127178
0.000222034
0.00115058
0.000235122
0.00102403
0.000248086
0.000891797
0.000261258
0.000752397
0.000273109
0.00060525
0.000281685
0.000456537
0.000286853
0.000306516
0.000291467
0.000154327
0.000299982
0.000301246
0.00304974
-2.01136e-07
0.0030037
-1.23468e-06
0.00276147
-1.01837e-05
0.00267879
-1.79459e-05
0.002656
-9.79773e-06
0.0026909
4.81738e-07
0.00271516
7.92761e-06
0.00272276
1.42142e-05
0.00272705
1.92887e-05
0.00272678
2.3906e-05
0.00272372
2.81482e-05
0.00271893
3.21686e-05
0.00271319
3.62133e-05
0.00270649
4.03969e-05
0.00269803
4.47436e-05
0.00268649
4.92303e-05
0.00266766
5.39009e-05
0.00264449
5.86305e-05
0.00262143
6.36745e-05
0.00260066
6.91403e-05
0.00258141
7.52532e-05
0.00256093
8.20879e-05
0.00254096
8.97827e-05
0.00251628
9.82563e-05
0.0024856
0.000107491
0.00244952
0.000117436
0.00240704
0.000127875
0.00235671
0.000138785
0.00230097
0.000150036
0.00224082
0.000161524
0.00217728
0.000173375
0.00211111
0.000185743
0.00204217
0.00019883
0.00196939
0.000212723
0.00189194
0.000227469
0.00180987
0.000243143
0.00172371
0.000259933
0.00163288
0.000277992
0.00153602
0.000297144
0.00143219
0.000317199
0.00131959
0.000337625
0.00119492
0.000357774
0.00106461
0.000377518
0.000928436
0.000397464
0.000784674
0.0004157
0.000632287
0.000429735
0.000477287
0.000439405
0.000320162
0.000448152
0.000161157
0.000460024
0.000461921
0.00316296
-2.76154e-07
0.00311495
-1.65902e-06
0.00286186
-1.38339e-05
0.00277716
-2.51087e-05
0.00275528
-1.45183e-05
0.00279209
-3.20739e-07
0.00281746
9.99814e-06
0.0028252
1.86267e-05
0.0028292
2.56669e-05
0.0028281
3.21731e-05
0.00282363
3.81174e-05
0.00281691
4.37788e-05
0.00280902
4.9428e-05
0.00280015
5.5195e-05
0.00278954
6.11121e-05
0.0027758
6.71139e-05
0.0027555
7.31332e-05
0.00273222
7.93093e-05
0.00270988
8.58951e-05
0.00269044
9.31195e-05
0.00267293
0.0001013
0.00265442
0.000110571
0.00263661
0.000121161
0.00261399
0.000132864
0.00258498
0.000145681
0.00255002
0.000159507
0.00250828
0.000174042
0.00245779
0.000189103
0.00240077
0.000204705
0.00233845
0.000220438
0.00227198
0.00023655
0.00220229
0.000253242
0.00212941
0.000270803
0.00205243
0.00028938
0.00197065
0.000309077
0.00188429
0.000330039
0.00179395
0.000352547
0.00169905
0.000376832
0.00159813
0.000402683
0.00149022
0.000429808
0.00137342
0.000457528
0.00124422
0.000484846
0.00110923
0.000511556
0.000968202
0.000538537
0.000819186
0.00056356
0.000660699
0.000583675
0.000499056
0.00059847
0.000334763
0.000611987
0.000168588
0.000627272
0.000629997
0.00328036
-3.58416e-07
0.00323033
-2.20702e-06
0.00296626
-1.84921e-05
0.00288097
-3.37132e-05
0.0028599
-2.0392e-05
0.00289866
-1.62518e-06
0.0029257
1.13443e-05
0.00293484
2.19225e-05
0.00294059
3.05344e-05
0.00294161
3.85711e-05
0.00293912
4.6269e-05
0.0029341
5.38083e-05
0.00292747
6.14696e-05
0.00291936
6.93318e-05
0.00290907
7.73824e-05
0.00289529
8.54786e-05
0.00287424
9.34919e-05
0.00284921
0.000101538
0.00282457
0.000109976
0.00280283
0.000119117
0.00278337
0.000129378
0.00276306
0.000140895
0.00274377
0.000154154
0.00272024
0.00016878
0.0026906
0.000184911
0.00265512
0.000202398
0.00261314
0.000220917
0.0025624
0.000240201
0.00250449
0.000260336
0.0024407
0.000280711
0.00237209
0.000301557
0.00229966
0.000323109
0.00222356
0.000345692
0.00214295
0.000369464
0.00205717
0.000394539
0.00196651
0.000421107
0.00187176
0.000449545
0.00177242
0.000480203
0.00166701
0.000512849
0.00155454
0.000547159
0.00143301
0.000582328
0.00129866
0.000617012
0.00115824
0.000650934
0.0010115
0.000685301
0.000856307
0.000717527
0.000691147
0.00074405
0.000522183
0.000764689
0.00035029
0.000783328
0.000176483
0.000802058
0.000805894
0.00340203
-4.46549e-07
0.00334964
-2.68475e-06
0.0030722
-2.28835e-05
0.00298545
-4.27067e-05
0.00296636
-2.73369e-05
0.0030075
-3.798e-06
0.0030355
1.25535e-05
0.00304372
2.60363e-05
0.00304725
3.74345e-05
0.00304483
4.81549e-05
0.00303847
5.80384e-05
0.00302994
6.73259e-05
0.00302059
7.63523e-05
0.00301073
8.53247e-05
0.00299947
9.44142e-05
0.00298531
0.000103656
0.00296493
0.000112781
0.00294168
0.000122268
0.00291911
0.000132417
0.00289932
0.000143575
0.00288149
0.000156154
0.00286244
0.000170252
0.00284389
0.00018666
0.00282099
0.000204424
0.00279165
0.000224199
0.00275607
0.000245604
0.00271386
0.000268264
0.00266267
0.000291875
0.00260372
0.00031679
0.00253877
0.000341944
0.00246876
0.000367733
0.00239465
0.000394433
0.00231658
0.000422386
0.00223364
0.000451746
0.00214514
0.000482617
0.00205138
0.00051522
0.0019532
0.000550003
0.00185017
0.000587411
0.00174073
0.000627201
0.00162397
0.000669037
0.00149775
0.000712017
0.00135807
0.000754476
0.00121182
0.000795999
0.00105889
0.000838221
0.000896888
0.000878283
0.000724114
0.000911842
0.000547404
0.000938488
0.000367307
0.000962751
0.000185282
0.000985094
0.000990525
0.00352816
-5.40837e-07
0.00347337
-3.33052e-06
0.00318227
-2.84403e-05
0.00309614
-5.34295e-05
0.00307943
-3.51438e-05
0.00312306
-6.96878e-06
0.00315316
1.26075e-05
0.00316287
2.8852e-05
0.00316797
4.28824e-05
0.00316741
5.60372e-05
0.00316292
6.81205e-05
0.00315634
7.91549e-05
0.00314885
8.95987e-05
0.00314067
9.98315e-05
0.00313098
0.00011025
0.00311813
0.000121068
0.0030985
0.000132042
0.00307457
0.00014375
0.00305014
0.000156311
0.00302792
0.000170004
0.00300763
0.000185216
0.00298626
0.000202054
0.00296499
0.000221398
0.0029404
0.000242323
0.00290956
0.000265521
0.00287243
0.0002907
0.00282879
0.000317491
0.00277626
0.000345568
0.00271493
0.00037517
0.00264762
0.00040524
0.00257517
0.00043614
0.00249851
0.000468172
0.00241775
0.000501682
0.00233193
0.000536834
0.00224033
0.000573742
0.00214322
0.000612657
0.00204147
0.000654094
0.00193463
0.000698588
0.00182104
0.000745864
0.00169986
0.000795603
0.00156875
0.00084682
0.00142356
0.00089755
0.00127102
0.000947221
0.00111139
0.000997814
0.00094211
0.00104627
0.000761047
0.00108764
0.000575413
0.00112099
0.000386454
0.00115099
0.000194782
0.00117771
0.00118454
0.00365885
-6.45269e-07
0.00360125
-3.98733e-06
0.00329376
-3.43718e-05
0.00320853
-6.54742e-05
0.00319651
-4.5059e-05
0.00324309
-1.17421e-05
0.00327538
1.15035e-05
0.00328628
3.0752e-05
0.00329241
4.76355e-05
0.0032926
6.36415e-05
0.00328818
7.82699e-05
0.00328103
9.15017e-05
0.00327249
0.000103821
0.00326294
0.000115689
0.00325135
0.000127611
0.00323591
0.000139977
0.00321482
0.000152573
0.0031905
0.000166118
0.00316592
0.000180685
0.00314363
0.000196537
0.00312353
0.000214054
0.00310288
0.000233435
0.00308177
0.000255518
0.00305826
0.000279646
0.00302852
0.000306343
0.00299216
0.000335471
0.00294924
0.000366721
0.00289771
0.000399771
0.00283578
0.000434313
0.00276689
0.000469892
0.00269224
0.000506419
0.00261289
0.000544181
0.0025291
0.00058362
0.00244003
0.000624902
0.00234498
0.000668152
0.00224427
0.000713667
0.00213874
0.000762054
0.00202788
0.00081394
0.00190994
0.000869066
0.00178409
0.00092712
0.0016477
0.000987065
0.00149666
0.00104661
0.00133724
0.00110512
0.00117014
0.00116484
0.000992653
0.00122236
0.000802862
0.00127196
0.000607631
0.00131287
0.000408066
0.00134962
0.00020615
0.00138043
0.00138981
0.00379426
-7.67529e-07
0.00373372
-4.81233e-06
0.00340885
-4.17313e-05
0.00332558
-7.92334e-05
0.00331863
-5.65634e-05
0.00336822
-1.8024e-05
0.00340313
9.00248e-06
0.00341599
3.11832e-05
0.00342411
5.08769e-05
0.00342635
6.96704e-05
0.00342359
8.70408e-05
0.00341772
0.000102822
0.00340998
0.000117484
0.00340068
0.000131532
0.00338846
0.000145484
0.00337152
0.000159839
0.00334937
0.000174641
0.00332396
0.000190316
0.0032977
0.000207046
0.00327313
0.000225091
0.00325075
0.000244842
0.00322849
0.000266633
0.0032052
0.000291057
0.00318061
0.00031824
0.00315061
0.000348082
0.00311411
0.000380898
0.00307126
0.000416491
0.00302041
0.000454293
0.00295856
0.000493785
0.0028889
0.000535305
0.00281304
0.000577626
0.00273202
0.000621435
0.00264623
0.000667179
0.00255483
0.000715021
0.00245708
0.00076507
0.00235331
0.000817638
0.00224439
0.000873402
0.00212983
0.000933109
0.00200774
0.000996552
0.00187739
0.00106345
0.00173573
0.00113269
0.00157892
0.00120195
0.0014122
0.00127008
0.00123727
0.00133976
0.00105079
0.00140759
0.000850589
0.00146657
0.000644462
0.0015151
0.000433626
0.00155902
0.000218801
0.00159584
0.00160756
0.0039344
-9.19137e-07
0.00387077
-5.512e-06
0.00352652
-5.04275e-05
0.0034452
-9.45409e-05
0.00344445
-6.99294e-05
0.00349737
-2.57215e-05
0.00353497
5.21686e-06
0.00354981
3.02621e-05
0.00356004
5.26689e-05
0.00356443
7.42206e-05
0.00356359
9.44301e-05
0.00355938
0.000113015
0.00355297
0.00013035
0.00354424
0.000146957
0.00353136
0.000163329
0.00351323
0.000179957
0.00349072
0.000197143
0.0034654
0.000215262
0.00343881
0.000234495
0.00341297
0.000255062
0.00338874
0.000277343
0.00336472
0.000301757
0.00333893
0.000328656
0.00331184
0.000358921
0.00328036
0.000391758
0.00324263
0.000428176
0.00319868
0.000467781
0.00314754
0.000510135
0.00308586
0.000554693
0.00301472
0.000601618
0.00293754
0.000649797
0.00285513
0.000699701
0.00276793
0.000751855
0.00267505
0.000806457
0.00257562
0.00086362
0.00246974
0.000923665
0.00235826
0.000987292
0.00224072
0.00105537
0.00211504
0.00112776
0.00198061
0.00120418
0.00183395
0.00128352
0.00167163
0.00136344
0.00149733
0.00144231
0.00131385
0.00152312
0.00111778
0.00160226
0.00090635
0.00167219
0.000687624
0.00172993
0.000463185
0.00178215
0.00023454
0.00182495
0.0018409
0.00407943
-1.09168e-06
0.00401314
-6.41924e-06
0.00364742
-6.03057e-05
0.00356928
-0.000112153
0.0035754
-8.56922e-05
0.00363284
-3.5334e-05
0.0036742
-4.96958e-07
0.0036916
2.75633e-05
0.00370438
5.28229e-05
0.00371091
7.72782e-05
0.00371193
0.000100781
0.00370933
0.000122529
0.00370407
0.000142814
0.0036955
0.00016219
0.00368202
0.00018119
0.00366317
0.000200334
0.00364037
0.000220081
0.00361541
0.000240818
0.00358919
0.000262787
0.00356262
0.000286159
0.00353668
0.00031124
0.00351081
0.00033845
0.00348313
0.000368211
0.00345283
0.000401107
0.00341948
0.000437451
0.00338058
0.000477193
0.00333539
0.000520667
0.00328356
0.000567491
0.00322256
0.000617206
0.00315062
0.000669266
0.00307212
0.000723305
0.00298806
0.000779372
0.00289899
0.000837973
0.00280424
0.000899384
0.00270296
0.000963763
0.00259518
0.00103148
0.0024816
0.00110328
0.00236165
0.00118018
0.00223302
0.00126208
0.00209504
0.00134878
0.00194388
0.00143921
0.00177634
0.00153091
0.00159452
0.00162172
0.00140241
0.00171497
0.00119601
0.00180732
0.000972448
0.00188993
0.000739408
0.00195868
0.00049889
0.00202112
0.000252363
0.00207193
0.00209187
0.00422945
-1.27226e-06
0.00416048
-7.40072e-06
0.0037695
-7.03186e-05
0.00369189
-0.00012939
0.00370452
-0.000101945
0.00376579
-4.56311e-05
0.00380683
-4.38612e-06
0.00382153
2.79294e-05
0.00382959
5.7675e-05
0.00383059
8.60364e-05
0.00382748
0.000112115
0.00382259
0.000135539
0.00381651
0.00015683
0.0038083
0.000176939
0.00379646
0.000196818
0.00378074
0.000217278
0.00376223
0.000238964
0.00374212
0.000262243
0.003721
0.000287287
0.00369887
0.000314082
0.00367575
0.000342696
0.00365141
0.000373423
0.00362489
0.000406682
0.00359489
0.000442914
0.00356107
0.000482654
0.0035223
0.000526258
0.00347736
0.000573682
0.00342599
0.000625072
0.00336641
0.000679929
0.00329525
0.00073736
0.00321643
0.000797572
0.00313149
0.000859963
0.00304113
0.000925203
0.00294484
0.000993617
0.00284187
0.00106539
0.00273226
0.00114096
0.00261669
0.00122117
0.00249461
0.00130719
0.00236348
0.00139909
0.00222255
0.00149674
0.00206754
0.00159933
0.00189528
0.00170413
0.00170591
0.00180841
0.00150479
0.00191561
0.00128761
0.00202306
0.00105016
0.00212135
0.000800844
0.0022032
0.000542225
0.0022778
0.000275311
0.00233902
0.00236569
0.00438476
-1.4204e-06
0.00431292
-8.65664e-06
0.00389712
-8.3906e-05
0.0038235
-0.000149462
0.0038444
-0.000119758
0.00391181
-5.75969e-05
0.00395935
-1.24219e-05
0.00398041
2.31932e-05
0.00399648
5.64943e-05
0.00400502
8.85724e-05
0.0040077
0.000118742
0.0040065
0.000146074
0.00400156
0.000170807
0.00399167
0.000193849
0.00397591
0.000216242
0.00395519
0.000238971
0.00393166
0.000262853
0.00390731
0.000288408
0.00388307
0.000315888
0.00385851
0.000345344
0.0038332
0.000376791
0.00380682
0.000410449
0.00377822
0.000446723
0.00374641
0.000486025
0.00371104
0.000528941
0.00367108
0.000575858
0.00362588
0.000627108
0.00357486
0.000682755
0.00351662
0.000742464
0.00344768
0.000805483
0.00336956
0.000871802
0.00328476
0.000940743
0.00319399
0.00101284
0.00309695
0.00108849
0.00299302
0.00116789
0.00288226
0.00125155
0.00276534
0.00134041
0.00264174
0.00143586
0.00250876
0.0015382
0.0023656
0.00164741
0.00220753
0.00176307
0.00203134
0.00188225
0.00183505
0.00200187
0.00162492
0.00212511
0.00139631
0.00225027
0.00114486
0.00236696
0.000876596
0.00246649
0.000595135
0.00255713
0.000302598
0.00263107
0.00266661
0.00454722
-1.63504e-06
0.00446712
-1.00701e-05
0.00402672
-9.92504e-05
0.00395684
-0.000171219
0.00398672
-0.000139528
0.00406093
-7.21517e-05
0.00411299
-2.25153e-05
0.00413731
1.6432e-05
0.00415717
5.30673e-05
0.00416939
8.85691e-05
0.00417583
0.000122923
0.00417823
0.0001545
0.00417593
0.000183288
0.00416716
0.000210087
0.00415114
0.000235927
0.00412932
0.000261805
0.0041043
0.000288582
0.00407822
0.00031685
0.00405215
0.000346946
0.0040259
0.000379005
0.00399874
0.000413087
0.00397041
0.000449398
0.00394009
0.000488404
0.00390656
0.000530546
0.00386948
0.000576353
0.00382848
0.000626401
0.00378286
0.000681122
0.00373189
0.000740681
0.00367456
0.00080494
0.00360828
0.000873363
0.00353202
0.000945518
0.0034485
0.001021
0.00335847
0.00110007
0.00326176
0.0011831
0.00315782
0.00127031
0.00304674
0.00136229
0.00292925
0.00146009
0.00280494
0.00156536
0.002671
0.00167866
0.00252651
0.00180001
0.00236642
0.00192957
0.00218735
0.00206441
0.00198523
0.00220144
0.00176667
0.00234294
0.00152652
0.00248909
0.00125948
0.00262881
0.00096967
0.0027501
0.000662655
0.00286158
0.000338925
0.00295529
0.00300387
0.00471611
-1.80157e-06
0.00462475
-1.16404e-05
0.00416037
-0.000117016
0.00409075
-0.000192413
0.00412714
-0.000156529
0.00420013
-8.2462e-05
0.00424886
-2.6988e-05
0.00426836
1.53897e-05
0.00428273
5.54095e-05
0.00429035
9.36602e-05
0.00429536
0.000129757
0.00429919
0.000163022
0.00430016
0.000193575
0.00429599
0.000222336
0.00428569
0.000250457
0.00427021
0.00027898
0.00425162
0.000308737
0.00423167
0.000340253
0.004211
0.000373762
0.00418902
0.000409352
0.00416474
0.000447029
0.00413789
0.000486885
0.00410823
0.000529322
0.00407477
0.000574834
0.00403728
0.000623917
0.00399599
0.000677265
0.00395047
0.000735469
0.00389989
0.000798818
0.00384344
0.000867359
0.00377953
0.000940764
0.00370576
0.00101846
0.00362417
0.00110027
0.00353566
0.0011862
0.00344013
0.00127659
0.0033372
0.00137165
0.00322707
0.00147201
0.00311053
0.0015789
0.00298706
0.00169424
0.0028537
0.00181886
0.00270935
0.00195297
0.00254885
0.0020972
0.00236835
0.0022491
0.00216193
0.00240553
0.001936
0.00256804
0.00168516
0.00273879
0.00140269
0.00290695
0.00108917
0.00305737
0.000750076
0.00319805
0.000385179
0.00331964
0.00338731
0.00489178
-1.99372e-06
0.0047877
-1.34616e-05
0.00430004
-0.000137618
0.00423521
-0.000216365
0.0042839
-0.000176342
0.00436395
-9.70651e-05
0.00442183
-3.78788e-05
0.00444999
7.32736e-06
0.00447391
5.03285e-05
0.00449026
9.19048e-05
0.00450123
0.000132186
0.00450827
0.000169827
0.00450989
0.000204663
0.00450395
0.00023744
0.00449023
0.000269219
0.00447056
0.000301057
0.00444755
0.000333834
0.0044233
0.000368149
0.00439908
0.000404372
0.00437477
0.000442709
0.00434905
0.000483241
0.00432095
0.000526051
0.00429014
0.000571468
0.00425579
0.000620011
0.00421738
0.000672136
0.00417536
0.000728547
0.00412976
0.000789946
0.00407977
0.000856793
0.0040244
0.000929246
0.00396263
0.00100721
0.00389209
0.00109019
0.00381335
0.00117808
0.00372757
0.00127065
0.00363447
0.00136827
0.00353358
0.00147112
0.00342524
0.00157982
0.00331057
0.00169573
0.00318928
0.00182107
0.00305825
0.00195702
0.00291587
0.00210396
0.0027579
0.0022636
0.00257811
0.00243367
0.00237093
0.00261133
0.00214008
0.00279821
0.00188035
0.00299752
0.00158319
0.00320068
0.00124365
0.00339018
0.00086755
0.00357107
0.000452734
0.00373401
0.00383861
0.00507447
-2.1237e-06
0.00495506
-1.54e-05
0.00444572
-0.000159723
0.00438101
-0.000238507
0.00443406
-0.000191588
0.0045108
-0.000107713
0.00456603
-4.36637e-05
0.00459094
3.73948e-06
0.00461177
4.88648e-05
0.00462755
9.17394e-05
0.00464097
0.000133594
0.00465259
0.000173432
0.00466013
0.000211069
0.00466081
0.000247138
0.00465404
0.000282508
0.00464105
0.000318105
0.00462367
0.000354644
0.0046037
0.000392632
0.00458245
0.000432397
0.00456033
0.000474161
0.0045364
0.000518071
0.00450961
0.000564241
0.00447968
0.000612923
0.00444599
0.000664655
0.00440805
0.000719908
0.0043663
0.000779415
0.00432112
0.000843849
0.00427222
0.00091393
0.00421862
0.000990017
0.0041594
0.00107213
0.00409315
0.00116012
0.00401853
0.00125364
0.00393651
0.0013525
0.00384705
0.00145706
0.00374974
0.00156743
0.00364486
0.00168427
0.00353362
0.00180904
0.00341614
0.00194419
0.00328937
0.00209137
0.00315105
0.00225095
0.00299877
0.0024259
0.00282347
0.00261491
0.00262
0.00281557
0.00238815
0.00302892
0.00212484
0.00326008
0.00181704
0.00350576
0.00145309
0.00374763
0.00103404
0.00398639
0.000547566
0.0042196
0.00438477
0.0052649
-2.17376e-06
0.00512765
-1.7402e-05
0.00460162
-0.00018331
0.004541
-0.000261095
0.00460119
-0.000206879
0.00467735
-0.000119063
0.00473583
-5.09994e-05
0.00476322
-1.12855e-06
0.00478734
4.52381e-05
0.00480665
8.97567e-05
0.00482405
0.000133103
0.00483974
0.000174984
0.00485122
0.000215449
0.00485547
0.000254982
0.00485141
0.000294259
0.00484039
0.000334035
0.00482442
0.00037476
0.00480532
0.000416778
0.00478448
0.000460338
0.00476257
0.000505635
0.00473929
0.000552904
0.00471333
0.00060235
0.004684
0.000654202
0.00465093
0.000708973
0.00461377
0.000767175
0.00457243
0.000829613
0.00452748
0.000896896
0.00447962
0.000969864
0.00442812
0.00104913
0.00437188
0.00113496
0.00430988
0.00122736
0.00424028
0.00132601
0.00416335
0.00143094
0.00407898
0.00154192
0.00398655
0.00165935
0.00388668
0.00178385
0.00378098
0.0019168
0.00366986
0.00206108
0.00355019
0.0022187
0.00341931
0.0023905
0.00327614
0.00257998
0.00311046
0.00278754
0.00291924
0.00301009
0.00269513
0.00325196
0.00243429
0.00352081
0.00212365
0.00381412
0.00174208
0.00412244
0.00128183
0.00444335
0.000713738
0.00478734
0.00509789
0.00546259
-2.10503e-06
0.00530737
-1.9063e-05
0.00476802
-0.000204668
0.00470917
-0.000279469
0.00476978
-0.000218888
0.00484073
-0.00012922
0.00489935
-5.81231e-05
0.00492923
-7.46902e-06
0.00495607
3.98415e-05
0.00498027
8.46704e-05
0.00500301
0.00012904
0.00502351
0.000172961
0.0050389
0.000216512
0.0050469
0.000259898
0.00504691
0.000303444
0.00503971
0.000347663
0.00502747
0.000392769
0.00501169
0.000438966
0.00499326
0.000486456
0.00497304
0.000535407
0.00495133
0.0005861
0.00492733
0.000638835
0.00489999
0.000693938
0.00486854
0.000751855
0.00483301
0.000813038
0.0047935
0.000878327
0.00474995
0.000948437
0.00470314
0.0010241
0.00465362
0.0011061
0.00460089
0.00119503
0.00454391
0.00129114
0.00448143
0.00139442
0.00441122
0.00150459
0.00433316
0.0016215
0.0042475
0.00174566
0.00415431
0.00187662
0.00405552
0.00201684
0.00395245
0.00216942
0.00384273
0.00233635
0.00372335
0.0025185
0.00359791
0.00271793
0.00345244
0.00294291
0.00327558
0.00319117
0.00306715
0.00346075
0.00282454
0.00376296
0.00253152
0.00410677
0.00215927
0.00448962
0.00167499
0.00492374
0.00101455
0.00544604
0.00611234
0.00566758
-1.87899e-06
0.00549556
-2.00122e-05
0.00495007
-0.000220433
0.00489529
-0.000293451
0.00495304
-0.000229577
0.00501772
-0.000140591
0.00507701
-6.80295e-05
0.00511041
-1.69327e-05
0.0051425
2.966e-05
0.00517339
7.42908e-05
0.00520309
0.000119615
0.00523052
0.000166098
0.00525255
0.000213164
0.00526576
0.000261177
0.00526994
0.000310166
0.00526567
0.000359698
0.00525447
0.000409965
0.00523898
0.000460844
0.00522064
0.000512494
0.0052002
0.000565112
0.00517841
0.000619003
0.00515534
0.000674613
0.00513033
0.000732468
0.00510173
0.00079311
0.0050686
0.000856918
0.00503129
0.000924699
0.00499004
0.000997211
0.00494519
0.00107531
0.00489764
0.00115972
0.00484802
0.00125127
0.00479583
0.00135048
0.00473992
0.00145737
0.00467897
0.0015721
0.00461107
0.00169442
0.00453259
0.00182391
0.00444764
0.00196136
0.00435928
0.00210734
0.0042681
0.00226609
0.00417408
0.00243806
0.00407474
0.00262623
0.0039646
0.00284018
0.00383879
0.00307947
0.00369284
0.00334257
0.00352199
0.0036339
0.00332199
0.00396354
0.0030776
0.00435054
0.00275986
0.00480327
0.00232286
0.00535663
0.00166643
0.00610139
0.00777996
0.00819633
-1.39653e-06
0.0079359
-1.97974e-05
0.00718839
-0.000229061
0.00711778
-0.000298308
0.00717962
-0.000236086
0.00724823
-0.000154246
0.00732185
-8.51491e-05
0.00737375
-3.55929e-05
0.00742194
8.92713e-06
0.00747417
5.14343e-05
0.00752523
9.85785e-05
0.00757064
0.000148698
0.00760953
0.000200788
0.00763837
0.000254893
0.00765363
0.000310749
0.00765801
0.000367892
0.0076523
0.00042545
0.00763884
0.00048334
0.0076206
0.000541406
0.0075984
0.000599767
0.00757279
0.0006587
0.00754511
0.000718666
0.00751577
0.000780344
0.00748298
0.000844445
0.00744435
0.000911567
0.0073984
0.000982292
0.00734724
0.00105779
0.0072922
0.00113835
0.00723463
0.00122508
0.00717608
0.00131898
0.00711594
0.00142088
0.0070535
0.00153098
0.00698722
0.00164942
0.00691635
0.00177616
0.00683749
0.00191169
0.00674437
0.00205561
0.00664267
0.00220546
0.00654919
0.00236524
0.00645266
0.002545
0.00634779
0.00274268
0.0062466
0.00295615
0.00615203
0.00319679
0.00604027
0.00346724
0.00591175
0.0037658
0.00577923
0.00409714
0.00565987
0.00447209
0.00556548
0.00489664
0.00557485
0.00534308
0.00596863
0.00570412
0.00553624
0.00821396
0.00819809
-5.6831e-07
0.00793735
-1.6569e-05
0.00725362
-0.000204905
0.00718251
-0.000272104
0.00720828
-0.000229017
0.00724321
-0.000165904
0.00729661
-0.000108889
0.00734793
-6.51593e-05
0.00740505
-2.67547e-05
0.00746418
1.29912e-05
0.00752652
6.28498e-05
0.0075846
0.000116594
0.00763532
0.000174232
0.00767597
0.000235228
0.00770405
0.000298814
0.00771788
0.000364074
0.00772153
0.000430126
0.00771707
0.000495997
0.00770673
0.000561292
0.00769244
0.000625976
0.00767474
0.000690395
0.00765423
0.000754906
0.00763176
0.000820297
0.0076067
0.000887481
0.0075781
0.000957305
0.00754454
0.00103065
0.00750175
0.00110819
0.00745274
0.00119086
0.00740121
0.00127893
0.00735032
0.0013741
0.00730122
0.0014775
0.00725248
0.00158905
0.00720374
0.00170862
0.00715606
0.00183738
0.0071058
0.001974
0.00705458
0.00211684
0.0069954
0.00227024
0.00692675
0.00243629
0.0068657
0.00261387
0.00681258
0.00280437
0.0067672
0.00301173
0.00673833
0.00323968
0.00673172
0.00349336
0.00673594
0.00377402
0.00677021
0.00406606
0.00686902
0.00437651
0.00708629
0.00467977
0.00748556
0.00494351
0.00809432
0.00508918
0.00474009
0.00888709
0.00820029
1.67788e-07
0.0079532
-9.13516e-06
0.0073415
-0.000136438
0.00725307
-0.000195873
0.00723056
-0.000189392
0.00723128
-0.000166762
0.00726438
-0.000137731
0.00730744
-0.000110313
0.0073639
-8.01655e-05
0.00743319
-4.26174e-05
0.00750885
6.68819e-06
0.00758437
6.25015e-05
0.00765524
0.00012534
0.00771731
0.0001927
0.00776631
0.000263664
0.00780244
0.000337298
0.00782606
0.000412444
0.00783804
0.000487763
0.00784165
0.000562363
0.00784039
0.000635934
0.00783415
0.000708363
0.00782304
0.00077996
0.00780786
0.000851364
0.00778844
0.000923493
0.00776466
0.000997306
0.00773611
0.00107392
0.0076998
0.00115403
0.00765267
0.00123816
0.00760436
0.00132733
0.00756052
0.00142173
0.00752055
0.00152445
0.00748263
0.00163525
0.00744961
0.00175406
0.00742104
0.00187948
0.00739307
0.00201268
0.00736121
0.00215787
0.00732727
0.00231155
0.00729686
0.00246943
0.00727681
0.00263792
0.00726896
0.00281775
0.00727868
0.00300949
0.00731462
0.00321675
0.00738689
0.00343668
0.0074956
0.00367894
0.0076467
0.00392034
0.00787101
0.00415606
0.00818941
0.00436311
0.00862886
0.00450799
0.00915409
0.00456587
0.00431534
0.00957579
0.00819979
2.16486e-06
0.00796572
6.98618e-06
0.00736841
4.04556e-06
0.00725392
-7.9975e-05
0.00720786
-0.000142657
0.0072002
-0.000175876
0.00723076
-0.000183831
0.00727294
-0.000173535
0.00732802
-0.000153941
0.00741092
-0.000120477
0.00749904
-7.30054e-05
0.00759009
-1.54525e-05
0.00767863
5.1509e-05
0.00776211
0.000123735
0.00783818
0.000200636
0.00790544
0.00028127
0.00796124
0.000364584
0.00800473
0.000449331
0.00803825
0.000534357
0.00806333
0.000618906
0.00807995
0.00070244
0.00808767
0.000784798
0.00808733
0.000866263
0.00807942
0.000947525
0.00806439
0.00102936
0.00804167
0.00111262
0.00801103
0.00119823
0.00796596
0.00128662
0.00790387
0.00137728
0.00784719
0.0014725
0.00780076
0.00157243
0.00776277
0.00167968
0.00773351
0.00179206
0.00771357
0.00191242
0.00770378
0.00204389
0.00769437
0.00218292
0.0076857
0.00232844
0.00768143
0.00247968
0.00768625
0.00263581
0.00770772
0.0027991
0.00775133
0.00296942
0.00782642
0.00314722
0.00794585
0.00333065
0.00812116
0.00352235
0.00834049
0.00371396
0.00861383
0.00388944
0.00894589
0.00403244
0.00933263
0.00411992
0.00978357
0.00411637
0.00398469
0.0101141
0.00818042
2.87745e-05
0.00800645
-5.91377e-06
0.00742289
0.000219685
0.00719537
0.000147967
0.00708937
-5.48072e-05
0.0070695
-0.00018597
0.00710533
-0.000241254
0.0071629
-0.000253783
0.00722178
-0.000234542
0.00730137
-0.000203032
0.00739028
-0.000158412
0.00748389
-0.0001012
0.00757762
-3.36273e-05
0.00766651
4.22674e-05
0.00774919
0.000123877
0.00782537
0.000210005
0.00789503
0.000299328
0.0079578
0.000390621
0.00801385
0.000482794
0.00806353
0.000575067
0.00810634
0.000666822
0.0081419
0.000757787
0.00817005
0.000848121
0.0081903
0.000938128
0.00820289
0.00102851
0.00820788
0.00111975
0.00820497
0.00121258
0.00819327
0.0013075
0.0081687
0.00140479
0.00812769
0.00150406
0.00808758
0.00160556
0.00805769
0.00170903
0.00803453
0.00181976
0.00801555
0.00193821
0.00801064
0.00206032
0.00802818
0.0021888
0.00805394
0.00232503
0.00808023
0.00246703
0.00811013
0.00261211
0.00815285
0.00275875
0.00821535
0.00290843
0.0083057
0.00305794
0.00843314
0.00320767
0.0086108
0.00335363
0.00884585
0.00349306
0.00912517
0.00362172
0.00944877
0.00371608
0.00979835
0.00377144
0.0101614
0.00375067
0.00364789
0.0104968
0.00812964
0.000122714
0.00811922
-0.000158068
0.00741765
0.000654804
0.00724919
0.000328922
0.00716805
2.65252e-05
0.00719465
-0.000219139
0.00722962
-0.000283184
0.00724416
-0.000282488
0.00726897
-0.000271005
0.00730043
-0.000240094
0.00734381
-0.000198984
0.00739698
-0.000146674
0.00745497
-8.34161e-05
0.00751417
-1.08923e-05
0.00757426
6.80089e-05
0.00763414
0.000153258
0.00769382
0.000242615
0.00775286
0.000334711
0.00781055
0.000428545
0.0078666
0.000523034
0.0079207
0.000617494
0.00797293
0.000711592
0.00802256
0.000805575
0.0080693
0.000899517
0.00811255
0.000994242
0.00815203
0.0010904
0.00818636
0.00118849
0.00821417
0.00128888
0.00823473
0.00139168
0.00824232
0.00149563
0.00823776
0.00159931
0.00823455
0.00170665
0.00823685
0.00181959
0.00824478
0.00193431
0.00826065
0.00205114
0.00829237
0.0021713
0.00834423
0.00229673
0.00840735
0.00242703
0.00847547
0.00256019
0.00855095
0.00269304
0.00863856
0.00282435