/*--------------------------------*- C++ -*----------------------------------*\
| =========                 |                                                 |
| \\      /  F ield         | OpenFOAM: The Open Source CFD Toolbox           |
|  \\    /   O peration     | Version:  2412                                  |
|   \\  /    A nd           | Website:  www.openfoam.com                      |
|    \\/     M anipulation  |                                                 |
\*---------------------------------------------------------------------------*/
FoamFile
{
    version     2.0;
    format      ascii;
    arch        "LSB;label=32;scalar=64";
    class       volScalarField;
    location    "10";
    object      T;
}
// * * * * * * * * * * * * * * * * * * * * * * * * * * * * * * * * * * * * * //

dimensions      [0 0 0 1 0 0 0];

internalField   nonuniform List<scalar> 
7000
(
1.23615
2.02318
2.44327
2.68465
2.6742
2.66015
2.65253
2.65632
2.65987
2.66736
2.67483
2.68137
2.68616
2.68926
2.69137
2.69452
2.70202
2.71397
2.72535
2.7323
2.73444
2.73396
2.73055
2.72572
2.72321
2.7229
2.72388
2.72745
2.73477
2.74395
2.75361
2.76276
2.77018
2.77663
2.7832
2.78997
2.79524
2.79717
2.79699
2.79537
2.79535
2.80166
2.81197
2.81621
2.82068
2.83556
2.8546
2.8583
2.84433
2.83201
1.2362
2.02353
2.44337
2.68468
2.67426
2.66023
2.65248
2.65627
2.65966
2.66694
2.67418
2.6804
2.68494
2.68799
2.68996
2.69232
2.69798
2.70971
2.72196
2.73001
2.73286
2.73271
2.73005
2.72548
2.7231
2.72287
2.72393
2.72768
2.735
2.74408
2.75365
2.76276
2.77019
2.77673
2.7834
2.79019
2.79537
2.79722
2.79702
2.79534
2.79529
2.80151
2.81181
2.81596
2.82022
2.83465
2.85383
2.85772
2.84397
2.8315
1.23635
2.02435
2.44372
2.68472
2.67424
2.66012
2.65235
2.65618
2.65957
2.66684
2.6741
2.68035
2.68491
2.68795
2.68993
2.69237
2.69822
2.70996
2.72206
2.73002
2.73284
2.73271
2.73014
2.7257
2.72344
2.72327
2.72454
2.72886
2.73665
2.74587
2.75527
2.764
2.77102
2.77721
2.78361
2.79024
2.79534
2.79715
2.79693
2.7952
2.79511
2.80121
2.81159
2.81574
2.81986
2.83414
2.85336
2.8573
2.84368
2.83127
1.23658
2.0257
2.4443
2.68474
2.67408
2.65979
2.65217
2.65607
2.6595
2.66673
2.67395
2.68034
2.68511
2.6883
2.69038
2.69316
2.69978
2.71124
2.72276
2.73029
2.73293
2.73279
2.73019
2.72566
2.72322
2.72292
2.72392
2.72765
2.73517
2.74433
2.75379
2.76268
2.7699
2.77627
2.78282
2.78952
2.79466
2.79651
2.79633
2.79471
2.79464
2.80075
2.81125
2.81538
2.81929
2.83322
2.85253
2.85639
2.84282
2.83047
1.23691
2.02758
2.4451
2.68463
2.67415
2.65965
2.65196
2.65593
2.65925
2.6663
2.67331
2.67955
2.68425
2.68746
2.68952
2.69206
2.69808
2.70936
2.72113
2.72916
2.73222
2.73228
2.73015
2.72579
2.72325
2.72284
2.72363
2.72681
2.73371
2.74259
2.75201
2.76107
2.76856
2.77512
2.78178
2.7886
2.7939
2.79588
2.79574
2.79413
2.794
2.79992
2.81053
2.81467
2.81853
2.83248
2.85141
2.85523
2.84199
2.82987
1.23737
2.03021
2.44619
2.68464
2.67388
2.65898
2.6515
2.65561
2.65922
2.66662
2.67393
2.68027
2.68481
2.68782
2.68984
2.69268
2.69931
2.71022
2.72137
2.729
2.73194
2.73204
2.73009
2.72593
2.72335
2.72285
2.72354
2.7265
2.73324
2.74202
2.75132
2.76031
2.76778
2.77434
2.78101
2.78783
2.79318
2.79522
2.7951
2.79347
2.79322
2.79882
2.80967
2.81391
2.81761
2.83134
2.85051
2.85406
2.84107
2.82843
1.23795
2.03354
2.44757
2.68467
2.67382
2.6585
2.65103
2.65529
2.65886
2.66622
2.6734
2.6795
2.68384
2.68677
2.68871
2.69119
2.69697
2.7074
2.71865
2.72688
2.73045
2.7309
2.72956
2.72588
2.72309
2.72238
2.72288
2.72543
2.73206
2.74099
2.75032
2.75929
2.76675
2.7733
2.77993
2.78671
2.79209
2.79419
2.79411
2.79252
2.79217
2.79737
2.8083
2.81276
2.81633
2.82945
2.84868
2.85271
2.83936
2.82743
1.23869
2.03783
2.44935
2.68469
2.67339
2.65769
2.65046
2.65496
2.65849
2.66563
2.67264
2.67876
2.68322
2.68621
2.68823
2.69126
2.69779
2.70748
2.71795
2.72598
2.72976
2.73045
2.7295
2.7263
2.72335
2.72232
2.72253
2.72421
2.72966
2.7385
2.74793
2.75718
2.76498
2.77182
2.77863
2.78547
2.79082
2.79289
2.79281
2.79113
2.79063
2.79545
2.80651
2.8112
2.81498
2.82824
2.84674
2.85032
2.83803
2.82513
1.2396
2.04319
2.45153
2.68471
2.67299
2.65687
2.64978
2.65451
2.65796
2.66497
2.67184
2.67783
2.68219
2.6851
2.68713
2.69053
2.69715
2.70603
2.71576
2.72383
2.7282
2.72936
2.72895
2.72666
2.72367
2.72228
2.7223
2.72339
2.72772
2.73621
2.7455
2.75487
2.76291
2.76995
2.77693
2.78392
2.78945
2.79164
2.79159
2.78986
2.78912
2.79327
2.8041
2.80902
2.81243
2.82526
2.84473
2.84863
2.83562
2.82361
1.24074
2.04995
2.45415
2.68465
2.67249
2.65575
2.64891
2.65397
2.65739
2.66432
2.67099
2.67674
2.68087
2.6835
2.68587
2.6903
2.69714
2.70527
2.71391
2.72156
2.72623
2.72785
2.72785
2.72664
2.724
2.72235
2.72209
2.72267
2.72572
2.73352
2.74293
2.75244
2.76073
2.76791
2.7749
2.78189
2.78755
2.78995
2.79
2.78834
2.78737
2.79087
2.80122
2.80634
2.80993
2.82228
2.84223
2.84667
2.83412
2.82022
1.24221
2.05702
2.45782
2.68435
2.67201
2.65431
2.64772
2.65315
2.65663
2.6637
2.67016
2.67556
2.67922
2.68173
2.68467
2.68967
2.69664
2.70425
2.71164
2.71845
2.72343
2.72574
2.72629
2.7261
2.72487
2.72314
2.7226
2.72287
2.72471
2.73076
2.73966
2.74902
2.75753
2.76511
2.77245
2.77961
2.78542
2.78796
2.78807
2.78644
2.78521
2.7881
2.79805
2.80327
2.80642
2.81788
2.8375
2.84217
2.8307
2.81793
1.24404
2.06517
2.4625
2.68414
2.67127
2.65236
2.64647
2.6523
2.65651
2.6646
2.67119
2.676
2.67913
2.68168
2.68513
2.69062
2.69742
2.70459
2.71106
2.71664
2.72094
2.72366
2.72474
2.72494
2.72469
2.7238
2.7233
2.7234
2.72448
2.7288
2.73685
2.74575
2.75415
2.76182
2.76934
2.7767
2.78274
2.78554
2.78578
2.78424
2.78264
2.78476
2.79416
2.79997
2.80301
2.81303
2.83383
2.83935
2.82735
2.81271
1.24618
2.07486
2.46801
2.68382
2.67029
2.65054
2.64449
2.65062
2.65471
2.66247
2.66906
2.67372
2.67663
2.67917
2.68309
2.68904
2.69612
2.70316
2.70908
2.71379
2.7177
2.72045
2.72201
2.72321
2.72377
2.72388
2.7239
2.72402
2.72469
2.7275
2.73412
2.74243
2.75065
2.75836
2.766
2.77346
2.77964
2.78261
2.78295
2.78151
2.77943
2.78076
2.78918
2.79543
2.79834
2.80729
2.827
2.83301
2.82308
2.80909
1.24839
2.08589
2.47472
2.6834
2.66943
2.64798
2.64223
2.64866
2.65313
2.6611
2.66767
2.672
2.67454
2.67716
2.68148
2.6878
2.69492
2.70168
2.70729
2.71159
2.71511
2.71802
2.71989
2.72144
2.72283
2.72363
2.724
2.72427
2.72483
2.72667
2.73157
2.73888
2.74661
2.75417
2.76185
2.76944
2.77587
2.77919
2.7797
2.7785
2.77601
2.77661
2.7837
2.79026
2.79294
2.80058
2.82039
2.8281
2.81799
2.80102
1.25093
2.09888
2.4831
2.68299
2.6685
2.64553
2.64017
2.64712
2.65208
2.66142
2.66826
2.67219
2.67439
2.67707
2.68149
2.68772
2.69456
2.70079
2.7057
2.70934
2.71241
2.71532
2.7176
2.7195
2.72149
2.7229
2.72358
2.72393
2.72442
2.72566
2.72905
2.73527
2.74237
2.74972
2.75744
2.76511
2.77157
2.77486
2.77537
2.77418
2.77119
2.77112
2.77653
2.78369
2.78614
2.79203
2.8107
2.81853
2.80909
2.79471
1.25386
2.1129
2.49308
2.68226
2.66643
2.64181
2.63647
2.64346
2.64895
2.65811
2.66517
2.66932
2.67158
2.67436
2.67901
2.68534
2.69218
2.69848
2.70354
2.70709
2.70973
2.7123
2.71472
2.71685
2.71923
2.72134
2.7226
2.72318
2.72365
2.72459
2.7269
2.73182
2.73803
2.74475
2.75225
2.76011
2.76697
2.7706
2.77123
2.77017
2.7664
2.76534
2.76907
2.77562
2.77785
2.78225
2.79879
2.80893
2.80094
2.78121
1.25718
2.12869
2.505
2.68152
2.6651
2.63845
2.63323
2.64048
2.64673
2.65696
2.66438
2.66864
2.67093
2.67372
2.67819
2.68394
2.69019
2.69605
2.70095
2.70452
2.70706
2.70943
2.71188
2.7141
2.71666
2.71911
2.72098
2.72195
2.72248
2.72317
2.72459
2.72783
2.73297
2.73901
2.74603
2.75367
2.76067
2.76476
2.76562
2.76489
2.76096
2.75822
2.75995
2.76602
2.76758
2.76962
2.7833
2.79309
2.78545
2.76817
1.26078
2.14583
2.5189
2.68024
2.66265
2.63388
2.62878
2.63626
2.64326
2.65404
2.66192
2.66631
2.6687
2.67129
2.67568
2.6815
2.68767
2.6935
2.69834
2.702
2.70448
2.70639
2.70859
2.71077
2.71331
2.71582
2.71844
2.72012
2.72084
2.72135
2.72219
2.72418
2.7281
2.73307
2.73949
2.74692
2.75391
2.75804
2.75888
2.7582
2.75427
2.75023
2.75021
2.75382
2.75555
2.75556
2.76313
2.77504
2.76721
2.74146
1.26464
2.16383
2.53462
2.67882
2.65999
2.6292
2.62415
2.63157
2.63941
2.65047
2.65883
2.66383
2.66692
2.67013
2.67455
2.68003
2.68571
2.69083
2.69525
2.69893
2.70157
2.70347
2.70528
2.70734
2.70993
2.7124
2.71501
2.7174
2.71893
2.71954
2.71982
2.72041
2.72216
2.72626
2.73175
2.73854
2.74576
2.75038
2.75163
2.75104
2.74758
2.74034
2.73795
2.7392
2.7391
2.73731
2.73847
2.7435
2.73393
2.7036
1.26853
2.18202
2.5515
2.67721
2.65722
2.62476
2.61923
2.6265
2.63481
2.64604
2.6548
2.66061
2.66386
2.66684
2.67139
2.67641
2.68211
2.68753
2.692
2.69572
2.69858
2.70055
2.70184
2.70291
2.70484
2.70732
2.70995
2.7127
2.71514
2.71665
2.71717
2.7173
2.71768
2.719
2.72322
2.73042
2.73722
2.74118
2.74206
2.74139
2.73807
2.73004
2.72501
2.72292
2.72019
2.71186
2.70915
2.70501
2.68413
2.58927
1.27288
2.20248
2.57234
2.67464
2.65329
2.61883
2.61331
2.62053
2.62918
2.64
2.64898
2.65562
2.66055
2.66402
2.6683
2.67349
2.67849
2.68368
2.6881
2.69155
2.69453
2.69686
2.69822
2.69887
2.69981
2.70197
2.70496
2.70791
2.71061
2.71231
2.71266
2.71243
2.71167
2.71146
2.71185
2.71452
2.72264
2.72859
2.72973
2.72904
2.72613
2.71611
2.70424
2.69715
2.69079
2.67799
2.65481
2.63053
2.58113
2.4477
1.27676
2.22156
2.59368
2.67161
2.6494
2.61394
2.6078
2.61402
2.62269
2.63314
2.64213
2.64851
2.65389
2.65876
2.6631
2.66851
2.67437
2.67951
2.6839
2.68718
2.68939
2.69099
2.69185
2.69202
2.69211
2.69252
2.6942
2.69787
2.70205
2.70551
2.70717
2.70744
2.70708
2.70578
2.70412
2.70365
2.70471
2.70885
2.71044
2.70989
2.70754
2.70195
2.68767
2.67265
2.65843
2.64009
2.61087
2.56405
2.4953
2.40264
1.27832
2.23056
2.6085
2.66745
2.64473
2.60845
2.60225
2.60739
2.61636
2.62656
2.63481
2.64043
2.64579
2.64964
2.65432
2.65964
2.6652
2.67114
2.67678
2.68103
2.68355
2.68513
2.68583
2.68582
2.68564
2.68567
2.68653
2.6898
2.69484
2.69854
2.6997
2.69962
2.69864
2.69592
2.6938
2.69252
2.69227
2.69372
2.69388
2.69271
2.6895
2.68085
2.66986
2.64669
2.63048
2.60392
2.57439
2.52793
2.45967
2.38577
1.27891
2.23494
2.61527
2.66515
2.64281
2.6071
2.60083
2.60461
2.61403
2.62188
2.62813
2.63387
2.6389
2.6431
2.64699
2.65055
2.65397
2.65828
2.66256
2.66599
2.66836
2.66997
2.67091
2.67101
2.67075
2.67025
2.6703
2.67206
2.67877
2.6877
2.69229
2.69341
2.69304
2.69134
2.6858
2.67938
2.67632
2.67596
2.67628
2.67564
2.67329
2.66715
2.65673
2.63448
2.60774
2.58012
2.54508
2.50664
2.45169
2.39028
1.27423
2.21223
2.59538
2.65882
2.63842
2.60834
2.60298
2.60572
2.61276
2.62024
2.62555
2.63036
2.63445
2.63857
2.64286
2.64704
2.65078
2.65403
2.65694
2.65912
2.66066
2.66171
2.66224
2.66238
2.66226
2.66191
2.66155
2.66168
2.66308
2.66812
2.67581
2.68075
2.68217
2.68177
2.67958
2.67305
2.66282
2.65493
2.65159
2.64965
2.64772
2.64409
2.63674
2.62362
2.59992
2.56964
2.53664
2.49517
2.45344
2.40287
1.2699
2.18812
2.59221
2.65894
2.6375
2.6026
2.59859
2.60293
2.61111
2.61922
2.62721
2.63015
2.63268
2.63528
2.63849
2.64195
2.64532
2.64832
2.65113
2.65359
2.6557
2.65741
2.65845
2.65927
2.65926
2.65896
2.65823
2.65778
2.65796
2.65957
2.6649
2.67094
2.6739
2.67397
2.67302
2.66957
2.66082
2.64907
2.63733
2.62977
2.62202
2.61698
2.60948
2.60008
2.58732
2.56168
2.53445
2.49616
2.45729
2.41544
1.47536
1.96904
2.51273
2.73656
2.71446
2.66296
2.63405
2.62686
2.62805
2.62967
2.62991
2.62922
2.62797
2.62669
2.62502
2.62338
2.62202
2.62154
2.62135
2.62177
2.62298
2.62552
2.62855
2.6329
2.6372
2.64073
2.64372
2.64584
2.64745
2.65
2.65508
2.66117
2.66458
2.6654
2.66498
2.66317
2.65765
2.64728
2.63484
2.62188
2.61165
2.59933
2.59122
2.57728
2.56715
2.54684
2.52656
2.49609
2.46364
2.42649
1.4301
1.93299
2.56414
2.73396
2.70583
2.64742
2.62058
2.61379
2.61772
2.62023
2.6228
2.62342
2.62348
2.62343
2.62309
2.62213
2.62073
2.61905
2.61689
2.61561
2.61513
2.61442
2.61442
2.61503
2.61677
2.61842
2.61977
2.62029
2.62094
2.62171
2.62308
2.62702
2.63236
2.63691
2.64358
2.64544
2.64427
2.63976
2.63044
2.61687
2.60683
2.59307
2.58383
2.56948
2.55839
2.54275
2.5247
2.50048
2.47268
2.44337
1.42602
1.92587
2.55968
2.72373
2.6955
2.64034
2.61367
2.60764
2.6117
2.61413
2.61674
2.6174
2.6175
2.61745
2.61739
2.61714
2.61639
2.61502
2.61314
2.61111
2.60937
2.60857
2.60806
2.60773
2.60801
2.60943
2.61086
2.61106
2.61079
2.60994
2.60794
2.60435
2.60122
2.60072
2.60128
2.60284
2.60687
2.6092
2.60847
2.60397
2.59534
2.58434
2.57386
2.5625
2.54956
2.53666
2.52104
2.50463
2.48163
2.46067
1.4361
1.91848
2.55501
2.71961
2.6928
2.63892
2.61055
2.60402
2.60777
2.6104
2.6129
2.61335
2.61331
2.61303
2.61254
2.61201
2.61116
2.60994
2.60857
2.60695
2.60518
2.60406
2.60313
2.60232
2.60193
2.60208
2.60265
2.60262
2.60221
2.6012
2.59966
2.59638
2.59121
2.5857
2.58055
2.57602
2.57319
2.5711
2.56915
2.56837
2.56583
2.56052
2.55188
2.5444
2.5356
2.52788
2.51629
2.50414
2.48602
2.4714
1.42939
1.92593
2.54759
2.72326
2.69635
2.64128
2.61202
2.60404
2.60785
2.61072
2.61274
2.61274
2.61242
2.61168
2.61062
2.60956
2.6083
2.60667
2.60495
2.60319
2.60161
2.60026
2.59924
2.59887
2.59877
2.59901
2.59981
2.59992
2.59965
2.59893
2.59755
2.59466
2.58934
2.58298
2.57611
2.56933
2.56284
2.55655
2.55106
2.54582
2.54009
2.53441
2.52622
2.51815
2.50811
2.50075
2.49318
2.48878
2.48083
2.4697
1.48196
1.95833
2.46031
2.70156
2.68419
2.64964
2.61882
2.60575
2.60783
2.6103
2.61239
2.61236
2.61199
2.61108
2.60933
2.60728
2.60495
2.60276
2.60066
2.59827
2.59571
2.59376
2.59195
2.59053
2.59006
2.58983
2.58976
2.58968
2.58924
2.58846
2.58746
2.58529
2.5813
2.57596
2.56983
2.56367
2.55783
2.55177
2.54611
2.53962
2.53373
2.52729
2.51846
2.50919
2.49811
2.48594
2.47614
2.46516
2.45668
2.45139
1.26216
2.14458
2.55953
2.64393
2.62127
2.58675
2.57712
2.57846
2.58231
2.59041
2.59546
2.59906
2.6014
2.60302
2.60396
2.60436
2.60446
2.60445
2.60439
2.60408
2.60321
2.60233
2.60053
2.59877
2.59536
2.59258
2.58978
2.58641
2.58241
2.57709
2.57065
2.56415
2.55821
2.55209
2.54572
2.5396
2.53433
2.53034
2.52684
2.52338
2.52083
2.51776
2.5124
2.50562
2.49554
2.48455
2.47398
2.45911
2.45213
2.43938
1.2619
2.15604
2.54898
2.63684
2.61606
2.58789
2.57923
2.58026
2.58324
2.58879
2.5924
2.59392
2.59486
2.59615
2.59767
2.59946
2.60127
2.60287
2.60423
2.60522
2.60595
2.60668
2.60741
2.60767
2.60744
2.60672
2.6054
2.60267
2.59868
2.59366
2.58612
2.57741
2.5685
2.56013
2.55108
2.5415
2.53331
2.52357
2.51649
2.50902
2.5019
2.49512
2.49158
2.48649
2.48231
2.47372
2.46713
2.45301
2.44289
2.43127
1.26541
2.16209
2.57251
2.64344
2.61913
2.58376
2.57266
2.57436
2.57937
2.58599
2.58989
2.59155
2.5929
2.59475
2.59664
2.59856
2.60046
2.60201
2.60326
2.6043
2.6051
2.60595
2.6068
2.6076
2.6087
2.6099
2.61063
2.6106
2.61015
2.60956
2.60897
2.60797
2.60573
2.60246
2.59776
2.59047
2.58259
2.57001
2.55676
2.54353
2.52916
2.51273
2.50058
2.48767
2.48073
2.46876
2.46118
2.44902
2.43761
2.4257
1.4884
1.97307
2.48124
2.70377
2.68252
2.64106
2.60814
2.59239
2.59437
2.59529
2.5965
2.59626
2.59587
2.59543
2.5941
2.59143
2.5901
2.58946
2.58753
2.58405
2.57964
2.57564
2.57349
2.57311
2.57326
2.57384
2.5753
2.57811
2.58132
2.58487
2.58919
2.5917
2.59399
2.59588
2.59571
2.59483
2.59303
2.58896
2.58359
2.57482
2.56529
2.55239
2.54029
2.52173
2.50815
2.49139
2.47728
2.46098
2.44647
2.43296
1.26483
2.15801
2.5511
2.64071
2.6185
2.58342
2.56978
2.57147
2.577
2.58242
2.58571
2.58786
2.58968
2.59094
2.59154
2.59203
2.59256
2.59284
2.5928
2.59236
2.59109
2.5893
2.58709
2.58525
2.5826
2.57894
2.57625
2.57509
2.57483
2.57508
2.57617
2.5774
2.57786
2.57801
2.57779
2.57623
2.57355
2.57096
2.5679
2.5642
2.55982
2.55192
2.54431
2.5343
2.52447
2.51436
2.50273
2.49234
2.47772
2.46497
1.26008
2.14805
2.53026
2.62762
2.60781
2.57397
2.56161
2.56312
2.5685
2.57382
2.57752
2.5794
2.58036
2.58088
2.58138
2.58231
2.5838
2.58529
2.58677
2.58825
2.58928
2.5899
2.59033
2.59063
2.59105
2.59233
2.5957
2.59965
2.60121
2.60107
2.60037
2.5987
2.59614
2.59078
2.58412
2.57729
2.56975
2.56132
2.55425
2.54717
2.54054
2.53545
2.5301
2.52426
2.51787
2.51198
2.50436
2.49702
2.48995
2.48173
1.25749
2.1362
2.50669
2.62634
2.60702
2.57634
2.56486
2.56655
2.57129
2.57473
2.57742
2.57841
2.57858
2.57836
2.57795
2.57781
2.57785
2.57797
2.57824
2.57863
2.57923
2.57992
2.58052
2.58103
2.58169
2.58328
2.58787
2.59558
2.60276
2.60859
2.61199
2.61269
2.61229
2.6105
2.60528
2.59544
2.58462
2.57278
2.56175
2.55166
2.54246
2.53473
2.52639
2.51971
2.51218
2.50555
2.50033
2.49329
2.48825
2.48228
1.25189
2.09812
2.49132
2.62667
2.60796
2.57503
2.55951
2.56121
2.56558
2.57054
2.5738
2.57619
2.57809
2.57874
2.57932
2.57992
2.58031
2.58076
2.5814
2.58219
2.58296
2.58358
2.58403
2.58437
2.58469
2.58528
2.58672
2.59085
2.59859
2.60596
2.61106
2.61374
2.61438
2.61409
2.61257
2.60805
2.59962
2.59044
2.57987
2.56949
2.55867
2.54854
2.53806
2.52851
2.51885
2.5095
2.50254
2.49466
2.48917
2.48262
1.39668
1.89397
2.54436
2.70463
2.66177
2.6158
2.58829
2.57572
2.57784
2.57726
2.57688
2.5758
2.57378
2.57251
2.57045
2.56867
2.56684
2.56525
2.56428
2.56307
2.56253
2.56229
2.56197
2.56089
2.55779
2.55422
2.55246
2.55238
2.55335
2.55666
2.56261
2.56858
2.57372
2.57707
2.57813
2.57793
2.5766
2.57469
2.57089
2.56579
2.55884
2.55236
2.54505
2.53783
2.53157
2.52255
2.51679
2.50719
2.50002
2.49224
1.23463
2.01501
2.43525
2.63173
2.61049
2.58635
2.5723
2.56982
2.57134
2.57184
2.57251
2.57237
2.57203
2.57162
2.57085
2.57021
2.56954
2.56863
2.56754
2.56637
2.56533
2.56468
2.56438
2.56394
2.56296
2.56155
2.56035
2.55967
2.55971
2.56101
2.56396
2.56655
2.56785
2.56802
2.56761
2.56572
2.56043
2.55288
2.54622
2.54104
2.53679
2.53278
2.52937
2.52605
2.52416
2.52015
2.51586
2.5112
2.50452
2.49988
1.23677
2.02463
2.43957
2.6194
2.60221
2.57613
2.56316
2.56311
2.56485
2.56622
2.56633
2.56599
2.56559
2.56499
2.56447
2.56425
2.56401
2.56347
2.56245
2.56116
2.55979
2.55861
2.55781
2.55733
2.55707
2.55701
2.55705
2.55723
2.55779
2.55943
2.56398
2.57124
2.57766
2.58139
2.58216
2.58159
2.57928
2.57228
2.55946
2.54775
2.53851
2.53077
2.52472
2.51813
2.51238
2.50802
2.50498
2.50341
2.50053
2.49785
1.34424
1.84058
2.59786
2.66817
2.62015
2.59916
2.57735
2.5681
2.56842
2.56867
2.56846
2.56788
2.56738
2.56622
2.56551
2.56463
2.56368
2.5628
2.56154
2.56059
2.5597
2.55876
2.55786
2.5572
2.55645
2.55434
2.54953
2.54521
2.54355
2.54372
2.54515
2.55045
2.56209
2.57336
2.58115
2.58528
2.58613
2.58551
2.58264
2.57462
2.56291
2.55147
2.54009
2.5293
2.51899
2.51144
2.50334
2.49759
2.49231
2.48954
1.31651
1.82852
2.60322
2.67677
2.61336
2.60207
2.57719
2.56534
2.56582
2.56564
2.56557
2.56476
2.56422
2.56293
2.56186
2.56125
2.56048
2.55947
2.55839
2.55759
2.55727
2.55742
2.55815
2.55867
2.55874
2.55844
2.5573
2.55358
2.54458
2.53324
2.52442
2.52081
2.52102
2.52343
2.53045
2.54035
2.55047
2.55762
2.55982
2.55926
2.55656
2.55011
2.54126
2.53232
2.52224
2.51279
2.50308
2.49303
2.48491
2.47673
1.30595
1.82248
2.59511
2.66217
2.60818
2.59792
2.572
2.56206
2.55865
2.55909
2.55875
2.55733
2.55649
2.5547
2.55327
2.55242
2.55201
2.55155
2.55069
2.54939
2.54811
2.54741
2.54731
2.5478
2.54977
2.55161
2.55205
2.5517
2.54995
2.54372
2.533
2.52253
2.51249
2.50421
2.49915
2.49737
2.49733
2.49779
2.49933
2.50292
2.50651
2.50788
2.50778
2.50701
2.50471
2.50013
2.49371
2.4864
2.47994
2.47313
1.21334
1.89109
2.40944
2.61642
2.5888
2.57153
2.5546
2.54882
2.54938
2.54967
2.54933
2.54858
2.54748
2.54489
2.54274
2.54178
2.54163
2.54169
2.54169
2.54158
2.54112
2.54002
2.53886
2.53804
2.53767
2.53764
2.53791
2.53879
2.54158
2.54798
2.55351
2.55529
2.55519
2.55446
2.55285
2.55006
2.54545
2.53925
2.53151
2.5229
2.5153
2.50914
2.50343
2.49862
2.49394
2.4904
2.48697
2.48401
2.48121
2.47789
1.30027
1.81544
2.58592
2.65366
2.60527
2.59402
2.56866
2.55962
2.55911
2.56042
2.56095
2.56039
2.55973
2.55792
2.55625
2.55537
2.55497
2.55471
2.55435
2.55354
2.55209
2.55068
2.54989
2.54991
2.5509
2.55294
2.55391
2.55392
2.55318
2.55234
2.55235
2.55258
2.55349
2.55512
2.5561
2.55621
2.55587
2.55441
2.55013
2.54304
2.53436
2.52461
2.5152
2.50641
2.49862
2.49256
2.48848
2.4853
2.48392
2.48215
1.30699
1.79676
2.59074
2.64716
2.59988
2.58645
2.56069
2.55101
2.55053
2.55147
2.5529
2.55284
2.55269
2.55193
2.55044
2.5493
2.54874
2.54847
2.54829
2.54807
2.54755
2.54688
2.54652
2.54662
2.54805
2.55202
2.55571
2.55733
2.55743
2.55639
2.55163
2.54234
2.53353
2.52643
2.52127
2.51811
2.51659
2.51578
2.51474
2.51301
2.51053
2.50759
2.50462
2.50206
2.5003
2.49887
2.49788
2.49681
2.49667
2.49631
1.20984
1.86486
2.40276
2.60977
2.57897
2.56588
2.54667
2.53994
2.53982
2.54027
2.54105
2.54098
2.54057
2.53934
2.53753
2.5361
2.53522
2.53468
2.5343
2.53393
2.53317
2.53132
2.52891
2.52713
2.52637
2.52632
2.52669
2.52839
2.53374
2.5432
2.55292
2.56123
2.5669
2.56951
2.56999
2.56976
2.56883
2.56583
2.55816
2.54672
2.53452
2.52336
2.51454
2.50858
2.50525
2.50361
2.5034
2.50392
2.50582
2.50689
1.29381
1.80349
2.57322
2.63457
2.6004
2.5796
2.55249
2.54262
2.54265
2.54424
2.54655
2.5472
2.54752
2.54706
2.54611
2.54535
2.54491
2.5446
2.54429
2.54387
2.54317
2.54227
2.5415
2.54121
2.54169
2.54377
2.54652
2.54813
2.54854
2.5481
2.5471
2.54703
2.54725
2.54812
2.55049
2.55281
2.55369
2.55351
2.55177
2.54614
2.53763
2.52944
2.52228
2.51643
2.51207
2.50928
2.50808
2.50777
2.50804
2.50798
1.31191
1.78926
2.58403
2.63835
2.58792
2.57274
2.54731
2.53818
2.53792
2.53953
2.54074
2.54061
2.54072
2.54048
2.54021
2.54016
2.54015
2.54014
2.54022
2.54029
2.54029
2.54033
2.54063
2.54186
2.54487
2.54826
2.55082
2.55202
2.55212
2.55148
2.54808
2.53912
2.5283
2.51919
2.51218
2.50741
2.50463
2.5035
2.50327
2.50324
2.5034
2.50439
2.5069
2.51012
2.51327
2.51564
2.51666
2.51669
2.51656
2.516
1.30909
1.78521
2.58114
2.63529
2.58654
2.56937
2.54445
2.53452
2.53448
2.53609
2.53731
2.53719
2.53762
2.53748
2.53751
2.53771
2.53829
2.53902
2.53965
2.54002
2.54021
2.54054
2.5414
2.54333
2.54602
2.54866
2.55041
2.55112
2.55106
2.55018
2.54553
2.53419
2.52146
2.51051
2.50188
2.49552
2.49115
2.48845
2.48716
2.48697
2.48784
2.49175
2.50025
2.50976
2.51883
2.52655
2.53207
2.53479
2.53574
2.5357
1.32113
1.80456
2.56554
2.61941
2.56594
2.55074
2.52568
2.51826
2.51883
2.52079
2.52263
2.52316
2.52428
2.5259
2.52909
2.53241
2.5351
2.53714
2.53833
2.53878
2.53888
2.5391
2.54017
2.54344
2.54782
2.55094
2.55229
2.55244
2.55129
2.54658
2.53831
2.53054
2.52428
2.52009
2.51783
2.51671
2.51619
2.51566
2.5151
2.51483
2.51487
2.51539
2.51784
2.52476
2.53484
2.54396
2.55084
2.55472
2.55637
2.5567
1.21731
1.91977
2.39328
2.58029
2.55178
2.53483
2.51599
2.50982
2.51029
2.5105
2.51122
2.51255
2.5135
2.51491
2.51587
2.51649
2.51677
2.51678
2.51664
2.51632
2.51612
2.51615
2.51692
2.51966
2.52373
2.52743
2.53067
2.53351
2.53623
2.53957
2.54434
2.55134
2.56061
2.57101
2.58069
2.58787
2.59161
2.5924
2.59108
2.58438
2.56963
2.55508
2.54461
2.53911
2.53776
2.53868
2.54208
2.54542
2.54707
2.54753
1.20137
1.84858
2.37864
2.58293
2.5546
2.54009
2.52522
2.51879
2.51829
2.51675
2.51507
2.51372
2.51286
2.51284
2.51398
2.51753
2.52146
2.52389
2.52473
2.52468
2.5239
2.52207
2.52058
2.51969
2.51927
2.51925
2.51974
2.52213
2.52921
2.5415
2.5559
2.57105
2.58558
2.59803
2.60721
2.61254
2.61443
2.61422
2.61069
2.59818
2.57621
2.55397
2.53461
2.51984
2.51022
2.50531
2.50415
2.50495
2.50805
2.51079
1.21596
1.91136
2.39151
2.57843
2.54833
2.53357
2.51393
2.50707
2.50701
2.50681
2.5077
2.5095
2.51226
2.51516
2.51723
2.51858
2.51933
2.51955
2.51952
2.51934
2.51905
2.51889
2.51895
2.51947
2.52087
2.52287
2.52501
2.52706
2.52904
2.53164
2.53621
2.54404
2.55541
2.56902
2.58256
2.59348
2.60007
2.60237
2.60197
2.59743
2.58279
2.56014
2.53851
2.52008
2.506
2.4963
2.49081
2.48853
2.48865
2.49049
1.31621
1.79921
2.56287
2.61505
2.5606
2.54392
2.52101
2.51504
2.51415
2.51485
2.51456
2.51366
2.51307
2.51365
2.51743
2.52519
2.53247
2.53818
2.54174
2.54336
2.54373
2.54361
2.54318
2.54289
2.54312
2.54402
2.54479
2.54488
2.54463
2.54327
2.53852
2.53068
2.5244
2.52111
2.52044
2.52146
2.52537
2.53068
2.53427
2.53557
2.53542
2.53456
2.53392
2.53405
2.53469
2.53495
2.53488
2.53454
2.53367
2.5314
1.30531
1.78
2.57447
2.62616
2.58195
2.56399
2.53805
2.52496
2.52066
2.52103
2.52162
2.52283
2.52653
2.53083
2.53518
2.53875
2.54119
2.54284
2.54418
2.54516
2.54548
2.54544
2.54513
2.54417
2.54269
2.54155
2.54114
2.54117
2.54122
2.54109
2.54045
2.53717
2.52759
2.5146
2.50338
2.49525
2.49044
2.48851
2.48853
2.49092
2.49975
2.51545
2.53153
2.54577
2.55675
2.56361
2.56666
2.5671
2.56572
2.5599
1.29412
1.79171
2.56127
2.61783
2.58655
2.5627
2.53575
2.52117
2.51717
2.51776
2.51908
2.52119
2.52567
2.52966
2.53277
2.5349
2.53623
2.53733
2.53863
2.53976
2.5402
2.54017
2.53977
2.53855
2.537
2.53601
2.53588
2.5365
2.53774
2.5381
2.53792
2.53635
2.52996
2.51731
2.50528
2.49622
2.49095
2.48915
2.4898
2.49523
2.51
2.5289
2.54625
2.56012
2.56952
2.57446
2.57591
2.57551
2.57158
2.5607
2.24541
2.41902
2.83908
2.94034
3.02857
2.96467
2.94965
2.9278
2.91815
2.91262
2.90979
2.90443
2.89926
2.89433
2.89063
2.88825
2.88655
2.88521
2.8834
2.88141
2.87962
2.87823
2.87548
2.8724
2.86904
2.86504
2.86027
2.85555
2.85098
2.84587
2.84071
2.83623
2.83137
2.82591
2.8204
2.81427
2.80778
2.80137
2.79473
2.78809
2.78076
2.77326
2.76548
2.75746
2.74954
2.74117
2.73336
2.72506
2.71717
2.70937
2.70142
2.69389
2.6862
2.67876
2.67141
2.66403
2.65691
2.64994
2.64306
2.63644
2.63017
2.62412
2.61841
2.6131
2.60813
2.60365
2.59937
2.59543
2.59214
2.58907
2.58603
2.58318
2.5809
2.5787
2.57571
2.5733
2.57152
2.56988
2.56813
2.5663
2.56412
2.56238
2.56106
2.56026
2.55984
2.55938
2.55874
2.55822
2.55801
2.55819
2.55886
2.56059
2.56152
2.56331
2.56452
2.56733
2.56892
2.57241
2.57353
2.5763
2.2559
2.33492
2.53282
2.70896
2.7817
2.84163
2.8907
2.9138
2.94878
2.96513
2.96567
2.95432
2.92947
2.8992
2.87371
2.85512
2.8399
2.8249
2.80646
2.78657
2.76789
2.75121
2.73607
2.72165
2.7064
2.69005
2.67341
2.65574
2.63829
2.62249
2.60811
2.59471
2.58343
2.57474
2.56654
2.55862
2.55159
2.54583
2.54097
2.53654
2.53238
2.5282
2.52383
2.51866
2.51296
2.50578
2.49845
2.49001
2.48131
2.47264
2.46348
2.45487
2.44617
2.43817
2.43065
2.42385
2.41773
2.41216
2.40732
2.40279
2.39859
2.3951
2.39186
2.38872
2.38633
2.38451
2.38266
2.38138
2.38114
2.38129
2.38171
2.38292
2.38453
2.38669
2.38991
2.39277
2.39589
2.39931
2.40242
2.40494
2.40644
2.40692
2.4069
2.4065
2.40499
2.40367
2.40079
2.39841
2.39357
2.39003
2.38453
2.37922
2.37481
2.36814
2.36432
2.35673
2.35255
2.34582
2.34274
2.334
2.30331
2.28256
2.34775
2.4371
2.49099
2.53733
2.57601
2.60843
2.63961
2.66099
2.67451
2.68643
2.68853
2.68727
2.68348
2.67351
2.65806
2.64086
2.61463
2.58747
2.56157
2.53928
2.52139
2.50617
2.49281
2.48069
2.46989
2.46053
2.45163
2.44311
2.43482
2.42743
2.42014
2.41426
2.41039
2.4073
2.40367
2.39979
2.39606
2.39234
2.38837
2.38393
2.37893
2.3736
2.36824
2.36321
2.35855
2.3542
2.34981
2.34495
2.33928
2.3326
2.32504
2.31685
2.30842
2.3002
2.29245
2.28544
2.2793
2.27398
2.2692
2.26493
2.26105
2.25745
2.25388
2.2503
2.24705
2.24388
2.24024
2.23647
2.23295
2.22968
2.22635
2.2228
2.21865
2.21489
2.21205
2.21079
2.21026
2.21019
2.21029
2.21078
2.21262
2.21655
2.22163
2.22796
2.23606
2.24511
2.25498
2.26488
2.27471
2.2843
2.29365
2.3021
2.30934
2.31488
2.31917
2.32184
2.32446
2.32345
2.32355
2.28751
2.28355
2.31298
2.34469
2.36794
2.38389
2.39837
2.41366
2.42732
2.43915
2.44727
2.45286
2.45568
2.45571
2.45511
2.45317
2.45129
2.44766
2.44388
2.44198
2.43798
2.43304
2.42896
2.42161
2.41434
2.40473
2.39592
2.38662
2.37733
2.36765
2.35861
2.35049
2.34238
2.33501
2.32784
2.32017
2.31176
2.30364
2.29627
2.28984
2.28416
2.27902
2.2742
2.26957
2.26504
2.26049
2.25591
2.25132
2.24679
2.24233
2.23792
2.23343
2.22903
2.2247
2.22088
2.21767
2.21525
2.21324
2.212
2.21056
2.20975
2.20869
2.20815
2.20736
2.20698
2.20644
2.20568
2.20487
2.20367
2.20227
2.20079
2.19881
2.1966
2.19359
2.19037
2.18707
2.18265
2.17782
2.17293
2.16736
2.16185
2.15717
2.15188
2.1465
2.14156
2.1374
2.13396
2.13077
2.12823
2.12612
2.12481
2.1242
2.12431
2.12481
2.12687
2.12876
2.13381
2.13637
2.14521
2.33283
2.30076
2.27918
2.27651
2.28338
2.29031
2.29309
2.2962
2.29935
2.30458
2.30991
2.31451
2.31707
2.32024
2.32329
2.32734
2.33099
2.33377
2.33637
2.33821
2.33848
2.33818
2.33743
2.33519
2.33193
2.32839
2.32112
2.31646
2.31037
2.30215
2.29454
2.286
2.27756
2.26946
2.26188
2.25496
2.24862
2.24264
2.2375
2.23321
2.22972
2.22676
2.22412
2.2216
2.21896
2.21625
2.21327
2.21009
2.2068
2.20332
2.19972
2.19618
2.19255
2.18918
2.18573
2.1823
2.17866
2.17501
2.17087
2.1669
2.16277
2.15876
2.15506
2.15158
2.14858
2.14592
2.14393
2.14202
2.14109
2.13974
2.13919
2.13854
2.13778
2.13674
2.1357
2.13395
2.13178
2.12993
2.12768
2.1251
2.12285
2.12003
2.11675
2.11449
2.11181
2.10825
2.10451
2.10076
2.09669
2.09265
2.08866
2.08519
2.0822
2.0797
2.07769
2.07664
2.0763
2.07702
2.07739
2.0807
2.35361
2.31079
2.28719
2.26745
2.25895
2.25319
2.25015
2.24555
2.2439
2.24235
2.24273
2.24469
2.24681
2.24799
2.25034
2.25331
2.2579
2.26249
2.26716
2.27176
2.27564
2.27894
2.28205
2.28377
2.28376
2.28323
2.28155
2.27908
2.27512
2.26859
2.26358
2.25595
2.24792
2.24028
2.23222
2.2239
2.2154
2.20663
2.19812
2.19015
2.18301
2.17682
2.17161
2.16729
2.16381
2.16109
2.15899
2.15724
2.15569
2.15427
2.15293
2.15165
2.15031
2.14884
2.14712
2.14508
2.14255
2.14022
2.13694
2.13459
2.13132
2.12899
2.12617
2.12392
2.12194
2.12002
2.11896
2.11771
2.11742
2.11698
2.117
2.11729
2.11746
2.11751
2.11738
2.11697
2.11604
2.11453
2.11289
2.11034
2.10676
2.10326
2.09885
2.0937
2.08854
2.08304
2.07688
2.07107
2.06564
2.06069
2.0562
2.05251
2.04955
2.0474
2.04599
2.04554
2.04554
2.04667
2.04745
2.05124
2.37222
2.3322
2.29758
2.27393
2.25665
2.23927
2.23111
2.21992
2.21505
2.20864
2.20713
2.20536
2.20563
2.20689
2.20798
2.21018
2.21311
2.21772
2.22276
2.22752
2.23207
2.23681
2.2411
2.24459
2.24804
2.25064
2.25124
2.25094
2.24985
2.2481
2.24444
2.23976
2.23462
2.2289
2.22192
2.21368
2.20502
2.19591
2.18669
2.1776
2.16889
2.16077
2.15335
2.14667
2.1407
2.13539
2.13085
2.12714
2.12427
2.12207
2.12058
2.11947
2.11894
2.11858
2.11847
2.11842
2.11819
2.11795
2.11716
2.11642
2.11474
2.11293
2.11076
2.10834
2.10619
2.10356
2.10181
2.09989
2.0987
2.09793
2.09754
2.09781
2.09814
2.09848
2.09884
2.09925
2.0995
2.09938
2.0988
2.0974
2.09455
2.09142
2.08749
2.08214
2.07608
2.06998
2.06358
2.05752
2.05223