/*--------------------------------*- C++ -*----------------------------------*\
| =========                 |                                                 |
| \\      /  F ield         | OpenFOAM: The Open Source CFD Toolbox           |
|  \\    /   O peration     | Version:  2412                                  |
|   \\  /    A nd           | Website:  www.openfoam.com                      |
|    \\/     M anipulation  |                                                 |
\*---------------------------------------------------------------------------*/
FoamFile
{
    version     2.0;
    format      ascii;
    arch        "LSB;label=32;scalar=64";
    class       volVectorField;
    location    "10";
    object      U;
}
// * * * * * * * * * * * * * * * * * * * * * * * * * * * * * * * * * * * * * //

dimensions      [0 1 -1 0 0 0 0];

internalField   nonuniform List<vector> 
7000
(
(2.85735 -9.82224e-06 0)
(2.39181 -9.83766e-05 0)
(0.951417 -0.000317223 0)
(0.437256 -0.000323738 0)
(0.542545 -0.000189508 0)
(0.631643 2.51576e-05 0)
(0.679521 0.000234479 0)
(0.695744 0.000436117 0)
(0.693905 0.000618159 0)
(0.683487 0.000782699 0)
(0.673745 0.000917047 0)
(0.667782 0.00102199 0)
(0.663307 0.00110108 0)
(0.658444 0.00115708 0)
(0.65277 0.00119291 0)
(0.646696 0.00121794 0)
(0.640473 0.00121471 0)
(0.634206 0.00123031 0)
(0.628064 0.00125369 0)
(0.621937 0.00131129 0)
(0.615678 0.00141572 0)
(0.608992 0.00157911 0)
(0.601892 0.0017918 0)
(0.594246 0.00204106 0)
(0.585635 0.00232331 0)
(0.576045 0.00262019 0)
(0.565452 0.00292425 0)
(0.553657 0.00322555 0)
(0.540693 0.00351696 0)
(0.526723 0.00380434 0)
(0.511728 0.00408879 0)
(0.495739 0.00437918 0)
(0.478811 0.00468538 0)
(0.460956 0.00501693 0)
(0.44212 0.00538135 0)
(0.422214 0.00578312 0)
(0.401162 0.00622321 0)
(0.378934 0.00669933 0)
(0.355469 0.00720575 0)
(0.330822 0.00773758 0)
(0.305119 0.00829139 0)
(0.277767 0.00887552 0)
(0.248523 0.00949935 0)
(0.218166 0.0101477 0)
(0.187104 0.0107574 0)
(0.154679 0.0112394 0)
(0.120219 0.0115432 0)
(0.0852382 0.0117683 0)
(0.0500634 0.0124278 0)
(0.0204262 0.0126453 0)
(2.85729 -4.72541e-05 0)
(2.39163 -0.00030176 0)
(0.951369 -0.00112588 0)
(0.43752 -0.00113671 0)
(0.543013 -0.00063898 0)
(0.632152 7.43996e-05 0)
(0.680038 0.000677774 0)
(0.696384 0.00123191 0)
(0.694861 0.0017187 0)
(0.684987 0.00217622 0)
(0.676005 0.00258821 0)
(0.670959 0.00296044 0)
(0.667487 0.00329833 0)
(0.66363 0.00359902 0)
(0.658879 0.00385807 0)
(0.653533 0.0040845 0)
(0.647768 0.00426017 0)
(0.641613 0.00443501 0)
(0.635199 0.00461709 0)
(0.628472 0.00483444 0)
(0.621366 0.00511378 0)
(0.613688 0.00547886 0)
(0.605554 0.00592761 0)
(0.596937 0.00645052 0)
(0.587476 0.00705636 0)
(0.577181 0.00772696 0)
(0.56603 0.00846107 0)
(0.553804 0.00925064 0)
(0.540516 0.010079 0)
(0.526303 0.0109481 0)
(0.511123 0.0118479 0)
(0.494995 0.0127758 0)
(0.477963 0.0137304 0)
(0.460037 0.0147116 0)
(0.441166 0.0157216 0)
(0.421265 0.0167635 0)
(0.400263 0.01784 0)
(0.378128 0.018953 0)
(0.354794 0.0200992 0)
(0.330305 0.0212725 0)
(0.304779 0.0224642 0)
(0.277628 0.0236803 0)
(0.248615 0.0249164 0)
(0.21853 0.0261204 0)
(0.1878 0.0271749 0)
(0.155747 0.0279637 0)
(0.121495 0.0284301 0)
(0.0862119 0.0286832 0)
(0.050203 0.0292696 0)
(0.0206366 0.0291313 0)
(2.85716 -9.41116e-05 0)
(2.39122 -0.00053024 0)
(0.950889 -0.00210596 0)
(0.437186 -0.00211711 0)
(0.5431 -0.00117272 0)
(0.632415 8.29328e-05 0)
(0.680365 0.00102851 0)
(0.696788 0.00181217 0)
(0.695322 0.0024173 0)
(0.68548 0.0029449 0)
(0.676486 0.00341423 0)
(0.671408 0.00386555 0)
(0.667893 0.00433361 0)
(0.663991 0.00483191 0)
(0.6592 0.00536129 0)
(0.653824 0.00592305 0)
(0.648038 0.00652076 0)
(0.641881 0.00713974 0)
(0.635475 0.00780176 0)
(0.628743 0.00849349 0)
(0.621598 0.0092309 0)
(0.613817 0.0100273 0)
(0.605486 0.0108943 0)
(0.596569 0.0118306 0)
(0.58671 0.0128542 0)
(0.575938 0.0139597 0)
(0.564271 0.0151331 0)
(0.551531 0.0163784 0)
(0.53779 0.0176819 0)
(0.523239 0.0190277 0)
(0.507875 0.0204189 0)
(0.491737 0.0218628 0)
(0.474864 0.0233695 0)
(0.457243 0.0249508 0)
(0.438783 0.0266177 0)
(0.419353 0.0283779 0)
(0.39884 0.0302333 0)
(0.377171 0.0321796 0)
(0.354252 0.0342051 0)
(0.330111 0.0362902 0)
(0.30487 0.0384167 0)
(0.27796 0.040585 0)
(0.249156 0.0427722 0)
(0.219248 0.0448935 0)
(0.188671 0.0468055 0)
(0.156749 0.0483846 0)
(0.122536 0.0495351 0)
(0.087082 0.0503347 0)
(0.0505067 0.0513085 0)
(0.020801 0.0511728 0)
(2.85694 -0.000134569 0)
(2.39053 -0.000760052 0)
(0.950026 -0.00301461 0)
(0.436467 -0.00304705 0)
(0.543128 -0.00171672 0)
(0.632777 4.74186e-05 0)
(0.680834 0.00144442 0)
(0.697312 0.00264783 0)
(0.695799 0.00363341 0)
(0.685805 0.0045244 0)
(0.676541 0.00532198 0)
(0.671107 0.0060627 0)
(0.667182 0.00678147 0)
(0.662849 0.00749377 0)
(0.657647 0.00820563 0)
(0.651936 0.00892063 0)
(0.645941 0.00965421 0)
(0.639752 0.0104222 0)
(0.633508 0.0112525 0)
(0.627119 0.0121545 0)
(0.620468 0.0131614 0)
(0.613287 0.0142926 0)
(0.605605 0.0155667 0)
(0.597345 0.0169572 0)
(0.588116 0.0184781 0)
(0.577903 0.020114 0)
(0.566704 0.0218198 0)
(0.554331 0.0235929 0)
(0.540818 0.0254379 0)
(0.526354 0.0273039 0)
(0.510949 0.0292126 0)
(0.494654 0.0311845 0)
(0.477538 0.0332449 0)
(0.459621 0.0354203 0)
(0.440852 0.0377337 0)
(0.421137 0.0401998 0)
(0.400386 0.0428224 0)
(0.37854 0.0455927 0)
(0.355502 0.0484919 0)
(0.331288 0.0514857 0)
(0.306017 0.0545466 0)
(0.279116 0.0576628 0)
(0.250336 0.0607953 0)
(0.220434 0.0638269 0)
(0.189835 0.0666078 0)
(0.157869 0.0690301 0)
(0.123567 0.0709662 0)
(0.0879618 0.0724048 0)
(0.0509374 0.0737555 0)
(0.0209784 0.0736505 0)
(2.85664 -0.000179011 0)
(2.38959 -0.00101746 0)
(0.94897 -0.00406925 0)
(0.435952 -0.00419955 0)
(0.543557 -0.00252207 0)
(0.633572 -0.000142751 0)
(0.681772 0.00165369 0)
(0.698479 0.00313546 0)
(0.697295 0.00431314 0)
(0.687724 0.00537541 0)
(0.678901 0.00635552 0)
(0.673891 0.00731553 0)
(0.670331 0.00829668 0)
(0.666274 0.00930569 0)
(0.661236 0.0103365 0)
(0.655569 0.0113758 0)
(0.649512 0.0124209 0)
(0.643168 0.0134983 0)
(0.636693 0.0146318 0)
(0.630037 0.0158372 0)
(0.623128 0.0171565 0)
(0.615732 0.0186159 0)
(0.607892 0.0202657 0)
(0.599558 0.0220608 0)
(0.59036 0.0240403 0)
(0.580255 0.0261873 0)
(0.569229 0.0284495 0)
(0.557084 0.0308095 0)
(0.543798 0.0332909 0)
(0.529516 0.0358017 0)
(0.514244 0.0383636 0)
(0.498006 0.040995 0)
(0.480863 0.0437211 0)
(0.462839 0.0465729 0)
(0.443903 0.049582 0)
(0.423983 0.0527734 0)
(0.403019 0.0561603 0)
(0.380971 0.0597392 0)
(0.357752 0.0634926 0)
(0.333383 0.0673788 0)
(0.307988 0.0713671 0)
(0.280998 0.0754251 0)
(0.252136 0.0795077 0)
(0.222114 0.0834615 0)
(0.191356 0.0871323 0)
(0.15921 0.0904217 0)
(0.124711 0.0931767 0)
(0.088908 0.0952659 0)
(0.0514577 0.0969484 0)
(0.0211644 0.0968608 0)
(2.85621 -0.000226615 0)
(2.38827 -0.00128531 0)
(0.947371 -0.00519471 0)
(0.434572 -0.00545023 0)
(0.543496 -0.00345336 0)
(0.634059 -0.000387081 0)
(0.682295 0.00186753 0)
(0.698941 0.00373162 0)
(0.69744 0.00525853 0)
(0.687289 0.00666606 0)
(0.677677 0.00797896 0)
(0.67185 0.00925625 0)
(0.667599 0.0105351 0)
(0.66307 0.0118167 0)
(0.657821 0.0130975 0)
(0.652195 0.0143696 0)
(0.646395 0.01562 0)
(0.640472 0.0169082 0)
(0.634511 0.018265 0)
(0.628397 0.0197201 0)
(0.622009 0.021325 0)
(0.615094 0.0231047 0)
(0.607661 0.0251521 0)
(0.599666 0.0273584 0)
(0.590774 0.0298122 0)
(0.580932 0.0324758 0)
(0.570147 0.0352872 0)
(0.558261 0.0382212 0)
(0.545224 0.0413381 0)
(0.531171 0.0444962 0)
(0.516134 0.0477263 0)
(0.50012 0.0510505 0)
(0.483173 0.0544919 0)
(0.465308 0.0580811 0)
(0.446488 0.0618526 0)
(0.426643 0.0658359 0)
(0.405716 0.0700482 0)
(0.383673 0.074488 0)
(0.360426 0.079138 0)
(0.336002 0.0839549 0)
(0.310534 0.0889091 0)
(0.28347 0.0939497 0)
(0.254509 0.0990361 0)
(0.224316 0.103974 0)
(0.193323 0.10861 0)
(0.160905 0.112839 0)
(0.126111 0.116474 0)
(0.0900356 0.119252 0)
(0.0521193 0.121268 0)
(0.0213912 0.121197 0)
(2.85568 -0.000278901 0)
(2.38659 -0.00157789 0)
(0.945528 -0.00641731 0)
(0.433447 -0.00682568 0)
(0.544038 -0.00447549 0)
(0.635227 -0.000763774 0)
(0.68354 0.0020082 0)
(0.700449 0.00435239 0)
(0.6993 0.00634742 0)
(0.689545 0.00818399 0)
(0.680316 0.00983822 0)
(0.674883 0.0113511 0)
(0.671036 0.0127803 0)
(0.66691 0.0141646 0)
(0.662032 0.0155467 0)
(0.656687 0.0169584 0)
(0.651066 0.0183873 0)
(0.645204 0.0199251 0)
(0.639158 0.021586 0)
(0.632846 0.0233864 0)
(0.626188 0.0253659 0)
(0.619002 0.0275417 0)
(0.611287 0.0300381 0)
(0.603045 0.032696 0)
(0.594007 0.0356469 0)
(0.584061 0.0388488 0)
(0.573217 0.0422353 0)
(0.561359 0.0457739 0)
(0.54836 0.049548 0)
(0.534319 0.0533894 0)
(0.519325 0.0573209 0)
(0.503361 0.0613737 0)
(0.486461 0.0655688 0)
(0.468638 0.0699381 0)
(0.449853 0.0745198 0)
(0.430038 0.0793475 0)
(0.409131 0.0844407 0)
(0.387094 0.0897979 0)
(0.363828 0.0954002 0)
(0.339356 0.101204 0)
(0.313809 0.107182 0)
(0.286661 0.113265 0)
(0.257577 0.119431 0)
(0.227168 0.125431 0)
(0.195877 0.131108 0)
(0.163112 0.136361 0)
(0.12793 0.140961 0)
(0.0914615 0.144488 0)
(0.0529722 0.146869 0)
(0.0216668 0.146856 0)
(2.85499 -0.000335379 0)
(2.38444 -0.00191836 0)
(0.942995 -0.0078415 0)
(0.431502 -0.00846481 0)
(0.544356 -0.00577081 0)
(0.636459 -0.00135314 0)
(0.684888 0.0019461 0)
(0.70203 0.00472404 0)
(0.701109 0.00711405 0)
(0.691531 0.00931409 0)
(0.682362 0.0112809 0)
(0.676896 0.0130472 0)
(0.672934 0.0146897 0)
(0.668619 0.0162729 0)
(0.663498 0.0178684 0)
(0.657875 0.0195379 0)
(0.652017 0.0212719 0)
(0.646025 0.0231628 0)
(0.639954 0.0252063 0)
(0.633732 0.0274019 0)
(0.627263 0.0297757 0)
(0.620384 0.0323483 0)
(0.613 0.0352535 0)
(0.605105 0.038356 0)
(0.596468 0.0417717 0)
(0.586899 0.0454925 0)
(0.576401 0.0494576 0)
(0.5649 0.0536269 0)
(0.552209 0.0580457 0)
(0.538378 0.0626095 0)
(0.523556 0.0672844 0)
(0.50772 0.0721042 0)
(0.4909 0.0770905 0)
(0.473119 0.0822753 0)
(0.454352 0.0877011 0)
(0.434541 0.0934075 0)
(0.413628 0.0994186 0)
(0.39157 0.105734 0)
(0.368258 0.112335 0)
(0.343711 0.119179 0)
(0.318048 0.126243 0)
(0.290781 0.133437 0)
(0.261535 0.140771 0)
(0.230845 0.147932 0)
(0.199183 0.154751 0)
(0.165993 0.161111 0)
(0.130326 0.166752 0)
(0.0933219 0.171101 0)
(0.0540997 0.173912 0)
(0.0220559 0.174001 0)
(2.85413 -0.00039887 0)
(2.38175 -0.00230149 0)
(0.940112 -0.00945075 0)
(0.429473 -0.010282 0)
(0.544913 -0.00734365 0)
(0.637987 -0.00224517 0)
(0.686441 0.00158249 0)
(0.703878 0.00481562 0)
(0.703371 0.00766786 0)
(0.694224 0.0103527 0)
(0.685405 0.0127993 0)
(0.680225 0.0150142 0)
(0.676481 0.0170584 0)
(0.672294 0.0189865 0)
(0.667204 0.0208666 0)
(0.661488 0.0227816 0)
(0.655459 0.0247432 0)
(0.649263 0.026846 0)
(0.64295 0.0291027 0)
(0.636487 0.0315328 0)
(0.629807 0.0341703 0)
(0.622801 0.0370518 0)
(0.615336 0.040293 0)
(0.607407 0.0438363 0)
(0.598852 0.0477161 0)
(0.589438 0.0519777 0)
(0.579148 0.0565714 0)
(0.56793 0.0614267 0)
(0.555573 0.0665349 0)
(0.542066 0.0719207 0)
(0.527557 0.0774194 0)
(0.512031 0.0830861 0)
(0.495489 0.0889432 0)
(0.477947 0.0950189 0)
(0.459381 0.101359 0)
(0.439735 0.108008 0)
(0.41895 0.114997 0)
(0.396977 0.122327 0)
(0.373697 0.129988 0)
(0.349127 0.137937 0)
(0.323369 0.146154 0)
(0.295993 0.154546 0)
(0.266575 0.163145 0)
(0.235556 0.171579 0)
(0.203448 0.179663 0)
(0.169734 0.187253 0)
(0.13345 0.194047 0)
(0.0957384 0.199309 0)
(0.0555824 0.202637 0)
(0.0225586 0.202878 0)
(2.85305 -0.000477009 0)
(2.37838 -0.0027063 0)
(0.936721 -0.0114009 0)
(0.426955 -0.0123448 0)
(0.54536 -0.00908644 0)
(0.639527 -0.00318001 0)
(0.687911 0.0012775 0)
(0.705607 0.00500108 0)
(0.705518 0.00828802 0)
(0.696812 0.0113571 0)
(0.688354 0.0141386 0)
(0.683482 0.0166412 0)
(0.679994 0.0189426 0)
(0.675999 0.0211239 0)
(0.67104 0.0232747 0)
(0.665384 0.0254968 0)
(0.659361 0.0278297 0)
(0.653142 0.0303245 0)
(0.646773 0.032988 0)
(0.640226 0.0358272 0)
(0.633437 0.0388642 0)
(0.626322 0.0421412 0)
(0.618742 0.0457378 0)
(0.610664 0.0497236 0)
(0.601996 0.05403 0)
(0.592539 0.0587784 0)
(0.582241 0.0639404 0)
(0.571078 0.0694279 0)
(0.558923 0.075204 0)
(0.545659 0.0813754 0)
(0.531403 0.087708 0)
(0.516217 0.0942438 0)
(0.500043 0.101009 0)
(0.482875 0.108029 0)
(0.464673 0.115348 0)
(0.445371 0.123017 0)
(0.424891 0.131067 0)
(0.403169 0.139502 0)
(0.380068 0.148313 0)
(0.355594 0.157466 0)
(0.329829 0.166937 0)
(0.302407 0.176646 0)
(0.272847 0.186632 0)
(0.24148 0.196486 0)
(0.208867 0.20599 0)
(0.174542 0.214975 0)
(0.137508 0.223089 0)
(0.0988694 0.229415 0)
(0.0575148 0.233362 0)
(0.0232522 0.233813 0)
(2.85174 -0.000569578 0)
(2.37416 -0.0031352 0)
(0.93282 -0.0136573 0)
(0.424162 -0.0147616 0)
(0.54601 -0.0113309 0)
(0.641526 -0.00465634 0)
(0.689829 0.000389225 0)
(0.707858 0.00451304 0)
(0.708289 0.00821567 0)
(0.700078 0.0117512 0)
(0.691968 0.0150733 0)
(0.68734 0.0181569 0)
(0.684033 0.0210354 0)
(0.680173 0.0237567 0)
(0.675315 0.0263864 0)
(0.669729 0.0290135 0)
(0.663745 0.0317053 0)
(0.657542 0.0345185 0)
(0.651165 0.0374853 0)
(0.644592 0.0406325 0)
(0.637764 0.0439942 0)
(0.630603 0.0476187 0)
(0.623004 0.0515669 0)
(0.614866 0.0559476 0)
(0.606133 0.0607157 0)
(0.596681 0.0659381 0)
(0.586394 0.0716351 0)
(0.575262 0.0777348 0)
(0.563255 0.0841869 0)
(0.550189 0.091054 0)
(0.536122 0.0982038 0)
(0.521197 0.105605 0)
(0.505336 0.113287 0)
(0.488511 0.121275 0)
(0.470677 0.129616 0)
(0.451756 0.138361 0)
(0.431652 0.147545 0)
(0.410278 0.157174 0)
(0.387469 0.16724 0)
(0.363206 0.177718 0)
(0.337541 0.18858 0)
(0.310167 0.199763 0)
(0.280533 0.211298 0)
(0.248838 0.222761 0)
(0.215684 0.233891 0)
(0.180659 0.244468 0)
(0.142726 0.254109 0)
(0.102911 0.261712 0)
(0.0600063 0.266484 0)
(0.0241365 0.267242 0)
(2.85014 -0.000669968 0)
(2.36894 -0.00362205 0)
(0.92817 -0.0159569 0)
(0.420351 -0.0171797 0)
(0.545905 -0.0136713 0)
(0.642684 -0.00626454 0)
(0.690211 -0.000577025 0)
(0.707679 0.00406002 0)
(0.707551 0.00829837 0)
(0.698596 0.0123503 0)
(0.689651 0.0161285 0)
(0.684352 0.0195753 0)
(0.680705 0.0227444 0)
(0.676876 0.0257335 0)
(0.67239 0.0286545 0)
(0.667436 0.0316198 0)
(0.662244 0.0347096 0)
(0.65689 0.0379697 0)
(0.651345 0.0414185 0)
(0.645536 0.0450626 0)
(0.63938 0.0489189 0)
(0.632796 0.053028 0)
(0.625701 0.0574494 0)
(0.618005 0.0622668 0)
(0.609638 0.067538 0)
(0.60053 0.0732793 0)
(0.590584 0.0795237 0)
(0.579772 0.0862507 0)
(0.568107 0.0934034 0)
(0.555411 0.10096 0)
(0.541694 0.108938 0)
(0.527118 0.117217 0)
(0.511625 0.12583 0)
(0.495176 0.134808 0)
(0.477733 0.144199 0)
(0.459217 0.154059 0)
(0.439524 0.164429 0)
(0.418552 0.175322 0)
(0.396116 0.186737 0)
(0.372161 0.198663 0)
(0.346701 0.211073 0)
(0.319477 0.223911 0)
(0.289855 0.237195 0)
(0.257882 0.250511 0)
(0.224164 0.263536 0)
(0.188361 0.276 0)
(0.149376 0.287492 0)
(0.108117 0.296676 0)
(0.0632732 0.302517 0)
(0.0253446 0.303723 0)
(2.84823 -0.000762064 0)
(2.36273 -0.00420082 0)
(0.923181 -0.0186747 0)
(0.417064 -0.019771 0)
(0.546835 -0.0159411 0)
(0.645279 -0.00747352 0)
(0.692518 -0.000686582 0)
(0.710602 0.0048702 0)
(0.711787 0.00991738 0)
(0.704299 0.0145804 0)
(0.696583 0.0187449 0)
(0.692108 0.0223617 0)
(0.688841 0.0255455 0)
(0.684967 0.0284859 0)
(0.680085 0.0313837 0)
(0.674498 0.0344101 0)
(0.668563 0.0376767 0)
(0.662475 0.0412316 0)
(0.656289 0.0450745 0)
(0.64998 0.0491845 0)
(0.643484 0.05355 0)
(0.636711 0.0581882 0)
(0.629558 0.0631431 0)
(0.621913 0.0684831 0)
(0.613684 0.0742831 0)
(0.604775 0.0805886 0)
(0.595096 0.0874237 0)
(0.58461 0.0948003 0)
(0.573309 0.102668 0)
(0.561075 0.11097 0)
(0.547849 0.119796 0)
(0.533741 0.128992 0)
(0.518747 0.138579 0)
(0.502803 0.148588 0)
(0.485866 0.159072 0)
(0.467857 0.170094 0)
(0.44867 0.181702 0)
(0.428194 0.193926 0)
(0.406233 0.20678 0)
(0.382702 0.220275 0)
(0.35757 0.23439 0)
(0.330609 0.249081 0)
(0.301121 0.264351 0)
(0.268969 0.279823 0)
(0.234718 0.295103 0)
(0.198094 0.309854 0)
(0.157901 0.323651 0)
(0.114844 0.334878 0)
(0.067505 0.342203 0)
(0.0269183 0.344071 0)
(2.84592 -0.000865521 0)
(2.35501 -0.00489999 0)
(0.917335 -0.0220197 0)
(0.41311 -0.0228607 0)
(0.547518 -0.0190792 0)
(0.647942 -0.0103242 0)
(0.694532 -0.00335924 0)
(0.712651 0.00230469 0)
(0.714448 0.00772815 0)
(0.707683 0.0130263 0)
(0.700628 0.0181002 0)
(0.696717 0.0227739 0)
(0.693923 0.0270179 0)
(0.690401 0.0309198 0)
(0.68572 0.0346263 0)
(0.680175 0.0382949 0)
(0.674143 0.042056 0)
(0.667857 0.0459949 0)
(0.661424 0.0501557 0)
(0.654871 0.0545583 0)
(0.648173 0.0592214 0)
(0.641266 0.0641782 0)
(0.634057 0.0694822 0)
(0.626438 0.0752043 0)
(0.618306 0.0814212 0)
(0.609562 0.0881843 0)
(0.600128 0.0955396 0)
(0.589949 0.1035 0)
(0.579008 0.112034 0)
(0.567257 0.121089 0)
(0.554589 0.130724 0)
(0.541046 0.140845 0)
(0.526666 0.15143 0)
(0.511366 0.16251 0)
(0.495083 0.174137 0)
(0.477733 0.186377 0)
(0.459201 0.199292 0)
(0.439368 0.212928 0)
(0.418037 0.227324 0)
(0.39509 0.242518 0)
(0.370445 0.258498 0)
(0.3439 0.275261 0)
(0.314713 0.292793 0)
(0.282548 0.310783 0)
(0.247847 0.328781 0)
(0.210401 0.346367 0)
(0.168865 0.363088 0)
(0.123657 0.377054 0)
(0.0732021 0.386497 0)
(0.0291102 0.389385 0)
(2.84315 -0.000972146 0)
(2.34565 -0.00565557 0)
(0.910872 -0.0256861 0)
(0.409027 -0.0258313 0)
(0.547639 -0.0215708 0)
(0.649211 -0.0116879 0)
(0.693764 -0.00355896 0)
(0.710443 0.00295386 0)
(0.711415 0.00905697 0)
(0.70405 0.0148061 0)
(0.696652 0.0201583 0)
(0.692728 0.0249974 0)
(0.690303 0.0293628 0)
(0.687491 0.0334121 0)
(0.68376 0.0373376 0)
(0.679294 0.0413101 0)
(0.674358 0.0454497 0)
(0.669103 0.049821 0)
(0.66358 0.054446 0)
(0.657792 0.0593289 0)
(0.651719 0.0644779 0)
(0.645315 0.0699196 0)
(0.638518 0.0757044 0)
(0.631252 0.0819035 0)
(0.623436 0.0885982 0)
(0.615003 0.0958574 0)
(0.605897 0.103738 0)
(0.59608 0.11227 0)
(0.585539 0.121453 0)
(0.57427 0.131249 0)
(0.562178 0.141663 0)
(0.54926 0.152694 0)
(0.535561 0.164284 0)
(0.521003 0.17646 0)
(0.505505 0.189269 0)
(0.488967 0.202781 0)
(0.471264 0.21707 0)
(0.452266 0.232203 0)
(0.431768 0.248248 0)
(0.40961 0.265282 0)
(0.385678 0.283288 0)
(0.359772 0.302373 0)
(0.331127 0.322479 0)
(0.299221 0.343436 0)
(0.264277 0.364734 0)
(0.226113 0.385894 0)
(0.183182 0.406409 0)
(0.135425 0.424152 0)
(0.0809476 0.43675 0)
(0.0321535 0.441341 0)
(2.83984 -0.00107214 0)
(2.33441 -0.0065101 0)
(0.903799 -0.0298951 0)
(0.405359 -0.0290677 0)
(0.548851 -0.0243577 0)
(0.653011 -0.0137768 0)
(0.696955 -0.0050205 0)
(0.714101 0.00187686 0)
(0.716548 0.00840134 0)
(0.710735 0.0145918 0)
(0.704575 0.0204203 0)
(0.701378 0.0257634 0)
(0.699217 0.0306399 0)
(0.6963 0.0351987 0)
(0.692204 0.0396302 0)
(0.687213 0.0441055 0)
(0.681696 0.0487458 0)
(0.675885 0.0536174 0)
(0.669892 0.0587449 0)
(0.663757 0.0641341 0)
(0.657468 0.0697932 0)
(0.650974 0.0757461 0)
(0.644197 0.0820403 0)
(0.637049 0.088744 0)
(0.629434 0.0959391 0)
(0.621272 0.103705 0)
(0.612505 0.11211 0)
(0.603091 0.121198 0)
(0.593006 0.130995 0)
(0.582254 0.141488 0)
(0.570785 0.152657 0)
(0.558569 0.164555 0)
(0.545627 0.177123 0)
(0.531904 0.190381 0)
(0.517308 0.204381 0)
(0.501729 0.219198 0)
(0.485033 0.234914 0)
(0.467081 0.251618 0)
(0.447663 0.269409 0)
(0.42655 0.288407 0)
(0.403639 0.308622 0)
(0.378702 0.33027 0)
(0.350963 0.353297 0)
(0.319754 0.377747 0)
(0.284956 0.403046 0)
(0.246341 0.428764 0)
(0.202119 0.454325 0)
(0.151566 0.477455 0)
(0.0920651 0.494964 0)
(0.0367695 0.502599 0)
(2.83588 -0.00116411 0)
(2.32098 -0.00744463 0)
(0.896058 -0.0344193 0)
(0.401977 -0.0323483 0)
(0.549345 -0.027097 0)
(0.654848 -0.0160461 0)
(0.696296 -0.00676999 0)
(0.711804 0.000500408 0)
(0.71374 0.00751522 0)
(0.707853 0.0142672 0)
(0.702003 0.0207738 0)
(0.699401 0.0268664 0)
(0.698075 0.0324921 0)
(0.696153 0.0377456 0)
(0.693107 0.0427878 0)
(0.689129 0.0477868 0)
(0.684518 0.0528753 0)
(0.679474 0.0581438 0)
(0.674105 0.0636448 0)
(0.668472 0.0694059 0)
(0.662595 0.0754482 0)
(0.656461 0.0818028 0)
(0.650023 0.0885178 0)
(0.643217 0.0956593 0)
(0.635968 0.103308 0)
(0.62821 0.111546 0)
(0.61989 0.120451 0)
(0.610973 0.130078 0)
(0.601441 0.140466 0)
(0.59129 0.151629 0)
(0.580519 0.163554 0)
(0.569093 0.176284 0)
(0.556999 0.189805 0)
(0.544214 0.20413 0)
(0.530649 0.219318 0)
(0.51619 0.235453 0)
(0.500698 0.252634 0)
(0.484029 0.270967 0)
(0.465972 0.290583 0)
(0.446243 0.311648 0)
(0.424746 0.334262 0)
(0.401221 0.358693 0)
(0.374956 0.38504 0)
(0.345098 0.413542 0)
(0.311149 0.443639 0)
(0.272762 0.475147 0)
(0.22777 0.507552 0)
(0.174452 0.538606 0)
(0.108747 0.564292 0)
(0.044113 0.57767 0)
(2.83123 -0.00121421 0)
(2.30526 -0.00839984 0)
(0.887874 -0.0391209 0)
(0.399876 -0.0355433 0)
(0.550902 -0.0292934 0)
(0.658552 -0.0174116 0)
(0.698371 -0.0071907 0)
(0.713104 0.000580433 0)
(0.715392 0.00785196 0)
(0.710071 0.014663 0)
(0.704875 0.0211665 0)
(0.702856 0.0273264 0)
(0.702061 0.0331675 0)
(0.700647 0.0387975 0)
(0.698069 0.0443564 0)
(0.694499 0.0499779 0)
(0.69022 0.0557385 0)
(0.685438 0.0616851 0)
(0.680278 0.0678426 0)
(0.674823 0.0742267 0)
(0.669121 0.0808567 0)
(0.66318 0.0877661 0)
(0.656972 0.095008 0)
(0.650447 0.102654 0)
(0.643539 0.11079 0)
(0.636185 0.11951 0)
(0.628337 0.128903 0)
(0.619959 0.139042 0)
(0.611034 0.149981 0)
(0.601556 0.161758 0)
(0.591541 0.174387 0)
(0.580971 0.187886 0)
(0.569822 0.202297 0)
(0.558079 0.217638 0)
(0.545674 0.233968 0)
(0.5325 0.251388 0)
(0.518421 0.270016 0)
(0.503294 0.289981 0)
(0.486918 0.311445 0)
(0.46899 0.334644 0)
(0.449414 0.359805 0)
(0.427928 0.387218 0)
(0.403924 0.417147 0)
(0.376353 0.450123 0)
(0.344436 0.486121 0)
(0.307648 0.524984 0)
(0.263268 0.566583 0)
(0.208326 0.609454 0)
(0.135647 0.649206 0)
(0.0571997 0.675534 0)
(2.82582 -0.00120865 0)
(2.28718 -0.00926519 0)
(0.879335 -0.0435455 0)
(0.398983 -0.0384945 0)
(0.552327 -0.0314655 0)
(0.661535 -0.0193703 0)
(0.699167 -0.00877197 0)
(0.712631 -0.000858417 0)
(0.715179 0.00660563 0)
(0.710512 0.0136982 0)
(0.706162 0.0205981 0)
(0.704954 0.0272779 0)
(0.704886 0.0337443 0)
(0.704121 0.0400569 0)
(0.702145 0.0463067 0)
(0.699125 0.0525974 0)
(0.695342 0.0589905 0)
(0.691014 0.0655199 0)
(0.686277 0.0722145 0)
(0.681222 0.0791012 0)
(0.675907 0.0862112 0)
(0.670352 0.0935869 0)
(0.664543 0.101287 0)
(0.65844 0.109388 0)
(0.651991 0.117981 0)
(0.645143 0.127166 0)
(0.637852 0.13704 0)
(0.63009 0.14769 0)
(0.621844 0.159183 0)
(0.613119 0.17157 0)
(0.603927 0.184885 0)
(0.594287 0.199146 0)
(0.584189 0.214401 0)
(0.573599 0.230701 0)
(0.562484 0.248154 0)
(0.550765 0.266813 0)
(0.538319 0.286844 0)
(0.525011 0.308413 0)
(0.510683 0.331706 0)
(0.495068 0.357045 0)
(0.478031 0.384635 0)
(0.459283 0.415006 0)
(0.438507 0.448943 0)
(0.414853 0.486904 0)
(0.386984 0.529576 0)
(0.354011 0.577336 0)
(0.31331 0.631127 0)
(0.260492 0.691407 0)
(0.183086 0.755869 0)
(0.0840492 0.814758 0)
(2.81972 -0.0011224 0)
(2.26716 -0.00983508 0)
(0.870993 -0.0469661 0)
(0.400455 -0.0408747 0)
(0.554913 -0.0331994 0)
(0.665719 -0.0209946 0)
(0.701417 -0.00991227 0)
(0.713653 -0.00170624 0)
(0.716556 0.00586268 0)
(0.71266 0.0129957 0)
(0.709323 0.0200196 0)
(0.709106 0.0269972 0)
(0.709925 0.0339134 0)
(0.709914 0.040828 0)
(0.708554 0.0477933 0)
(0.706019 0.0548175 0)
(0.702581 0.0619408 0)
(0.698483 0.06917 0)
(0.693909 0.0765179 0)
(0.688996 0.0840099 0)
(0.683838 0.0916827 0)
(0.678488 0.0995853 0)
(0.672956 0.107781 0)
(0.667215 0.11635 0)
(0.66122 0.125386 0)
(0.654919 0.135006 0)
(0.64826 0.14531 0)
(0.641212 0.156398 0)
(0.633757 0.168356 0)
(0.625901 0.181251 0)
(0.617659 0.195131 0)
(0.609054 0.210034 0)
(0.600098 0.226002 0)
(0.590837 0.243109 0)
(0.581183 0.26149 0)
(0.571074 0.28125 0)
(0.560499 0.302558 0)
(0.54931 0.325587 0)
(0.537419 0.350418 0)
(0.524492 0.377501 0)
(0.510596 0.407537 0)
(0.495937 0.440941 0)
(0.479852 0.478753 0)
(0.46159 0.521669 0)
(0.440376 0.570989 0)
(0.415453 0.628492 0)
(0.384674 0.697238 0)
(0.343453 0.78247 0)
(0.275316 0.89357 0)
(0.147963 1.05942 0)
(2.81181 -0.000928154 0)
(2.2418 -0.00995007 0)
(0.861979 -0.0488791 0)
(0.405459 -0.042565 0)
(0.558668 -0.0347876 0)
(0.670577 -0.0232338 0)
(0.703786 -0.0123871 0)
(0.71399 -0.00441592 0)
(0.716834 0.00272699 0)
(0.71352 0.00961193 0)
(0.711152 0.0168525 0)
(0.711898 0.0244159 0)
(0.713651 0.0321807 0)
(0.714636 0.0401335 0)
(0.714262 0.0482459 0)
(0.712692 0.0564375 0)
(0.710212 0.0646374 0)
(0.707007 0.0728279 0)
(0.703247 0.0810065 0)
(0.699073 0.0892019 0)
(0.694595 0.0974746 0)
(0.689891 0.105903 0)
(0.685003 0.11458 0)
(0.679934 0.123612 0)
(0.674682 0.133114 0)
(0.66921 0.143218 0)
(0.663476 0.154064 0)
(0.657469 0.165728 0)
(0.651183 0.178303 0)
(0.644624 0.191873 0)
(0.637816 0.206494 0)
(0.63079 0.222214 0)
(0.623593 0.239082 0)
(0.616298 0.257165 0)
(0.608915 0.27657 0)
(0.601428 0.297504 0)
(0.593807 0.320054 0)
(0.58576 0.3444 0)
(0.577448 0.370924 0)
(0.569533 0.400149 0)
(0.561682 0.432794 0)
(0.553681 0.469295 0)
(0.545777 0.510488 0)
(0.538073 0.557979 0)
(0.531174 0.613665 0)
(0.526389 0.680342 0)
(0.52678 0.762482 0)
(0.540767 0.867882 0)
(0.597469 1.00737 0)
(0.667831 1.20575 0)
(2.8025 -0.000539176 0)
(2.21322 -0.00899617 0)
(0.855118 -0.0465507 0)
(0.416574 -0.0416826 0)
(0.564632 -0.0348556 0)
(0.676256 -0.024779 0)
(0.706343 -0.0145702 0)
(0.713498 -0.0066325 0)
(0.715678 0.000352514 0)
(0.713258 0.00717293 0)
(0.712501 0.0147432 0)
(0.71473 0.022811 0)
(0.717901 0.0312453 0)
(0.72032 0.0399933 0)
(0.721372 0.0490032 0)
(0.721098 0.0581996 0)
(0.719757 0.067464 0)
(0.717574 0.0767183 0)
(0.714693 0.0859216 0)
(0.711274 0.095066 0)
(0.707463 0.104197 0)
(0.70338 0.113376 0)
(0.69911 0.122698 0)
(0.694694 0.132276 0)
(0.690154 0.142242 0)
(0.685521 0.152734 0)
(0.680718 0.163924 0)
(0.675695 0.175963 0)
(0.670527 0.1889 0)
(0.665236 0.202843 0)
(0.659838 0.217882 0)
(0.65438 0.234065 0)
(0.648911 0.251436 0)
(0.643557 0.270082 0)
(0.638412 0.290094 0)
(0.633344 0.311497 0)
(0.628392 0.334555 0)
(0.624002 0.359817 0)
(0.620459 0.387607 0)
(0.617702 0.418198 0)
(0.61577 0.451931 0)
(0.615006 0.489569 0)
(0.616313 0.53205 0)
(0.620827 0.580762 0)
(0.63032 0.637569 0)
(0.648233 0.704706 0)
(0.680684 0.785072 0)
(0.737219 0.882207 0)
(0.85147 0.995959 0)
(1.00253 1.11435 0)
(2.79475 -0.000182064 0)
(2.19113 -0.00678187 0)
(0.854809 -0.0385841 0)
(0.431762 -0.0390612 0)
(0.570986 -0.0361004 0)
(0.68047 -0.0301342 0)
(0.707672 -0.0227843 0)
(0.711615 -0.0163321 0)
(0.712456 -0.0103024 0)
(0.710756 -0.00381558 0)
(0.711787 0.00411006 0)
(0.715765 0.0130798 0)
(0.720815 0.0228224 0)
(0.725274 0.0331484 0)
(0.72849 0.0438902 0)
(0.730446 0.0548661 0)
(0.731293 0.0658883 0)
(0.731162 0.0767715 0)
(0.730141 0.0874059 0)
(0.728348 0.097755 0)
(0.7259 0.107857 0)
(0.7229 0.117815 0)
(0.719477 0.127771 0)
(0.715725 0.137888 0)
(0.711726 0.148344 0)
(0.707574 0.159318 0)
(0.703328 0.170958 0)
(0.698897 0.183472 0)
(0.694337 0.197 0)
(0.689846 0.211492 0)
(0.685439 0.227077 0)
(0.681127 0.243794 0)
(0.677045 0.261694 0)
(0.67334 0.280734 0)
(0.669883 0.300967 0)
(0.666921 0.322709 0)
(0.665253 0.346368 0)
(0.664756 0.372165 0)
(0.665174 0.40023 0)
(0.667038 0.430766 0)
(0.670821 0.464268 0)
(0.677268 0.501335 0)
(0.687406 0.542757 0)
(0.702728 0.589262 0)
(0.725702 0.641969 0)
(0.759907 0.701802 0)
(0.811077 0.769095 0)
(0.88497 0.842931 0)
(1.0007 0.918192 0)
(1.1399 0.973644 0)
(2.78942 0.000526024 0)
(2.17652 0.000502896 0)
(0.852499 -0.00596736 0)
(0.437955 -0.0113258 0)
(0.571422 -0.0158026 0)
(0.679305 -0.0185683 0)
(0.705204 -0.0185262 0)
(0.707301 -0.0166601 0)
(0.707708 -0.0135787 0)
(0.707401 -0.00859393 0)
(0.71063 -0.00138114 0)
(0.716715 0.00754682 0)
(0.723833 0.01751 0)
(0.730505 0.0282129 0)
(0.736161 0.0395204 0)
(0.740764 0.0513054 0)
(0.744383 0.0634058 0)
(0.747061 0.0756328 0)
(0.748812 0.087807 0)
(0.749652 0.0997931 0)
(0.749612 0.111508 0)
(0.748731 0.122961 0)
(0.747069 0.134227 0)
(0.744707 0.145433 0)
(0.741752 0.156745 0)
(0.73831 0.168345 0)
(0.734516 0.180417 0)
(0.730532 0.193137 0)
(0.726255 0.206744 0)
(0.721904 0.221345 0)
(0.717807 0.236891 0)
(0.713987 0.253505 0)
(0.710428 0.271131 0)
(0.707273 0.28983 0)
(0.705163 0.309856 0)
(0.704487 0.331493 0)
(0.705108 0.354903 0)
(0.707075 0.379985 0)
(0.710701 0.407065 0)
(0.716495 0.436456 0)
(0.725105 0.468462 0)
(0.73735 0.50344 0)
(0.754234 0.541671 0)
(0.777145 0.583435 0)
(0.808295 0.628874 0)
(0.850415 0.677884 0)
(0.907445 0.729434 0)
(0.982349 0.780976 0)
(1.08555 0.828031 0)
(1.20123 0.856342 0)
(2.79546 0.0021617 0)
(2.19764 0.00181031 0)
(0.877434 0.00363639 0)
(0.44783 -0.01988 0)
(0.56819 -0.0346027 0)
(0.670628 -0.0419326 0)
(0.695298 -0.0429667 0)
(0.696629 -0.0406721 0)
(0.696719 -0.0364223 0)
(0.697298 -0.0302926 0)
(0.701621 -0.0223413 0)
(0.708467 -0.0127106 0)
(0.71633 -0.00165877 0)
(0.723951 0.0104416 0)
(0.730778 0.0232755 0)
(0.736753 0.0366453 0)
(0.741934 0.0503711 0)
(0.746378 0.0642836 0)
(0.750117 0.0782317 0)
(0.753173 0.0920911 0)
(0.755564 0.105774 0)
(0.757304 0.119246 0)
(0.758407 0.132533 0)
(0.758884 0.145707 0)
(0.758756 0.158878 0)
(0.758075 0.172159 0)
(0.756899 0.185694 0)
(0.75531 0.199611 0)
(0.753428 0.214031 0)
(0.751225 0.229219 0)
(0.748929 0.245158 0)
(0.746633 0.261774 0)
(0.74447 0.27916 0)
(0.743177 0.297681 0)
(0.742997 0.317462 0)
(0.743971 0.3384 0)
(0.746262 0.360505 0)
(0.750149 0.384087 0)
(0.756187 0.40937 0)
(0.764933 0.436618 0)
(0.776992 0.465988 0)
(0.793099 0.497604 0)
(0.814167 0.531433 0)
(0.841306 0.567396 0)
(0.876077 0.60512 0)
(0.920372 0.643888 0)
(0.976597 0.682419 0)
(1.04636 0.718332 0)
(1.13476 0.748597 0)
(1.23042 0.765024 0)
(2.79244 0.0433182 0)
(2.19376 -0.0242957 0)
(0.893234 0.119842 0)
(0.445141 0.0663794 0)
(0.569473 0.0141104 0)
(0.677851 -0.022268 0)
(0.706244 -0.0371588 0)
(0.706837 -0.0404586 0)
(0.704257 -0.0391359 0)
(0.700929 -0.0346057 0)
(0.701215 -0.0280451 0)
(0.704327 -0.0194378 0)
(0.708674 -0.00898642 0)
(0.713391 0.00297857 0)
(0.717994 0.0160721 0)
(0.722457 0.0299636 0)
(0.726799 0.0443694 0)
(0.731024 0.0590422 0)
(0.735113 0.0737964 0)
(0.739048 0.0884857 0)
(0.742815 0.10302 0)
(0.746409 0.117376 0)
(0.749819 0.131587 0)
(0.753016 0.145728 0)
(0.755955 0.159896 0)
(0.758609 0.174196 0)
(0.76098 0.188735 0)