/*--------------------------------*- C++ -*----------------------------------*\
| =========                 |                                                 |
| \\      /  F ield         | OpenFOAM: The Open Source CFD Toolbox           |
|  \\    /   O peration     | Version:  2412                                  |
|   \\  /    A nd           | Website:  www.openfoam.com                      |
|    \\/     M anipulation  |                                                 |
\*---------------------------------------------------------------------------*/
FoamFile
{
    version     2.0;
    format      ascii;
    arch        "LSB;label=32;scalar=64";
    class       volScalarField;
    location    "7.5";
    object      Ma;
}
// * * * * * * * * * * * * * * * * * * * * * * * * * * * * * * * * * * * * * //

dimensions      [0 0 0 0 0 0 0];

internalField   nonuniform List<scalar> 
7000
(
2.99964
2.99861
2.99814
2.9924
2.98795
2.96343
2.92483
2.78683
2.12276
1.31955
0.443544
0.26344
0.32919
0.377896
0.385431
0.381816
0.374117
0.368347
0.36702
0.367542
0.369979
0.370994
0.368323
0.363115
0.355875
0.347019
0.336967
0.324881
0.310694
0.296791
0.283614
0.270992
0.258258
0.246273
0.234154
0.220634
0.206147
0.191181
0.175783
0.160308
0.145073
0.12994
0.114351
0.0984656
0.0830663
0.0679375
0.0521776
0.0370328
0.0216876
0.00894141
2.99964
2.99863
2.99817
2.99293
2.98913
2.96645
2.90899
2.64155
2.16052
1.33211
0.450173
0.271921
0.344156
0.397651
0.406773
0.400721
0.388123
0.377839
0.372932
0.370903
0.371696
0.371955
0.368962
0.363684
0.356492
0.347691
0.3377
0.325702
0.311623
0.297929
0.285145
0.273141
0.261243
0.250259
0.239157
0.226383
0.212218
0.1971
0.181078
0.164678
0.148389
0.132239
0.115831
0.0994583
0.0838943
0.0689389
0.0537807
0.0398334
0.0266801
0.0166614
2.99963
2.99867
2.9982
2.99285
2.9877
2.96778
2.91948
2.80814
2.12986
1.329
0.453795
0.274665
0.347295
0.401287
0.41069
0.404678
0.391833
0.38109
0.375516
0.372446
0.371751
0.370252
0.365529
0.358832
0.350734
0.341635
0.331862
0.32042
0.307171
0.294366
0.282375
0.270999
0.259654
0.249263
0.238598
0.226281
0.212642
0.198079
0.182562
0.16661
0.150659
0.134736
0.118497
0.102324
0.0870682
0.0726873
0.0586079
0.0463459
0.0356466
0.027906
2.99967
2.99864
2.99806
2.99287
2.98908
2.96511
2.90851
2.64842
2.17614
1.34697
0.460619
0.270382
0.343348
0.397742
0.407215
0.401882
0.389596
0.379002
0.373412
0.370375
0.369947
0.368601
0.364111
0.357787
0.350163
0.341603
0.332297
0.321261
0.308278
0.295559
0.283559
0.272099
0.260682
0.250252
0.239429
0.227059
0.213536
0.199243
0.184107
0.168629
0.153178
0.137754
0.122026
0.106395
0.0917808
0.0782758
0.0654989
0.0549078
0.0461377
0.0398173
2.99965
2.99874
2.99819
2.99428
2.98925
2.97221
2.91865
2.79499
2.14933
1.35442
0.473136
0.274026
0.34456
0.397864
0.407226
0.402547
0.391128
0.381064
0.37586
0.373228
0.373162
0.372252
0.368251
0.362321
0.354889
0.346237
0.336658
0.325274
0.311846
0.298692
0.286382
0.274732
0.263223
0.252804
0.242069
0.229775
0.216346
0.202188
0.187228
0.172002
0.156867
0.14184
0.126634
0.111657
0.097857
0.0854025
0.0740017
0.0649306
0.0576662
0.0523854
2.99969
2.99868
2.99795
2.99311
2.98724
2.95822
2.93129
2.75589
2.17797
1.36766
0.477748
0.275591
0.350083
0.406313
0.417353
0.412869
0.399851
0.38759
0.380597
0.376724
0.37587
0.374546
0.370311
0.364225
0.356675
0.347938
0.338344
0.326983
0.313687
0.30078
0.288738
0.277377
0.266155
0.25603
0.245623
0.233619
0.220443
0.206516
0.191776
0.176775
0.161915
0.14725
0.132559
0.11828
0.105363
0.0940144
0.0839598
0.076247
0.0702102
0.0657617
2.99969
2.99868
2.99798
2.99354
2.9881
2.96759
2.93758
2.81493
2.19101
1.39159
0.490939
0.276474
0.349852
0.405626
0.416778
0.41281
0.400353
0.388231
0.381213
0.377375
0.376714
0.375629
0.371661
0.365862
0.35857
0.35006
0.34063
0.329332
0.316145
0.303425
0.291597
0.280496
0.269567
0.259773
0.249764
0.238152
0.225343
0.211776
0.197387
0.18274
0.168267
0.154053
0.13994
0.126396
0.114375
0.104104
0.0952875
0.0887612
0.0837686
0.0799986
2.99963
2.99871
2.99828
2.99294
2.98716
2.95855
2.93211
2.77739
2.22567
1.41506
0.508027
0.278352
0.351885
0.407535
0.419231
0.415679
0.403113
0.39051
0.382975
0.37889
0.378337
0.377306
0.37346
0.367852
0.360778
0.352501
0.343249
0.332056
0.319015
0.306478
0.294869
0.284046
0.273435
0.264019
0.254461
0.243311
0.230969
0.217888
0.203995
0.189852
0.175915
0.162286
0.148851
0.136077
0.124935
0.115673
0.107968
0.102472
0.0983525
0.0951845
2.99968
2.99871
2.998
2.99165
2.9875
2.95561
2.93704
2.78777
2.25607
1.4488
0.521319
0.27287
0.346864
0.402102
0.415494
0.41395
0.403153
0.391687
0.384803
0.381123
0.38075
0.379523
0.37543
0.369603
0.362398
0.354103
0.344964
0.333992
0.321269
0.30915
0.298016
0.287703
0.277616
0.268747
0.259765
0.249199
0.237449
0.224976
0.211714
0.198191
0.184905
0.17197
0.159317
0.14735
0.13707
0.12874
0.122018
0.117426
0.114101
0.111433
2.99971
2.99871
2.9979
2.99292
2.98599
2.95392
2.93771
2.73771
2.31419
1.48218
0.543783
0.278819
0.349419
0.40315
0.418397
0.417877
0.407128
0.395367
0.388077
0.384178
0.383535
0.381624
0.377004
0.370826
0.363466
0.355184
0.346243
0.335644
0.323417
0.311896
0.301409
0.291763
0.282349
0.27417
0.265895
0.256037
0.244985
0.233214
0.220677
0.207865
0.19531
0.18314
0.171335
0.160229
0.150815
0.143375
0.137573
0.133807
0.131158
0.128977
2.99968
2.99867
2.99807
2.99375
2.98592
2.9553
2.93672
2.78946
2.3366
1.56089
0.572149
0.28857
0.354256
0.405616
0.42353
0.423604
0.412258
0.399991
0.392147
0.388013
0.387262
0.385057
0.380275
0.374002
0.3666
0.358321
0.349442
0.338975
0.327018
0.31592
0.305953
0.296893
0.288106
0.280584
0.273041
0.26395
0.253678
0.242678
0.230952
0.218906
0.207142
0.195795
0.184914
0.174746
0.166221
0.15968
0.154745
0.151764
0.14982
0.148056
2.99964
2.99874
2.99847
2.99292
2.99075
2.95888
2.94288
2.74339
2.39594
1.62852
0.610131
0.306616
0.360273
0.406812
0.428154
0.429086
0.417141
0.404549
0.396207
0.391823
0.390968
0.388531
0.383664
0.377395
0.37008
0.361963
0.353298
0.343063
0.331473
0.320883
0.311493
0.303068
0.294954
0.288129
0.281368
0.273106
0.263658
0.253468
0.242592
0.23137
0.220462
0.210011
0.20013
0.19098
0.183414
0.177838
0.173833
0.171647
0.170347
0.169084
2.99967
2.9987
2.99852
2.99313
2.98825
2.95885
2.9395
2.77007
2.43098
1.67574
0.649221
0.32402
0.361845
0.405465
0.432157
0.434718
0.422313
0.409501
0.400627
0.395954
0.394813
0.391851
0.386695
0.38032
0.373088
0.365228
0.356924
0.347092
0.336099
0.326237
0.317622
0.310006
0.302712
0.296717
0.290831
0.28345
0.274907
0.265593
0.255651
0.245319
0.235332
0.225843
0.217068
0.209051
0.202537
0.198029
0.195049
0.193793
0.193306
0.192472
2.99965
2.99875
2.9985
2.99287
2.9905
2.95887
2.94416
2.76361
2.4649
1.74044
0.697124
0.351049
0.365617
0.407554
0.437882
0.440605
0.427512
0.414443
0.405051
0.400134
0.398587
0.395076
0.389661
0.38321
0.376113
0.368575
0.360712
0.351409
0.341125
0.332114
0.324401
0.317714
0.31135
0.3063
0.30143
0.295055
0.287491
0.279115
0.270146
0.260814
0.251855
0.243434
0.235909
0.229181
0.223894
0.22065
0.218897
0.218755
0.2192
0.219089
2.99965
2.99874
2.99849
2.99283
2.99038
2.96094
2.94563
2.77703
2.50266
1.77282
0.7459
0.375176
0.361425
0.403677
0.437055
0.441329
0.429336
0.417263
0.408403
0.404211
0.40293
0.399374
0.393993
0.387635
0.380745
0.373533
0.365977
0.356933
0.347232
0.338986
0.332095
0.326292
0.32086
0.316775
0.312996
0.307736
0.30129
0.293976
0.286115
0.27793
0.270089
0.262892
0.256809
0.251577
0.247808
0.246127
0.245963
0.247286
0.24911
0.249776
2.99968
2.99884
2.99855
2.99358
2.99044
2.96327
2.94633
2.77491
2.53114
1.83582
0.806957
0.410377
0.364211
0.405793
0.441262
0.445737
0.433563
0.421491
0.412662
0.408955
0.407628
0.404045
0.398726
0.392458
0.385796
0.378969
0.371767
0.363061
0.35401
0.346546
0.340514
0.335639
0.331173
0.328097
0.325486
0.321428
0.316196
0.310081
0.303491
0.296606
0.29001
0.284305
0.279902
0.276521
0.274587
0.274923
0.276941
0.280481
0.284253
0.286543
2.99971
2.99889
2.99865
2.99349
2.99174
2.96403
2.9488
2.8105
2.55296
1.88025
0.867224
0.439932
0.362196
0.405142
0.444361
0.450065
0.438469
0.426566
0.417807
0.414309
0.412637
0.408879
0.403495
0.39722
0.390715
0.384279
0.377506
0.369308
0.361084
0.354521
0.349393
0.345476
0.342024
0.340019
0.338643
0.335879
0.331984
0.327227
0.322075
0.316644
0.311607
0.30776
0.305313
0.304188
0.30475
0.30778
0.312824
0.319722
0.327155
0.331981
2.99979
2.9991
2.99864
2.99438
2.99188
2.96542
2.95263
2.80974
2.57991
1.92678
0.930727
0.47653
0.360406
0.404093
0.446989
0.453882
0.443345
0.431883
0.423686
0.420834
0.418441
0.414152
0.408449
0.402021
0.395617
0.389587
0.383308
0.375732
0.368433
0.362879
0.358778
0.355886
0.353473
0.352539
0.352422
0.351016
0.348551
0.34531
0.341663
0.337922
0.334901
0.333134
0.332991
0.334778
0.338569
0.345325
0.354984
0.367169
0.380724
0.39261
2.99984
2.99936
2.99859
2.99608
2.99095
2.97407
2.94554
2.79169
2.59618
1.92649
1.00128
0.513373
0.355957
0.401796
0.449165
0.457847
0.448237
0.437056
0.429443
0.426838
0.423788
0.419235
0.413482
0.407132
0.401004
0.395472
0.389817
0.382962
0.376569
0.371964
0.368852
0.366961
0.365595
0.365848
0.366993
0.366893
0.36586
0.364111
0.362177
0.360537
0.359656
0.360205
0.362925
0.368192
0.376199
0.388101
0.404474
0.426004
0.451951
0.480635
2.99982
2.99939
2.99866
2.99562
2.99289
2.97111
2.95192
2.82617
2.63191
2.05683
1.07564
0.55097
0.345626
0.396629
0.449904
0.46149
0.453258
0.442737
0.436114
0.433249
0.42951
0.424855
0.419251
0.413215
0.407554
0.402608
0.397552
0.391365
0.385811
0.382015
0.379715
0.378668
0.37822
0.379524
0.381869
0.383059
0.383452
0.383475
0.383549
0.383907
0.385251
0.388492
0.394474
0.403981
0.417267
0.435985
0.462158
0.498312
0.551183
0.646091
2.99974
2.99942
2.99865
2.9961
2.9932
2.97544
2.95708
2.84122
2.67677
2.08419
1.18514
0.604472
0.337504
0.393412
0.453715
0.467716
0.459535
0.449561
0.443645
0.440577
0.436933
0.432708
0.427679
0.422381
0.417592
0.413548
0.409281
0.403952
0.399449
0.39665
0.3954
0.395424
0.39616
0.398835
0.402512
0.405382
0.407921
0.410393
0.412931
0.416083
0.420655
0.427654
0.438144
0.453458
0.474833
0.504216
0.54595
0.608241
0.707461
0.857079
2.99956
2.9995
2.99758
2.99678
2.98899
2.98823
2.9546
2.87804
2.73678
2.18622
1.29687
0.652911
0.316478
0.385051
0.454224
0.46975
0.463038
0.456027
0.451376
0.448034
0.444561
0.440662
0.436308
0.432004
0.428282
0.425144
0.421769
0.417449
0.413904
0.412
0.411713
0.412639
0.414486
0.41839
0.423401
0.428185
0.432592
0.436892
0.441751
0.447657
0.45529
0.465811
0.480363
0.500585
0.528213
0.566263
0.61835
0.690965
0.80182
0.936759
2.99965
2.99961
2.99747
2.99666
2.98362
2.99011
2.91468
3.05626
2.76658
2.28706
1.37606
0.680985
0.296581
0.380887
0.454816
0.471009
0.466765
0.461695
0.457132
0.454391
0.451957
0.449097
0.446124
0.443228
0.440623
0.43844
0.436025
0.432509
0.429511
0.428135
0.428383
0.429892
0.432491
0.437482
0.443909
0.450167
0.456121
0.462316
0.469388
0.477782
0.488172
0.501673
0.519497
0.542933
0.574301
0.61474
0.669426
0.737798
0.83234
0.933724
2.99983
2.99978
2.99855
2.99809
2.98909
2.99922
2.92689
3.13339
2.80502
2.35577
1.46934
0.74241
0.294637
0.380665
0.449472
0.47053
0.471718
0.468148
0.464093
0.462266
0.461266
0.460126
0.458857
0.457449
0.455961
0.454534
0.452641
0.44937
0.446426
0.445194
0.445638
0.447415
0.450598
0.4564
0.463568
0.47071
0.478024
0.485869
0.494694
0.505029
0.517614
0.533137
0.553036
0.577765
0.609732
0.649096
0.698717
0.759307
0.835193
0.914259
3
2.99998
2.99952
2.99945
2.99371
3.00408
2.9386
3.14166
2.83604
2.42022
1.57012
0.813725
0.311254
0.380046
0.436131
0.464712
0.470487
0.469551
0.468254
0.469187
0.47145
0.473509
0.474719
0.475325
0.475129
0.474292
0.472479
0.468671
0.464935
0.463037
0.463095
0.464622
0.467761
0.473732
0.481173
0.488932
0.497293
0.506395
0.516699
0.528478
0.542679
0.559413
0.58028
0.605143
0.635747
0.672653
0.716797
0.769073
0.831146
0.894107
3.00006
3.0002
3.00019
3.00057
2.99727
3.0074
2.94965
3.14262
2.85895
2.48756
1.65817
0.881517
0.350707
0.384872
0.431162
0.465496
0.474664
0.475941
0.477671
0.481091
0.486026
0.490882
0.494572
0.497094
0.498023
0.497183
0.494762
0.489808
0.484558
0.481366
0.480238
0.480754
0.483658
0.489618
0.49678
0.504755
0.513694
0.523603
0.534992
0.547807
0.563112
0.580603
0.60174
0.626307
0.655346
0.689312
0.728834
0.773967
0.825676
0.87806
2.99987
2.9994
2.99929
2.99663
2.99603
2.98612
2.99294
2.93844
2.82268
2.55026
1.86266
0.804554
0.409159
0.370951
0.418371
0.46386
0.482836
0.488526
0.491048
0.492704
0.49573
0.49882
0.501244
0.503101
0.503839
0.50304
0.500112
0.495744
0.49229
0.490441
0.49004
0.491468
0.496269
0.502828
0.510104
0.518335
0.527675
0.538117
0.550135
0.563717
0.579596
0.597671
0.618465
0.64238
0.669838
0.701157
0.736701
0.776288
0.82049
0.86442
2.9999
2.99957
2.99952
2.99764
2.99708
2.99099
2.99722
2.95217
2.84406
2.66568
1.99993
1.02443
0.551035
0.375095
0.415095
0.472626
0.49592
0.501254
0.500254
0.496842
0.494664
0.492997
0.491807
0.491539
0.491663
0.491217
0.489204
0.487533
0.487461
0.48877
0.491122
0.495983
0.503214
0.510755
0.518891
0.527888
0.537922
0.549139
0.561852
0.576106
0.592213
0.610407
0.630846
0.654012
0.679837
0.708883
0.740806
0.775908
0.814247
0.851924
2.99993
2.99972
2.99963
2.99773
2.99688
2.98399
2.99024
2.90975
3.08066
2.73873
2.17081
1.24205
0.644785
0.337965
0.406452
0.480234
0.504162
0.505907
0.500015
0.492917
0.487779
0.484169
0.482039
0.481028
0.480597
0.480705
0.479821
0.479806
0.482341
0.48662
0.491598
0.498203
0.506615
0.515384
0.524625
0.534471
0.5452
0.557014
0.570101
0.584886
0.601433
0.619475
0.639294
0.661199
0.685468
0.712053
0.740938
0.772187
0.805836
0.83872
2.99998
2.99991
2.99985
2.99899
2.99877
2.9912
3.00173
2.93018
3.13924
2.80461
2.33787
1.45416
0.741443
0.319706
0.400929
0.47036
0.49805
0.502162
0.495834
0.489884
0.485828
0.4829
0.481452
0.480898
0.480841
0.482019
0.48359
0.484911
0.487709
0.491935
0.49767
0.504484
0.512165
0.521041
0.530515
0.540505
0.55122
0.562969
0.576135
0.590832
0.607114
0.625067
0.644675
0.665336
0.687566
0.71172
0.737683
0.765318
0.79478
0.823251
3
2.99997
3.00004
2.9999
3.00022
2.99636
3.00678
2.94737
3.14256
2.85027
2.44853
1.61858
0.846124
0.346125
0.397495
0.449538
0.484161
0.490748
0.487561
0.485498
0.484818
0.485159
0.48694
0.489236
0.491504
0.494081
0.497228
0.500278
0.502663
0.505747
0.510259
0.516116
0.523067
0.530639
0.53925
0.549106
0.5595
0.57054
0.58265
0.596103
0.611266
0.628106
0.646417
0.666246
0.687188
0.709162
0.732068
0.756351
0.782218
0.807059
3.00004
3.00004
3.00024
3.00039
3.00157
3.00035
3.00988
2.95961
3.1459
2.87903
2.53481
1.74641
0.960885
0.39863
0.393378
0.438056
0.475199
0.485067
0.485278
0.486555
0.489353
0.493307
0.497974
0.502993
0.507702
0.51209
0.516126
0.519809
0.522396
0.524448
0.527772
0.532403
0.538077
0.544407
0.551889
0.560876
0.5703
0.580084
0.590643
0.602249
0.615374
0.630125
0.646313
0.664144
0.683224
0.703391
0.724668
0.746572
0.769258
0.790793
2.99992
2.9999
2.99944
2.99939
2.99674
2.99581
2.98347
2.98586
2.93498
2.88257
2.63363
1.97971
0.964195
0.51561
0.395001
0.436279
0.480523
0.498925
0.503421
0.505214
0.506693
0.508869
0.512268
0.516897
0.521709
0.525922
0.529493
0.532218
0.534312
0.53671
0.540067
0.544402
0.549401
0.555244
0.562375
0.570584
0.579072
0.587917
0.597228
0.607331
0.618823
0.631678
0.645923
0.661653
0.678799
0.696957
0.716318
0.736431
0.757197
0.777186
2.99994
2.99993
2.99955
2.99951
2.99706
2.99597
2.98412
2.98592
2.93382
2.99241
2.73496
2.18803
1.27702
0.671763
0.395495
0.435734
0.49026
0.515792
0.520474
0.517031
0.514037
0.513025
0.513678
0.516534
0.520116
0.523734
0.527332
0.530309
0.533434
0.537422
0.542256
0.547703
0.553878
0.561391
0.569445
0.577675
0.585984
0.594675
0.603722
0.613301
0.623869
0.635492
0.648391
0.662523
0.677919
0.694263
0.711331
0.729249
0.74779
0.765683
2.99998
2.99996
2.99977
2.99973
2.99832
2.99772
2.98811
2.99814
2.92607
3.13332
2.8007
2.35769
1.46944
0.76229
0.359481
0.419662
0.484086
0.517462
0.5241
0.518481
0.513005
0.509229
0.507473
0.508667
0.51156
0.515198
0.5193
0.523054
0.527933
0.534194
0.541302
0.548757
0.556997
0.566136
0.575216
0.584305
0.593281
0.602336
0.611629
0.621208
0.631347
0.642226
0.654122
0.667086
0.680952
0.695584
0.710841
0.726857
0.743376
0.759253
2.99998
2.99997
2.99983
2.99977
2.99888
2.99846
2.99342
2.99067
2.96009
2.94545
2.75081
2.44104
1.67068
0.65395
0.349703
0.408684
0.469891
0.50894
0.521416
0.519974
0.515755
0.51242
0.511711
0.512835
0.515381
0.518229
0.52188
0.526477
0.531907
0.538644
0.546287
0.554433
0.563046
0.572174
0.581579
0.591065
0.600594
0.610167
0.619803
0.629536
0.63949
0.649761
0.660576
0.672215
0.684638
0.697937
0.711769
0.72633
0.741422
0.755828
3.00002
3.00005
3.00006
3.00025
3.0003
3.00076
2.99799
3.00766
2.95327
3.13764
2.86619
2.5148
1.70623
0.929232
0.400124
0.408225
0.460549
0.503663
0.515575
0.51432
0.511944
0.510712
0.511486
0.514587
0.518591
0.523189
0.528231
0.533682
0.540017
0.547166
0.554937
0.563192
0.571847
0.580859
0.590093
0.599484
0.608981
0.61844
0.627877
0.63729
0.646542
0.65612
0.666084
0.676329
0.686975
0.698316
0.710452
0.723275
0.736756
0.749818
3.00001
3.00002
3.00001
3.00012
3.00011
3.00163
3.00073
3.01227
2.96726
3.14896
2.89617
2.56791
1.82277
1.0403
0.414834
0.388428
0.443786
0.491192
0.504748
0.505311
0.50587
0.507221
0.510949
0.516603
0.523206
0.530031
0.537034
0.544263
0.551581
0.559161
0.566946
0.57495
0.58313
0.591456
0.599941
0.608569
0.617295
0.626028
0.634767
0.643599
0.652364
0.661125
0.670375
0.680047
0.690032
0.700363
0.711329
0.72279
0.735168
0.746799
3
2.99998
2.99997
2.99989
2.99978
2.99962
2.99931
3.00267
2.99349
3.07056
2.90815
2.72429
1.95043
1.16049
0.427175
0.372877
0.428079
0.478508
0.496607
0.502376
0.507856
0.514037
0.520945
0.528579
0.536712
0.544745
0.552473
0.559652
0.566402
0.572956
0.579864
0.587432
0.595069
0.602688
0.610258
0.6178
0.625361
0.632952
0.640616
0.648449
0.656396
0.664454
0.672985
0.68186
0.691258
0.701205
0.711475
0.721973
0.732964
0.743567
3
2.99997
2.99997
2.99985
2.99977
2.99938
2.99862
2.99883
2.99647
3.02228
2.9676
2.82366
2.07659
1.28228
0.50189
0.383773
0.427949
0.480674
0.504565
0.515293
0.5222
0.528819
0.535561
0.542449
0.549757
0.556994
0.563532
0.569484
0.575133
0.581182
0.587874
0.594569
0.601191
0.607853
0.614534
0.621265
0.628049
0.634934
0.641996
0.649284
0.656818
0.664628
0.672796
0.68118
0.69005
0.699265
0.709014
0.718868
0.729079
0.738782
3
2.99997
2.99996
2.99976
2.99971
2.99828
2.99762
2.98777
2.99796
2.92151
3.13602
2.77199
2.28744
1.36885
0.709717
0.394911
0.43451
0.487502
0.520071
0.529375
0.52861
0.527301
0.527911
0.530729
0.535565
0.541328
0.547313
0.553466
0.559804
0.566763
0.574316
0.581966
0.589629
0.59727
0.604883
0.612466
0.62017
0.627844
0.63564
0.643553
0.651578
0.659776
0.668014
0.676455
0.685207
0.694299
0.703957
0.713936
0.724122
0.733816
3.00001
2.99999
2.99998
2.99985
2.99982
2.99904
2.99868
2.9947
2.99212
2.96845
2.93939
2.72695
2.44953
1.68202
0.681201
0.377955
0.414986
0.471356
0.519972
0.538415
0.53894
0.534833
0.531998
0.531388
0.533309
0.536903
0.541677
0.546836
0.552387
0.558459
0.564955
0.571864
0.579123
0.586709
0.594486
0.602368
0.610441
0.618684
0.627055
0.63552
0.644073
0.652694
0.6613
0.670019
0.678825
0.688018
0.697543
0.707506
0.717761
0.727604
3
2.99998
2.99998
2.99985
2.99982
2.99909
2.99882
2.99431
2.99177
2.96684
2.95266
2.78308
2.55761
1.84028
0.834145
0.450127
0.420624
0.477129
0.533285
0.55423
0.554579
0.548957
0.545174
0.543743
0.545214
0.548015
0.551138
0.554528
0.558254
0.562413
0.567107
0.572331
0.578009
0.584145
0.590806
0.598021
0.605644
0.613475
0.62149
0.62971
0.638061
0.646531
0.655136
0.663819
0.67258
0.681713
0.691105
0.700973
0.711048
0.720724
3.00001
3.00001
3.00003
3.00006
3.00027
3.00042
3.00183
3.00056
3.01085
2.96144
3.14279
2.8885
2.56004
1.78835
1.01261
0.411174
0.376178
0.438406
0.496072
0.517153
0.51928
0.518077
0.519217
0.522328
0.527521
0.533792
0.540095
0.546085
0.551859
0.557604
0.563437
0.569346
0.575368
0.581577
0.588142
0.595151
0.602556
0.610415
0.618678
0.627123
0.635767
0.644478
0.653238
0.662039
0.670713
0.679589
0.688502
0.697644
0.707367
0.71665
3
3
2.99999
2.99998
2.99998
3
3.00059
3.0004
3.00735
2.99543
3.0939
2.90707
2.70708
1.93943
1.13545
0.420714
0.367837
0.420013
0.46627
0.481821
0.485124
0.488339
0.493402
0.500459
0.509289
0.519053
0.528697
0.537865
0.546544
0.554895
0.563021
0.571004
0.578717
0.586277
0.593723
0.601268
0.608952
0.616933
0.625169
0.633477
0.641889
0.650338
0.65875
0.667259
0.675662
0.684166
0.692708
0.701381
0.710382
0.718802
3
3
2.99999
2.99998
2.99995
2.99993
3.00025
3.00006
3.00633
2.99285
3.05672
2.953
2.76007
2.01851
1.21684
0.468004
0.371244
0.413325
0.460147
0.478095
0.483447
0.487664
0.493592
0.501652
0.5118
0.523178
0.534642
0.545515
0.555751
0.565506
0.574918
0.584027
0.592743
0.601162
0.609233
0.61715
0.624796
0.632329
0.639698
0.647209
0.654536
0.661973
0.669268
0.676722
0.684304
0.691975
0.699913
0.707912
0.716156
0.72407
3
3
2.99994
2.99993
2.99956
2.99952
2.99729
2.99631
2.98572
2.98841
2.9434
3.03699
2.70876
2.24496
1.28813
0.669503
0.401679
0.441269
0.495261
0.523343
0.529658
0.527818
0.526745
0.527351
0.530863
0.536303
0.542269
0.548337
0.55464
0.56145
0.568772
0.576497
0.584567
0.592909
0.601399
0.609969
0.618517
0.626994
0.635257
0.643177
0.651065
0.658934
0.666722
0.674438
0.682266
0.69011
0.698321
0.70677
0.715215
0.723433
3
3
2.99996
2.99996
2.99977
2.99971
2.99874
2.99809
2.99422
2.98657
2.95765
2.94101
2.74702
2.3303
1.54878
0.595933
0.340657
0.401219
0.464724
0.501328
0.515625
0.52011
0.523199
0.527118
0.532698
0.539519
0.54634
0.552797
0.559017
0.565394
0.572154
0.579105
0.586131
0.593235
0.600452
0.607762
0.61517
0.622706
0.630324
0.637975
0.645816
0.653747
0.661806
0.670001
0.678211
0.686447
0.694716
0.703259
0.711767
0.719909
3
3
2.99997
2.99996
2.99979
2.99975
2.99874
2.99849
2.99271
2.99039
2.95932
2.948
2.79447
2.46705
1.72459
0.711803
0.386581
0.41256
0.459872
0.500662
0.519123
0.526679
0.532643
0.539738
0.547885
0.556503
0.565
0.573051
0.580603
0.587746
0.594519
0.600848
0.606666
0.61198
0.616883
0.621609
0.626425
0.631339
0.636478
0.642076
0.648356
0.654834
0.66181
0.668928
0.676479
0.684294
0.692168
0.700378
0.708498
0.716365
3
3
2.99999
2.99998
2.9999
2.99985
2.99937
2.99925
2.99546
3.00473
2.94952
3.13489
2.8628
2.52756
1.72395
0.957952
0.43109
0.410436
0.456419
0.503036
0.523542
0.528875
0.529463
0.529941
0.531488
0.534235
0.538262
0.543087
0.548365
0.554083
0.560206
0.566775
0.573678
0.580533
0.587453
0.594638
0.602064
0.609677
0.617412
0.6252
0.633262
0.641555
0.649979
0.65851
0.667201
0.676026
0.684875
0.693749
0.702658
0.710986
3
3
2.99998
2.99997
2.99988
2.99979
2.99919
2.99882
2.99602
2.9914
2.97413
2.9443
2.79259
2.58116
1.8872
0.954848
0.503536
0.400469
0.448482
0.502809
0.534872
0.548053
0.552339
0.55468
0.557506
0.560995
0.564977
0.569298
0.573677
0.577976
0.58209
0.58606
0.590033
0.593943
0.598051
0.602641
0.607654
0.613291
0.61958
0.626203
0.633132
0.640352
0.647888
0.655599
0.663615
0.671928
0.680441
0.689075
0.69782
0.706069
3
3
2.99998
2.99998
2.99986
2.99984
2.9992
2.99897
2.99588
2.99339
2.97597
2.94944
2.84239
2.62655
2.05845
1.10154
0.584517
0.40278
0.4489
0.510858
0.555477
0.575474
0.582492
0.586385
0.590597
0.595517
0.600746
0.605409
0.60899
0.611612
0.61296
0.613273
0.613765
0.614677
0.615979
0.617737
0.620448
0.624168
0.628145
0.632572
0.637449
0.642724
0.648641
0.655038
0.661976
0.669264
0.67678
0.684639
0.692617
0.700269
3
3
2.99998
2.99998
2.99987
2.99986
2.99924
2.99902
2.99617
2.99365
2.97807
2.95453
2.83931
2.66976
2.13759
1.20532
0.645544
0.410371
0.455535
0.519859
0.568575
0.589881
0.596501
0.599541
0.602756
0.607071
0.612022
0.615828
0.618334
0.619204
0.618116
0.616885
0.616331
0.616494
0.617126
0.618537
0.62119
0.624312
0.627523
0.630958
0.634726
0.638973
0.643895
0.64948
0.655669
0.662509
0.669657
0.677306
0.685031
0.69248
3
3
2.99999
2.99998
2.99989
2.99987
2.99937
2.99913
2.99624
2.99408
2.97664
2.95753
2.87468
2.63474
2.12485
1.19295
0.646174
0.415827
0.448525
0.499555
0.539677
0.556245
0.561462
0.564969
0.569665
0.575844
0.582551
0.588461
0.59356
0.597085
0.598738
0.60034
0.602433
0.604963
0.607597
0.610813
0.614911
0.618817
0.622442
0.625998
0.629713
0.633903
0.638658
0.644207
0.650286
0.65696
0.663775
0.670998
0.678333
0.685496
3.00001
3.00001
3.00001
3.00003
3.00002
3.00014
3.00013
3.00111
3.00015
3.00812
2.9702
3.11467
2.91749
2.66236
1.99738
1.2624
0.559785
0.398131
0.428105
0.470111
0.49539
0.502813
0.50354
0.504
0.5062
0.510091
0.51469
0.519699
0.525316
0.531308
0.537272
0.543794
0.55104
0.558858
0.567122
0.575601
0.584149
0.592675
0.600845
0.60874
0.616415
0.624242
0.632107
0.64002
0.647884
0.655814
0.663708
0.671653
0.679519
0.686998
3.00001
3.00002
3.00002
3.00007
3.00009
3.00031
3.00056
3.00199
3.00146
3.01054
2.97654
3.11758
2.93275
2.69139
2.03912
1.31082
0.580188
0.413678
0.436417
0.470372
0.491034
0.495803
0.494252
0.492246
0.491294
0.491553
0.492831
0.495211
0.498967
0.504202
0.510875
0.518953
0.528316
0.538662
0.549586
0.560956
0.572611
0.584311
0.595857
0.607109
0.617942
0.628266
0.638039
0.647207
0.655879
0.664107
0.67197
0.679549
0.68682
0.693613
3.00001
3.00001
3.00001
3.00003
2.99999
3.00015
3.00016
3.00158
3.00085
3.00938
2.97567
3.11373
2.93245
2.70714
2.05731
1.33647
0.595164
0.406152
0.425739
0.459889
0.482902
0.488739
0.487555
0.486322
0.487007
0.4892
0.492252
0.496231
0.50108
0.506788
0.51343
0.521031
0.529589
0.538858
0.548646
0.559149
0.570275
0.581861
0.593714
0.605604
0.617327
0.628678
0.639197
0.648629
0.657464
0.665868
0.673935
0.681732
0.689196
0.695879
3
3
2.99999
2.99998
2.99988
2.99987
2.99925
2.99918
2.99598
2.99521
2.97833
2.96707
2.87381
2.70973
2.24718
1.36544
0.760937
0.450226
0.456159
0.495077
0.530644
0.544426
0.547547
0.549656
0.553826
0.559833
0.566527
0.573233
0.578985
0.583343
0.587333
0.591218
0.594879
0.598231
0.601543
0.604679
0.607585
0.610546
0.61383
0.617933
0.623216
0.629085
0.635217
0.641472
0.647925
0.654647
0.661543
0.66863
0.675926
0.682865
3
3
2.99998
2.99998
2.99988
2.99986
2.99934
2.99915
2.99679
2.99464
2.98167
2.96949
2.88775
2.74745
2.36625
1.55926
0.853251
0.450922
0.466505
0.519464
0.569467
0.591053
0.595699
0.596349
0.597603
0.599979
0.602004
0.602759
0.603167
0.603556
0.603864
0.604269
0.60547
0.606661
0.607357
0.607824
0.60829
0.608991
0.61014
0.611822
0.614545
0.619127
0.62476
0.631016
0.637516
0.644574
0.651917
0.659671
0.6679
0.675893
3
3
2.99998
2.99998
2.99988
2.99984
2.9994
2.99896
2.99643
2.99449
2.98198
2.96587
2.88067
2.74549
2.37785
1.6016
0.857226
0.413411
0.454805
0.520443
0.580343
0.606356
0.610969
0.608964
0.606311
0.603784
0.601888
0.600816
0.599745
0.598904
0.598665
0.599921
0.601547
0.602808
0.603784
0.604671
0.605511
0.606427
0.607886
0.609762
0.612733
0.617556
0.623218
0.629433
0.635913
0.643116
0.650552
0.658757
0.667344
0.675857
1.155
0.996982
0.481209
0.185882
0.00927539
0.112769
0.168605
0.221236
0.237103
0.230784
0.222555
0.215371
0.208568
0.198594
0.184962
0.167302
0.146416
0.123364
0.0989322
0.0737178
0.0483755
0.0254164
0.0182284
0.0393317
0.0643927
0.0893173
0.114063
0.138043
0.161764
0.184923
0.207673
0.22996
0.251444
0.271865
0.29189
0.312467
0.333455
0.354057
0.374178
0.393909
0.413271
0.432277
0.45086
0.469004
0.486706
0.50394
0.520749
0.53711
0.553005
0.568489
0.583479
0.59806
0.612163
0.625829
0.639046
0.651778
0.664145
0.675959
0.687434
0.698396
0.708928
0.719036
0.728663
0.737818
0.746525
0.754711
0.762403
0.769584
0.776227
0.782326
0.787846
0.792804
0.797148
0.800908
0.803996
0.806488
0.80822
0.80944
0.809953
0.8105
0.810528
0.810291
0.809006
0.807024
0.804791
0.802392
0.799951
0.797502
0.795077
0.792833
0.790774
0.788966
0.787475
0.786288
0.785347
0.784799
0.78437
0.784388
0.78437
0.788011
1.08318
0.998157
0.791619
0.547156
0.510844
0.442493
0.390311
0.343863
0.307673
0.265453
0.220661
0.188406
0.182394
0.190645
0.200734
0.212799
0.227364
0.243696
0.260966
0.279139
0.297567
0.315976
0.3341
0.352389
0.370759
0.389208
0.407463
0.425553
0.443428
0.461111
0.478537
0.495756
0.512384
0.528339
0.544012
0.560048
0.576529
0.592898
0.609134
0.625213
0.641035
0.656554
0.671772
0.686682
0.701267
0.715559
0.729553
0.743286
0.756743
0.769943
0.782904
0.795569
0.807984
0.82011
0.831913
0.843433
0.854639
0.865505
0.876064
0.886206
0.896017
0.905431
0.914429
0.923081
0.93129
0.939117
0.946479
0.953433
0.959926
0.965852
0.971342
0.976281
0.980537
0.984304
0.987444
0.990047
0.99181
0.993243
0.993849
0.994608
0.994997
0.994858
0.994426
0.992714
0.99147
0.989284
0.987851
0.985591
0.984139
0.981954
0.980664
0.97877
0.97782
0.976373
0.975924
0.974856
0.974843
0.9741
0.974174
0.975903
1.03835
1.04374
0.987869
0.891691
0.830573
0.788379
0.757903
0.727974
0.699731
0.675937
0.654733
0.638202
0.625987
0.617593
0.611681
0.608287
0.607643
0.608608
0.611922
0.616807
0.622858
0.629571
0.63666
0.644252
0.652458
0.661366
0.670888
0.680936
0.69143
0.702346
0.713677
0.72538
0.737098
0.748602
0.760078
0.771991
0.784411
0.796713
0.808584
0.820111
0.831538
0.842936
0.854254
0.86543
0.876404
0.887148
0.897692
0.908028
0.91818
0.928197
0.938087
0.947858
0.957529
0.967112
0.976592
0.98596
0.995226
1.00434
1.01325
1.02196
1.03045
1.03868
1.04663
1.05427
1.0616
1.06861
1.07524
1.08159
1.0876
1.09316
1.09847
1.10341
1.1079
1.11206
1.11582
1.11911
1.12192
1.12422
1.1261
1.12785
1.12951
1.13058
1.13098
1.13092
1.13047
1.12997
1.12922
1.12871
1.1279
1.12756
1.12693
1.12681
1.12646
1.12636
1.12655
1.12608
1.12645
1.12589
1.1258
1.12665
1.01364
1.05484
1.06118
1.03772
1.0037
0.982009
0.969657
0.958803
0.945787
0.932031
0.919163
0.908302
0.900364
0.894012
0.888634
0.883308
0.878339
0.873835
0.86986
0.866455
0.863437
0.86095
0.859146
0.858072
0.857669
0.85838
0.86043
0.863456
0.867409
0.872245
0.878045
0.884643
0.891735
0.899091
0.906782
0.915185
0.924622
0.934854
0.945459
0.956175
0.966848
0.977352
0.987582
0.997472
1.00697
1.01606
1.02484
1.03335
1.04135
1.0492
1.05701
1.06469
1.07215
1.0794
1.0864
1.09319
1.10014
1.1074
1.11461
1.12174
1.12881
1.13577
1.14261
1.14925
1.15562
1.16173
1.16745
1.17283
1.17783
1.18244
1.18667
1.19059
1.1941
1.1973
1.20014
1.2027
1.20489
1.20664
1.20822
1.21001
1.21167
1.21302
1.21399
1.21457