/*--------------------------------*- C++ -*----------------------------------*\
| =========                 |                                                 |
| \\      /  F ield         | OpenFOAM: The Open Source CFD Toolbox           |
|  \\    /   O peration     | Version:  2412                                  |
|   \\  /    A nd           | Website:  www.openfoam.com                      |
|    \\/     M anipulation  |                                                 |
\*---------------------------------------------------------------------------*/
FoamFile
{
    version     2.0;
    format      ascii;
    arch        "LSB;label=32;scalar=64";
    class       volScalarField;
    location    "7.5";
    object      p;
}
// * * * * * * * * * * * * * * * * * * * * * * * * * * * * * * * * * * * * * //

dimensions      [1 -1 -2 0 0 0 0];

internalField   nonuniform List<scalar> 
7000
(
1.00045
1.00045
1.00216
1.00384
1.00886
1.02972
1.0587
0.937678
2.28223
2.43261
8.59099
10.83
10.3679
9.86213
9.72971
9.75816
9.83699
9.93693
10.0193
10.0628
10.1143
10.145
10.1763
10.2096
10.2453
10.2841
10.3245
10.3664
10.4096
10.4578
10.5114
10.5688
10.6277
10.693
10.7543
10.814
10.8704
10.9203
10.9599
10.9888
11.0051
11.0095
11.0052
10.9953
10.9845
10.9751
10.968
10.965
10.9636
10.9645
1.00043
1.00045
1.00211
1.00365
1.00894
1.01809
1.07473
0.988683
2.24975
2.47127
8.54223
10.8391
10.3784
9.86255
9.72872
9.75722
9.83806
9.93883
10.0209
10.0642
10.1151
10.1455
10.1767
10.2098
10.2454
10.284
10.3243
10.3661
10.4091
10.4574
10.5109
10.5684
10.627
10.6924
10.7536
10.8132
10.8696
10.9196
10.9591
10.9881
11.0045
11.0089
11.0046
10.9948
10.984
10.9746
10.9677
10.9648
10.9635
10.9645
1.00042
1.00044
1.00216
1.00383
1.00805
1.02867
1.04506
0.912801
2.31199
2.44754
8.51719
10.8533
10.3891
9.86484
9.72978
9.75899
9.84068
9.94211
10.0237
10.0661
10.1164
10.1463
10.1771
10.2099
10.245
10.2832
10.3232
10.3645
10.4078
10.4558
10.5091
10.5665
10.6245
10.69
10.7508
10.8102
10.8665
10.9164
10.9559
10.9849
11.0013
11.0057
11.0014
10.9916
10.9807
10.9714
10.9644
10.9615
10.9604
10.9617
1.00039
1.00045
1.00222
1.00361
1.00935
1.0174
1.07683
0.992443
2.22695
2.43899
8.41253
10.8552
10.3999
9.86884
9.73334
9.76378
9.84482
9.94702
10.028
10.0689
10.1185
10.1474
10.1776
10.2098
10.2443
10.2819
10.3215
10.3627
10.4055
10.4534
10.5067
10.5639
10.6209
10.6866
10.7468
10.8058
10.8617
10.9114
10.9506
10.9795
10.9957
11.0001
10.9958
10.986
10.9751
10.9658
10.9588
10.9561
10.955
10.9568
1.00041
1.00041
1.00196
1.00333
1.00666
1.02632
1.04
0.915964
2.28162
2.41993
8.32193
10.8729
10.4172
9.87764
9.7402
9.7698
9.85078
9.95273
10.0329
10.0726
10.1206
10.1487
10.1781
10.2095
10.2432
10.2801
10.3192
10.3602
10.4021
10.45
10.503
10.5598
10.6162
10.6814
10.7409
10.7992
10.8547
10.9041
10.9429
10.9716
10.9877
10.992
10.9876
10.9777
10.9669
10.9576
10.9508
10.9481
10.9473
10.9494
1.00035
1.00055
1.00221
1.00276
1.01264
1.02218
1.08077
0.974237
2.1914
2.32901
8.17836
10.879
10.436
9.8892
9.7501
9.77933
9.85844
9.96063
10.0395
10.0774
10.1235
10.1502
10.1784
10.2088
10.2415
10.2775
10.3159
10.3559
10.3977
10.4451
10.4977
10.5541
10.6098
10.6742
10.7329
10.7905
10.8453
10.8942
10.9326
10.961
10.9769
10.981
10.9765
10.9665
10.9556
10.9464
10.9397
10.9373
10.9367
10.9391
1.00035
1.00058
1.00209
1.00318
1.01014
1.02353
1.04333
0.976815
2.15191
2.2384
8.05403
10.8997
10.4628
9.90805
9.76599
9.79259
9.86932
9.96916
10.046
10.0819
10.1264
10.1514
10.1785
10.2077
10.2391
10.2741
10.3115
10.3503
10.3921
10.4388
10.4908
10.5465
10.6014
10.6649
10.7225
10.7791
10.8331
10.8814
10.9192
10.9472
10.9628
10.9666
10.9621
10.9519
10.9409
10.9318
10.9252
10.923
10.9226
10.9253
1.00042
1.00038
1.00225
1.00252
1.01302
1.02211
1.08151
0.980556
2.11467
2.22939
7.7803
10.8988
10.4865
9.93121
9.78758
9.81117
9.88388
9.97996
10.0539
10.0875
10.1299
10.1529
10.1784
10.206
10.2359
10.2694
10.3058
10.3433
10.3844
10.4305
10.4819
10.5367
10.5907
10.653
10.7094
10.765
10.8179
10.8653
10.9024
10.9298
10.9449
10.9484
10.9438
10.9334
10.9223
10.9132
10.9067
10.9046
10.9045
10.9075
1.00038
1.00049
1.00226
1.0032
1.01322
1.02353
1.0826
0.985659
2.05212
2.16336
7.50407
10.8953
10.5126
9.96263
9.81568
9.83485
9.90009
9.99113
10.0616
10.0935
10.1328
10.1538
10.1778
10.2036
10.2316
10.2634
10.2984
10.3345
10.3747
10.4201
10.4707
10.5245
10.5773
10.6384
10.6934
10.7476
10.7993
10.8455
10.8817
10.9084
10.9229
10.9258
10.9211
10.9104
10.8991
10.8899
10.8835
10.8816
10.8816
10.8849
1.00033
1.00046
1.00231
1.00261
1.01472
1.02489
1.08753
1.04766
1.92811
2.10696
7.15484
10.8941
10.5593
10.0092
9.85063
9.86394
9.91736
10.0035
10.0699
10.1004
10.1356
10.1542
10.1763
10.2001
10.2258
10.2556
10.2889
10.3235
10.3628
10.4073
10.4569
10.5096
10.5611
10.6207
10.6741
10.7266
10.7767
10.8215
10.8566
10.8823
10.8959
10.8983
10.8934
10.8821
10.8705
10.8611
10.8547
10.8529
10.8531
10.8566
1.00035
1.00056
1.00212
1.00241
1.01412
1.02644
1.08387
1.01357
1.90057
2.00006
6.82185
10.9016
10.6172
10.0766
9.89483
9.89568
9.93574
10.0166
10.078
10.1073
10.1374
10.1537
10.1736
10.195
10.2183
10.2458
10.2773
10.3102
10.3483
10.392
10.4405
10.4919
10.5419
10.5996
10.6511
10.7017
10.7499
10.7929
10.8266
10.851
10.8636
10.8651
10.8598
10.8475
10.8355
10.8259
10.8192
10.8173
10.8175
10.8213
1.00041
1.00038
1.00222
1.00232
1.01172
1.01974
1.0724
1.06088
1.79915
1.85397
6.41314
10.8819
10.6626
10.171
9.94968
9.92343
9.95767
10.0305
10.0854
10.1131
10.1384
10.1519
10.1693
10.1881
10.2087
10.2337
10.2632
10.2939
10.3309
10.3736
10.421
10.4709
10.5193
10.5749
10.6242
10.6725
10.7182
10.7591
10.791
10.8137
10.8249
10.8252
10.8192
10.8058
10.793
10.7826
10.7754
10.7732
10.7731
10.7772
1.00041
1.00042
1.00221
1.00207
1.01341
1.01942
1.07586
1.03629
1.76291
1.8344
5.93699
10.8268
10.6868
10.2696
10.0074
9.94997
9.97861
10.0426
10.0905
10.1182
10.1373
10.1482
10.1631
10.1791
10.1968
10.219
10.2463
10.2747
10.3105
10.3522
10.3983
10.4467
10.4931
10.5463
10.593
10.6384
10.6814
10.7193
10.7492
10.7696
10.7788
10.7776
10.7703
10.7554
10.7413
10.7297
10.7214
10.7182
10.7176
10.722
1.00041
1.00038
1.0022
1.00235
1.01185
1.01957
1.06926
1.06647
1.69384
1.70287
5.6635
10.671
10.6741
10.365
10.0577
9.97105
9.99547
10.0525
10.0932
10.1221
10.1341
10.1427
10.1549
10.1681
10.1825
10.2017
10.2266
10.2524
10.2871
10.3277
10.3724
10.4189
10.4631
10.5134
10.5571
10.5992
10.6387
10.6731
10.7004
10.7177
10.7242
10.7214
10.7115
10.6947
10.6783
10.6646
10.6543
10.6493
10.6474
10.6518
1.00039
1.0005
1.00203
1.00278
1.01235
1.01325
1.07744
1.03417
1.65591
1.73939
5.30794
10.3777
10.7038
10.4156
10.0874
9.98316
10.0048
10.058
10.0935
10.1225
10.1292
10.1352
10.1445
10.1547
10.166
10.1819
10.2043
10.2271
10.2608
10.3002
10.3433
10.3876
10.4292
10.4762
10.5161
10.5542
10.5895
10.6199
10.6436
10.6567
10.6598
10.6549
10.6412
10.6215
10.6014
10.584
10.57
10.5617
10.5574
10.5615
1.00038
1.00034
1.00207
1.00208
1.01169
1.01584
1.06766
1.05676
1.61056
1.59022
5.16546
10.0458
10.7346
10.4629
10.1103
9.98943
10.0096
10.0606
10.0921
10.12
10.123
10.1259
10.1318
10.1391
10.1471
10.1595
10.1791
10.1991
10.2318
10.27
10.3111
10.3529
10.3913
10.4343
10.4699
10.5031
10.5334
10.5589
10.5777
10.5857
10.585
10.5766
10.5576
10.5332
10.507
10.4834
10.463
10.4486
10.4393
10.442
1.00034
1.00033
1.00197
1.00206
1.01146
1.01169
1.06792
1.03397
1.57781
1.61813
4.84967
9.69488
10.773
10.5139
10.127
9.98897
10.0082
10.0587
10.0887
10.1142
10.1144
10.1145
10.1169
10.1212
10.126
10.1348
10.1511
10.1686
10.2004
10.237
10.2759
10.3147
10.3494
10.3878
10.4182
10.4458
10.4701
10.4894
10.5019
10.504
10.4991
10.4839
10.4581
10.4264
10.391
10.3572
10.3256
10.2992
10.2796
10.2787
1.00026
1.00026
1.00176
1.00169
1.01116
1.01065
1.06761
1.03203
1.53145
1.59071
4.59736
9.27699
10.8152
10.5693
10.1396
9.98533
10.0031
10.0518
10.0828
10.1051
10.1031
10.1003
10.0996
10.1004
10.1025
10.108
10.1207
10.1361
10.1667
10.2014
10.2377
10.2731
10.3034
10.3366
10.3611
10.3822
10.3995
10.411
10.4157
10.4121
10.3997
10.3747
10.3402
10.2972
10.2489
10.1984
10.1466
10.0976
10.0552
10.0407
1.00021
1.00017
1.00127
1.0021
1.00835
1.01253
1.05769
1.08563
1.4582
1.64376
4.31514
8.86176
10.864
10.6208
10.1462
9.97909
9.99453
10.0387
10.0758
10.0912
10.088
10.0836
10.079
10.076
10.0756
10.0788
10.0886
10.1022
10.131
10.1635
10.1966
10.228
10.2532
10.2813
10.2991
10.3125
10.3216
10.3237
10.3201
10.3083
10.2844
10.2491
10.2025
10.144
10.0758
9.99842
9.9117
9.81792
9.72243
9.66118
1.00009
1.00019
1.00147
1.00162
1.00841
1.01266
1.05433
1.04857
1.45261
1.42726
4.24226
8.42472
10.9375
10.6765
10.1499
9.96708
9.98105
10.0221
10.0652
10.0715
10.0689
10.0629
10.0542
10.0477
10.045
10.0469
10.0545
10.0665
10.0934
10.1229
10.1522
10.1792
10.1988
10.2208
10.2312
10.2366
10.2359
10.2296
10.2145
10.1902
10.155
10.1068
10.044
9.9645
9.86747
9.74943
9.60422
9.42409
9.20157
8.96071
1.00004
1.0003
1.00124
1.00137
1.00793
1.01101
1.04077
1.07144
1.36703
1.47047
3.79087
7.78684
11.0337
10.7441
10.1582
9.94993
9.96363
10.0044
10.0457
10.0482
10.0438
10.0331
10.0196
10.01
10.0056
10.0062
10.0118
10.0225
10.0465
10.0717
10.0958
10.1168
10.1292
10.1438
10.1445
10.1408
10.1293
10.1074
10.078
10.0392
9.98792
9.92118
9.835
9.7249
9.5834
9.39836
9.14412
8.76574
8.12829
6.74694
0.999986
1.00076
1.00087
1.00357
1.00511
1.00949
1.04171
1.05585
1.30922
1.35913
3.51541
7.13363
11.2394
10.8595
10.1597
9.9123
9.92179
9.96528
9.99975
10.0053
10.0007
9.9891
9.97449
9.9649
9.96011
9.95872
9.96263
9.97134
9.99017
10.0089
10.0257
10.0393
10.0436
10.0482
10.0419
10.0253
9.99728
9.96134
9.91607
9.85962
9.78922
9.69981
9.58594
9.44004
9.249
8.993
8.63616
8.1173
7.35928
6.1329
0.999977
1.00071
1.00082
1.00457
1.00712
1.02849
1.02637
1.08384
1.26468
1.24403
3.21685
6.23046
11.224
10.836
10.1085
9.85043
9.85537
9.89313
9.93435
9.94888
9.94716
9.94058
9.9311
9.92209
9.91662
9.91356
9.91509
9.91805
9.92866
9.94004
9.94945
9.95403
9.95186
9.94732
9.93125
9.90004
9.8604
9.81117
9.75093
9.67793
9.58924
9.48005
9.34366
9.17088
8.94906
8.65965
8.2785
7.76924
7.11726
6.23775
0.999976
1.00042
1.00047
1.00289
1.0046
1.02244
1.01058
1.06456
1.16379
1.09524
3.06066
5.4889
11.2122
10.8184
10.1057
9.81969
9.80137
9.82635
9.87621
9.90036
9.90427
9.90219
9.89705
9.88896
9.8808
9.87343
9.86978
9.86486
9.86668
9.86925
9.86949
9.86733
9.85695
9.84366
9.81448
9.7751
9.72596
9.6657
9.5935
9.50786
9.40597
9.28354
9.13445
8.95092
8.72321
8.43886
8.08513
7.64813
7.13033
6.48768
0.999995
1.00011
1.00015
1.00139
1.00253
1.01276
1.00339
1.04643
1.12258
1.02457
2.92452
4.80528
11.018
10.7022
10.1603
9.82823
9.7639
9.78343
9.82708
9.85632
9.86816
9.86844
9.86579
9.85905
9.8468
9.83398
9.82519
9.80959
9.8042
9.79759
9.78881
9.77599
9.75626
9.73585
9.69864
9.65282
9.5966
9.52884
9.44891
9.35553
9.24639
9.11804
8.96578
8.78389
8.56542
8.3032
7.99027
7.62045
7.18766
6.69992
0.999932
0.999957
0.999801
1.00006
1.00047
1.00544
0.996368
1.03188
1.09091
0.991446
2.80766
4.40432
10.6508
10.5752
10.1982
9.84369
9.74559
9.75797
9.79301
9.82275
9.83697
9.83791
9.83558
9.82785
9.81269
9.79501
9.7812
9.75752
9.74309
9.72637
9.7081
9.68449
9.65961
9.62822
9.58541
9.53472
9.47392
9.40201
9.31837
9.22175
9.11048
8.98186
8.83262
8.65876
8.45567
8.21888
7.94418
7.62809
7.27453
6.87271
1.00018
1.00013
1.00104
1.00137
1.00477
1.00651
1.01263
1.03629
1.02897
1.58892
1.51182
5.24301
9.96478
10.5515
10.2382
9.84822
9.70963
9.71689
9.74687
9.78547
9.80569
9.8079
9.8054
9.79628
9.7774
9.75695
9.7301
9.70498
9.68045
9.65464
9.62634
9.59594
9.56823
9.52747
9.48159
9.42764
9.36389
9.28977
9.20446
9.10736
8.99683
8.87126
8.72806
8.56451
8.37764
8.16395
7.92136
7.64818
7.35043
7.01542
1.00012
1.00013
1.00074
1.0009
1.00322
1.0049
1.00446
1.04439
1.03778
1.42095
1.48325
4.39347
8.86373
10.7786
10.4523
9.91072
9.6945
9.69288
9.71501
9.75958
9.7825
9.7832
9.77868
9.76573
9.74112
9.71768
9.68331
9.65458
9.62118
9.58856
9.54954
9.51983
9.47906
9.43421
9.38445
9.32771
9.26264
9.18838
9.10412
9.00891
8.90174
8.78127
8.64577
8.49316
8.32138
8.12918
7.91556
7.67886
7.4226
7.13894
1.00008
1.00008
1.00062
1.00065
1.00443
1.00731
1.02898
1.02461
1.11152
1.27343
1.27039
3.63404
7.30458
11.2306
10.8
10.0453
9.7277
9.69674
9.71576
9.75562
9.77672
9.77611
9.76786
9.74763
9.71936
9.69092
9.64873
9.61286
9.57473
9.53378
9.49079
9.4502
9.40351
9.35482
9.30226
9.24334
9.17739
9.10354
9.02054
8.92792
8.82465
8.70916
8.58117
8.43867
8.2814
8.10814
7.9178
7.71055
7.48775
7.24433
1.00003
1.00002
1.00028
1.00033
1.0022
1.00348
1.01967
1.00717
1.06013
1.16241
1.09125
3.1446
5.69592
11.3587
10.933
10.1545
9.80311
9.72533
9.73869
9.76815
9.77853
9.77381
9.75877
9.7292
9.69697
9.6623
9.62325
9.58039
9.53666
9.489
9.44032
9.39029
9.33871
9.28487
9.2264
9.16448
9.09749
9.02429
8.94415
8.85576
8.75774
8.65053
8.53062
8.39896
8.25398
8.09507
7.92361
7.74005
7.5446
7.33329
1.00001
1.00001
1.00002
1.00003
1.00036
1.00131
1.00778
0.997645
1.03585
1.10355
1.00442
2.88885
4.63399
11.0509
10.808
10.31
9.88602
9.75344
9.75718
9.77088
9.7738
9.76679
9.74645
9.71107
9.67454
9.63697
9.5948
9.54956
9.49888
9.44854
9.39544
9.34081
9.28468
9.22644
9.16774
9.10407
9.03614
8.96341
8.88458
8.79864
8.70487
8.60157
8.48983
8.36723
8.2342
8.09075
7.93562
7.76959
7.59477
7.40913
1
0.999936
0.999923
0.999595
0.999153
0.997742
0.999001
0.989688
1.02079
1.06919
0.971533
2.67491
4.0172
10.2496
10.6806
10.3405
9.93462
9.77812
9.76096
9.76381
9.76011
9.74839
9.72046
9.68272
9.64261
9.60434
9.56165
9.51839
9.46522
9.41282
9.35698
9.29879
9.23975
9.17867
9.11794
9.05324
8.98461
8.91204
8.83423
8.75052
8.66032
8.56269
8.45687
8.34305
8.22034
8.08894
7.94834
7.79996
7.64479
7.47906
0.999995
1.00016
1.00019
1.00095
1.0011
1.00525
1.00628
1.02239
1.03718
1.07314
1.45635
1.44421
4.50003
8.86047
10.5765
10.3709
9.95178
9.75818
9.72153
9.72207
9.71866
9.70844
9.68748
9.65095
9.60992
9.56916
9.52673
9.4786
9.42725
9.37385
9.31776
9.25982
9.20019
9.13889
9.07735
9.01171
8.94311
8.87104
8.79435
8.71238
8.62487
8.5314
8.43152
8.3251
8.21171
8.09128
7.96376
7.82968
7.69004
7.54244
0.999996
1.00013
1.00014
1.00084
1.00097
1.0051
1.00656
1.02506
1.02782
1.04635
1.32721
1.35129
3.56828
7.21642
10.7836
10.5635
10.0263
9.73183
9.65683
9.65993
9.66535
9.66018
9.64336
9.60869
9.56711
9.52612
9.48502
9.43739
9.38963
9.33734
9.28331
9.22577
9.16775
9.10968
9.04597
8.98041
8.91213
8.84051
8.76514
8.68554
8.60116
8.5119
8.41733
8.31706
8.2109
8.09811
7.98105
7.85912
7.73271
7.5999
1
1.00006
1.00009
1.00048
1.00053
1.00328
1.00492
1.02423
1.01179
1.06482
1.16533
1.1037
3.06491
5.57923
10.9703
10.7203
10.1101
9.72565
9.61049
9.61306
9.62153
9.61896
9.60586
9.57506
9.532
9.49157
9.44892
9.40214
9.35572
9.30569
9.25252
9.19622
9.14029
9.08001
9.01758
8.95307
8.88579
8.8153
8.74131
8.66358
8.58167
8.4959
8.40604
8.31183
8.21312
8.11047
8.00313
7.8912
7.7756
7.65482
1
1.00005
1.00006
1.00034
1.00035
1.00202
1.00265
1.01115
1.02001
1.06743
1.07131
1.69725
1.79635
5.92169
10.7325
10.5732
10.0749
9.70102
9.57546
9.57404
9.58293
9.58183
9.57065
9.54134
9.49846
9.45556
9.41465
9.3698
9.3252
9.2771
9.22551
9.17109
9.11453
9.0563
8.99502
8.93155
8.86555
8.79641
8.72436
8.64889
8.56988
8.48763
8.40153
8.31184
8.21791
8.1209
8.02123
7.9187
7.81387
7.70461
0.999988
0.999988
0.999929
0.9999
0.999706
0.999845
1.00003
1.00477
0.99473
1.0282
1.08139
0.986499
2.7354
4.20043
10.3159
10.5501
10.1667
9.71529
9.54911
9.53835
9.54585
9.54492
9.53343
9.50312
9.45957
9.4175
9.37719
9.33636
9.29369
9.24788
9.19907
9.14724
9.09259
9.03542
8.97582
8.914
8.84975
8.78284
8.71323
8.64105
8.56426
8.48555
8.40311
8.31769
8.23013
8.13994
8.04679
7.95072
7.85184
7.74937
0.999998
0.999999
0.999969
0.99999
1.00009
0.998691
0.99681
0.997529
0.982858
1.00781
1.04605
0.942548
2.56744
3.6294
9.75434
10.505
10.1521
9.68576
9.50476
9.49359
9.50027
9.49892
9.4897
9.46455
9.42503
9.38434
9.3451
9.30584
9.26589
9.22358
9.17819
9.12873
9.0758
9.02003
8.96177
8.90141
8.83901
8.77436
8.70693
8.63843
8.56424
8.48848
8.40996
8.32887
8.24546
8.15886
8.0711
7.97996
7.887
7.79108
1.00001
1.00001
1.00004
1.00009
1.00009
1.00043
1.00014
1.00007
0.989248
0.994398
1.01587
0.914381
2.50498
2.99624
9.26379
10.4194
10.1035
9.65566
9.47868
9.46004
9.46323
9.46144
9.4531
9.43264
9.39554
9.35524
9.31672
9.27978
9.24257
9.20185
9.15875
9.11091
9.05975
9.00612
8.95031
8.8926
8.83285
8.77107
8.70671
8.64025
8.56926
8.49681
8.42206
8.34355
8.2643
8.18145
8.09646
8.00962
7.92102
7.82998
1.00001
1.00001
1.00005
1.00006
1.0002
1.0005
1.00058
1.00186
0.999099
0.999278
0.969672
0.855546
2.34369
2.47591
8.70362
10.5553
10.2386
9.7282
9.4939
9.42939
9.41759
9.41484
9.40808
9.39305
9.36284
9.32633
9.29104
9.25758
9.22142
9.18599
9.14367
9.09789
9.04925
8.99788
8.94422
8.88848
8.83108
8.77187
8.70978
8.64553
8.57852
8.50896
8.43687
8.36196
8.28498
8.20545
8.12376
8.04007
7.95478
7.86708
1.00001
1.00001
1.00007
1.00007
1.0005
1.00055
1.00329
1.00505
1.02467
1.01221
1.07216
1.19349
1.16245
3.30403
6.40474
10.8302
10.6326
10.0292
9.59673
9.42977
9.39386
9.38999
9.38258
9.36684
9.33813
9.30593
9.27397
9.24148
9.20583
9.1709
9.12992
9.08614
9.03985
8.99122
8.94043
8.88772
8.83295
8.77588
8.71675
8.65533
8.59128
8.52452
8.45507
8.38296
8.30823
8.23126
8.15226
8.07137
7.98898
7.90449
1.00001
1.00001
1.00001
1.00011
1.00027
1.00036
1.00164
1.00217
1.00861
1.01505
1.06673
1.05729
1.71445
1.76252
5.84479
10.6927
10.5998
10.1546
9.66311
9.4231
9.35993
9.35648
9.35064
9.33688
9.31107
9.28396
9.25638
9.2265
9.1945
9.15958
9.12106
9.07948
9.03521
8.98844
8.93952
8.88866
8.83591
8.78087
8.72377
8.66451
8.60298
8.5389
8.47211
8.40265
8.33064
8.25628
8.17978
8.10128
8.02128
7.93906
1.00001
1.00001
1.00004
1.00007
1.00025
1.00034
1.00164
1.00184
1.01064
1.01084
1.06581
1.05239
1.56384
1.59915
5.0733
9.98806
10.6357
10.3122
9.74654
9.45693
9.37214
9.36552
9.35579
9.33705
9.30914
9.27738
9.24827
9.21893
9.1874
9.15293
9.11527
9.07474
9.03168
8.98634
8.93902
8.88984
8.83883
8.78609
8.73135
8.67426
8.61453
8.5521
8.48701
8.41947
8.34945
8.27765
8.20346
8.12753
8.04996
7.97011
1
0.999993
0.999996
0.999934
0.999935
0.999479
0.999096
0.997098
0.998109
0.988466
1.0172
1.05962
0.958564
2.60299
3.80297
9.77089
10.5605
10.2028
9.67385
9.42637
9.36293
9.35947
9.35101
9.33274
9.30509
9.27344
9.24304
9.21313
9.18167
9.1474
9.11032
9.07053
9.02833
8.98404
8.93788
8.88992
8.84019
8.78881
8.73533
8.67958
8.62149
8.56106
8.49829
8.43315
8.36558
8.29591
8.22414
8.15035
8.07484
7.99708
1
1
1.00001
1.00001
1.00002
0.999932
0.999794
0.998459
0.998256
0.983453
0.991597
1.01662
0.915281
2.48406
3.2008
9.16944
10.1892
9.88862
9.49587
9.35019
9.34151
9.34881
9.34795
9.33901
9.3174
9.28374
9.25001
9.2172
9.18385
9.1486
9.11097
9.07091
9.02858
8.98432
8.93827
8.89057
8.84127
8.79016
8.73716
8.68216
8.62509
8.56586
8.50447
8.44098
8.37544
8.30797
8.23868
8.16761
8.09501
8.01997
1
1.00001
1.00001
1.00002
1.00005
1.00004
0.999861
0.99908
0.998546
0.988119
1.00148
0.98567
0.949948
2.32749
2.75178
8.76706
10.2761
9.97383
9.54315
9.37162
9.34897
9.35489
9.35468
9.34764
9.32809
9.29312
9.2561
9.22052
9.18556
9.14935
9.11104
9.07025
9.02742
8.98283
8.93659
8.88885
8.83953
8.78854
8.73561
8.68095
8.62436
8.56598
8.50584
8.44405
8.38065
8.31557
8.24889
8.18073
8.1111
8.0393
0.999999
1.00002
1.00002
1.00013
1.00014
1.00079
1.00093
1.00443
1.00585
1.02428
1.01381
0.99146
1.33587
1.24397
3.68455
7.11096
10.5159
10.3081
9.76633
9.4586
9.37009
9.36769
9.36865
9.36241
9.34223
9.30219
9.26091
9.22189
9.18484
9.14756
9.10842
9.06727
9.02432
8.97957
8.93331
8.88568
8.8364
8.78647
8.73357
8.67939
8.62403
8.56679
8.50834
8.44834
8.38687
8.32379
8.25928
8.19325
8.12584
8.05648
0.999999
1.00001
1.00001
1.00007
1.00008
1.00039
1.00055
1.00204
1.00218
1.01379
1.0235
1.08003
1.05166
1.86342
1.97727
6.77779
10.5218
10.2962
9.78196
9.47955
9.37077
9.3589
9.3603
9.35512
9.33682
9.29884
9.25757
9.21853
9.18117
9.14364
9.10494
9.06426
9.0219
8.97778
8.93191
8.88471
8.83575
8.78583
8.73353
8.68001
8.62515
8.56865
8.51134
8.45229
8.39195
8.33052
8.26764
8.20391
8.13892
8.07214
1
1.00001
1.00001
1.00007
1.00007
1.00039
1.00039
1.00222
1.00259
1.01219
1.01722
1.06971
1.05491
1.66596
1.77858
5.57808
10.4354
10.3454
9.95813
9.58734
9.41909
9.38049
9.37384
9.36046
9.3344
9.29843
9.2589
9.21941
9.1806
9.1422
9.10288
9.06254
9.01989
8.97707
8.9312
8.88495
8.83675
8.78711
8.73552
8.68289
8.62854
8.57265
8.51583
8.45779
8.39896
8.33906
8.27826
8.21635
8.15332
8.08856
1
1.00001
1.00001
1.00003
1.00004
1.0002
1.00029
1.00104
1.00187
1.00769
0.998739
1.03163
1.08173
0.982163
2.69437
4.1072
10.0421
10.5721
10.2406
9.74979
9.50046
9.41367
9.38481
9.36177
9.33167
9.29357
9.25391
9.2129
9.1729
9.13378
9.09439
9.05507
9.01459
8.97189
8.92911
8.88467
8.83825
8.7905
8.74038
8.68839
8.63585
8.58079
8.52468
8.46767
8.40962
8.35065
8.29093
8.23033
8.16886
8.10584
1
1.00001
1.00001
1.00004
1.00005
1.00025
1.00037
1.00131
1.00183
1.00782
1.0136
1.0559
1.07987
1.47704
1.62803
4.43962
8.97076
10.4942
10.2781
9.80029
9.49557
9.37126
9.33693
9.32279
9.30144
9.27074
9.23442
9.1971
9.16074
9.12534
9.08934
9.05301
9.01569
8.97542
8.93441
8.89178
8.84632
8.80066
8.75165
8.70068
8.64816
8.59385
8.5382
8.48144
8.42379
8.36548
8.30643
8.24678
8.18648
8.1248
1
1.00001
1.00001
1.00004
1.00005
1.00023
1.00034
1.00124
1.00171
1.00777
1.00823
1.05302
1.05087
1.4407
1.40488
4.11416
8.06131
10.5382
10.3735
9.90679
9.51378
9.33692
9.29206
9.28495
9.27259
9.24773
9.21233
9.1742
9.13812
9.10601
9.07086
9.03826
9.00359
8.96681
8.92819
8.88691
8.84597
8.80108
8.7544
8.70593
8.65547
8.60313
8.54919
8.49402
8.43767
8.38035
8.32231
8.26347
8.20395
8.14327
1
1.00001
1.00001
1.00004
1.00005
1.00023
1.00025
1.00128
1.00123
1.00744
1.00822
1.04829
1.0719
1.36468
1.36188
3.75872
7.36991
10.515
10.3765
9.90501
9.47412
9.27986
9.23668
9.23624
9.23166
9.21546
9.18043
9.14021
9.10716
9.07436
9.04238
9.01318
8.98091
8.94789
8.91093
8.87557
8.83757
8.79568
8.75221
8.70648
8.65865
8.60885
8.55719
8.50375
8.4489
8.39314
8.33661
8.27922
8.22109
8.16173
1
1.00001
1.00001
1.00004
1.00003
1.0002
1.00019
1.00111
1.00145
1.00671
1.00788
1.04911
1.02079
1.40317
1.3927
3.72663
7.17311
10.1657
10.0956
9.75173
9.3878
9.22855
9.19534
9.19304
9.18554
9.16623
9.13259
9.09793
9.06858
9.03703
9.00858
8.98156
8.95197
8.92199
8.88782
8.85654
8.82087
8.78274
8.74295
8.70068
8.65573
8.60839
8.55914
8.5083
8.45586
8.40182
8.34657
8.29054
8.23376
8.17575
0.999999
0.999999
0.999992
0.999994
0.999962
0.999977
1.00001
0.999242
0.998361
0.998911
0.990442
1.00995
1.03197
0.936891
2.27048
2.87683
7.67973
9.92657
9.81497
9.51141
9.28084
9.19389
9.17659
9.1686
9.15151
9.1245
9.09324
9.06127
9.03196
9.00243
8.97347
8.9467
8.91886
8.89012
8.86016
8.82912
8.79685
8.76219
8.72534
8.68638
8.64476
8.60156
8.55524
8.50659
8.45659
8.40545
8.35294
8.29926
8.24456
8.18829
0.999997
0.999997
0.999984
0.999976
0.99991
0.999883
0.999433
0.999052
0.996731
0.997228
0.985389
1.00087
1.01528
0.911684
2.23547
2.63984
7.36361
9.69049
9.62771
9.40664
9.21728
9.14778
9.13471
9.126
9.10909
9.08522
9.05811
9.03033
9.00284
8.97517
8.94799
8.92105
8.89419
8.86632
8.83708
8.80721
8.77571
8.74244
8.70728
8.67011
8.63063
8.58915
8.54545
8.49966
8.45196
8.40236
8.35145
8.29951
8.24704
8.19267
0.999999
0.999998
0.999993
0.999995
0.999977
1.00001
1.0001
0.998815
0.99725
0.997653
0.986941
1.00195
1.01446
0.912759
2.20702
2.56632
7.14911
9.70761
9.66371
9.45476
9.2399
9.15056
9.1289
9.1176
9.09859
9.07183
9.04264
9.01285
8.9824
8.95261
8.92339
8.89464
8.86685
8.83788
8.80886
8.7792
8.7484
8.71658
8.68316
8.64823
8.61111
8.57269
8.53065
8.48761
8.44296
8.3965
8.34854
8.29961
8.2498
8.19664
1
1.00001
1.00001
1.00003
1.00005
1.00019
1.00031
1.00113
1.00151
1.00614
1.008
1.03479
1.05347
1.28073
1.27727
3.17576
6.0087
9.79292
9.88047
9.64901
9.30572
9.1407
9.09681
9.08759
9.07308
9.04874
9.01729
8.98557
8.9511
8.91954
8.8899
8.86132
8.83315
8.80487
8.77763
8.74827
8.71816
8.68721
8.65411
8.62064
8.58522
8.54828
8.50942
8.46901
8.4269
8.38391
8.3385
8.29255
8.24511
8.19474
1
1.00001
1.00001
1.00004
1.00005
1.0002
1.00023
1.00107
1.00113
1.0062
1.00713
1.03219
1.05448
1.23936
1.23656
2.8236
4.98117
10.0911
10.2013
9.88539
9.39573
9.14822
9.08157
9.07656
9.06955
9.05267
9.01684
8.97967
8.94388
8.91106
8.87883
8.84874
8.82107
8.78969
8.75961
8.72937
8.69923
8.66769
8.63554
8.60213
8.56725
8.5344
8.49616
8.45749
8.41765
8.37635
8.33353
8.28922
8.24337
8.19517
1
1.00001
1.00001
1.00004
1.00004
1.00021
1.0002
1.00122
1.00148
1.00632
1.00607
1.03738
1.05677
1.25442
1.23085
2.86154
4.71135
10.3303
10.3187
9.95935
9.40815
9.1241
9.04863
9.04884
9.04827
9.03959
9.01594
8.97175
8.93221
8.89501
8.86287
8.83546
8.80466
8.77602
8.74664
8.7187
8.68727
8.65657
8.62493
8.59112
8.55779
8.52489
8.48736
8.44974
8.41109
8.37099
8.32941
8.28629
8.24158
8.19451
2.9473
2.48588
3.05279
4.18522
4.12636
4.10328
4.01094
3.95883
3.94262
3.95053
3.98212
4.00864
4.0282
4.05278
4.09099
4.14273
4.20237
4.26571
4.32999
4.39283
4.45303
4.50904
4.56299
4.60994
4.65026
4.68406
4.71154
4.73386
4.75087
4.76327
4.77116
4.77481
4.77454
4.77285
4.76796
4.75762
4.74229
4.72458
4.70496
4.68325
4.65954
4.6338
4.60631
4.57714
4.54649
4.5146
4.48152
4.44737
4.41231
4.37646
4.33992
4.30282
4.26534
4.22753
4.18957
4.15165
4.11387
4.07634
4.03919
4.00259
3.96667
3.93157
3.89743
3.86439
3.83258
3.80216
3.77326
3.74601
3.72056
3.69706
3.67564
3.65647
3.63959
3.62515
3.61322
3.60405
3.59746
3.59363
3.59249
3.5927
3.59359
3.59593
3.60106
3.60989
3.62007
3.6308
3.6418
3.65283
3.66365
3.67402
3.68365
3.69242
3.70016
3.70681
3.7124
3.71695
3.72061
3.7233
3.72493
3.72652
3.99122
3.5573
3.76315
4.23035
4.1419
4.06307
3.98001
3.93304
3.93602
3.96158
4.00476
4.02436
4.0307
4.04629
4.08239
4.13485
4.19393
4.25658
4.32033
4.38282
4.44298
4.49985
4.55363
4.60166
4.64283
4.67736
4.7057
4.72849
4.74606
4.75876
4.76682
4.77037
4.77001
4.76849
4.76448
4.75556
4.73954
4.72104
4.70122
4.67967
4.65615
4.63063
4.60323
4.57414
4.5435
4.51166
4.47864
4.44451
4.40949
4.3737
4.33721
4.30018
4.26278
4.22507
4.18717
4.14938
4.11174
4.07435
4.03733
4.00085
3.96505
3.93006
3.89603
3.8631
3.83138
3.80104
3.77221
3.74501
3.71961
3.69614
3.67473
3.65554
3.63874
3.62431
3.6122
3.60314
3.59645
3.5927
3.59189
3.59214
3.59307
3.5954
3.60039
3.60922
3.61953
3.63051
3.64178
3.65311
3.66416
3.67479
3.6846
3.69356
3.70132
3.7079
3.71338
3.71776
3.7213
3.72391
3.72617
3.7298
5.06678
4.39317
4.20548
4.2432
4.22453
4.16963
4.06975
4.00772
3.98591
3.98753
3.99602
4.01422
4.0347
4.0603
4.09666
4.14534
4.20115
4.26073
4.32148
4.38183
4.44026
4.49583
4.54781
4.59482
4.63584
4.67072
4.69938
4.72251
4.74037
4.75332
4.7615
4.76481
4.76446
4.763
4.75938
4.7517
4.73672
4.71774
4.69687
4.67486
4.65127
4.62579
4.59846
4.56952
4.53891
4.50713
4.47429
4.44011
4.4052
4.36953
4.33313
4.29617
4.2589
4.22137
4.18352
4.1459
4.10854
4.07124
4.03441
3.99816
3.96258
3.92781
3.89399
3.86125
3.82973
3.79958
3.77091
3.74389
3.71863
3.69529
3.67401
3.65491
3.63816
3.62379
3.61188
3.60268
3.59617
3.59243
3.59194
3.59221
3.5932
3.59562
3.60069
3.60934
3.61953
3.63074
3.64226
3.65378
3.66497
3.67577
3.68547
3.69443
3.70225
3.7088
3.71416
3.71826
3.72191
3.72401
3.72681
3.73234
5.65198
4.99201
4.60148
4.42388
4.3921
4.32765
4.22337
4.13315
4.07842
4.05862
4.06026
4.06748
4.08352
4.10496
4.13188
4.17014
4.21718
4.26949
4.32472
4.38098
4.43641
4.48927
4.53914
4.58475
4.62542
4.66015
4.68867
4.71203
4.73002
4.74323
4.75141
4.75456
4.75422
4.75287
4.74955
4.74259
4.72925
4.71088
4.6899
4.66739
4.64346
4.61794
4.59072
4.56195
4.53163
4.49976
4.46753
4.43327
4.39834
4.36301
4.32683
4.29
4.25296
4.21579
4.17807
4.14052
4.10401
4.06689
4.03032
3.99444
3.95922
3.92478
3.89128
3.85886
3.82764
3.79777
3.76937
3.74261
3.7176
3.69449
3.67342
3.6545
3.63786
3.62361
3.61184
3.60268
3.59626
3.59259
3.59236
3.59267
3.59374
3.59626
3.60149
3.61002
3.62
3.631
3.64253
3.65413
3.66541
3.67621
3.68595
3.69486
3.70257
3.7091
3.71419
3.71836
3.72184
3.72387
3.72724
3.73422
6.04304
5.46993
5.0395
4.77429
4.63352
4.52325
4.40613
4.29813
4.21685
4.16639
4.14287
4.13807
4.14038
4.14866
4.16744
4.2005
4.24103
4.28619
4.33465
4.38508
4.43587
4.48528
4.53232
4.576
4.61552
4.64979
4.67826
4.70165
4.71958
4.73298
4.74089
4.74399
4.74363
4.74226
4.73897
4.7321
4.71973
4.7025
4.68172
4.65874
4.63422
4.60836
4.58112
4.5525
4.52232
4.49112
4.45853
4.42472
4.39051
4.35504
4.31914
4.28256
4.24584
4.20893
4.17161
4.13459
4.09808
4.06141
4.02539
3.98991
3.95514
3.92116
3.88811
3.85615
3.82539
3.79596
3.768
3.74163
3.71702
3.69427
3.67352
3.65491
3.63854
3.62452
3.61297
3.604
3.59776
3.59418
3.59415
3.59447
3.59564
3.59829
3.60384
3.61177
3.62142
3.63198
3.64318
3.6546
3.66578
3.67637
3.68618
3.6949
3.70237
3.70876
3.71375
3.71757
3.72062
3.72316
3.72657
3.73396
6.34215
5.86042
5.44397
5.12546
4.90525
4.74412
4.60561
4.48171
4.37867
4.30277
4.25281
4.22718
4.21906
4.22036
4.22628
4.2411
4.2713
4.30751
4.34807
4.39134
4.43588
4.48031
4.52352
4.56439
4.60184
4.63508
4.66305
4.68651
4.70438
4.71752
4.72599
4.72901
4.72871
4.72738
4.72425
4.7179
4.70654
4.69061
4.67066
4.64782
4.62307
4.59691
4.56966
4.54112
4.51125
4.48032
4.44807
4.41427
4.38071
4.34598
4.30935
4.2735
4.23733
4.20073
4.16399
4.12774
4.09121
4.05488
4.01998
3.98501
3.95073
3.91732
3.88481
3.85343
3.82325
3.79438
3.76697
3.74115
3.71702
3.69474
3.67442
3.65623
3.64028
3.62661
3.61535
3.60665
3.60061
3.59717
3.59712
3.59746
3.5986
3.60128
3.60682
3.61444
3.62333
3.63324
3.64384
3.65475
3.66553
3.67574
3.68543
3.69391
3.70122
3.70733
3.71177
3.71588
3.71849
3.72122
3.72457
3.73206
6.57936
6.17379
5.79102
5.45694
5.19161
4.98684
4.81988
4.67668
4.55446
4.45609
4.38276
4.334
4.30495
4.2921
4.29233
4.29554
4.30571
4.32778
4.36098
4.3981
4.43677
4.47585
4.51469
4.55224
4.58726
4.61894
4.64632
4.6692
4.68732
4.70061
4.70932
4.71281
4.71247
4.71123
4.7083
4.70223
4.69157
4.67675
4.65771
4.63532
4.61052
4.58417
4.55676
4.52826
4.4987
4.46808
4.43614
4.40321
4.3694
4.33516
4.29992
4.26368
4.22796
4.19193
4.15581
4.11985
4.08416
4.04853
4.01333
3.97962
3.94626
3.9133
3.88156
3.85087
3.82139
3.79323
3.76649
3.74132
3.7178
3.69614
3.67639
3.65874
3.64332
3.63006
3.61918
3.61081
3.60511
3.60173
3.60167
3.60197
3.60302