/*--------------------------------*- C++ -*----------------------------------*\
| =========                 |                                                 |
| \\      /  F ield         | OpenFOAM: The Open Source CFD Toolbox           |
|  \\    /   O peration     | Version:  2412                                  |
|   \\  /    A nd           | Website:  www.openfoam.com                      |
|    \\/     M anipulation  |                                                 |
\*---------------------------------------------------------------------------*/
FoamFile
{
    version     2.0;
    format      ascii;
    arch        "LSB;label=32;scalar=64";
    class       surfaceScalarField;
    location    "7.5";
    object      phi;
}
// * * * * * * * * * * * * * * * * * * * * * * * * * * * * * * * * * * * * * //

dimensions      [1 0 -1 0 0 0 0];

oriented        oriented;

internalField   nonuniform List<scalar> 
13790
(
0.00290511
6.22459e-09
0.00290447
-2.87524e-09
0.0029058
2.24565e-08
0.00290153
3.10934e-08
0.00291965
2.74768e-07
0.00285184
2.90599e-06
0.00302154
-1.95058e-06
0.00301619
-1.13093e-05
0.0029515
1.274e-05
0.00290549
-2.22731e-05
0.00244831
0.000145044
0.00232379
0.000139545
0.00225054
8.73859e-05
0.00220322
5.5123e-05
0.00218225
3.05936e-05
0.00215007
1.60292e-05
0.00212744
1.01712e-05
0.00212985
1.02808e-05
0.0021444
1.54e-05
0.00217234
2.26219e-05
0.00221017
2.92504e-05
0.00222351
3.5566e-05
0.00221438
4.04625e-05
0.00218701
4.43484e-05
0.00214596
4.75548e-05
0.00209486
5.03762e-05
0.00203219
5.31115e-05
0.00194687
5.57087e-05
0.0018579
5.85333e-05
0.00177568
6.21686e-05
0.00170261
6.69067e-05
0.00163532
7.2601e-05
0.00157146
7.85803e-05
0.0015136
8.48565e-05
0.00144449
9.04901e-05
0.0013646
9.43514e-05
0.00127672
9.65708e-05
0.00118366
9.76989e-05
0.00108673
9.81086e-05
0.000989472
9.8403e-05
0.000891151
9.92772e-05
0.000790799
0.000100931
0.000687025
0.0001031
0.000585151
0.000106071
0.000484468
0.000110088
0.000383796
0.000114393
0.000282649
0.000119612
0.000181372
0.00012507
8.30708e-05
0.000124786
0.000111591
0.00301306
5.29466e-09
0.00301248
-3.87451e-09
0.003014
1.43111e-08
0.00301072
-1.85515e-08
0.00301849
2.44598e-07
0.00301537
-2.45379e-06
0.00304187
6.57303e-06
0.00321751
2.07975e-05
0.0030918
-4.0028e-06
0.00297172
1.76113e-05
0.00256184
0.000190109
0.00249728
0.000220075
0.00245444
0.00015292
0.00241888
0.000101436
0.00238941
6.81816e-05
0.00233102
4.97667e-05
0.00227925
4.32664e-05
0.00225686
4.37948e-05
0.00225297
4.939e-05
0.00226824
5.74541e-05
0.00229993
6.69422e-05
0.0023105
7.59734e-05
0.00230005
8.38183e-05
0.00227178
9.06754e-05
0.00222957
9.67698e-05
0.00217695
0.000102473
0.00211246
0.000107945
0.00202454
0.000113105
0.00193293
0.000118014
0.00184918
0.000124629
0.00177626
0.000133039
0.00171084
0.000143406
0.00165057
0.000154361
0.00159758
0.000167172
0.00153211
0.000179412
0.00145283
0.000189207
0.00136207
0.000196489
0.00126258
0.000201745
0.00115653
0.000204991
0.00104863
0.000207393
0.000939114
0.000209681
0.000828126
0.000212155
0.000715317
0.000214989
0.000606314
0.000219394
0.000500231
0.00022593
0.000395467
0.000233459
0.000291968
0.000242266
0.000190753
0.000250979
9.21105e-05
0.000250936
0.000233275
0.00312499
1.06012e-08
0.0031249
-1.89832e-09
0.00312571
1.00262e-08
0.00312068
4.74029e-08
0.00314143
-3.93207e-08
0.00307164
3.0979e-06
0.00327735
-5.10633e-06
0.00345118
-1.86355e-05
0.00322043
3.01889e-05
0.00313802
1.50799e-05
0.00267227
0.000293942
0.00261459
0.000296938
0.00257133
0.000213076
0.0025338
0.000148203
0.00250288
0.000107335
0.00244199
8.59095e-05
0.00238636
7.93395e-05
0.00235972
8.15853e-05
0.00235001
8.99406e-05
0.0023575
0.000101342
0.00237927
0.000115858
0.00237823
0.000128898
0.00235657
0.00013891
0.00231914
0.000146257
0.00227102
0.000151746
0.00221579
0.000156778
0.00215109
0.000162113
0.00206437
0.000167904
0.00197529
0.000174982
0.00189418
0.000184888
0.00182342
0.000197956
0.00175922
0.000213854
0.00170062
0.000230853
0.00164845
0.000250405
0.00158268
0.000268936
0.00150292
0.000284493
0.00141168
0.000296846
0.00131126
0.000306476
0.00120371
0.000313209
0.00109361
0.00031858
0.000980881
0.000323289
0.000865652
0.000327563
0.000747836
0.000331853
0.000633647
0.000338084
0.000522524
0.000347197
0.000413161
0.000357693
0.000305822
0.000369461
0.000201676
0.000380725
9.9467e-05
0.000381727
0.000363418
0.00324109
-2.9557e-09
0.00324109
5.04477e-09
0.0032415
9.43413e-08
0.00323861
1.67494e-07
0.00324541
8.3587e-07
0.00324263
-1.33519e-06
0.0032657
9.36991e-06
0.00346251
1.81722e-05
0.00332626
1.14013e-05
0.00322296
3.19319e-05
0.00275066
0.000375065
0.00267699
0.000381533
0.00263855
0.00027265
0.00260342
0.000194714
0.00257461
0.000147565
0.00251661
0.000122418
0.00246063
0.000116084
0.00243401
0.000120575
0.00242378
0.000132217
0.00243337
0.000147862
0.00245749
0.000166477
0.00245711
0.000182386
0.00243572
0.00019352
0.00239887
0.000200561
0.00235193
0.000205237
0.00229778
0.00020967
0.00223354
0.000215601
0.00214585
0.000223382
0.00205419
0.000233521
0.00196985
0.000247657
0.00189576
0.000266231
0.00182811
0.000288368
0.00176673
0.000312251
0.0017108
0.00033826
0.0016405
0.000362929
0.00155664
0.000383744
0.00146216
0.000400454
0.00135901
0.000413768
0.0012492
0.000423601
0.00113704
0.000431814
0.00102199
0.000439237
0.000903797
0.000446084
0.000782101
0.000452636
0.000663578
0.000461313
0.000547855
0.00047349
0.000433825
0.000487202
0.000322051
0.000501796
0.000213599
0.000515733
0.000106263
0.000518772
0.000501482
0.00336154
1.09157e-08
0.00336147
-3.89419e-08
0.00336245
-4.149e-08
0.0033581
1.80069e-07
0.00337979
-1.46027e-06
0.00331165
3.73219e-07
0.00350899
-8.88801e-06
0.00366036
-2.06502e-05
0.00347664
4.40308e-05
0.0033666
7.02372e-05
0.00288458
0.000439439
0.00279656
0.000481771
0.00274303
0.000345643
0.00270263
0.000247652
0.00267371
0.000189537
0.00261738
0.000159329
0.00256492
0.000152333
0.00254103
0.000158427
0.00253258
0.000173468
0.00254425
0.000192996
0.00257097
0.000215012
0.00257359
0.000234008
0.00255463
0.000247119
0.00251873
0.000255314
0.00247044
0.00026083
0.00241297
0.000266294
0.00234415
0.00027398
0.00225014
0.000284591
0.00215108
0.000297473
0.00206007
0.000315787
0.00198044
0.000339449
0.00190818
0.000367458
0.00184318
0.000397692
0.00178461
0.000430282
0.00171112
0.000461143
0.00162337
0.000487284
0.00152464
0.000508369
0.00141703
0.00052527
0.00130282
0.000538123
0.00118651
0.000549125
0.00106735
0.000559254
0.000945042
0.000568798
0.000818834
0.000577909
0.000695681
0.000589317
0.000575252
0.000604869
0.000456371
0.000622146
0.0003396
0.000639841
0.000226027
0.000656842
0.000112916
0.00066267
0.000647318
0.00348654
-5.93149e-09
0.00348629
-1.33082e-08
0.0034862
1.51942e-08
0.00348652
-5.80108e-08
0.00348744
3.64717e-07
0.00347749
-7.85948e-07
0.00350559
6.48607e-06
0.00364501
-2.24208e-06
0.00350089
2.8651e-05
0.00345346
5.90708e-05
0.00297999
0.00049339
0.00293096
0.000544815
0.0029039
0.000404039
0.00287831
0.000294447
0.00285212
0.000233638
0.00278487
0.000205318
0.00271446
0.000200808
0.00267501
0.000209353
0.00265485
0.000225969
0.00265892
0.000246082
0.00268186
0.000269867
0.00268208
0.000290601
0.00266101
0.000304873
0.0026227
0.000313761
0.00257163
0.000319693
0.00251133
0.000325839
0.00243947
0.000334807
0.00234186
0.000347492
0.00224004
0.000363156
0.00214668
0.00038555
0.002065
0.000414396
0.00199085
0.000448478
0.00192396
0.000485209
0.00186422
0.000524806
0.00178884
0.000562343
0.00169824
0.00059432
0.00159581
0.00062023
0.00148382
0.000641195
0.0013646
0.0006574
0.00124315
0.000671447
0.00111874
0.000684461
0.000991237
0.00069675
0.000859685
0.000708485
0.000731235
0.000722771
0.000605539
0.000741919
0.000481362
0.000763015
0.000358913
0.000784302
0.000239236
0.000805004
0.000119973
0.000813835
0.000801399
0.00361612
-1.30327e-08
0.00361582
5.34498e-08
0.00361593
-3.29907e-08
0.0036141
2.13129e-07
0.00362222
-7.45826e-07
0.00359632
5.88951e-08
0.00373924
-8.31329e-06
0.00355455
-9.57491e-06
0.00363468
3.40317e-05
0.00369019
3.67683e-05
0.00311614
0.00058675
0.00304455
0.000625539
0.00301318
0.000470044
0.00298721
0.000346491
0.00295923
0.00028144
0.00288953
0.000254543
0.00281876
0.000251586
0.00277849
0.000261903
0.00275702
0.000280007
0.00276199
0.000300448
0.00278718
0.000326224
0.00278908
0.000348398
0.00276896
0.000363505
0.0027308
0.000372916
0.00267918
0.000379412
0.00261748
0.00038669
0.00254288
0.000397457
0.00244117
0.000412321
0.00233594
0.000431192
0.00223951
0.000457715
0.00215515
0.000491775
0.00207869
0.000531967
0.00200964
0.000575218
0.0019487
0.000621976
0.00187164
0.000666528
0.00177849
0.000704615
0.00167271
0.000735705
0.00155674
0.00076112
0.0014328
0.000781021
0.00130639
0.000798521
0.00117671
0.000814864
0.00104373
0.000830231
0.000906353
0.000844912
0.000771972
0.000862347
0.000640277
0.000885415
0.000509831
0.000910884
0.000380806
0.000936106
0.000254481
0.000960832
0.000127565
0.000973935
0.000964268
0.00375027
2.16991e-08
0.00375038
3.51241e-09
0.00375038
2.94356e-09
0.00374983
-9.51883e-08
0.00375197
-3.67425e-07
0.00374973
-5.38794e-07
0.00378221
-1.68747e-06
0.00392787
-8.49279e-06
0.00375804
3.0952e-05
0.00368612
5.7017e-05
0.0032338
0.000589867
0.00317517
0.000687852
0.00314567
0.000543081
0.00312498
0.000404374
0.00309586
0.000334998
0.00301952
0.000310407
0.00294152
0.000308702
0.0028959
0.000319712
0.0028701
0.000338081
0.00287579
0.000358139
0.00290232
0.000384962
0.00290452
0.000407457
0.00288411
0.000422637
0.00284517
0.000432293
0.00279259
0.000439482
0.00272933
0.000448274
0.00265206
0.00046149
0.00254639
0.000479191
0.00243741
0.000501503
0.00233754
0.000532379
0.00225024
0.000571732
0.00217126
0.00061803
0.00209999
0.000667784
0.00203788
0.000721816
0.00195918
0.00077343
0.00186369
0.000817767
0.00175495
0.000854259
0.00163557
0.000884389
0.00150748
0.000908342
0.0013767
0.000929679
0.00124224
0.000949965
0.00110403
0.000969246
0.000960549
0.000987596
0.0008196
0.00100872
0.000681047
0.00103625
0.000543437
0.00106665
0.00040657
0.0010965
0.000271751
0.00112621
0.000136535
0.00114354
0.00113741
0.00388977
1.05217e-08
0.00388853
-1.69625e-08
0.00388936
-8.40526e-09
0.00388586
4.44196e-08
0.00389344
-2.11781e-07
0.00388254
-5.09984e-07
0.0038958
-8.09337e-07
0.00410011
-1.74379e-05
0.0038697
4.25093e-05
0.00381679
6.09346e-05
0.00331734
0.00062953
0.00323792
0.000761934
0.00322084
0.000611524
0.00321736
0.000455949
0.00319543
0.000384545
0.00312466
0.00036264
0.00305249
0.000360658
0.00301265
0.000372563
0.00298921
0.000393412
0.00299822
0.000415565
0.00302431
0.0004459
0.00302432
0.00046983
0.00300069
0.000485531
0.00295829
0.000495259
0.00290244
0.000502584
0.00283645
0.000512117
0.00275687
0.000527061
0.00264834
0.000547178
0.002537
0.000572673
0.00243539
0.000607913
0.00234681
0.000652735
0.00226674
0.000705364
0.00219443
0.000761889
0.00213192
0.000823401
0.00205221
0.000882304
0.00195505
0.000933156
0.00184404
0.000975331
0.00172197
0.00101051
0.00159028
0.00103897
0.00145553
0.00106459
0.00131673
0.00108948
0.0011736
0.00111368
0.0010239
0.00113694
0.000875692
0.00116258
0.000729226
0.00119546
0.00058307
0.00123157
0.000437045
0.00126684
0.000292816
0.00130204
0.000146948
0.00132507
0.00132216
0.00403417
-1.39946e-08
0.00403449
-2.79959e-08
0.00403414
4.15674e-08
0.00403558
4.97098e-08
0.0040324
3.79247e-07
0.00402471
4.87352e-07
0.00401335
3.28096e-06
0.00401344
8.90741e-06
0.00395636
3.32888e-05
0.00379891
6.03393e-05
0.00347321
0.000639875
0.00339286
0.000826007
0.00336928
0.000687563
0.00337528
0.000508903
0.00335207
0.000437652
0.00327349
0.000420914
0.00319552
0.00041665
0.00315217
0.00042942
0.00312395
0.000452843
0.00313227
0.000478658
0.00315182
0.000511971
0.00314486
0.000537444
0.00311526
0.000553255
0.0030683
0.000562206
0.00300904
0.000568474
0.0029409
0.000577468
0.0028603
0.000593075
0.00275065
0.000615114
0.00263858
0.000643542
0.00253666
0.000683226
0.002448
0.000733787
0.00236785
0.000793064
0.00229544
0.000856731
0.00223345
0.000925955
0.00215359
0.000992428
0.00205547
0.00105012
0.00194274
0.00109839
0.00181851
0.001139
0.00168368
0.00117262
0.0015452
0.00120311
0.00140214
0.00123337
0.00125403
0.00126345
0.00109804
0.00129292
0.000941902
0.00132448
0.000786605
0.00136388
0.000630827
0.00140683
0.000473926
0.00144891
0.000317561
0.00149104
0.000159791
0.00151966
0.00152106
0.00418422
-1.0968e-08
0.00418387
4.4315e-08
0.00418442
1.03495e-09
0.00418509
5.53204e-08
0.00418079
7.70319e-07
0.00417792
3.21431e-06
0.00415997
5.17538e-06
0.00430707
-3.21521e-06
0.00415651
3.98313e-05
0.00411021
7.22856e-05
0.0036798
0.000584641
0.00358888
0.000884901
0.00355307
0.000767976
0.00356549
0.000568771
0.00353351
0.000499011
0.00343602
0.000486045
0.00335167
0.000478464
0.00330318
0.000491732
0.00326915
0.000516582
0.00327701
0.000545412
0.0032927
0.000581262
0.0032823
0.000608213
0.00324943
0.000624272
0.0031994
0.000632362
0.00313706
0.000637387
0.00306595
0.000645602
0.0029823
0.000661506
0.00286917
0.000684981
0.00275462
0.000715976
0.00265113
0.000759958
0.00256136
0.000816147
0.00248032
0.000881992
0.00240699
0.00095265
0.00234513
0.00102942
0.00226527
0.00110351
0.00216676
0.00116833
0.00205287
0.00122309
0.00192708
0.00126961
0.00178944
0.00130903
0.00164731
0.00134499
0.00149994
0.00138145
0.00134678
0.00141858
0.00118472
0.00145576
0.00101989
0.00149483
0.000854902
0.00154239
0.00068781
0.00159424
0.000518392
0.00164438
0.000348574
0.00169445
0.000175218
0.00173105
0.00173673
0.00433947
4.89088e-09
0.0043395
2.59912e-09
0.00433927
1.32405e-08
0.00434077
5.90779e-08
0.00434303
-1.6839e-07
0.00432277
6.09072e-07
0.00433697
5.19775e-07
0.00440193
3.85004e-06
0.00429372
2.75218e-05
0.00445982
4.21373e-05
0.00397156
0.000514842
0.00383466
0.00093982
0.00376695
0.000847374
0.00376366
0.000642394
0.00371595
0.000568856
0.0036083
0.000554467
0.00351499
0.000545122
0.00346016
0.000558301
0.00342001
0.000584441
0.00342681
0.00061563
0.00343911
0.000654559
0.0034257
0.000682283
0.00339017
0.000697968
0.00333782
0.000704664
0.00327344
0.000708021
0.00320046
0.000715184
0.00311446
0.000731183
0.00299821
0.000755591
0.0028818
0.000789046
0.00277718
0.000837241
0.00268667
0.000899056
0.00260507
0.000971527
0.00253109
0.00104924
0.0024697
0.00113361
0.00239039
0.00121546
0.00229194
0.00128754
0.00217712
0.00134908
0.00204992
0.00140197
0.00190972
0.0014478
0.00176411
0.00148997
0.00161259
0.00153354
0.00145443
0.00157892
0.00128622
0.00162545
0.00111239
0.00167396
0.000937005
0.00173156
0.000757576
0.00179466
0.000573017
0.0018558
0.000385921
0.00191618
0.000194926
0.00196129
0.00197329
0.00450076
1.06902e-09
0.00450034
1.35122e-08
0.00450056
1.9225e-08
0.00450223
-6.94952e-09
0.00449815
3.27436e-07
0.00451185
4.14664e-07
0.00450263
1.79477e-06
0.00467869
-4.76509e-06
0.00450681
2.68047e-05
0.00438974
4.90104e-05
0.00422741
0.000412735
0.00402926
0.00102055
0.00395659
0.000893164
0.0039565
0.000709503
0.00390593
0.000636526
0.00378978
0.000619083
0.00368771
0.000611372
0.00362659
0.000627979
0.00358003
0.000657164
0.00358523
0.00069243
0.00359071
0.000733063
0.00357131
0.000760501
0.00353112
0.000774508
0.00347568
0.000778475
0.00340961
0.000778929
0.00333581
0.000784103
0.0032487
0.000799542
0.00313104
0.000824546
0.00301476
0.000860507
0.00291088
0.000913176
0.00282132
0.000980906
0.00274061
0.00106028
0.00266733
0.00114536
0.00260756
0.00123753
0.00252942
0.0013274
0.00243171
0.00140697
0.0023168
0.0014757
0.00218893
0.00153534
0.00204688
0.00158832
0.00189801
0.00163743
0.00174263
0.0016892
0.00157947
0.00174393
0.00140534
0.00180189
0.00122227
0.00186224
0.0010356
0.00193215
0.000842333
0.00200937
0.000640985
0.0020845
0.000433926
0.00215871
0.000219095
0.00221672
0.00223537
0.00466794
5.04452e-09
0.00466782
-6.71677e-09
0.00466768
5.98924e-08
0.00466875
2.23758e-08
0.00467081
9.68269e-08
0.00464739
1.30108e-06
0.00466838
-8.53019e-08
0.00472163
6.06558e-06
0.0046252
2.6982e-05
0.00485997
2.60429e-05
0.0045352
0.000366852
0.00423672
0.0010401
0.00421164
0.000918984
0.00417989
0.000775526
0.00411051
0.000700577
0.00397706
0.000682647
0.00386505
0.000680401
0.00379733
0.000702447
0.00374506
0.000735621
0.00374743
0.000775693
0.0037445
0.00081712
0.00371887
0.000842955
0.00367431
0.000853567
0.0036164
0.00085321
0.0035495
0.000849366
0.00347597
0.000851477
0.00338911
0.000865715
0.00327158
0.000890916
0.00315678
0.000929369
0.00305492
0.00098672
0.00296747
0.00106063
0.00288875
0.0011471
0.00281712
0.00123972
0.00276044
0.00133998
0.00268502
0.00143832
0.00258907
0.00152587
0.00247471
0.00160213
0.00234637
0.00166898
0.00220329
0.00172941
0.0020521
0.00178663
0.00189377
0.00184764
0.00172619
0.00191309
0.00154674
0.00198477
0.00135467
0.00205963
0.00115617
0.00214517
0.000947582
0.00224053
0.00072633
0.00233433
0.000494604
0.00242666
0.000251762
0.00250115
0.00253145
0.00484156
8.07616e-09
0.00484057
3.52808e-08
0.00484178
2.96163e-08
0.004837
1.53087e-07
0.00483612
3.60585e-07
0.00485906
4.51625e-08
0.00482275
3.28753e-06
0.00501474
-8.00335e-07
0.0048508
2.22757e-05
0.00469093
5.49875e-05
0.00464972
0.000323516
0.00437905
0.00105631
0.00434829
0.000964902
0.00432509
0.000818828
0.00425571
0.000749569
0.00412476
0.000736436
0.00401979
0.000741956
0.00395602
0.000772736
0.00390912
0.00081232
0.00391705
0.000860184
0.0039127
0.000903174
0.00388458
0.000927041
0.0038378
0.000933513
0.00377859
0.000927871
0.00371128
0.000919157
0.00363727
0.000918008
0.00354753
0.00093084
0.00342797
0.00095558
0.00331409
0.000996697
0.00321382
0.00105875
0.003128
0.0011387
0.00305107
0.00123211
0.00298114
0.00133195
0.00292808
0.00143991
0.00285659
0.00154676
0.00276404
0.00164259
0.00265202
0.00172691
0.00252458
0.00180147
0.00238226
0.00187027
0.00222973
0.0019364
0.00206967
0.00200728
0.00189932
0.00208498
0.00171504
0.00217261
0.00151548
0.00226543
0.00130529
0.00237003
0.00108044
0.00248841
0.000836503
0.00260768
0.000575274
0.00272527
0.000294127
0.00282476
0.00287077
0.00502125
1.68361e-08
0.00502135
2.22516e-08
0.00502105
6.83716e-08
0.00502113
1.31476e-07
0.0050201
2.7937e-07
0.00503133
1.46939e-06
0.00500334
1.20818e-06
0.00519731
4.867e-06
0.00502671
2.20113e-05
0.00516626
1.80622e-05
0.00493247
0.000324932
0.00460076
0.00104172
0.00456903
0.00100795
0.00453605
0.00087028
0.00444995
0.000804913
0.00430822
0.000795405
0.00420052
0.000809542
0.00413284
0.000848449
0.00408912
0.00089367
0.00409823
0.000947765
0.00409104
0.000990804
0.00406032
0.00101116
0.00401153
0.00101183
0.00395096
0.0010004
0.00388361
0.000986542
0.0038096
0.000982133
0.00371741
0.000993787
0.0035969
0.00101853
0.00348434
0.00106246
0.00338619
0.00112901
0.00330293
0.00121466
0.00322854
0.0013146
0.00316099
0.00142141
0.00311247
0.00153676
0.00304619
0.00165193
0.00295831
0.00175584
0.00285017
0.0018483
0.00272542
0.00193103
0.00258588
0.00200878
0.00243376
0.00208461
0.00227415
0.00216532
0.00210275
0.00225801
0.00191626
0.00236311
0.00171118
0.0024775
0.00149037
0.00260525
0.00124999
0.00275233
0.000982047
0.00290536
0.000684429
0.00306075
0.000355838
0.00319752
0.00327275
0.0052078
2.48812e-08
0.0052075
3.80137e-08
0.00520739
1.50079e-07
0.00520803
2.46487e-07
0.00520487
4.83655e-07
0.0052211
1.02618e-06
0.00520443
1.60744e-06
0.00538734
2.61606e-06
0.0052185
2.13403e-05
0.00513336
2.61405e-05
0.00505889
0.000286364
0.00478003
0.00102962
0.00476634
0.00103295
0.0047359
0.000907237
0.00463923
0.000853975
0.00449716
0.000854074
0.00439329
0.000880193
0.00432246
0.000929587
0.00428143
0.000980304
0.00428669
0.00104097
0.00427501
0.00108199
0.00424065
0.00109659
0.00418968
0.00108981
0.00412733
0.00107124
0.00405983
0.00105153
0.00398665
0.00104339
0.00389374
0.00105336
0.00377494
0.0010784
0.00366568
0.00112525
0.0035706
0.00119622
0.00349027
0.00128733
0.00341908
0.00139338
0.00335491
0.00150649
0.00331214
0.00162866
0.00325258
0.00175179
0.00317124
0.00186371
0.00306904
0.00196428
0.00294934
0.00205541
0.00281526
0.00214222
0.00266812
0.00222694
0.00251027
0.00232088
0.00234093
0.00242884
0.00215658
0.00255231
0.00195142
0.00269154
0.00172379
0.00284797
0.00147006
0.00303033
0.00117868
0.00322798
0.000841523
0.00343549
0.000445785
0.00363674
0.00376513
0.0054013
1.99677e-08
0.00540203
3.9962e-08
0.00540056
1.70283e-07
0.00540427
8.92349e-08
0.00539668
9.54091e-07
0.00541268
6.04026e-07
0.00538425
3.82406e-06
0.00555356
-1.81221e-06
0.00541252
2.31846e-05
0.00527424
1.26506e-05
0.00521604
0.000280848
0.00498348
0.00101675
0.00498043
0.00106054
0.00493851
0.000945165
0.00482264
0.000900239
0.00468663
0.000912419
0.00459343
0.000952956
0.00452293
0.00101343
0.0044956
0.00107534
0.00449564
0.00113994
0.00447321
0.00117682
0.00443119
0.00118347
0.00437437
0.00116746
0.00430924
0.00114002
0.00424157
0.00111389
0.00417002
0.00110116
0.00407811
0.00110868
0.0039628
0.0011339
0.00385857
0.00118365
0.00376866
0.001259
0.00369313
0.00135555
0.00362609
0.00146761
0.00356598
0.00158663
0.00352958
0.00171531
0.00347795
0.00184584
0.00340481
0.00196513
0.0033108
0.00207324
0.00319908
0.00217215
0.00307451
0.00226632
0.0029324
0.00236306
0.00278022
0.00246973
0.00261928
0.00259104
0.00244413
0.00273401
0.00224582
0.00289978
0.00202056
0.00308848
0.00176239
0.0033126
0.00145243
0.00356935
0.00107298
0.00385389
0.000598564
0.00415475
0.00441079
0.00560209
4.19085e-08
0.00560216
1.0127e-08
0.00560198
1.74071e-08
0.00560255
1.33023e-07
0.00559691
1.23832e-07
0.00560954
7.21422e-07
0.00560538
2.16095e-06
0.00538749
7.03005e-06
0.00561816
1.9901e-05
0.00506547
6.29654e-05
0.00547906
0.0002496
0.00519344
0.000977466
0.00518796
0.0010757
0.0051341
0.000977674
0.00500986
0.000943241
0.00488458
0.00097156
0.00479779
0.00102877
0.00472712
0.0011011
0.00470789
0.00117665
0.00469854
0.00124187
0.00466941
0.00127187
0.00462382
0.00126877
0.00456586
0.00124174
0.00450179
0.00120434
0.00443688
0.00117113
0.00436924
0.00115419
0.0042805
0.00115976
0.00416885
0.0011851
0.00406958
0.0012376
0.00398468
0.00131708
0.00391431
0.00141852
0.00385209
0.00153584
0.00379831
0.00166032
0.00377038
0.00179527
0.00372696
0.00193212
0.00366229
0.00205765
0.00357874
0.00217161
0.00347811
0.00227657
0.00336165
0.00238107
0.00322948
0.00248777
0.00309056
0.00260344
0.00294374
0.00273812
0.00278581
0.00289894
0.0026049
0.00309077
0.00239545
0.00331341
0.00214986
0.00358127
0.00184614
0.00390414
0.00144509
0.00429189
0.000878082
0.00476465
0.00533537
0.00580984
1.89495e-08
0.00581089
-2.79178e-08
0.00580928
3.04796e-08
0.00581037
-4.19956e-08
0.00581438
6.11568e-09
0.00577519
-2.81239e-08
0.00577376
2.41053e-06
0.00591485
-8.88331e-08
0.0058078
2.2117e-05
0.00608181
2.75599e-05
0.00576584
0.000277077
0.00538025
0.000968008
0.00536637
0.00106977
0.00530376
0.000988328
0.00518809
0.000975337
0.00508641
0.00102842
0.00501395
0.00110526
0.00495263
0.00119463
0.00493601
0.00128193
0.00491403
0.00134341
0.00487953
0.00136407
0.0048321
0.00134894
0.00477581
0.00130913
0.00471586
0.00126156
0.00465692
0.0012219
0.00459378
0.00120204
0.00450707
0.00120659
0.0043992
0.00123269
0.00430379
0.00128818
0.00422225
0.00137134
0.00415539
0.00147691
0.00409681
0.00159855
0.00404846
0.001727
0.00402849
0.00186679
0.00399514
0.00200817
0.00394383
0.00213697
0.00387278
0.00225672
0.0037815
0.00237087
0.00367755
0.00248077
0.00356299
0.00259301
0.0034424
0.00271742
0.00331727
0.0028624
0.00318729
0.00303655
0.00304026
0.0032483
0.00286951
0.0035003
0.00266832
0.00380674
0.00241093
0.00419179
0.00205096
0.00468856
0.00148743
0.00537032
0.00686885
0.00839934
9.01385e-09
0.00840027
-6.62191e-08
0.00839806
3.74e-08
0.00840269
-4.36597e-07
0.00840554
2.76341e-07
0.00835274
-1.19058e-06
0.00843662
8.24992e-07
0.00820092
3.65513e-07
0.0084228
1.76378e-05
0.00768435
4.56305e-05
0.00840298
0.000225534
0.00790087
0.0008571
0.00782179
0.00110279
0.0076837
0.00106379
0.00752935
0.0010751
0.00740423
0.00113393
0.00730364
0.00123054
0.00722803
0.00133564
0.00720417
0.00142663
0.00717522
0.00147339
0.00713289
0.00147463
0.00707532
0.00143777
0.00700901
0.00138023
0.00693954
0.00132159
0.00687248
0.00127759
0.00679416
0.00125699
0.00667668
0.00126277
0.00653545
0.00129226
0.00640996
0.00135166
0.00630499
0.00143878
0.00622165
0.00154871
0.0061497
0.00167416
0.0060975
0.00180598
0.00608892
0.00194972
0.00606663
0.00209198
0.00601623
0.00222661
0.00594136
0.0023502
0.00585121
0.00246514
0.00574615
0.0025789
0.00563164
0.00269641
0.00551238
0.00282411
0.00539792
0.00297214
0.00529336
0.00314756
0.00519793
0.00336061
0.00510442
0.00361608
0.00502259
0.00392008
0.00498474
0.00427338
0.00505619
0.00466612
0.00546216
0.00501505
0.0048987
0.00747951
0.00839992
1.40052e-09
0.00840028
2.5053e-08
0.00839982
7.04729e-08
0.00840248
-2.52713e-08
0.0084009
9.83698e-08
0.00843398
-2.14975e-06
0.00832934
2.79484e-06
0.00856464
-1.52461e-06
0.00851574
2.13994e-05
0.0077805
4.73981e-05
0.00848646
0.000228991
0.00787218
0.000806385
0.00776322
0.00112761
0.00761196
0.00112928
0.00748746
0.00114814
0.00739375
0.00122371
0.0073283
0.00134048
0.00730641
0.00146039
0.00728857
0.00154021
0.00726317
0.00156518
0.00722511
0.00154404
0.00717635
0.00148831
0.00712404
0.00142018
0.00707314
0.00135887
0.00702079
0.00131628
0.00695438
0.00129964
0.00684814
0.00131028
0.00672082
0.0013455
0.00660496
0.00140812
0.00651167
0.00149748
0.00644033
0.00160859
0.00638053
0.00173385
0.00635235
0.00186575
0.00636422
0.00200907
0.00635872
0.00215358
0.00633204
0.00228656
0.00628986
0.0024068
0.00623658
0.00251954
0.00617678
0.00263108
0.00611253
0.00274561
0.00605238
0.00286849
0.00600624
0.00300774
0.00598389
0.00316906
0.00599745
0.00335728
0.00605802
0.00357624
0.00618627
0.00381695
0.00641728
0.00407457
0.00683306
0.00429055
0.00744649
0.00444437
0.00414251
0.00823731
0.00840038
1.07791e-09
0.00839984
7.48176e-08
0.00839934
1.37218e-07
0.00839938
5.63888e-07
0.00839091
1.01186e-06
0.00840175
2.59935e-06
0.00836319
5.53609e-06
0.00883418
1.32e-05
0.00842871
2.51834e-05
0.00807781
5.37928e-05
0.00795148
0.000142232
0.00756238
0.000573404
0.00762325
0.00109161
0.00754732
0.00122676
0.00746096
0.0012239
0.00737276
0.00131831
0.00732906
0.00144976
0.00732255
0.0015567
0.00732708
0.00161464
0.0073292
0.00161496
0.00731934
0.00157164
0.00729727
0.00150525
0.00727108
0.00143511
0.00723911
0.00137795
0.00720152
0.00134381
0.00714805
0.00133632
0.00704883
0.00135559
0.0069239
0.00139519
0.00681298
0.00146051
0.00672358
0.00155047
0.00665844
0.00166026
0.00660708
0.0017825
0.00658929
0.00191076
0.00661659
0.00205031
0.00663275
0.00218885
0.00663629
0.00231469
0.00662702
0.002429
0.00661197
0.00253496
0.00659663
0.00263818
0.0065834
0.00274294
0.0065807
0.00285413
0.00660026
0.00297604
0.00665123
0.00311454
0.00675055
0.00326555
0.00690855
0.00343628
0.00714844
0.00360431
0.00748327
0.00377257
0.00791217
0.00389302
0.00845404
0.00393596
0.00376088
0.00886739
0.00840036
1.2188e-09
0.0083998
7.76958e-08
0.00840052
1.43304e-07
0.00839795
5.19639e-07
0.00839913
9.88222e-07
0.00837411
3.22208e-06
0.00836871
4.64018e-06
0.00833744
1.10343e-05
0.00828114
1.76631e-05
0.0082187
3.15437e-05
0.00817089
0.000105629
0.00775727
0.000418459
0.00767957
0.00114368
0.0075229
0.00137369
0.00743385
0.00135165
0.00737427
0.00144159
0.00735776
0.00155371
0.00737486
0.00162437
0.00740706
0.00164821
0.00744176
0.00162128
0.00746728
0.00156229
0.00748095
0.00149493
0.00747928
0.00143258
0.0074655
0.00138767
0.00743798
0.00136771
0.00738989
0.00137424
0.00728783
0.00140474
0.00715385
0.0014508
0.007038
0.0015169
0.00694841
0.00160533
0.00688573
0.00171104
0.00683813
0.0018275
0.00682892
0.00194746
0.00686687
0.00207638
0.0069024
0.002202
0.00693155
0.00231648
0.00695361
0.00241994
0.00697337
0.00251456
0.00699631
0.00260524
0.00702863
0.00269525
0.00707556
0.00279088
0.00714886
0.00289101
0.00725456
0.00300393
0.00740552
0.00311953
0.00761234
0.00324408
0.00787627
0.00336075
0.00821467
0.0034622
0.00861134
0.00352903
0.00907211
0.00350701
0.00342646
0.00943425
0.00840002
-1.36652e-09
0.00839958
1.33266e-08
0.00840014
1.17184e-08
0.00839789
2.03823e-07
0.0083978
2.63039e-07
0.00839713
1.5701e-06
0.0083842
1.0962e-06
0.0083522
3.61066e-06
0.00832895
9.41431e-06
0.00835562
-8.54195e-06
0.00829175
0.000118972
0.00801379
0.000290092
0.00771521
0.00125999
0.00748736
0.00154772
0.00735474
0.00157419
0.00731257
0.00159433
0.00733837
0.00162748
0.00740837
0.00162877
0.00749662
0.00160548
0.00758915
0.00155708
0.0076716
0.00149801
0.00772814
0.00144505
0.00775943
0.00140674
0.00776289
0.00138873
0.00773885
0.0013947
0.00768663
0.00142194
0.00757354
0.00146637
0.00741917
0.0015192
0.00728315
0.00158617
0.00717788
0.0016702
0.00710465
0.00176684
0.00705207
0.00186981
0.00705078
0.00197584
0.00709405
0.00209033
0.00714357
0.00219795
0.00719436
0.00229532
0.00724439
0.00238289
0.00729677
0.0024618
0.00735471
0.00253731
0.00742551
0.00261022
0.00751222
0.00268851
0.00762436
0.00276732
0.00776692
0.00285558
0.00794351
0.00294296
0.00816613
0.00303114
0.00843278
0.00311103
0.00874364
0.00317285
0.00910193
0.00319607
0.00945308
0.00318406
0.00309346
0.00981084
0.00840011
-4.24297e-08
0.0084003
-5.70481e-08
0.00839988
-2.75572e-07
0.00839793
-4.15294e-07
0.00839689
-1.2561e-06
0.00839466
-1.18482e-06
0.00838625
-5.45397e-06
0.00835704
-3.76421e-06
0.00833753
7.26676e-06
0.00848652
-0.000133621
0.00822704
0.000320521
0.00811161
0.000104692
0.00751781
0.00157684
0.00732382
0.00180559
0.00730609
0.00173259
0.00736271
0.00163553
0.0074519
0.00158201
0.00757458
0.00152465
0.00771199
0.00147151
0.00783979
0.00141969
0.00795347
0.00138035
0.00804164
0.00136176
0.00809532
0.00136614
0.00810656
0.00139169
0.00807406
0.00143498
0.00800286
0.00149192
0.00786805
0.00155462
0.00768122
0.00161288
0.00751664
0.00167989
0.00738828
0.0017551
0.00729951
0.00183684
0.00724341
0.00191815
0.00725455
0.00200941
0.00730089
0.00210133
0.00736039
0.00218458
0.00742746
0.00225891
0.00749868
0.00232542
0.00757678
0.00238496
0.00766287
0.0024428
0.00776277
0.00249852
0.00787932
0.00255919
0.0080174
0.00262034
0.00818361
0.00268612
0.00837619
0.00275172
0.00860197
0.00281483
0.00886032
0.00286936
0.00914739
0.00290812
0.00945398
0.00291535
0.00976737
0.00289695
0.0028165
0.0100693
0.00839971
2.07428e-09