/*--------------------------------*- C++ -*----------------------------------*\
| =========                 |                                                 |
| \\      /  F ield         | OpenFOAM: The Open Source CFD Toolbox           |
|  \\    /   O peration     | Version:  2412                                  |
|   \\  /    A nd           | Website:  www.openfoam.com                      |
|    \\/     M anipulation  |                                                 |
\*---------------------------------------------------------------------------*/
FoamFile
{
    version     2.0;
    format      ascii;
    arch        "LSB;label=32;scalar=64";
    class       volScalarField;
    location    "7.5";
    object      T;
}
// * * * * * * * * * * * * * * * * * * * * * * * * * * * * * * * * * * * * * //

dimensions      [0 0 0 1 0 0 0];

internalField   nonuniform List<scalar> 
7000
(
1.00018
1.00071
1.00081
1.0039
1.00516
1.01676
1.0473
1.04188
1.63207
2.50774
2.63367
2.6428
2.62646
2.62064
2.62869
2.66157
2.72959
2.77799
2.79011
2.77864
2.73418
2.68925
2.66338
2.65118
2.6479
2.64856
2.65284
2.67125
2.70889
2.74181
2.76268
2.76833
2.76391
2.7417
2.71697
2.7029
2.69839
2.69892
2.70341
2.70585
2.70536
2.70585
2.71385
2.72145
2.7208
2.72232
2.72989
2.72823
2.73463
2.74233
1.00018
1.0007
1.00078
1.0036
1.00478
1.01452
1.05744
1.1608
1.56775
2.45682
2.63368
2.64144
2.61334
2.60187
2.61084
2.64847
2.72495
2.77535
2.78876
2.77867
2.7363
2.69081
2.6643
2.65152
2.64767
2.64819
2.65221
2.67021
2.70807
2.74161
2.76312
2.76916
2.76471
2.7416
2.71481
2.69971
2.69535
2.69628
2.70185
2.70477
2.70454
2.70558
2.71466
2.72216
2.72134
2.72252
2.72976
2.72791
2.73383
2.74186
1.00019
1.00067
1.00078
1.00365
1.00534
1.01435
1.05266
1.02565
1.61908
2.49427
2.63412
2.63816
2.60979
2.60096
2.61036
2.6477
2.7243
2.77516
2.78882
2.77899
2.73763
2.69318
2.66723
2.65474
2.65119
2.65181
2.65617
2.67503
2.71266
2.745
2.76479
2.76935
2.76343
2.73784
2.71155
2.69744
2.69386
2.69516
2.70129
2.70431
2.70415
2.70532
2.71457
2.7221
2.72127
2.72236
2.72956
2.72774
2.73318
2.74151
1.00016
1.00069
1.00085
1.00361
1.00482
1.01528
1.05714
1.15686
1.55407
2.44061
2.62743
2.64049
2.61833
2.60727
2.61582
2.65059
2.72619
2.77685
2.78972
2.77805
2.73275
2.68796
2.6634
2.65261
2.6505
2.65145
2.65601
2.67445
2.71189
2.74471
2.76454
2.76859
2.76134
2.73399
2.70885
2.69592
2.69302
2.69458
2.70101
2.70408
2.70388
2.7048
2.71369
2.72151
2.7208
2.72181
2.72912
2.72727
2.73189
2.74064
1.00017
1.00064
1.00081
1.00284
1.00461
1.01212
1.05429
1.03801
1.59571
2.45505
2.62718
2.63955
2.61813
2.60963
2.61886
2.65335
2.72626
2.77482
2.78714
2.77599
2.73279
2.68915
2.66445
2.65291
2.64981
2.65048
2.65452
2.67193
2.70939
2.74306
2.7636
2.76807
2.7611
2.7335
2.70723
2.69398
2.69125
2.69312
2.70021
2.70359
2.70346
2.70423
2.71263
2.72054
2.71994
2.72088
2.72844
2.72669
2.73052
2.74002
1.00014
1.00067
1.00099
1.00333
1.00583
1.01993
1.03981
1.07495
1.57759
2.44193
2.61857
2.638
2.61567
2.60185
2.61041
2.64527
2.72283
2.77491
2.78848
2.77783
2.73519
2.69103
2.66555
2.65333
2.64976
2.65033
2.65441
2.67231
2.70974
2.74297
2.76345
2.76809
2.76146
2.73409
2.70723
2.69346
2.69044
2.6922
2.69935
2.70301
2.70296
2.70365
2.71174
2.71962
2.71902
2.71984
2.72741
2.7257
2.72966
2.73879
1.00015
1.00067
1.00096
1.00317
1.00524
1.01499
1.03821
1.03257
1.56921
2.41649
2.61211
2.63764
2.61725
2.60485
2.61433
2.65003
2.72575
2.77578
2.78857
2.77748
2.73367
2.68859
2.6628
2.65063
2.64742
2.64814
2.6527
2.67178
2.70953
2.74251
2.76295
2.76772
2.76133
2.73423
2.70684
2.69251
2.68923
2.69093
2.69825
2.7022
2.7022
2.70283
2.71072
2.71862
2.71801
2.71851
2.72631
2.72495
2.72786
2.73782
1.00018
1.00065
1.00079
1.00346
1.00583
1.01977
1.03916
1.06574
1.5335
2.38713
2.59266
2.63658
2.61981
2.60556
2.61537
2.65242
2.72878
2.77762
2.78944
2.77692
2.73027
2.6846
2.65917
2.64772
2.64523
2.64616
2.65117
2.67109
2.7089
2.7419
2.76246
2.76736
2.76116
2.73418
2.70631
2.69156
2.68806
2.68968
2.69708
2.70137
2.70134
2.70161
2.70889
2.71712
2.71664
2.71684
2.72433
2.72314
2.72625
2.73578
1.00016
1.00065
1.00096
1.00424
1.00552
1.02171
1.03471
1.06305
1.50933
2.34752
2.57891
2.64033
2.62581
2.61185
2.62232
2.66101
2.73513
2.78119
2.79146
2.77799
2.73054
2.68506
2.65961
2.64798
2.64524
2.64607
2.65096
2.67081
2.7087
2.74168
2.76217
2.76708
2.76096
2.73406
2.70603
2.69099
2.68717
2.68855
2.69568
2.70043
2.70043
2.70013
2.70598
2.71485
2.71476
2.715
2.72277
2.72188
2.72365
2.73401
1.00014
1.00064
1.00103
1.00338
1.00647
1.0227
1.03183
1.10948
1.45213
2.30971
2.54318
2.63833
2.62871
2.61446
2.62532
2.66512
2.73785
2.78148
2.79006
2.77505
2.72773
2.6855
2.66183
2.65066
2.64756
2.6482
2.65266
2.67166
2.70899
2.74148
2.76166
2.7665
2.76045
2.73359
2.70532
2.68984
2.68565
2.68677
2.69342
2.69847
2.69851
2.6977
2.70224
2.71175
2.71216
2.71256
2.71983
2.71905
2.72158
2.73116
1.00015
1.00068
1.00094
1.00288
1.00641
1.02207
1.03362
1.07285
1.43756
2.16691
2.53664
2.64725
2.6324
2.61752
2.62904
2.67115
2.74274
2.7834
2.7903
2.77391
2.72627
2.68545
2.66246
2.6514
2.64808
2.64863
2.653
2.67197
2.70887
2.74067
2.7603
2.76509
2.75942
2.73338
2.70516
2.68925
2.68427
2.68485
2.69049
2.69595
2.69617
2.69508
2.69844
2.708
2.70921
2.7096
2.71742
2.71702
2.71791
2.72854
1.00018
1.00064
1.00067
1.00359
1.00398
1.02074
1.02928
1.1169
1.38506
2.07301
2.49056
2.6429
2.63374
2.62624
2.63723
2.6761
2.74594
2.78421
2.78978
2.77232
2.72393
2.68386
2.66119
2.65018
2.64677
2.64729
2.65178
2.67134
2.70813
2.73937
2.75859
2.76334
2.758
2.73277
2.70452
2.68789
2.68206
2.68222
2.68702
2.69278
2.69313
2.69174
2.69405
2.70333
2.70522
2.70521
2.71248
2.71315
2.71522
2.72388
1.00016
1.00067
1.00065
1.00337
1.0054
1.02049
1.03099
1.09928
1.35597
2.02626
2.4321
2.65018
2.64111
2.63631
2.64473
2.67957
2.7493
2.78453
2.78801
2.76818
2.71904
2.68083
2.65926
2.64867
2.64533
2.64584
2.65067
2.67128
2.708
2.73885
2.75777
2.76243
2.75723
2.73244
2.70414
2.68719
2.68029
2.67982
2.68314
2.68915
2.68986
2.68844
2.68965
2.69813
2.70118
2.70112
2.70804
2.7087
2.70955
2.72029
1.00018
1.00063
1.00065
1.00361
1.00413
1.0209
1.02782
1.10912
1.33036
1.93058
2.39753
2.65036
2.6436
2.64207
2.64961
2.68615
2.75497
2.78544
2.78624
2.76367
2.71495
2.67897
2.65837
2.64806
2.64463
2.64509
2.64996
2.67094
2.70753
2.73789
2.75641
2.76108
2.7562
2.73184
2.70298
2.68532
2.67771
2.67689
2.6796
2.68556
2.68626
2.68464
2.68466
2.69163
2.69575
2.69556
2.70199
2.70325
2.70458
2.71248
1.00018
1.00065
1.00067
1.00364
1.00435
1.01929
1.02682
1.10325
1.29916
1.91277
2.34502
2.64496
2.65453
2.65159
2.66054
2.69849
2.76278
2.78792
2.78616
2.75833
2.708
2.67352
2.65421
2.64469
2.64172
2.64236
2.64829
2.67158
2.70774
2.73711
2.75514
2.75994
2.7555
2.73202
2.70265
2.68409
2.67521
2.67367
2.67554
2.68114
2.68212
2.6805
2.67909
2.68417
2.6885
2.68802
2.6935
2.69604
2.6961
2.70636
1.00017
1.00058
1.00064
1.0032
1.00431
1.01835
1.02688
1.10841
1.28246
1.82136
2.31283
2.64387
2.66148
2.65674
2.66688
2.70753
2.76794
2.78799
2.78346
2.75019
2.70033
2.66725
2.6491
2.64062
2.63834
2.63924
2.64628
2.67152
2.70745
2.73619
2.75344
2.75788
2.7537
2.73115
2.70129
2.68191
2.67194
2.66953
2.67061
2.67582
2.67736
2.67599
2.67305
2.67527
2.68102
2.68037
2.68385
2.68571
2.68737
2.69358
1.00015
1.00056
1.00059
1.00329
1.00369
1.01793
1.02539
1.0844
1.26621
1.78214
2.27176
2.64002
2.66878
2.66418
2.67599
2.71811
2.7719
2.78683
2.78002
2.74405
2.69569
2.66367
2.64608
2.63804
2.63605
2.63711
2.64495
2.67126
2.70642
2.73444
2.7516
2.75626
2.75242
2.73061
2.70008
2.67963
2.66839
2.66496
2.66539
2.66936
2.67151
2.67025
2.66592
2.66634
2.67055
2.66976
2.67225
2.6734
2.67079
2.68064
1.0001
1.00045
1.00066
1.00278
1.00376
1.01719
1.02301
1.08857
1.24641
1.7334
2.23707
2.62718
2.67675
2.67458
2.68958
2.73344
2.77703
2.78456
2.77204
2.7296
2.68583
2.65789
2.64287
2.63606
2.63451
2.63569
2.64426
2.67146
2.70589
2.73283
2.74899
2.75335
2.74979
2.72901
2.69794
2.67628
2.66365
2.65881
2.65843
2.66182
2.66419
2.66296
2.65838
2.65533
2.65729
2.65577
2.65488
2.65678
2.65507
2.65498
1.00008
1.00031
1.0007
1.00183
1.00456
1.01193
1.02793
1.10627
1.23267
1.73209
2.18667
2.61412
2.68709
2.68738
2.70451
2.74483
2.77812
2.78054
2.76436
2.72027
2.68068
2.65528
2.64136
2.63487
2.63329
2.63441
2.64311
2.6708
2.7049
2.73114
2.74633
2.75007
2.74594
2.72426
2.69264
2.67065
2.65711
2.65118
2.65035
2.65278
2.65525
2.65418
2.64885
2.64345
2.64275
2.64007
2.63592
2.62869
2.61924
2.61874
1.0001
1.00028
1.00067
1.00212
1.00336
1.01444
1.02424
1.08299
1.21594
1.5831
2.18097
2.60306
2.70185
2.70624
2.72819
2.75811
2.7757
2.77179
2.74808
2.70621
2.67292
2.65097
2.63861
2.63276
2.63134
2.63267
2.64218
2.67063
2.70417
2.72982
2.7446
2.74823
2.74405
2.72236
2.69008
2.6667
2.65141
2.64389
2.64186
2.64366
2.6458
2.64459
2.63917
2.62978
2.62538
2.62015
2.61001
2.6005
2.57595
2.5097
1.00014
1.00026
1.00069
1.00181
1.00319
1.01218
1.02115
1.07733
1.18486
1.57682
2.07103
2.56842
2.72916
2.73743
2.75113
2.76229
2.76917
2.76163
2.73325
2.69306
2.66224
2.64234
2.63153
2.62693
2.62607
2.62805
2.63939
2.66967
2.70284
2.72743
2.74084
2.74369
2.73897
2.71688
2.68462
2.66045
2.64489
2.63478
2.62946
2.6286
2.62938
2.62815
2.62362
2.61277
2.59905
2.58556
2.56567
2.52973
2.47946
2.36957
1.00024
1.00021
1.00124
1.00139
1.00569
1.00358
1.02347
1.0552
1.15015
1.48043
1.99491
2.57104
2.78178
2.77788
2.76449
2.75857
2.75106
2.7249
2.68972
2.65839
2.63764
2.62683
2.62247
2.62161
2.62231
2.62582
2.63852
2.66885
2.7011
2.72446
2.73621
2.7382
2.73172
2.70689
2.67547
2.65129
2.63472
2.62403
2.61641
2.61233
2.6113
2.60949
2.60551
2.59594
2.58127
2.55792
2.52948
2.48802
2.40849
2.32161
1.00019
1.00017
1.0013
1.00145
1.00839
1.00294
1.05014
0.940636
1.14607
1.3897
1.99325
2.60023
2.8037
2.78418
2.75396
2.74697
2.73378
2.70189
2.66809
2.64092
2.62495
2.61931
2.61869
2.61953
2.62127
2.62522
2.63779
2.66735
2.6987
2.7213
2.73298
2.73482
2.72857
2.70421
2.6728
2.64686
2.62859
2.61609
2.60617
2.59937
2.59549
2.59142
2.58523
2.57658
2.55847
2.53941
2.49954
2.46279
2.3957
2.32457
1.00009
1.0001
1.00075
1.00082
1.00554
0.998723
1.04547
0.901886
1.12919
1.33121
1.97754
2.64764
2.80572
2.78164
2.74236
2.72164
2.69473
2.66734
2.64424
2.62826
2.62005
2.61838
2.61941
2.62086
2.62206
2.62501
2.63633
2.66497
2.69574
2.71648
2.72652
2.72791
2.72122
2.6972
2.66659
2.64085
2.62155
2.60748
2.59687
2.58876
2.58158
2.57583
2.56597
2.55712
2.53822
2.51935
2.48921
2.44867
2.39894
2.33988
1.00001
1.00002
1.00026
1.00021
1.00333
0.996769
1.0392
0.901042
1.11251
1.28242
1.93703
2.66697
2.79839
2.77258
2.73843
2.69809
2.66487
2.64029
2.62653
2.61939
2.61762
2.61876
2.62122
2.62222
2.62249
2.6238
2.63272
2.6594
2.68892
2.70933
2.71836
2.71938
2.71262
2.69009
2.66136
2.63688
2.61718
2.6026
2.59068
2.58223
2.5724
2.56571
2.55325
2.54294
2.52642
2.50585
2.48039
2.44793
2.40606
2.36219
0.999973
0.9999
0.99993
0.999707
1.00167
0.995581
1.03296
0.90348
1.09923
1.23219
1.89385
2.70739
2.79128
2.73378
2.68837
2.6332
2.61426
2.61022
2.61134
2.61791
2.6262
2.63128
2.63338
2.63326
2.63161
2.63148
2.63755
2.6609
2.68913
2.70663
2.71383
2.71323
2.70271
2.6777
2.65138
2.62893
2.61075
2.59765
2.58604
2.57868
2.56827
2.56129
2.54844
2.53599
2.51948
2.49935
2.47464
2.44623
2.41225
2.37619
1.00007
1.00031
1.0003
1.00172
1.00168
1.00707
1.00058
1.03744
1.07247
1.26966
1.76139
2.34245
2.71504
2.74134
2.72787
2.69387
2.6619
2.64542
2.63762
2.6376
2.63862
2.63815
2.63609
2.63501
2.63521
2.63927
2.6543
2.67802
2.69662
2.70603
2.7071
2.69921
2.67481
2.64633
2.6228
2.60464
2.59084
2.58203
2.57443
2.56948
2.56201
2.55498
2.54605
2.53427
2.51895
2.50004
2.47692
2.45013
2.42003
2.39004
1.00005
1.00022
1.0002
1.00121
1.00124
1.00465
0.998097
1.02787
1.07321
1.18931
1.64834
2.16566
2.67202
2.78916
2.78822
2.75377
2.71881
2.68993
2.67247
2.65973
2.64763
2.63661
2.62999
2.62827
2.62893
2.63667
2.65981
2.68319
2.69693
2.70104
2.69713
2.67789
2.64748
2.62166
2.60143
2.58625
2.57526
2.56786
2.56202
2.55814
2.55427
2.54947
2.5435
2.53361
2.52136
2.50348
2.48363
2.45904
2.43241
2.40549
1.00004
1.00015
1.00017
1.00117
1.00136
1.00826
1.00305
1.05297
0.923952
1.16823
1.49272
2.0825
2.68623
2.84107
2.81944
2.75116
2.71354
2.68548
2.67235
2.65725
2.6386
2.61852
2.60379
2.59713
2.59713
2.60526
2.63381
2.66318
2.67698
2.67857
2.67566
2.66324
2.63927
2.61796
2.60093
2.588
2.57763
2.56968
2.56357
2.55657
2.54911
2.54389
2.53904
2.53222
2.52152
2.50778
2.49125
2.47075
2.44802
2.4239
1.00002
1.00005
1.00007
1.00053
1.00051
1.0045
0.997671
1.04395
0.899413
1.13124
1.34398
2.00003
2.70543
2.83466
2.80296
2.72985
2.69995
2.66954
2.65399
2.63193
2.60784
2.58905
2.57738
2.5712
2.57015
2.57167
2.58199
2.60731
2.6294
2.64474
2.64962
2.64871
2.64391
2.63206
2.61951
2.60896
2.60015
2.59135
2.58054
2.5682
2.55495
2.54152
2.52852
2.52072
2.5139
2.50422
2.49181
2.4772
2.46063
2.44332
1
1.00002
0.999972
1.00008
0.999869
1.00211
0.995853
1.03432
0.902696
1.10488
1.26174
1.91533
2.72763
2.80702
2.77039
2.72675
2.68256
2.64758
2.62461
2.6038
2.58772
2.57785
2.57072
2.56578
2.56311
2.56287
2.56487
2.57466
2.59747
2.6207
2.63659
2.64426
2.64545
2.6439
2.63757
2.62603
2.61516
2.60552
2.59492
2.58225
2.56577
2.54684
2.5283
2.51052
2.49629
2.486
2.47942
2.47133
2.46006
2.44808
0.999986
0.999985
0.999881
0.999838
0.999208
1.00008
0.994575
1.02717
0.904
1.0876
1.20473
1.84556
2.70075
2.76829
2.71373
2.66268
2.61641
2.59375
2.58656
2.5826
2.58063
2.58123
2.58398
2.58478
2.58436
2.58212
2.58094
2.58416
2.59888
2.62131
2.63728
2.64499
2.64666
2.64555
2.63945
2.62566
2.61298
2.60336
2.59403
2.58344
2.56877
2.55067
2.53173
2.5111
2.4923
2.47651
2.4625
2.45199
2.44441
2.43887
1.00005
1.00004
1.00029
1.00026
1.00166
1.00184
1.00831
1.00463
1.03738
1.03884
1.21604
1.65531
2.25195
2.64286
2.71315
2.70042
2.67431
2.64555
2.62685
2.61196
2.6059
2.60596
2.60661
2.60572
2.60439
2.6044
2.60698
2.61488
2.62778
2.64038
2.64785
2.65001
2.6494
2.64542
2.63551
2.62061
2.60767
2.59702
2.58844
2.57965
2.56642
2.55016
2.53177
2.51143
2.49042
2.47209
2.45428
2.43901
2.42706
2.41579
1.00003
1.00003
1.00023
1.00021
1.00151
1.0018
1.00799
1.00503
1.03808
0.974738
1.15533
1.4831
2.01807
2.60099
2.76874
2.75428
2.71521
2.69497
2.67923
2.67213
2.65782
2.63885
2.62435
2.61199
2.60654
2.60584
2.60894
2.61929
2.63122
2.63893
2.64199
2.64159
2.63744
2.62589
2.61251
2.59959
2.58903
2.57866
2.56936
2.56044
2.54892
2.53519
2.51851
2.5001
2.48068
2.46219
2.4457
2.43029
2.41782
2.40607
1.00002
1.00002
1.00012
1.00012
1.00087
1.001
1.006
0.999178
1.04584
0.901682
1.13188
1.32806
1.98152
2.63718
2.80336
2.76374
2.71353
2.6942
2.66919
2.65767
2.63741
2.61528
2.6002
2.58889
2.58228
2.58229
2.5884
2.60443
2.61735
2.62308
2.62378
2.62224
2.61598
2.60366
2.59205
2.58114
2.57248
2.56467
2.55677
2.54904
2.53979
2.52846
2.51404
2.49723
2.47955
2.46213
2.44652
2.43157
2.4192
2.40781
1.00001
1.00002
1.00009
1.00011
1.00057
1.0007
1.00335
1.00415
1.02042
1.02696
1.11851
1.35206
2.02201
2.45917
2.67181
2.67375
2.67468
2.67334
2.66241
2.65649
2.64934
2.63393
2.60861
2.59035
2.57585
2.57068
2.57076
2.57347
2.57906
2.58202
2.58249
2.58205
2.5804
2.57622
2.57059
2.56479
2.55927
2.55404
2.54903
2.54437
2.53936
2.53396
2.52705
2.5171
2.50464
2.48915
2.47371
2.45722
2.4419
2.42846
0.999995
0.999978
0.999978
0.999878
0.999874
0.999624
1.0013
0.995557
1.0307
0.907104
1.09449
1.2159
1.86461
2.67404
2.73115
2.70498
2.65869
2.63214
2.63312
2.64013
2.64223
2.63999
2.63341
2.61996
2.60556
2.59121
2.58089
2.5757
2.57107
2.56614
2.56111
2.55625
2.55152
2.54648
2.54157
2.5369
2.53276
2.53001
2.52901
2.52967
2.53222
2.53349
2.53328
2.53221
2.52979
2.5247
2.51649
2.50598
2.49395
2.48108
1
0.999995
0.999999
0.999921
1.00002
0.999194
0.999816
0.993325
1.02286
0.903934
1.07773
1.18496
1.79126
2.66519
2.71582
2.69673
2.65401
2.61093
2.59692
2.59783
2.60324
2.61631
2.62069
2.6188
2.61343
2.60773
2.60192
2.59455
2.58698
2.57862
2.57041
2.56231
2.5544
2.54702
2.54011
2.53379
2.52861
2.52523
2.52388
2.52419
2.52646
2.52991
2.53152
2.53167
2.53131
2.52999
2.52595
2.52032
2.51003
2.50082
1
1.00001
1.00002
1.00006
1.00009
1.00016
1.00029
0.99852
1.00426
0.953069
1.06961
1.07072
1.75503
2.64033
2.66503
2.66132
2.62882
2.5891
2.57343
2.57306
2.57552
2.5811
2.58684
2.59312
2.59892
2.60366
2.60514
2.60474
2.60369
2.60152
2.59541
2.58357
2.57071
2.5586
2.5484
2.5405
2.53479
2.53116
2.5294
2.52916
2.52994
2.53168
2.53242
2.53219
2.53024
2.52677
2.52252
2.51804
2.51169
2.50418
1
1.00002
1.00002
1.00008
1.0001
1.00031
1.00061
1.00043
1.00163
0.985839
1.03069
1.01397
1.66653
2.52648
2.59494
2.61476
2.59689
2.57145
2.56998
2.57352
2.58333
2.59245
2.59992
2.60844
2.61784
2.62544
2.6302
2.63171
2.63035
2.62418
2.61219
2.59898
2.58674
2.57558
2.56626
2.55881
2.55335
2.54968
2.54721
2.54535
2.54361
2.54175
2.53921
2.53685
2.53285
2.52833
2.52169
2.51577
2.50896
2.50224
1
1.00002
1.00002
1.00013
1.00013
1.00089
1.00104
1.00617
0.99921
1.04856
0.898225
1.14999
1.37762
2.05869
2.6829
2.77967
2.71351
2.65922
2.61829
2.59775
2.59394
2.59431
2.59651
2.60144
2.60825
2.61459
2.6191
2.62057
2.61954
2.61476
2.60587
2.59589
2.58643
2.57828
2.57182
2.56719
2.56312
2.5607
2.55838
2.55609
2.5537
2.55063
2.54795
2.54443
2.53934
2.53246
2.52232
2.51082
2.49919
2.48793
1
1.00001
1.00001
1.00008
1.00008
1.00048
1.00059
1.00267
1.00352
1.01495
1.03294
1.13648
1.33884
2.004
2.45158
2.70474
2.68954
2.67343
2.64158
2.62028
2.61195
2.61238
2.61319
2.61495
2.61431
2.61083
2.60251
2.59431
2.58742
2.58145
2.5764
2.57162
2.56733
2.56339
2.56061
2.55935
2.55855
2.55784
2.55698
2.55579
2.55403
2.55168
2.54927
2.54575
2.54137
2.534
2.52426
2.51161
2.49782
2.48373
1
1.00001
1.00001
1.00008
1.00008
1.00046
1.00053
1.00286
1.00384
1.01644
1.02306
1.10716
1.26435
1.82525
2.3092
2.65497
2.67962
2.66417
2.63709
2.63874
2.64732
2.65869
2.65849
2.65318
2.63952
2.62412
2.61023
2.59839
2.58909
2.58188
2.57566
2.57011
2.56561
2.56181
2.55785
2.55325
2.54892
2.54606
2.54439
2.54319
2.54248
2.54179
2.54044
2.53858
2.53598
2.53046
2.523
2.51218
2.50069
2.4886
0.999999
0.999998
0.999989
0.999973
0.999868
0.999821
0.999071
1
0.994022
1.02615
0.906339
1.08129
1.18989
1.8127
2.64883
2.70797
2.68831
2.64012
2.6141
2.61685
2.62881
2.63976
2.64056
2.63776
2.63024
2.62021
2.60949
2.60008
2.59265
2.58648
2.58085
2.57612
2.57215
2.56853
2.56414
2.55858
2.55231
2.54496
2.53695
2.52984
2.52311
2.51751
2.51296
2.50932
2.50759
2.50504
2.50282
2.49941
2.49265
2.48539
1
1
1.00001
1.00001
1.00001
0.999995
0.99968
0.999844
0.996198
1.00425
0.939648
1.07244
1.08381
1.73994
2.6811
2.65913
2.64931
2.61721
2.58961
2.58313
2.5846
2.58805
2.59042
2.59045
2.58964
2.58793
2.58499
2.58146
2.57812
2.57484
2.57151
2.56772
2.56472
2.56179
2.55895
2.55469
2.5492
2.54163
2.53261
2.52384
2.51524
2.50745
2.50111
2.49522
2.49127
2.48763
2.48472
2.4818
2.47782
2.47488
1
1
1.00001
1.00001
1.00002
1.00003
0.999848
0.99998
0.99658
1.00545
0.963395
1.03824
1.05505
1.69564
2.5929
2.60839
2.60958
2.587
2.56188
2.55984
2.56258
2.56835
2.57436
2.57686
2.57659
2.57502
2.57219
2.57
2.56861
2.56782
2.56715
2.56615
2.56538
2.56407
2.56282
2.56028
2.55779
2.55438
2.55075
2.54484
2.53963
2.53319
2.5279
2.52181
2.51549
2.50955
2.50283
2.49685
2.49065
2.48441
1.00001
1.00001
1.00003
1.00004
1.00023
1.00021
1.00139
1.00164
1.00708
1.0043
1.03424
0.947807
1.18153
1.41374
2.07453
2.6344
2.75114
2.7125
2.66052
2.62276
2.60215
2.59818
2.59233
2.58981
2.58405
2.57829
2.57419
2.57131
2.56831
2.56446
2.56037
2.55678
2.55371
2.55104
2.54908
2.54763
2.54688
2.54688
2.54767
2.54962
2.55061
2.55045
2.5498
2.54872
2.54608
2.54302
2.53702
2.52913
2.52142
2.51196
1
1
1.00002
1.00002
1.00012
1.00013
1.00063
1.00093
1.00261
1.00625
1.0208
1.03009
1.10631
1.44364
2.15963
2.54289
2.66302
2.652
2.63657
2.61729
2.60716
2.60291
2.59832
2.59432
2.59089
2.58698
2.58378
2.58167
2.57972
2.57579
2.56914
2.56201
2.5559
2.55119
2.54761
2.54529
2.5441
2.54385
2.54423
2.54518
2.54559
2.54555
2.54485
2.54353
2.54199
2.5401
2.53757
2.53232
2.52686
2.52011
1
1
1.00002
1.00002
1.00011
1.00011
1.00064
1.00066
1.0037
1.00423
1.02047
1.02522
1.08697
1.32955
1.97123
2.39882
2.62968
2.62796
2.62195
2.60632
2.59794
2.5944
2.59181
2.58892
2.58654
2.58462
2.58333
2.58271
2.58207
2.58062
2.57838
2.57605
2.57452
2.57443
2.57531
2.57615
2.57615
2.57582
2.57469
2.57176
2.56582
2.56069
2.55424
2.54916
2.54286
2.53625
2.53044
2.5231
2.51709
2.50986
1
1
1.00001
1.00001
1.00005
1.00007
1.00032
1.0003
1.00237
0.996613
1.03228
0.90775
1.09593
1.20668
1.84954
2.62777
2.69698
2.67638
2.6434
2.6109
2.58911
2.58161
2.58083
2.58085
2.58012
2.57751
2.5709
2.56355
2.55799
2.55457
2.55311
2.55303
2.55428
2.55821
2.5634
2.56778
2.57058
2.5719
2.57201
2.57124
2.56846
2.56409
2.55863
2.5526
2.54557
2.53754
2.52919
2.5203
2.51081
2.50173
1
1
1.00001
1.00002
1.00006
1.0001
1.00041
1.00055
1.00189
1.00421
1.01195
1.02904
1.10307
1.24636
1.77631
2.22544
2.63111
2.68099
2.65688
2.62701
2.60462
2.59376
2.5909
2.59006
2.58898
2.58751
2.58465
2.57941
2.57353
2.56848
2.56519
2.56419
2.56475
2.56689
2.56926
2.57037
2.57031
2.56835
2.56448
2.56045
2.55681
2.55346
2.54973
2.54631
2.54179
2.53585
2.52879
2.5208
2.51197
2.50324
1
1
1.00001
1.00001
1.00007
1.00007
1.00041
1.00047
1.00201
1.00315
1.0113
1.02626
1.07193
1.22212
1.58787
2.15123
2.57871
2.66946
2.63868
2.61393
2.58867
2.5781
2.57748
2.57831
2.57837
2.57787
2.5763
2.57429
2.57359
2.57462
2.57986
2.58957
2.59707
2.60078
2.60148
2.60004
2.5949
2.58573
2.57817
2.5712
2.56507
2.55997
2.55364
2.54708
2.53943
2.53171
2.52448
2.51639
2.50884
2.50127
1
1
1.00001
1.00001
1.00007
1.00006
1.00039
1.00044
1.00185
1.003
1.01022
1.0227
1.07915
1.19276
1.51356
2.09222
2.53926
2.6672
2.63205
2.60897
2.5812
2.57244
2.57305
2.57363
2.5729
2.57028
2.56586
2.56398
2.56482
2.57078
2.58527
2.59925
2.60793
2.61127
2.61106
2.60752
2.59892
2.58945
2.58233
2.57691
2.57221
2.56694
2.55958
2.55009
2.53891
2.52585
2.51371
2.50099
2.49091
2.48207
1
1
1.00001
1.00001
1.00006
1.00006
1.00032
1.00039
1.00188
1.00287
1.01122
1.02159
1.0512
1.21988
1.52478
2.12219
2.50963
2.64363
2.6161
2.60545
2.58456
2.57626
2.5753
2.57513
2.57463
2.57334
2.57108
2.57042
2.5717
2.57893
2.59496
2.6093
2.61765
2.62034
2.61958
2.61457
2.60409
2.59491
2.58833
2.58308
2.57739
2.56887
2.55732
2.54173
2.52493
2.50689
2.49145
2.47702
2.46629
2.45711
1
0.999998
0.999997
0.999987
0.999998
0.999918
0.999988
0.999462
1.00013
0.995489
1.02004
0.924232
1.0614
1.13504
1.65323
2.43322
2.56018
2.60794
2.59079
2.57793
2.56546
2.56244
2.56134
2.56017
2.55594
2.54831
2.54264
2.54039
2.54061
2.54373
2.55201
2.5611
2.5682
2.57253
2.57394
2.57379
2.57264
2.57025
2.56851
2.56642
2.56319
2.5561
2.5465
2.5345
2.52173
2.50825
2.49559
2.48373
2.47446
2.46652
0.999999
0.999995
0.999995
0.999971
0.999964
0.999852
0.999754
0.999009
0.999504
0.994369
1.01672
0.924149
1.05339
1.11538
1.6309
2.40922
2.5292
2.5851
2.57023
2.56498
2.56229
2.56285
2.56448
2.56401
2.56131
2.5551
2.54697
2.53941
2.53319
2.52872
2.52635
2.52544
2.52539
2.52601
2.5279
2.5302
2.53215
2.53354
2.5344
2.53474
2.53471
2.53455
2.53439
2.53456
2.53435
2.5338
2.53282
2.53134
2.53018
2.52797
0.999999
0.999998
0.999998
0.99999
1.00001
0.9999
0.999993
0.999241
0.999786
0.994902
1.01695
0.926173
1.05288
1.10552
1.61959
2.38098
2.51281
2.57799
2.5638
2.56359
2.56183
2.56021
2.55919
2.55657
2.55057
2.54301
2.5368
2.53111
2.52662
2.5238
2.5223
2.52175
2.52195
2.5235
2.52681
2.52968
2.53152
2.53245
2.53279
2.533
2.53345
2.53483
2.53894
2.54679
2.555
2.56192
2.56662
2.56875
2.56919
2.56848
1
1
1.00001
1.00001
1.00006
1.00006
1.00039
1.00035
1.00205
1.00205
1.01092
1.0149
1.05979
1.17584
1.42531
1.99852
2.42318
2.60736
2.59972
2.58422
2.56823
2.56365
2.56405
2.56433
2.56379
2.5623
2.56178
2.56271
2.56769
2.57813
2.5866
2.59089
2.59177
2.59087
2.58789
2.58476
2.58281
2.58146
2.5792
2.57353
2.56337
2.55355
2.5465
2.54293
2.54187
2.54202
2.54288
2.54368
2.54392
2.54343
1
1
1.00001
1.00001
1.00006
1.00006
1.00033
1.00038
1.00154
1.00253
1.00903
1.01375
1.05382
1.15055
1.33153
1.87579
2.39215
2.60721
2.59454
2.58278
2.56325
2.55188
2.5515
2.55223
2.55319
2.55638
2.56697
2.58319
2.59601
2.6026
2.60363
2.60099
2.59249
2.58348
2.5781
2.57593
2.57581
2.57627
2.57634
2.57548
2.57092
2.55816
2.54264
2.52704
2.51555
2.50564
2.49902
2.49425
2.49046
2.48778
1
1
1.00001
1.00001
1.00006
1.00008
1.00029
1.00048
1.00177
1.00266
1.00852
1.01571
1.05797
1.1505
1.31523
1.87738
2.49173
2.61729
2.57788
2.57253
2.55496
2.54587
2.5464
2.54898
2.55314
2.56505
2.58466
2.59831
2.60542
2.60633
2.6026
2.59131
2.57944
2.57213
2.56913
2.56905
2.57056
2.57275
2.5732
2.57215
2.56653
2.55236
2.536
2.51987
2.50767
2.49603
2.48872
2.48142
2.4769
2.47305
2.19171
2.40206
2.72859
2.93677
3.35026
3.22537
3.19405
3.17044
3.15824
3.14965
3.14165
3.13188
3.1232
3.11528
3.10825
3.10223
3.09693
3.08981
3.08407
3.07522
3.06692
3.05616
3.04976
3.04104
3.03081
3.02483
3.0148
3.00823
2.99864
2.98986
2.98059
2.97109
2.96146
2.9535
2.94583
2.93725
2.92757
2.91718
2.90611
2.89406
2.8818
2.86953
2.85792
2.84687
2.83632
2.8266
2.81718
2.80821
2.79992
2.79172
2.78442
2.77717
2.77065
2.7644
2.75854
2.75345
2.74809
2.74397
2.73929
2.73543
2.73171
2.72805
2.72482
2.72191
2.71905
2.71671
2.71458
2.71273
2.71124
2.71006
2.70934
2.70888
2.709
2.70942
2.71047
2.71157
2.71387
2.71562
2.71921
2.72115
2.725
2.72739
2.73166
2.73638
2.74102
2.7459
2.75057
2.75519
2.75999
2.76435
2.76862
2.7726
2.77604
2.77904
2.78199
2.78371
2.78611
2.78691
2.78887
2.78636
2.19804
2.28951
2.44944
2.64869
2.75347
2.88245
3.00622
3.07928
3.1293
3.16409
3.18363
3.17967
3.14953
3.10513
3.0797
3.06359
3.04629
3.02016
2.99192
2.95859
2.9245
2.88879
2.85432
2.82125
2.7927
2.76671
2.7448
2.72511
2.70781
2.69198
2.67798
2.66495
2.65333
2.64249
2.6321
2.62158
2.61016
2.59785
2.58382
2.56865
2.55381
2.53998
2.52713
2.51506
2.50369
2.49278
2.48228
2.47182
2.46149
2.45116
2.44069
2.43041
2.4201
2.40994
2.40011
2.39045
2.38116
2.37234
2.36373
2.35591
2.34839
2.34147
2.33523
2.32923
2.32392
2.31893
2.31461
2.31061
2.30713
2.30461
2.30235
2.3008
2.30057
2.30079
2.30179
2.30311
2.30621
2.30847
2.31305
2.31632
2.32048
2.3254
2.32884
2.33587
2.33968
2.34739
2.35134
2.35925
2.36351
2.37177
2.37642
2.38488
2.38982
2.39822
2.40271
2.41112
2.41513
2.42327
2.42688
2.43467
2.24165
2.23231
2.28702
2.36912
2.43295
2.48916
2.54095
2.59405
2.64291
2.68457
2.7114
2.72954
2.73093
2.72783
2.72098
2.70879
2.69202
2.67898
2.65993
2.63847
2.6156
2.59388
2.57476
2.55786
2.5427
2.52855
2.51531
2.50291
2.4914
2.48043
2.46957
2.45876
2.44821
2.43813
2.42873
2.41949
2.41071
2.40378
2.39864
2.39452
2.39037
2.3859
2.38136
2.37702
2.37296
2.36931
2.36585
2.36232
2.35857
2.35436
2.34953
2.34398
2.33767
2.33054
2.3226
2.31406
2.30504
2.29566
2.28616
2.27665
2.26722
2.25805
2.24922
2.24076
2.23274
2.22511
2.21801
2.2111
2.20445
2.19854
2.19248
2.18667
2.1815
2.17639
2.1716
2.16727
2.16355
2.16024
2.15773
2.15568
2.15365
2.15284
2.15297
2.15343
2.15472
2.15594
2.15811
2.15949
2.16235
2.16385
2.16705
2.16882
2.17227
2.17539
2.17809
2.18373
2.18661
2.19317
2.19659
2.2047
2.27086
2.23749
2.23625
2.25615
2.28943
2.31677
2.33819
2.35821
2.38059
2.40099
2.42054
2.43652
2.44566
2.45027
2.45072
2.45035
2.44926
2.44792
2.44624
2.44413
2.44294
2.44185
2.43997
2.4377
2.43611
2.43323
2.42763
2.42105
2.41375
2.40587
2.39672
2.38694
2.3767
2.3662
2.35586
2.34519
2.33343
2.32071
2.30767
2.29507
2.28356
2.2737
2.26585
2.26016
2.25659
2.25494
2.25481
2.25555
2.25771
2.2599
2.26135
2.26227
2.26294
2.26335
2.26335
2.26273
2.26048
2.2558
2.25001
2.24346
2.23609
2.22822
2.21998
2.21164
2.20356
2.19575
2.1886
2.18196
2.1759
2.17049
2.16556
2.16088
2.15678
2.15278
2.14909
2.14536
2.14183
2.13859
2.13529
2.13139
2.12775
2.1244
2.12107
2.11822
2.11577
2.11373
2.11207
2.11048
2.10887
2.10806
2.10676
2.10581
2.10488
2.10421
2.10363
2.10351
2.10356
2.10467
2.10553
2.10871
2.29358
2.25807
2.23615
2.23554
2.23849
2.24598
2.24936
2.2556
2.25965
2.26862
2.27845
2.2866
2.29318
2.29893
2.30308
2.30723
2.31067
2.31393
2.31737
2.32004
2.32213
2.32286
2.32274
2.32219
2.32035
2.31795
2.31497
2.30964
2.30508
2.30006
2.29221
2.28521
2.27853
2.27227
2.2661
2.25926
2.2518
2.24417
2.23623
2.22793
2.21949
2.21117
2.20318
2.19571
2.18885
2.18282
2.17778
2.17401
2.17178
2.1708
2.17067
2.17083
2.17125
2.17154
2.17153
2.17123
2.17019
2.16803
2.16527
2.16216
2.15855
2.15466
2.15036
2.14569
2.14077
2.13542
2.12998
2.12448
2.11915
2.11403
2.1095
2.10547
2.10218
2.09941
2.09754
2.09624
2.09547
2.09513
2.09511
2.09503
2.09461
2.09434
2.09377
2.09347
2.0927
2.09209
2.09093
2.08958
2.08822
2.0862
2.08456
2.08278
2.08046
2.07872
2.07631
2.07409
2.07212
2.06975
2.06871
2.06542
2.31762
2.27878
2.24982
2.2314
2.22074
2.21362
2.20895
2.20465
2.20243
2.20286
2.20508
2.20731
2.21189
2.21661
2.22215
2.22716
2.23307
2.23888
2.24413
2.24926
2.25384
2.25684
2.25938
2.26179
2.26251
2.26222
2.26135
2.25892
2.25627
2.25231
2.24611
2.24127
2.23571
2.2296
2.22295
2.21521
2.20637
2.19648
2.18563
2.17449
2.16364
2.1535
2.14449
2.13698
2.13114
2.12688
2.12397
2.12232
2.12203
2.12267
2.12504
2.12892
2.13222
2.13446
2.13577
2.13645
2.13653
2.1361
2.13442
2.13098
2.12678
2.12215
2.11729
2.11219
2.10713
2.10211
2.09722
2.09252
2.08812
2.08373
2.07979
2.07597
2.07269
2.06963
2.06742
2.06571
2.06485
2.06484
2.06504
2.0655
2.06637
2.06704
2.06818
2.06931
2.07045
2.07139
2.07226
2.07301
2.07331
2.07331
2.073
2.07242
2.07111
2.06888
2.06702
2.06301
2.06045
2.05526
2.05299
2.04586
2.33906
2.30209
2.2691
2.24227
2.22271
2.20629
2.1941
2.18357
2.17551
2.16984
2.16783
2.16835
2.17063
2.17303
2.17822
2.18327
2.18798
2.19284
2.19824
2.20324
2.20775
2.2115
2.21472
2.21794
2.21994
2.2205
2.22097
2.22091
2.22055
2.21955
2.2181
2.21515
2.21149
2.20707
2.20169
2.19318
2.18317
2.17196
2.16013
2.14836
2.13723
2.12746
2.11975
2.11422
2.11046
2.10784
2.10583
2.10434
2.10348
2.10333
2.1038
2.10556
2.10829
2.11056
2.11211
2.11304
2.11347
2.1135
2.11303
2.11126
2.10715
2.10158
2.09541
2.08888
2.08241
2.0761
2.07028
2.06488
2.06022
2.05636
2.05306
2.05085
2.04916
2.04788
2.04712
2.04665
2.04635
2.04637
2.04652
2.04655
2.0466
2.04688
2.04739
2.04825
2.04933
2.05085
2.05265
2.05479
2.05704
2.05937
2.06159
2.06292
2.06351
2.06328
2.06283
2.06085