/*--------------------------------*- C++ -*----------------------------------*\
| =========                 |                                                 |
| \\      /  F ield         | OpenFOAM: The Open Source CFD Toolbox           |
|  \\    /   O peration     | Version:  2412                                  |
|   \\  /    A nd           | Website:  www.openfoam.com                      |
|    \\/     M anipulation  |                                                 |
\*---------------------------------------------------------------------------*/
FoamFile
{
    version     2.0;
    format      ascii;
    arch        "LSB;label=32;scalar=64";
    class       volVectorField;
    location    "7.5";
    object      U;
}
// * * * * * * * * * * * * * * * * * * * * * * * * * * * * * * * * * * * * * //

dimensions      [0 1 -1 0 0 0 0];

internalField   nonuniform List<vector> 
7000
(
(2.9999 3.18081e-06 0)
(2.99967 2.27887e-06 0)
(2.99934 6.5275e-06 0)
(2.99822 -1.51882e-05 0)
(2.99564 0.000124041 0)
(2.98815 0.00101716 0)
(2.99319 -0.000273037 0)
(2.84458 -0.0025883 0)
(2.71186 0.00304584 0)
(2.0896 -0.00995064 0)
(0.719684 0.0133322 0)
(0.428057 0.0133115 0)
(0.533413 0.0093278 0)
(0.611727 0.00535014 0)
(0.624903 0.0019794 0)
(0.622905 4.7938e-05 0)
(0.618094 -0.000651489 0)
(0.613933 -0.000463524 0)
(0.613055 0.000350523 0)
(0.612661 0.00143163 0)
(0.611768 0.00239952 0)
(0.608381 0.0031997 0)
(0.601085 0.00375332 0)
(0.591223 0.00408805 0)
(0.579076 0.00426849 0)
(0.564734 0.0043722 0)
(0.548816 0.00448289 0)
(0.530962 0.00465851 0)
(0.511337 0.00495665 0)
(0.491408 0.00537671 0)
(0.471366 0.00590389 0)
(0.450837 0.0064813 0)
(0.429296 0.0070231 0)
(0.407711 0.00747225 0)
(0.385883 0.00776961 0)
(0.362646 0.00787421 0)
(0.338542 0.00783041 0)
(0.313984 0.00772354 0)
(0.288922 0.00762886 0)
(0.263588 0.00760543 0)
(0.238491 0.00770926 0)
(0.213596 0.00795594 0)
(0.188194 0.00832664 0)
(0.162198 0.00880778 0)
(0.136695 0.00937537 0)
(0.111646 0.0100015 0)
(0.0855315 0.010792 0)
(0.0600535 0.0116251 0)
(0.0338648 0.0118071 0)
(0.0106758 0.0102602 0)
(2.9999 1.91987e-06 0)
(2.99967 -4.03957e-06 0)
(2.99934 1.36557e-05 0)
(2.9983 2.5652e-05 0)
(2.99625 0.000147703 0)
(2.98791 7.80899e-05 0)
(2.99136 0.00149541 0)
(2.84601 0.00375936 0)
(2.70517 0.00154306 0)
(2.08797 -0.000140391 0)
(0.729838 0.0326222 0)
(0.441033 0.0282907 0)
(0.556022 0.0192563 0)
(0.641301 0.0124624 0)
(0.657223 0.0075332 0)
(0.652119 0.0048386 0)
(0.640677 0.00394877 0)
(0.629442 0.00411853 0)
(0.622759 0.00499601 0)
(0.61824 0.00615383 0)
(0.614806 0.00722756 0)
(0.610087 0.00819346 0)
(0.602176 0.00904205 0)
(0.59212 0.00983762 0)
(0.579973 0.0106037 0)
(0.565691 0.0113425 0)
(0.549832 0.0120534 0)
(0.532068 0.0127556 0)
(0.512635 0.0135088 0)
(0.493094 0.0144015 0)
(0.473734 0.0154412 0)
(0.454224 0.016618 0)
(0.434014 0.0178075 0)
(0.413936 0.0190138 0)
(0.393538 0.0200885 0)
(0.371377 0.0208978 0)
(0.347747 0.0214554 0)
(0.322909 0.021811 0)
(0.296828 0.0220052 0)
(0.269927 0.0221171 0)
(0.243015 0.0222562 0)
(0.216348 0.0224979 0)
(0.189466 0.0228949 0)
(0.162408 0.0234736 0)
(0.136262 0.0242086 0)
(0.11096 0.0250376 0)
(0.0849478 0.0260636 0)
(0.0599974 0.0269936 0)
(0.0349398 0.0269297 0)
(0.0125275 0.0245806 0)
(2.9999 5.4283e-06 0)
(2.99967 -4.52837e-07 0)
(2.99936 -8.51182e-07 0)
(2.99831 -4.95903e-06 0)
(2.99566 -6.32285e-05 0)
(2.98899 -3.40777e-05 0)
(2.99537 -0.000361156 0)
(2.84392 -0.00127255 0)
(2.71009 0.00419183 0)
(2.09889 0.00971814 0)
(0.735113 0.0452531 0)
(0.444609 0.0367022 0)
(0.560418 0.0265906 0)
(0.646883 0.019362 0)
(0.663382 0.014242 0)
(0.658384 0.0112722 0)
(0.646654 0.0103273 0)
(0.634763 0.0104682 0)
(0.626997 0.0114144 0)
(0.620745 0.0128015 0)
(0.614922 0.0144191 0)
(0.607407 0.0159162 0)
(0.59672 0.0171941 0)
(0.58437 0.0182845 0)
(0.570757 0.0192269 0)
(0.555966 0.020098 0)
(0.540453 0.0209538 0)
(0.523606 0.0218803 0)
(0.505391 0.0230059 0)
(0.487093 0.0244273 0)
(0.468794 0.0261211 0)
(0.450106 0.0280368 0)
(0.430595 0.0299696 0)
(0.411201 0.0319519 0)
(0.391439 0.0337674 0)
(0.369962 0.0352798 0)
(0.347095 0.0364988 0)
(0.323022 0.0374458 0)
(0.297619 0.0381256 0)
(0.27125 0.0386253 0)
(0.24465 0.0390567 0)
(0.218059 0.0395229 0)
(0.191061 0.0401564 0)
(0.163755 0.0410466 0)
(0.137292 0.0421944 0)
(0.111743 0.0435523 0)
(0.085639 0.0451846 0)
(0.060706 0.0466238 0)
(0.0358256 0.0467922 0)
(0.013585 0.0441631 0)
(2.9999 1.61704e-06 0)
(2.99967 3.20431e-06 0)
(2.99933 3.17735e-05 0)
(2.99826 4.60065e-05 0)
(2.99626 0.000336786 0)
(2.98767 0.000786649 0)
(2.99044 0.00202033 0)
(2.84856 0.00266123 0)
(2.71281 0.00892402 0)
(2.10426 0.00999966 0)
(0.744024 0.0623517 0)
(0.436655 0.048662 0)
(0.554437 0.0356006 0)
(0.641686 0.0265187 0)
(0.658293 0.0203463 0)
(0.654068 0.0169431 0)
(0.64306 0.0162753 0)
(0.631334 0.0170194 0)
(0.623409 0.0186771 0)
(0.616969 0.0208165 0)
(0.611121 0.0231173 0)
(0.603802 0.024999 0)
(0.593641 0.0263163 0)
(0.582088 0.02715 0)
(0.569403 0.0276934 0)
(0.555525 0.0281981 0)
(0.540782 0.0288899 0)
(0.524527 0.029939 0)
(0.506686 0.0315287 0)
(0.4885 0.0336307 0)
(0.470079 0.0361894 0)
(0.451062 0.0390373 0)
(0.431148 0.041923 0)
(0.411358 0.0447512 0)
(0.391211 0.0473424 0)
(0.369502 0.0495686 0)
(0.346628 0.0514173 0)
(0.322752 0.0529107 0)
(0.297705 0.0540728 0)
(0.271787 0.0549944 0)
(0.245618 0.0558027 0)
(0.219364 0.0566218 0)
(0.19258 0.0576241 0)
(0.165332 0.0589268 0)
(0.138762 0.0605333 0)
(0.113061 0.0624002 0)
(0.0868393 0.0645529 0)
(0.0617382 0.0664131 0)
(0.0366331 0.0668828 0)
(0.0142665 0.0643545 0)
(2.9999 1.86479e-06 0)
(2.9997 -1.06159e-05 0)
(2.9994 1.44374e-05 0)
(2.99851 0.000128343 0)
(2.99612 -0.00021921 0)
(2.99015 -0.000362344 0)
(2.99682 -0.000268662 0)
(2.8476 -0.00203323 0)
(2.71503 0.0121796 0)
(2.12199 0.0285543 0)
(0.762689 0.0801174 0)
(0.440652 0.0634795 0)
(0.555509 0.0473049 0)
(0.64175 0.0353135 0)
(0.658451 0.027062 0)
(0.655323 0.0225793 0)
(0.645438 0.0218102 0)
(0.634354 0.022882 0)
(0.626984 0.0250626 0)
(0.621223 0.0277891 0)
(0.616123 0.0305103 0)
(0.609564 0.032679 0)
(0.600128 0.034161 0)
(0.589094 0.0350812 0)
(0.576589 0.0357148 0)
(0.562508 0.0363718 0)
(0.547232 0.0373597 0)
(0.530268 0.0389083 0)
(0.511656 0.0411148 0)
(0.492739 0.0439913 0)
(0.473716 0.0474169 0)
(0.454213 0.0511563 0)
(0.433921 0.0549468 0)
(0.413847 0.058539 0)
(0.393465 0.0618211 0)
(0.37155 0.064667 0)
(0.348525 0.0670483 0)
(0.324551 0.0689957 0)
(0.299454 0.0705788 0)
(0.273527 0.0718809 0)
(0.247362 0.0730519 0)
(0.221117 0.0742469 0)
(0.194357 0.0756643 0)
(0.1671 0.0774296 0)
(0.14043 0.079532 0)
(0.114604 0.0819194 0)
(0.088251 0.0845771 0)
(0.0628913 0.0868349 0)
(0.0373935 0.0876455 0)
(0.014766 0.0854469 0)
(2.9999 3.44878e-06 0)
(2.99967 -1.40609e-05 0)
(2.99943 -1.28211e-05 0)
(2.99809 1.05599e-05 0)
(2.99593 -0.000378478 0)
(2.98755 -0.000292257 0)
(2.98907 -0.00109269 0)
(2.8573 -0.00617975 0)
(2.73552 0.01533 0)
(2.13693 0.033405 0)
(0.767662 0.0914422 0)
(0.441399 0.0743183 0)
(0.563367 0.0564458 0)
(0.653995 0.0427474 0)
(0.673462 0.0337345 0)
(0.670865 0.029198 0)
(0.659164 0.0287637 0)
(0.644941 0.0302184 0)
(0.634702 0.0327807 0)
(0.626853 0.0358524 0)
(0.620409 0.0388908 0)
(0.613025 0.0413494 0)
(0.603055 0.0430227 0)
(0.591649 0.0440516 0)
(0.578871 0.044753 0)
(0.564605 0.0455043 0)
(0.54926 0.0466802 0)
(0.53231 0.0486001 0)
(0.513815 0.0512932 0)
(0.495117 0.0548626 0)
(0.476333 0.0590998 0)
(0.457066 0.0637175 0)
(0.436964 0.0684041 0)
(0.417039 0.0728127 0)
(0.396769 0.0768299 0)
(0.374898 0.0803393 0)
(0.351856 0.0833018 0)
(0.327818 0.085753 0)
(0.302601 0.0877971 0)
(0.276505 0.0895115 0)
(0.250138 0.0910648 0)
(0.223693 0.0926478 0)
(0.196778 0.0944938 0)
(0.169377 0.0967435 0)
(0.142511 0.0993757 0)
(0.116486 0.102327 0)
(0.0899268 0.105543 0)
(0.0642058 0.108276 0)
(0.0381958 0.10953 0)
(0.0152031 0.107763 0)
(2.9999 -9.02147e-06 0)
(2.99969 6.6398e-06 0)
(2.99941 -5.15784e-06 0)
(2.99827 3.82506e-05 0)
(2.99591 3.10081e-05 0)
(2.98974 -6.89149e-05 0)
(2.99317 0.00026231 0)
(2.8604 -4.82465e-05 0)
(2.74459 0.0141157 0)
(2.16309 0.0246765 0)
(0.786106 0.107745 0)
(0.440821 0.0853893 0)
(0.562214 0.0652353 0)
(0.652753 0.0499422 0)
(0.672645 0.040824 0)
(0.670995 0.0368951 0)
(0.659932 0.0371041 0)
(0.645638 0.0390314 0)
(0.635212 0.0418221 0)
(0.62732 0.0448755 0)
(0.621 0.0479891 0)
(0.613841 0.050503 0)
(0.604228 0.052194 0)
(0.593268 0.0532211 0)
(0.580926 0.0539238 0)
(0.567019 0.0547435 0)
(0.551942 0.0561031 0)
(0.535136 0.0583697 0)
(0.516733 0.0616129 0)
(0.498146 0.0659037 0)
(0.479466 0.0709994 0)
(0.460324 0.0765525 0)
(0.440341 0.0821834 0)
(0.420543 0.0874859 0)
(0.400418 0.0923156 0)
(0.378663 0.0965544 0)
(0.355704 0.100163 0)
(0.33172 0.103184 0)
(0.306505 0.105744 0)
(0.280335 0.107927 0)
(0.253827 0.109914 0)
(0.227196 0.111919 0)
(0.200096 0.114219 0)
(0.172475 0.116982 0)
(0.145301 0.12018 0)
(0.118947 0.123749 0)
(0.0920443 0.1276 0)
(0.0658235 0.130904 0)
(0.0391517 0.132699 0)
(0.0156298 0.131442 0)
(2.9999 4.0002e-06 0)
(2.99968 2.32325e-05 0)
(2.99945 -3.58705e-06 0)
(2.99811 4.7746e-05 0)
(2.99585 -0.00038203 0)
(2.98764 -0.000197636 0)
(2.98895 -0.00337483 0)
(2.86721 -0.00800811 0)
(2.75609 0.016282 0)
(2.18616 0.0255285 0)
(0.809072 0.12059 0)
(0.441978 0.0945286 0)
(0.564598 0.074968 0)
(0.65521 0.0586614 0)
(0.676187 0.0493343 0)
(0.675435 0.0457729 0)
(0.664292 0.0462742 0)
(0.649032 0.0483469 0)
(0.637578 0.0511639 0)
(0.629067 0.0540492 0)
(0.622531 0.0571139 0)
(0.615332 0.0595269 0)
(0.60592 0.0611551 0)
(0.595321 0.0621913 0)
(0.583381 0.0629957 0)
(0.569824 0.0640417 0)
(0.555007 0.0657679 0)
(0.538352 0.0685182 0)
(0.52004 0.0724114 0)
(0.501539 0.077461 0)
(0.482939 0.0834171 0)
(0.463892 0.0898896 0)
(0.444006 0.0964447 0)
(0.424327 0.102641 0)
(0.40436 0.108294 0)
(0.382763 0.113282 0)
(0.359966 0.117573 0)
(0.336153 0.121215 0)
(0.311086 0.124344 0)
(0.284994 0.127064 0)
(0.258475 0.129563 0)
(0.231749 0.132074 0)
(0.204506 0.134895 0)
(0.176639 0.138245 0)
(0.149056 0.142076 0)
(0.122223 0.146333 0)
(0.0948015 0.150897 0)
(0.0678851 0.154874 0)
(0.0403622 0.157297 0)
(0.0161404 0.156607 0)
(2.99991 1.1473e-05 0)
(2.99968 -2.89403e-06 0)
(2.99943 -1.29306e-06 0)
(2.99799 -2.62758e-05 0)
(2.99573 -0.000187931 0)
(2.98751 -0.000323762 0)
(2.98757 -0.000679275 0)
(2.8743 -0.00687233 0)
(2.77161 0.0199354 0)
(2.21955 0.0321049 0)
(0.827312 0.128177 0)
(0.431122 0.103564 0)
(0.555559 0.085301 0)
(0.646371 0.0670908 0)
(0.670382 0.0573604 0)
(0.673065 0.054382 0)
(0.664449 0.0552604 0)
(0.65067 0.0575521 0)
(0.640059 0.0605242 0)
(0.632058 0.0633814 0)
(0.625635 0.0665356 0)
(0.618062 0.0688982 0)
(0.60819 0.0704855 0)
(0.597171 0.0715302 0)
(0.584942 0.072427 0)
(0.571277 0.0736868 0)
(0.556526 0.0757762 0)
(0.540079 0.079015 0)
(0.522104 0.0835532 0)
(0.504026 0.0893761 0)
(0.485862 0.0962074 0)
(0.467229 0.103612 0)
(0.447708 0.111108 0)
(0.428359 0.118217 0)
(0.408707 0.124716 0)
(0.387407 0.130481 0)
(0.364897 0.13549 0)
(0.341374 0.139792 0)
(0.31658 0.143542 0)
(0.290688 0.146873 0)
(0.264259 0.149979 0)
(0.237507 0.153111 0)
(0.210165 0.156566 0)
(0.182046 0.160636 0)
(0.153965 0.165227 0)
(0.126496 0.170285 0)
(0.0983661 0.175674 0)
(0.0705478 0.180429 0)
(0.0419376 0.183576 0)
(0.0167598 0.183489 0)
(2.9999 -3.87722e-06 0)
(2.99967 -2.0733e-05 0)
(2.99943 1.15924e-06 0)
(2.99797 2.20533e-05 0)
(2.99562 7.70385e-05 0)
(2.98725 -0.000310311 0)
(2.98409 0.000368206 0)
(2.88367 -0.00291738 0)
(2.78861 0.0198421 0)
(2.25233 0.0331169 0)
(0.855777 0.14021 0)
(0.437816 0.115847 0)
(0.558166 0.0969445 0)
(0.647487 0.0754088 0)
(0.674774 0.0652288 0)
(0.679289 0.0628588 0)
(0.670632 0.0637027 0)
(0.65605 0.0662088 0)
(0.644466 0.0696699 0)
(0.635799 0.0730395 0)
(0.628785 0.0766414 0)
(0.620351 0.0791941 0)
(0.609757 0.0807832 0)
(0.598179 0.0817124 0)
(0.585625 0.0824806 0)
(0.571905 0.0837102 0)
(0.557335 0.085951 0)
(0.541258 0.0895534 0)
(0.523824 0.0946751 0)
(0.506389 0.101281 0)
(0.488876 0.109038 0)
(0.470858 0.117443 0)
(0.451886 0.125954 0)
(0.433028 0.134043 0)
(0.413835 0.141445 0)
(0.392957 0.148043 0)
(0.370843 0.153823 0)
(0.347705 0.15884 0)
(0.323272 0.163278 0)
(0.297661 0.167308 0)
(0.271384 0.171137 0)
(0.244635 0.175029 0)
(0.21722 0.17928 0)
(0.188854 0.184265 0)
(0.160207 0.189795 0)
(0.131968 0.195818 0)
(0.102935 0.202189 0)
(0.0739593 0.207876 0)
(0.0439728 0.211857 0)
(0.0175648 0.212425 0)
(2.9999 -7.20929e-06 0)
(2.99968 7.2972e-06 0)
(2.99946 1.67131e-05 0)
(2.99805 4.82442e-05 0)
(2.99546 0.000387366 0)
(2.98774 0.00130721 0)
(2.98567 0.00290831 0)
(2.88927 0.00325713 0)
(2.80146 0.020446 0)
(2.2974 0.0369068 0)
(0.900118 0.142 0)
(0.452681 0.124586 0)
(0.564566 0.107808 0)
(0.650899 0.0835168 0)
(0.682733 0.0739264 0)
(0.688496 0.0726843 0)
(0.678788 0.0734333 0)
(0.662968 0.0761229 0)
(0.650161 0.0798639 0)
(0.640799 0.0836574 0)
(0.633406 0.0875123 0)
(0.624526 0.0901884 0)
(0.613678 0.0917245 0)
(0.60193 0.092461 0)
(0.589271 0.0929958 0)
(0.575514 0.0940775 0)
(0.560955 0.0963569 0)
(0.544947 0.100253 0)
(0.527704 0.105907 0)
(0.510588 0.113283 0)
(0.493462 0.121978 0)
(0.475878 0.131411 0)
(0.457351 0.14098 0)
(0.438935 0.150089 0)
(0.4202 0.158441 0)
(0.399784 0.165922 0)
(0.378118 0.172526 0)
(0.355413 0.178321 0)
(0.331398 0.183526 0)
(0.306119 0.188361 0)
(0.280033 0.193048 0)
(0.253305 0.197874 0)
(0.22585 0.203125 0)
(0.19725 0.209246 0)
(0.167971 0.215962 0)
(0.13884 0.223186 0)
(0.108715 0.230764 0)
(0.0783252 0.23758 0)
(0.0466144 0.242556 0)
(0.0185866 0.243855 0)
(2.99991 -4.92049e-07 0)
(2.99969 1.43469e-05 0)
(2.99946 3.09416e-06 0)
(2.99828 3.16409e-05 0)
(2.99669 0.000143981 0)
(2.98939 0.0010281 0)
(2.98564 0.0016388 0)
(2.8993 -0.00018943 0)
(2.81968 0.0177386 0)
(2.34452 0.0310093 0)
(0.953733 0.132382 0)
(0.48086 0.131303 0)
(0.572506 0.118684 0)
(0.652629 0.0933026 0)
(0.690169 0.0843219 0)
(0.696933 0.0836108 0)
(0.686099 0.0841198 0)
(0.669423 0.0867946 0)
(0.655535 0.0906248 0)
(0.645491 0.0946636 0)
(0.637666 0.0987373 0)
(0.628366 0.101491 0)
(0.617349 0.102965 0)
(0.605589 0.103523 0)
(0.593054 0.103851 0)
(0.579527 0.104816 0)
(0.565253 0.107152 0)
(0.549547 0.111325 0)
(0.532682 0.117485 0)
(0.516029 0.125597 0)
(0.499379 0.1352 0)
(0.482286 0.145645 0)
(0.464242 0.156261 0)
(0.446298 0.166394 0)
(0.428058 0.175718 0)
(0.408146 0.184111 0)
(0.386964 0.191581 0)
(0.364728 0.198228 0)
(0.341175 0.204285 0)
(0.316277 0.210042 0)
(0.290432 0.215741 0)
(0.26376 0.221694 0)
(0.236291 0.228184 0)
(0.207489 0.235686 0)
(0.177553 0.243885 0)
(0.147423 0.252631 0)
(0.116007 0.26174 0)
(0.0838802 0.270001 0)
(0.0500246 0.276203 0)
(0.0199386 0.278345 0)
(2.99991 1.64379e-06 0)
(2.99969 2.99795e-06 0)
(2.99948 6.41729e-06 0)
(2.99816 9.02359e-06 0)
(2.99629 -1.33137e-05 0)
(2.989 -3.65011e-05 0)
(2.9847 0.000229332 0)
(2.90432 -0.000946981 0)
(2.83074 0.0133868 0)
(2.38524 0.0245846 0)
(1.00567 0.117157 0)
(0.50773 0.143001 0)
(0.573612 0.129507 0)
(0.650041 0.104205 0)
(0.696311 0.0952749 0)
(0.705338 0.0942298 0)
(0.69379 0.0947887 0)
(0.676304 0.0977301 0)
(0.661131 0.101906 0)
(0.650146 0.106317 0)
(0.641559 0.110621 0)
(0.631495 0.113346 0)
(0.620083 0.114637 0)
(0.608204 0.114885 0)
(0.595832 0.114885 0)
(0.582716 0.115645 0)
(0.568998 0.117984 0)
(0.553925 0.122397 0)
(0.537811 0.129074 0)
(0.521982 0.137952 0)
(0.506123 0.1485 0)
(0.489775 0.159997 0)
(0.472414 0.171704 0)
(0.455098 0.182897 0)
(0.437476 0.193229 0)
(0.418164 0.202577 0)
(0.397559 0.210966 0)
(0.375863 0.218541 0)
(0.352837 0.22554 0)
(0.328402 0.232353 0)
(0.302871 0.239242 0)
(0.276318 0.24652 0)
(0.248884 0.254535 0)
(0.219925 0.263719 0)
(0.189338 0.273781 0)
(0.158122 0.284469 0)
(0.125228 0.295537 0)
(0.0910365 0.305678 0)
(0.0544762 0.313497 0)
(0.0216829 0.316708 0)
(2.99991 1.09192e-06 0)
(2.99969 9.67694e-07 0)
(2.99947 2.37281e-05 0)
(2.99826 7.96368e-06 0)
(2.99667 0.000138362 0)
(2.98962 0.000640056 0)
(2.98484 0.000558683 0)
(2.91048 0.00083311 0)
(2.84301 0.0140744 0)
(2.41815 0.0219847 0)
(1.0746 0.101974 0)
(0.551183 0.151038 0)
(0.579238 0.133667 0)
(0.652795 0.112717 0)
(0.704964 0.105167 0)
(0.7145 0.104676 0)
(0.701599 0.106174 0)
(0.68291 0.109853 0)
(0.666343 0.11451 0)
(0.654404 0.119318 0)
(0.645023 0.123578 0)
(0.634243 0.12602 0)
(0.62253 0.126844 0)
(0.610624 0.126502 0)
(0.598543 0.125926 0)
(0.585985 0.126286 0)
(0.572956 0.128512 0)
(0.558665 0.133123 0)
(0.543481 0.140324 0)
(0.52866 0.150019 0)
(0.513772 0.161584 0)
(0.498355 0.174212 0)
(0.481849 0.187091 0)
(0.465324 0.199428 0)
(0.448484 0.21084 0)
(0.429929 0.221217 0)
(0.410043 0.230605 0)
(0.389007 0.239198 0)
(0.366632 0.247253 0)
(0.342802 0.25528 0)
(0.317699 0.263549 0)
(0.291394 0.272362 0)
(0.264102 0.282239 0)
(0.235072 0.293454 0)
(0.203909 0.305866 0)
(0.171552 0.319071 0)
(0.136981 0.332721 0)
(0.100331 0.345389 0)
(0.0604123 0.355388 0)
(0.0240845 0.360026 0)
(2.99991 3.41716e-06 0)
(2.99971 8.62965e-06 0)
(2.99948 2.73648e-05 0)
(2.99826 4.84039e-05 0)
(2.99687 0.000126816 0)
(2.98936 0.000270952 0)
(2.98487 0.00085319 0)
(2.91686 0.00111567 0)
(2.85252 0.0124085 0)
(2.45174 0.0235437 0)
(1.13835 0.0940216 0)
(0.589239 0.158404 0)
(0.572271 0.138778 0)
(0.646211 0.120416 0)
(0.703749 0.113766 0)
(0.715912 0.11426 0)
(0.703952 0.117089 0)
(0.685958 0.121898 0)
(0.669696 0.127347 0)
(0.65805 0.132824 0)
(0.648743 0.137048 0)
(0.638019 0.139122 0)
(0.62658 0.13932 0)
(0.615052 0.138212 0)
(0.603501 0.136914 0)
(0.591584 0.136775 0)
(0.579166 0.138837 0)
(0.565454 0.143603 0)
(0.550975 0.151321 0)
(0.536966 0.161837 0)
(0.522902 0.174435 0)
(0.508343 0.188222 0)
(0.492701 0.202303 0)
(0.477033 0.215838 0)
(0.461088 0.228399 0)
(0.443441 0.239886 0)
(0.424454 0.250361 0)
(0.40426 0.26007 0)
(0.382742 0.269318 0)
(0.359741 0.278729 0)
(0.33524 0.288564 0)
(0.309426 0.299181 0)
(0.282476 0.311278 0)
(0.253547 0.324958 0)
(0.222019 0.3403 0)
(0.188565 0.356762 0)
(0.152187 0.373884 0)
(0.112668 0.390088 0)
(0.0684775 0.403261 0)
(0.0273731 0.409993 0)
(2.99992 7.37776e-06 0)
(2.99971 1.48258e-05 0)
(2.99951 2.39151e-05 0)
(2.99836 6.65487e-05 0)
(2.99688 0.00016566 0)
(2.99033 0.00043385 0)
(2.98566 0.00130723 0)
(2.92144 0.00159094 0)
(2.86637 0.0116671 0)
(2.47749 0.0209925 0)
(1.2238 0.0914796 0)
(0.646719 0.164329 0)
(0.575869 0.146352 0)
(0.648857 0.128309 0)
(0.710162 0.122237 0)
(0.722979 0.123429 0)
(0.709979 0.127418 0)
(0.691005 0.133449 0)
(0.674113 0.139876 0)
(0.662252 0.146189 0)
(0.652734 0.150411 0)
(0.642118 0.152046 0)
(0.631031 0.151518 0)
(0.619942 0.149616 0)
(0.609009 0.147622 0)
(0.597842 0.147052 0)
(0.586115 0.149036 0)
(0.573085 0.153995 0)
(0.559445 0.162255 0)
(0.546325 0.17357 0)
(0.533136 0.187149 0)
(0.519482 0.202043 0)
(0.504771 0.217296 0)
(0.490067 0.232025 0)
(0.475164 0.245756 0)
(0.458602 0.258393 0)
(0.44071 0.270025 0)
(0.421596 0.280947 0)
(0.40122 0.291551 0)
(0.379335 0.302503 0)
(0.355747 0.314045 0)
(0.330828 0.326881 0)
(0.304573 0.341548 0)
(0.276088 0.358241 0)
(0.244604 0.377242 0)
(0.210328 0.397933 0)
(0.172192 0.419751 0)
(0.129477 0.441042 0)
(0.0799657 0.459068 0)
(0.0322775 0.469169 0)
(2.99992 1.23782e-05 0)
(2.99972 1.81285e-05 0)
(2.99954 6.75776e-05 0)
(2.9984 0.000123927 0)
(2.99724 0.000232253 0)
(2.99049 0.000731104 0)
(2.986 0.000690905 0)
(2.92669 0.0014665 0)
(2.87271 0.0108019 0)
(2.51003 0.0134588 0)
(1.30406 0.0892341 0)
(0.695111 0.16664 0)
(0.572272 0.150364 0)
(0.647528 0.134175 0)
(0.71508 0.13057 0)
(0.729875 0.133632 0)
(0.71659 0.139312 0)
(0.696837 0.146638 0)
(0.679454 0.153709 0)
(0.667274 0.160513 0)
(0.657242 0.164388 0)
(0.646541 0.165228 0)
(0.635619 0.163673 0)
(0.6248 0.160817 0)
(0.614359 0.158041 0)
(0.603962 0.157004 0)
(0.593027 0.1589 0)
(0.58086 0.1641 0)
(0.568299 0.17292 0)
(0.556277 0.185019 0)
(0.544133 0.199551 0)
(0.531528 0.215513 0)
(0.517883 0.231896 0)
(0.504269 0.247801 0)
(0.490538 0.262702 0)
(0.475234 0.276501 0)
(0.458666 0.289336 0)
(0.440928 0.30156 0)
(0.422024 0.313658 0)
(0.401551 0.326182 0)
(0.379433 0.339749 0)
(0.356017 0.3552 0)
(0.330955 0.372792 0)
(0.30358 0.393135 0)
(0.272885 0.416597 0)
(0.238444 0.442771 0)
(0.199041 0.471047 0)
(0.153145 0.499826 0)
(0.0970449 0.525772 0)
(0.039904 0.542073 0)
(2.99994 1.23352e-05 0)
(2.99977 2.44609e-05 0)
(2.99962 0.000100716 0)
(2.99853 0.000110718 0)
(2.9975 0.000485585 0)
(2.99079 0.000587247 0)
(2.98639 0.00167061 0)
(2.93152 0.000852043 0)
(2.88024 0.0117597 0)
(2.53674 0.0101265 0)
(1.38946 0.0852967 0)
(0.75313 0.171389 0)
(0.568917 0.154987 0)
(0.645867 0.139954 0)
(0.719845 0.138547 0)
(0.736506 0.14377 0)
(0.723137 0.151356 0)
(0.702661 0.160151 0)
(0.685076 0.168161 0)
(0.672796 0.175384 0)
(0.66204 0.178798 0)
(0.651123 0.178664 0)
(0.640284 0.175915 0)
(0.629674 0.171901 0)
(0.619703 0.168224 0)
(0.61015 0.166596 0)
(0.600157 0.16828 0)
(0.589043 0.17369 0)
(0.577747 0.183065 0)
(0.566984 0.195935 0)
(0.556023 0.211401 0)
(0.544568 0.228406 0)
(0.532084 0.24587 0)
(0.51967 0.262894 0)
(0.507221 0.27895 0)
(0.493317 0.293916 0)
(0.478286 0.307966 0)
(0.462221 0.321533 0)
(0.445019 0.335088 0)
(0.426477 0.349389 0)
(0.4066 0.365359 0)
(0.385277 0.383523 0)
(0.362216 0.404434 0)
(0.336967 0.429013 0)
(0.308271 0.457788 0)
(0.275127 0.490919 0)
(0.235847 0.528135 0)
(0.187796 0.568242 0)
(0.124402 0.607763 0)
(0.0534107 0.637487 0)
(2.99995 1.88502e-05 0)
(2.99982 1.62413e-05 0)
(2.99963 4.9806e-05 0)
(2.99882 5.72484e-05 0)
(2.99776 0.00027702 0)
(2.99175 0.000423136 0)
(2.98639 0.00180882 0)
(2.93627 0.00135477 0)
(2.88239 0.0113046 0)
(2.53534 0.0209659 0)
(1.47825 0.0840015 0)
(0.811472 0.174542 0)
(0.561972 0.157021 0)
(0.642555 0.144817 0)
(0.72402 0.146373 0)
(0.742669 0.154345 0)
(0.728874 0.164045 0)
(0.707615 0.174388 0)
(0.689939 0.183817 0)
(0.677536 0.191177 0)
(0.666236 0.19382 0)
(0.655486 0.192411 0)
(0.645117 0.188172 0)
(0.635102 0.182731 0)
(0.625906 0.177999 0)
(0.617372 0.175687 0)
(0.608502 0.177099 0)
(0.598603 0.182679 0)
(0.588615 0.192603 0)
(0.579082 0.206241 0)
(0.569285 0.222614 0)
(0.558952 0.240617 0)
(0.547614 0.259111 0)
(0.536456 0.277203 0)
(0.525372 0.294343 0)
(0.512964 0.310424 0)
(0.499633 0.325621 0)
(0.485406 0.340386 0)
(0.470355 0.355551 0)
(0.454448 0.371888 0)
(0.437304 0.390161 0)
(0.418812 0.411056 0)
(0.39896 0.435569 0)
(0.377257 0.464796 0)
(0.352492 0.499765 0)
(0.323308 0.541409 0)
(0.287355 0.590474 0)
(0.240662 0.647404 0)
(0.172211 0.710876 0)
(0.0807084 0.773588 0)
(2.99996 1.90733e-05 0)
(2.9998 -4.58215e-06 0)
(2.99966 7.85533e-06 0)
(2.99878 3.97179e-05 0)
(2.99791 -1.49912e-05 0)
(2.99248 0.000212225 0)
(2.98748 0.00134668 0)
(2.9411 0.00170936 0)
(2.90217 0.0112231 0)
(2.5878 0.025633 0)
(1.58618 0.0861029 0)
(0.870863 0.178324 0)
(0.545649 0.158177 0)
(0.63541 0.148264 0)
(0.72718 0.153068 0)
(0.748611 0.164261 0)
(0.734257 0.176382 0)
(0.712522 0.188742 0)
(0.694812 0.19976 0)
(0.682039 0.206856 0)
(0.670558 0.208436 0)
(0.660514 0.20548 0)
(0.651144 0.1995 0)
(0.642233 0.192535 0)
(0.634187 0.186738 0)
(0.626844 0.183855 0)
(0.61913 0.185114 0)
(0.610411 0.190908 0)
(0.601631 0.201382 0)
(0.593151 0.21575 0)
(0.584346 0.23295 0)
(0.575011 0.251847 0)
(0.564765 0.271248 0)
(0.554837 0.29031 0)
(0.545129 0.308399 0)
(0.534276 0.325337 0)
(0.522689 0.341534 0)
(0.510778 0.357628 0)
(0.498489 0.374366 0)
(0.485435 0.392411 0)
(0.471549 0.412705 0)
(0.456955 0.436264 0)
(0.44171 0.464296 0)
(0.425474 0.498149 0)
(0.407389 0.539575 0)
(0.386301 0.590605 0)
(0.359994 0.654121 0)
(0.324101 0.735321 0)
(0.264373 0.844207 0)
(0.145097 1.0132 0)
(2.99995 7.09011e-06 0)
(2.99981 -3.42928e-05 0)
(2.99968 9.09646e-06 0)
(2.9988 -0.000179741 0)
(2.99797 6.22702e-05 0)
(2.9935 -0.000436019 0)
(2.98818 0.000823247 0)
(2.94903 0.000548063 0)
(2.91368 0.0107956 0)
(2.61707 0.0199608 0)
(1.70344 0.0847165 0)
(0.952119 0.178682 0)
(0.533421 0.162284 0)
(0.631813 0.156494 0)
(0.734312 0.164694 0)
(0.756575 0.178507 0)
(0.739848 0.193379 0)
(0.71748 0.208231 0)
(0.699613 0.22023 0)
(0.686789 0.225972 0)
(0.67634 0.225414 0)
(0.668115 0.219908 0)
(0.660736 0.211561 0)
(0.653832 0.202877 0)
(0.647662 0.19615 0)
(0.64204 0.192973 0)
(0.635877 0.194383 0)
(0.628757 0.200727 0)
(0.621564 0.211941 0)
(0.614426 0.227131 0)
(0.606936 0.245219 0)
(0.598963 0.265034 0)
(0.590299 0.285317 0)
(0.582204 0.305298 0)
(0.574368 0.324116 0)
(0.565885 0.342017 0)
(0.557598 0.359432 0)
(0.549311 0.376844 0)
(0.540803 0.394821 0)
(0.532359 0.414329 0)
(0.52411 0.43655 0)
(0.516312 0.462684 0)
(0.50944 0.49409 0)
(0.503848 0.532337 0)
(0.49995 0.579694 0)
(0.498817 0.639152 0)
(0.503269 0.715153 0)
(0.521222 0.814994 0)
(0.582679 0.949448 0)
(0.656792 1.14423 0)
(2.99991 2.57034e-06 0)
(2.99981 -1.41833e-05 0)
(2.99942 2.75634e-05 0)
(2.99886 -0.000173889 0)
(2.99747 4.19732e-05 0)
(2.99356 -0.00129373 0)
(2.98906 0.000628368 0)
(2.95639 -0.00206338 0)
(2.93504 0.00965295 0)
(2.6599 0.0264262 0)
(1.82981 0.0832407 0)
(1.03081 0.182884 0)
(0.500686 0.167125 0)
(0.619804 0.166438 0)
(0.733809 0.178574 0)
(0.755481 0.194848 0)
(0.738119 0.212166 0)
(0.717294 0.228378 0)
(0.700634 0.238984 0)
(0.689302 0.241846 0)
(0.681516 0.238376 0)
(0.676085 0.230196 0)
(0.671433 0.22 0)
(0.667059 0.210463 0)
(0.662977 0.203613 0)
(0.659005 0.200799 0)
(0.654381 0.202849 0)
(0.648797 0.210102 0)
(0.642975 0.222088 0)
(0.637061 0.237934 0)
(0.63084 0.256608 0)
(0.624142 0.276911 0)
(0.617032 0.297615 0)
(0.610517 0.317977 0)
(0.604857 0.337301 0)
(0.599514 0.355913 0)
(0.594348 0.373895 0)
(0.589449 0.391673 0)
(0.58513 0.41012 0)
(0.581694 0.430271 0)
(0.579539 0.453236 0)
(0.57926 0.480272 0)
(0.581691 0.51269 0)
(0.588064 0.551979 0)
(0.600171 0.59999 0)
(0.621101 0.659117 0)
(0.656609 0.732137 0)
(0.715317 0.8223 0)
(0.827676 0.929192 0)
(0.97611 1.04137 0)
(2.99993 -1.00462e-07 0)
(2.99985 3.13235e-05 0)
(2.99942 6.76602e-05 0)
(2.99883 0.000183626 0)
(2.9961 0.000339467 0)
(2.9945 0.000129487 0)
(2.98685 0.00257506 0)
(2.96414 0.00247855 0)
(2.96171 0.0136884 0)
(2.69592 0.0318742 0)
(1.94133 0.0741208 0)
(1.0844 0.172894 0)
(0.469239 0.162565 0)
(0.610809 0.175567 0)
(0.730233 0.190879 0)
(0.752062 0.209315 0)
(0.737017 0.228936 0)
(0.718295 0.244929 0)
(0.702611 0.252753 0)
(0.693989 0.252289 0)
(0.689738 0.245856 0)
(0.68753 0.235761 0)
(0.68604 0.224802 0)
(0.684226 0.215504 0)
(0.681928 0.209493 0)
(0.679317 0.207774 0)
(0.676008 0.210954 0)
(0.671511 0.21917 0)
(0.666399 0.231873 0)
(0.661214 0.248206 0)
(0.655861 0.267168 0)
(0.650168 0.287563 0)
(0.644444 0.308323 0)
(0.639916 0.32873 0)
(0.636677 0.348324 0)
(0.633887 0.366841 0)
(0.631654 0.384548 0)
(0.63044 0.402116 0)
(0.630495 0.420332 0)
(0.632187 0.440126 0)
(0.636075 0.46254 0)
(0.64299 0.488628 0)
(0.6541 0.519466 0)
(0.670992 0.55613 0)
(0.695947 0.599577 0)
(0.732242 0.650749 0)
(0.784981 0.709874 0)
(0.859519 0.775777 0)
(0.973584 0.84371 0)
(1.10802 0.893825 0)
(2.99996 8.35269e-07 0)
(2.99992 4.76476e-05 0)
(2.99967 9.08939e-05 0)
(2.99931 0.000342627 0)
(2.99735 0.000648911 0)
(2.9973 0.00189867 0)
(2.99268 0.00348609 0)
(2.97569 0.00717511 0)
(2.98067 0.0140884 0)
(2.7179 0.0270904 0)
(2.06567 0.0492146 0)
(1.20031 0.136187 0)
(0.46634 0.161535 0)
(0.603944 0.195765 0)
(0.713733 0.211207 0)
(0.741412 0.229938 0)
(0.733313 0.248745 0)
(0.718876 0.260376 0)
(0.707208 0.263393 0)
(0.703371 0.258649 0)
(0.703872 0.249037 0)
(0.705575 0.237725 0)
(0.707118 0.226932 0)
(0.707536 0.218704 0)
(0.706518 0.214375 0)
(0.704513 0.214451 0)
(0.701479 0.219238 0)
(0.697064 0.228573 0)
(0.691928 0.241831 0)
(0.686777 0.258334 0)
(0.68167 0.277112 0)
(0.676602 0.297122 0)
(0.672179 0.31731 0)
(0.669498 0.337044 0)
(0.668165 0.355797 0)
(0.667642 0.373335 0)
(0.66846 0.390129 0)
(0.670896 0.406745 0)
(0.67516 0.423873 0)
(0.68164 0.44231 0)
(0.690931 0.462903 0)
(0.703908 0.486468 0)
(0.72173 0.513711 0)
(0.74591 0.545171 0)
(0.778435 0.581098 0)
(0.821899 0.621242 0)
(0.879496 0.664625 0)
(0.953809 0.70853 0)
(1.05465 0.749058 0)
(1.16621 0.771863 0)
(3 3.35606e-06 0)
(3 3.278e-05 0)
(2.99991 7.67702e-05 0)
(2.99976 0.000274809 0)
(2.99869 0.000561675 0)
(2.99921 0.0017205 0)
(2.99563 0.00263762 0)
(2.98215 0.00483878 0)
(2.99132 0.00928631 0)
(2.7407 0.0156626 0)
(2.18488 0.0400293 0)
(1.3245 0.107833 0)
(0.490252 0.175377 0)
(0.595648 0.21368 0)
(0.684911 0.227532 0)
(0.723482 0.243395 0)
(0.723721 0.25713 0)
(0.716404 0.262468 0)
(0.712587 0.260987 0)
(0.715692 0.253781 0)
(0.722778 0.243713 0)
(0.72975 0.233707 0)
(0.734806 0.225318 0)
(0.737622 0.219901 0)
(0.737765 0.218451 0)
(0.735767 0.221074 0)
(0.732018 0.227737 0)
(0.726188 0.238312 0)
(0.719513 0.252084 0)
(0.71329 0.268521 0)
(0.707659 0.28668 0)
(0.702565 0.305681 0)
(0.69873 0.324495 0)
(0.697305 0.342751 0)
(0.697672 0.359761 0)
(0.699454 0.375659 0)
(0.703193 0.390828 0)
(0.709052 0.405761 0)
(0.717189 0.421058 0)
(0.727924 0.437391 0)
(0.741747 0.45539 0)
(0.759412 0.475615 0)
(0.781852 0.498446 0)
(0.810314 0.524027 0)
(0.846273 0.552207 0)
(0.891491 0.582273 0)
(0.947994 0.612957 0)
(1.01771 0.641984 0)
(1.1037 0.66629 0)
(1.19506 0.678396 0)
(3.00001 -1.44181e-05 0)
(3.00004 -2.18809e-05 0)
(3.00008 -0.0001011 0)
(3.00012 -0.000127378 0)
(2.99977 -0.000433736 0)
(3.00074 -0.000213651 0)
(2.99785 -0.0019389 0)
(2.98711 -0.00139317 0)
(2.99743 0.00419862 0)
(2.76089 -0.0465334 0)
(2.27982 0.0978857 0)
(1.44953 0.0519093 0)
(0.540382 0.226498 0)
(0.576236 0.269993 0)
(0.650442 0.276932 0)
(0.70379 0.274327 0)
(0.71875 0.269078 0)
(0.723636 0.260026 0)
(0.730171 0.250354 0)
(0.7404 0.240245 0)
(0.752901 0.231303 0)
(0.763846 0.224902 0)
(0.771385 0.221565 0)
(0.775609 0.221612 0)
(0.775875 0.225218 0)
(0.772422 0.232033 0)
(0.76634 0.241588 0)
(0.757756 0.253344 0)
(0.748285 0.267331 0)
(0.739711 0.282815 0)
(0.732395 0.299132 0)
(0.726407 0.315313 0)
(0.72283 0.331278 0)
(0.722338 0.346613 0)
(0.724028 0.360717 0)
(0.727972 0.373962 0)
(0.734434 0.386695 0)
(0.743437 0.399335 0)
(0.755059 0.412369 0)
(0.769493 0.426287 0)
(0.787044 0.441525 0)
(0.808251 0.458407 0)
(0.833764 0.477074 0)
(0.86447 0.497446 0)
(0.901406 0.519157 0)
(0.945705 0.541484 0)