/*--------------------------------*- C++ -*----------------------------------*\
| =========                 |                                                 |
| \\      /  F ield         | OpenFOAM: The Open Source CFD Toolbox           |
|  \\    /   O peration     | Version:  2412                                  |
|   \\  /    A nd           | Website:  www.openfoam.com                      |
|    \\/     M anipulation  |                                                 |
\*---------------------------------------------------------------------------*/
FoamFile
{
    version     2.0;
    format      ascii;
    arch        "LSB;label=32;scalar=64";
    class       volScalarField;
    location    "21.5";
    object      Ma;
}
// * * * * * * * * * * * * * * * * * * * * * * * * * * * * * * * * * * * * * //

dimensions      [0 0 0 0 0 0 0];

internalField   nonuniform List<scalar> 
7000
(
2.25603
0.994264
0.300587
0.338439
0.401065
0.442396
0.450605
0.446135
0.43978
0.43487
0.432024
0.429752
0.427153
0.424065
0.420594
0.416818
0.412752
0.408373
0.403663
0.398602
0.39318
0.387383
0.381197
0.374604
0.367591
0.360138
0.352229
0.343843
0.334961
0.325563
0.31563
0.305137
0.294068
0.282398
0.270112
0.257188
0.243614
0.229376
0.214468
0.198886
0.182636
0.165729
0.148192
0.130056
0.11137
0.0921941
0.0725921
0.0528479
0.0319236
0.0155249
2.25609
0.994325
0.300384
0.338274
0.40091
0.442248
0.450457
0.445991
0.439642
0.434739
0.431897
0.429629
0.427033
0.423949
0.420482
0.416712
0.412651
0.408279
0.403574
0.39852
0.393106
0.387316
0.381139
0.374556
0.367554
0.360112
0.352216
0.343843
0.334977
0.325596
0.315681
0.305209
0.294161
0.282516
0.270256
0.257361
0.24382
0.229617
0.214749
0.199211
0.183013
0.166167
0.148703
0.130662
0.112104
0.0931188
0.0738203
0.0546566
0.0351578
0.0220577
2.25622
0.994522
0.300517
0.338308
0.40094
0.442281
0.450491
0.446031
0.4397
0.434807
0.43198
0.429715
0.42713
0.424052
0.4206
0.416837
0.412792
0.408429
0.403742
0.3987
0.393306
0.387532
0.381378
0.374815
0.36784
0.360423
0.35256
0.344218
0.335392
0.326049
0.316181
0.305757
0.294767
0.283183
0.270993
0.258176
0.244722
0.230618
0.215861
0.200454
0.184406
0.167744
0.150502
0.132747
0.114567
0.0961181
0.077635
0.0598406
0.0430415
0.0335729
2.25639
0.994828
0.300788
0.338386
0.401021
0.442381
0.450594
0.446148
0.43983
0.434966
0.432149
0.429904
0.427326
0.42427
0.420828
0.417092
0.413059
0.408725
0.404053
0.399046
0.393671
0.387937
0.381808
0.375291
0.368347
0.360985
0.353161
0.344885
0.336108
0.326843
0.317039
0.306708
0.295798
0.284325
0.272239
0.259557
0.246236
0.2323
0.21772
0.202526
0.186722
0.170349
0.153464
0.13615
0.118556
0.100897
0.0835517
0.0674583
0.0533035
0.0461812
2.25664
0.995259
0.301137
0.338455
0.401106
0.442502
0.450723
0.446298
0.439992
0.43517
0.432363
0.430151
0.427582
0.424561
0.421133
0.417435
0.413422
0.40913
0.404484
0.399522
0.394181
0.388498
0.382413
0.375955
0.369069
0.361773
0.354022
0.345823
0.337138
0.327964
0.318274
0.308051
0.297284
0.285942
0.274032
0.261514
0.248413
0.234686
0.220382
0.205468
0.190019
0.17404
0.157641
0.140923
0.124074
0.10741
0.091373
0.0770301
0.0651092
0.0594952
2.25697
0.995831
0.30158
0.338527
0.401202
0.442647
0.450893
0.446469
0.440222
0.435405
0.432658
0.430444
0.427932
0.424911
0.421547
0.417855
0.413912
0.40963
0.405061
0.400117
0.394863
0.389208
0.383221
0.376803
0.370027
0.362789
0.355163
0.347042
0.3385
0.329432
0.319904
0.309823
0.299242
0.288085
0.276393
0.264114
0.251273
0.237856
0.223873
0.209363
0.194335
0.178896
0.16309
0.147119
0.131167
0.115614
0.100985
0.0882983
0.0781887
0.0736207
2.25739
0.996557
0.302124
0.338602
0.401309
0.442825
0.451097
0.446701
0.440483
0.435716
0.432998
0.430828
0.428341
0.425371
0.422035
0.418403
0.414492
0.41028
0.40575
0.400889
0.395681
0.390124
0.384193
0.377894
0.371187
0.364091
0.356552
0.348601
0.340169
0.331302
0.321917
0.312073
0.301678
0.2908
0.27935
0.267399
0.254876
0.241848
0.228284
0.214249
0.199775
0.184941
0.169889
0.154753
0.139835
0.12548
0.112236
0.101079
0.0924456
0.0886262
2.2579
0.997449
0.302776
0.338683
0.401429
0.443035
0.451344
0.446981
0.440803
0.436092
0.433412
0.431291
0.428843
0.425925
0.422637
0.419064
0.415211
0.411065
0.406605
0.40182
0.396697
0.39123
0.385404
0.379209
0.372633
0.365658
0.358281
0.350474
0.342243
0.333549
0.324411
0.314777
0.304686
0.29407
0.28299
0.271371
0.259294
0.246695
0.233668
0.220194
0.206378
0.192285
0.178051
0.163898
0.150055
0.136959
0.125076
0.115264
0.107844
0.104624
2.25852
0.998518
0.303545
0.338771
0.401565
0.443281
0.451641
0.447311
0.441193
0.436532
0.433912
0.431837
0.429447
0.426581
0.423361
0.419848
0.416072
0.411999
0.407627
0.40293
0.397912
0.392552
0.386849
0.380785
0.374355
0.367543
0.36034
0.352734
0.34471
0.336264
0.327375
0.318048
0.308255
0.29802
0.2873
0.276154
0.264523
0.252505
0.240044
0.227278
0.214191
0.200959
0.187672
0.174548
0.161897
0.150029
0.139454
0.13089
0.124494
0.121717
2.25924
0.999778
0.304442
0.338869
0.401719
0.44357
0.451989
0.447712
0.441644
0.437064
0.434492
0.432491
0.430151
0.427366
0.424205
0.420783
0.417079
0.413108
0.408824
0.404245
0.399335
0.394113
0.388543
0.382643
0.376378
0.369761
0.36276
0.355387
0.347613
0.339448
0.330867
0.321879
0.312468
0.302641
0.292396
0.281741
0.270699
0.259278
0.247548
0.235515
0.223324
0.211003
0.198788
0.186795
0.175339
0.164785
0.15544
0.147992
0.142491
0.140146
2.26008
1.00124
0.305475
0.338978
0.401894
0.443902
0.4524
0.448167
0.442194
0.437671
0.435188
0.433239
0.43099
0.428266
0.425207
0.421858
0.418267
0.414386
0.410231
0.405763
0.401002
0.395916
0.390524
0.384792
0.378735
0.372326
0.365575
0.358459
0.350985
0.343136
0.334916
0.326318
0.317343
0.307997
0.298281
0.288219
0.27782
0.26713
0.256175
0.245041
0.233783
0.222548
0.21144
0.200706
0.190519
0.181224
0.173166
0.166808
0.162136
0.1601
2.26104
1.00291
0.306653
0.339101
0.402095
0.44429
0.452875
0.44872
0.442816
0.438399
0.435977
0.434129
0.431944
0.42933
0.426347
0.423121
0.419621
0.41588
0.411835
0.407529
0.402905
0.398009
0.392784
0.387276
0.381429
0.375285
0.368793
0.361994
0.354839
0.347371
0.339546
0.331406
0.322918
0.314125
0.305011
0.295618
0.28596
0.276076
0.26603
0.255861
0.2457
0.235601
0.225773
0.216329
0.207541
0.19961
0.192765
0.187491
0.183632
0.182025
2.26212
1.00481
0.307982
0.339244
0.402325
0.44473
0.453429
0.449345
0.443559
0.439227
0.436909
0.435138
0.433063
0.430536
0.427676
0.424551
0.421191
0.41757
0.413689
0.409526
0.405095
0.400374
0.395379
0.390086
0.384511
0.378631
0.372466
0.365991
0.35923
0.352159
0.344809
0.337158
0.329245
0.321052
0.312634
0.303979
0.295161
0.286184
0.277144
0.268079
0.259099
0.250318
0.241833
0.233867
0.226516
0.220067
0.214647
0.210546
0.20757
0.206267
2.26333
1.00693
0.309466
0.339398
0.402598
0.445226
0.454064
0.450075
0.444408
0.440191
0.43797
0.436306
0.434332
0.431925
0.429179
0.426192
0.422964
0.419502
0.415776
0.411803
0.407558
0.403064
0.398293
0.393272
0.38797
0.382418
0.376584
0.370505
0.364149
0.357556
0.350703
0.343629
0.336327
0.328833
0.321164
0.313356
0.305452
0.297502
0.289568
0.281734
0.27408
0.266732
0.259807
0.253424
0.247782
0.242931
0.239024
0.23629
0.234368
0.233715
2.26466
1.00927
0.311105
0.339558
0.402923
0.445785
0.454792
0.450918
0.445385
0.4413
0.439184
0.437639
0.435777
0.433503
0.430886
0.428046
0.424969
0.421677
0.418132
0.414358
0.410332
0.406073
0.401569
0.396829
0.391852
0.386636
0.3812
0.375525
0.369653
0.363551
0.357285
0.350812
0.34422
0.337466
0.330654
0.323759
0.316888
0.310058
0.303367
0.296888
0.29072
0.284972
0.279767
0.275239
0.271481
0.26867
0.266697
0.265724
0.265193
0.265158
2.26612
1.01184
0.312908
0.339755
0.403288
0.446431
0.455636
0.451889
0.446534
0.442571
0.44059
0.439153
0.437436
0.435284
0.432829
0.430129
0.427237
0.42411
0.420782
0.417207
0.413437
0.409422
0.405222
0.400781
0.396165
0.391318
0.38631
0.38109
0.375729
0.37019
0.364534
0.358756
0.352899
0.346998
0.341079
0.335227
0.329451
0.323884
0.318547
0.313588
0.309078
0.305156
0.301929
0.299525
0.298084
0.297584
0.298081
0.299509
0.301154
0.302679
2.2677
1.01464
0.314869
0.339984
0.403707
0.447184
0.456619
0.453024
0.44787
0.444041
0.442201
0.440884
0.439318
0.437304
0.435017
0.432478
0.429775
0.426841
0.423732
0.420392
0.41688
0.413153
0.409258
0.405167
0.400916
0.396496
0.391927
0.387225
0.382397
0.377484
0.372482
0.367457
0.362407
0.357413
0.352496
0.347735
0.343203
0.338961
0.335153
0.331834
0.329182
0.327317
0.326395
0.326519
0.32792
0.33066
0.334525
0.339631
0.34473
0.348729
2.26939
1.01763
0.316972
0.340249
0.404196
0.448069
0.457769
0.454369
0.449415
0.445764
0.444044
0.442882
0.441445
0.439609
0.437468
0.435129
0.432598
0.429896
0.426996
0.42393
0.420673
0.41727
0.41369
0.409984
0.406121
0.402157
0.398067
0.393907
0.389669
0.385403
0.381127
0.376882
0.372723
0.368682
0.364853
0.361273
0.358068
0.355312
0.353126
0.35169
0.351066
0.351512
0.353204
0.356415
0.361333
0.368073
0.376904
0.387637
0.399373
0.409977
2.27116
1.02078
0.319196
0.340565
0.404777
0.449115
0.459127
0.455947
0.451225
0.447748
0.44616
0.445148
0.443862
0.442197
0.440234
0.438088
0.435765
0.433287
0.430638
0.427836
0.424885
0.421795
0.418585
0.415255
0.411839
0.408328
0.404777
0.401168
0.397576
0.393985
0.390483
0.387069
0.383841
0.380828
0.378126
0.375824
0.374002
0.372849
0.372427
0.372928
0.374592
0.37771
0.382632
0.3895
0.398927
0.411255
0.426952
0.447112
0.470995
0.498603
2.27298
1.02402
0.321475
0.340944
0.405486
0.450376
0.460771
0.457835
0.453399
0.450067
0.448626
0.447731
0.446617
0.445098
0.443333
0.441359
0.439266
0.437
0.434624
0.432089
0.429461
0.426702
0.423876
0.420953
0.417992
0.41498
0.411969
0.408968
0.406023
0.403172
0.400449
0.397936
0.395656
0.393738
0.39221
0.391248
0.390889
0.391318
0.392703
0.395389
0.399595
0.405692
0.413898
0.425058
0.439625
0.459163
0.485088
0.520601
0.571934
0.664913
2.27506
1.02775
0.324002
0.341214
0.406283
0.451972
0.462921
0.460357
0.45627
0.453166
0.451884
0.45121
0.450311
0.449069
0.447551
0.445889
0.444083
0.442185
0.440155
0.438054
0.435846
0.433601
0.431283
0.428969
0.426624
0.424335
0.422071
0.419929
0.41789
0.416061
0.414442
0.413149
0.412221
0.411779
0.411921
0.412693
0.414256
0.417021
0.421212
0.426903
0.434595
0.444565
0.457837
0.474823
0.49761
0.527618
0.569601
0.631156
0.729835
0.881493
2.27726
1.03173
0.327012
0.342166
0.408013
0.454841
0.466511
0.464326
0.460558
0.457511
0.456271
0.455688
0.45495
0.453884
0.452585
0.45115
0.449626
0.448023
0.446354
0.444627
0.442867
0.441083
0.439309
0.437553
0.435862
0.434242
0.432759
0.43142
0.430312
0.429445
0.428937
0.428806
0.42917
0.430053
0.43169
0.434278
0.437991
0.442909
0.449475
0.457799
0.468598
0.482312
0.499819
0.52263
0.551801
0.591364
0.643922
0.718046
0.828994
0.967158
2.27855
1.03404
0.328884
0.343226
0.410177
0.458587
0.471236
0.469549
0.466109
0.463083
0.461879
0.461413
0.46084
0.459954
0.458842
0.457614
0.456324
0.454987
0.453618
0.452228
0.450843
0.44948
0.44817
0.446935
0.445812
0.444832
0.44404
0.443479
0.443209
0.443297
0.443756
0.44466
0.446245
0.44865
0.451872
0.45616
0.461595
0.468586
0.477201
0.488169
0.501502
0.518501
0.539219
0.565777
0.599053
0.641722
0.697382
0.767768
0.864185
0.967506
2.2797
1.03615
0.332198
0.346924
0.415041
0.465002
0.478247
0.476431
0.472641
0.469268
0.467988
0.467628
0.467217
0.466506
0.4656
0.464602
0.463597
0.462571
0.461559
0.460547
0.459584
0.458664
0.457841
0.457118
0.456553
0.456163
0.456018
0.456131
0.456548
0.457358
0.458732
0.460713
0.463363
0.466852
0.471245
0.476847
0.483686
0.492275
0.502625
0.515412
0.530893
0.549725
0.572847
0.600709
0.635333
0.677108
0.728938
0.790965
0.868886
0.949941
2.27614
1.02976
0.334342
0.356829
0.427466
0.479831
0.493334
0.490536
0.485534
0.481286
0.479628
0.479073
0.4785
0.47763
0.47657
0.475476
0.474413
0.473388
0.472412
0.4715
0.470675
0.469965
0.469386
0.468987
0.468791
0.468829
0.469101
0.469769
0.470848
0.472451
0.474546
0.477334
0.480782
0.485178
0.490489
0.497083
0.504984
0.514563
0.526092
0.539798
0.556363
0.57592
0.599488
0.627376
0.6606
0.700066
0.746347
0.80072
0.864226
0.92881
2.28207
1.02261
0.358795
0.382369
0.448487
0.498382
0.510296
0.506545
0.500803
0.49642
0.494718
0.494029
0.49333
0.49238
0.491315
0.490237
0.489205
0.488208
0.487271
0.48639
0.485613
0.484939
0.484426
0.484042
0.483912
0.484067
0.484613
0.485478
0.486868
0.488715
0.491266
0.494411
0.498495
0.503359
0.509471
0.516597
0.525365
0.535469
0.547716
0.561834
0.578653
0.598185
0.621067
0.647799
0.678657
0.714604
0.755575
0.802451
0.855647
0.90921
1.87635
0.772043
0.27331
0.344122
0.417741
0.441222
0.441134
0.437154
0.43351
0.433415
0.43559
0.438478
0.441479
0.444522
0.447661
0.45091
0.454228
0.457572
0.46091
0.464226
0.467502
0.470681
0.473825
0.476965
0.480158
0.483339
0.48663
0.489951
0.493574
0.497383
0.501685
0.506376
0.51181
0.517909
0.52503
0.533167
0.542616
0.553556
0.566093
0.580735
0.59731
0.616701
0.638469
0.663798
0.692075
0.72455
0.760539
0.801014
0.845824
0.890571
1.86891
0.77143
0.28221
0.355355
0.428325
0.447787
0.443321
0.435963
0.430304
0.428408
0.428319
0.428722
0.429322
0.430227
0.431574
0.433356
0.435614
0.438221
0.441298
0.444724
0.448609
0.452676
0.457154
0.461799
0.466832
0.471987
0.477526
0.483256
0.489347
0.495673
0.502405
0.509478
0.517037
0.525175
0.533971
0.543721
0.554322
0.566345
0.579536
0.594608
0.611255
0.630236
0.651277
0.675036
0.701374
0.730684
0.762997
0.798124
0.836528
0.874206
1.86795
0.770118
0.284343
0.36507
0.443612
0.463692
0.457511
0.448139
0.441131
0.438398
0.437498
0.436899
0.436311
0.435908
0.435821
0.436091
0.436721
0.437724
0.439256
0.44124
0.443728
0.446645
0.450163
0.454167
0.458798
0.463944
0.46967
0.475924
0.482714
0.490087
0.497961
0.506551
0.515639
0.525593
0.536012
0.547458
0.559515
0.572788
0.586956
0.602633
0.619559
0.638293
0.65871
0.681211
0.705747
0.732557
0.7616
0.792803
0.826419
0.858949
1.86944
0.773398
0.290136
0.367285
0.443683
0.464289
0.459072
0.450555
0.443976
0.441611
0.441135
0.440956
0.440739
0.440628
0.440713
0.441018
0.441606
0.442514
0.443702
0.445184
0.446987
0.449222
0.451862
0.455073
0.458759
0.463139
0.468052
0.473772
0.480045
0.487243
0.494988
0.503749
0.513054
0.523426
0.534437
0.546572
0.559481
0.573582
0.588579
0.604835
0.622197
0.640937
0.661023
0.682673
0.705857
0.730705
0.757154
0.78525
0.81504
0.843692
1.87254
0.780077
0.297817
0.361242
0.429059
0.450301
0.44802
0.441956
0.436347
0.434471
0.434508
0.435038
0.435626
0.43634
0.437232
0.438404
0.439864
0.441548
0.443419
0.445526
0.44787
0.450533
0.453492
0.456861
0.460598
0.464876
0.469592
0.475001
0.480927
0.4877
0.495079
0.503403
0.51244
0.522487
0.533355
0.545268
0.558093
0.572011
0.586949
0.603052
0.620278
0.638763
0.658407
0.679352
0.701473
0.724948
0.749558
0.775283
0.802301
0.828139
1.88112
0.786657
0.300068
0.349029
0.412187
0.441236
0.444211
0.439525
0.434373
0.43209
0.431845
0.432368
0.433086
0.434006
0.435102
0.436435
0.438031
0.439886
0.442
0.444396
0.447071
0.450078
0.453388
0.457088
0.461125
0.465643
0.470549
0.47605
0.48201
0.488684
0.49593
0.503987
0.512754
0.522412
0.532898
0.544365
0.556742
0.570162
0.584556
0.600048
0.616563
0.634212
0.652912
0.672763
0.693665
0.71565
0.738574
0.7624
0.787219
0.81087
2.26312
1.10608
0.407247
0.399196
0.459375
0.508072
0.519365
0.514475
0.507552
0.501503
0.497985
0.495514
0.493401
0.491383
0.489355
0.487382
0.485657
0.484168
0.483019
0.482172
0.481743
0.481693
0.482147
0.48308
0.48456
0.486625
0.489309
0.492669
0.496709
0.501519
0.507077
0.51349
0.520734
0.528927
0.538022
0.548149
0.559237
0.571406
0.584581
0.598865
0.614156
0.630552
0.647928
0.666339
0.685694
0.705985
0.727111
0.748992
0.771706
0.793315
2.27254
1.12797
0.391723
0.377139
0.450003
0.510723
0.529124
0.528243
0.52402
0.520217
0.518774
0.518399
0.518383
0.518343
0.517928
0.517299
0.516626
0.515997
0.515429
0.514954
0.514586
0.514391
0.514389
0.514661
0.515244
0.516214
0.51761
0.519542
0.522005
0.525156
0.528942
0.533557
0.538915
0.545199
0.552338
0.560469
0.569564
0.579718
0.590915
0.603188
0.616561
0.630983
0.646481
0.662959
0.680389
0.698701
0.717803
0.7376
0.758159
0.777725
2.29746
1.17669
0.434303
0.384005
0.447099
0.503394
0.521874
0.522903
0.521078
0.519894
0.520313
0.521544
0.523339
0.52514
0.526549
0.527748
0.528872
0.53002
0.531168
0.532349
0.533535
0.534779
0.536072
0.537474
0.538988
0.540685
0.542582
0.544754
0.547246
0.550124
0.553457
0.557295
0.561735
0.566809
0.572636
0.579226
0.586698
0.595037
0.604342
0.614589
0.625821
0.638012
0.651187
0.665333
0.68042
0.696421
0.713235
0.73071
0.748933
0.766317
1.90076
0.805044
0.305835
0.316888
0.374003
0.414888
0.42917
0.432998
0.435822
0.439474
0.444406
0.450153
0.456592
0.463088
0.469266
0.475263
0.481229
0.487192
0.493137
0.499023
0.504847
0.510586
0.51626
0.521848
0.527385
0.532848
0.538304
0.543724
0.549201
0.554726
0.56037
0.566178
0.572214
0.578546
0.585224
0.59235
0.599948
0.608139
0.616912
0.626402
0.636565
0.647539
0.659235
0.671758
0.684996
0.698963
0.713597
0.728922
0.744938
0.760254
2.30597
1.19383
0.449646
0.386652
0.440672
0.492246
0.509248
0.509309
0.506163
0.503686
0.502428
0.502243
0.502698
0.503094
0.503417
0.503921
0.504746
0.506022
0.507718
0.509876
0.512449
0.51549
0.518952
0.522879
0.527192
0.531951
0.537036
0.542539
0.548299
0.554436
0.560821
0.567562
0.574541
0.581881
0.589473
0.597456
0.605746
0.614473
0.623579
0.633176
0.643234
0.653836
0.664966
0.676657
0.688917
0.701731
0.715103
0.728946
0.743349
0.757069
2.31121
1.20381
0.432945
0.369741
0.438381
0.500642
0.522098
0.523511
0.521292
0.519821
0.519949
0.52108
0.52281
0.524314
0.525339
0.526186
0.52702
0.527969
0.529043
0.530332
0.53184
0.533655
0.535762
0.538246
0.541094
0.54437
0.548064
0.552219
0.556831
0.561915
0.567471
0.573485
0.579965
0.586884
0.594277
0.602081
0.610351
0.619009
0.628136
0.637637
0.647614
0.657959
0.668795
0.679999
0.69169
0.703743
0.716256
0.72909
0.742372
0.754975
2.31394
1.20963
0.437121
0.371782
0.441508
0.505365
0.527744
0.529426
0.527262
0.525914
0.526386
0.527903
0.530174
0.532367
0.534086
0.535615
0.537142
0.538773
0.540505
0.542367
0.544354
0.546501
0.548822
0.551351
0.554119
0.557152
0.560493
0.564155
0.568191
0.5726
0.577439
0.582695
0.588426
0.594599
0.601268
0.608394
0.61602
0.624103
0.632672
0.64169
0.651169
0.661085
0.671426
0.682182
0.693315
0.704836
0.716677
0.728853
0.741357
0.753248
2.31692
1.21735
0.463493
0.387843
0.447107
0.506235
0.528797
0.532029
0.531151
0.530781
0.531673
0.533601
0.53614
0.538438
0.540465
0.542368
0.544326
0.546367
0.548545
0.550826
0.553257
0.555808
0.558533
0.561405
0.564482
0.567741
0.571244
0.57497
0.578983
0.583268
0.587886
0.592831
0.598151
0.603849
0.609953
0.616471
0.623416
0.630808
0.638637
0.646927
0.655644
0.66482
0.674403
0.684421
0.694808
0.705585
0.716678
0.728087
0.739831
0.751008
1.90563
0.813594
0.324734
0.323678
0.376478
0.41437
0.427258
0.430301
0.432592
0.435932
0.440704
0.446615
0.453342
0.460161
0.46687
0.473531
0.480265
0.48706
0.493926
0.500805
0.507703
0.514582
0.521459
0.528308
0.535153
0.541982
0.548821
0.555668
0.562547
0.569468
0.57645
0.583522
0.590697
0.598015
0.605483
0.613153
0.621021
0.629142
0.637506
0.646155
0.655079
0.664306
0.67382
0.683644
0.693754
0.70416
0.714836
0.725773
0.737019
0.747695
2.31202
1.20866
0.465009
0.403515
0.466216
0.527403
0.549333
0.550261
0.546117
0.542285
0.540079
0.538706
0.538111
0.537715
0.536981
0.536258
0.535693
0.535539
0.535727
0.536414
0.537527
0.53914
0.541221
0.543809
0.546868
0.550425
0.554438
0.558933
0.563854
0.569222
0.574984
0.581145
0.587653
0.59452
0.601704
0.609214
0.617018
0.625122
0.633501
0.642167
0.651104
0.660318
0.669799
0.679546
0.689543
0.699779
0.710241
0.720905
0.731833
0.742196
2.29406
1.16964
0.460108
0.422708
0.485813
0.546211
0.566098
0.566138
0.562417
0.559181
0.558424
0.558827
0.559913
0.561177
0.562049
0.562688
0.563279
0.563937
0.564672
0.565496
0.566417
0.56748
0.568732
0.570216
0.571964
0.574022
0.576406
0.579149
0.582267
0.585781
0.589697
0.594034
0.598798
0.603997
0.609626
0.615684
0.622163
0.629051
0.636339
0.644007
0.652041
0.66042
0.669124
0.678137
0.687453
0.69704
0.706896
0.716983
0.727354
0.737207
1.88784
0.805079
0.340799
0.35537
0.406345
0.443124
0.452858
0.452687
0.451751
0.452603
0.455917
0.46054
0.466081
0.472146
0.478236
0.484358
0.490575
0.496896
0.503272
0.50966
0.516023
0.522349
0.528626
0.534856
0.541033
0.547167
0.553268
0.55936
0.565461
0.571606
0.577817
0.584117
0.590537
0.597098
0.603828
0.610742
0.617865
0.625207
0.632785
0.640602
0.648677
0.657004
0.665596
0.674433
0.683514
0.692828
0.702361
0.712101
0.722089
0.731583
1.87402
0.796331
0.33954
0.356666
0.398325
0.426965
0.434879
0.434833
0.433826
0.433315
0.434047
0.435681
0.438237
0.441445
0.444937
0.448769
0.453025
0.457744
0.462905
0.468487
0.474451
0.480775
0.487412
0.494341
0.501517
0.508915
0.516493
0.524233
0.532097
0.540075
0.548139
0.5563
0.56453
0.572851
0.58124
0.589726
0.598293
0.606971
0.615756
0.624655
0.633662
0.642799
0.652064
0.661471
0.671016
0.680709
0.690546
0.70052
0.710673
0.720285
1.88891
0.806054
0.345044
0.373657
0.430944
0.466899
0.473629
0.469576
0.464493
0.46139
0.460439
0.460408
0.461
0.461965
0.463004
0.464177
0.465609
0.467369
0.469495
0.471997
0.4749
0.478211
0.48196
0.486142
0.490773
0.495839
0.501348
0.50727
0.513608
0.520323
0.52742
0.534851
0.542614
0.550667
0.558999
0.567568
0.576369
0.585361
0.594537
0.603884
0.613399
0.623057
0.632857
0.642774
0.652813
0.662953
0.673201
0.683533
0.694018
0.703912
2.34075
1.12433
0.469068
0.447586
0.51315
0.574893
0.595512
0.594904
0.589606
0.584302
0.581291
0.579382
0.577816
0.576445
0.574891
0.573158
0.571385
0.569672
0.568062
0.566583
0.56526
0.564128
0.563214
0.562564
0.562209
0.562198
0.562548
0.563321
0.564506
0.566145
0.568265
0.570874
0.573999
0.577619
0.581761
0.586395
0.591538
0.597152
0.603249
0.609781
0.616747
0.624103
0.631832
0.639926
0.64834
0.657059
0.666043
0.67528
0.684778
0.693836
1.88937
0.807244
0.346178
0.363478
0.415826
0.456086
0.468558
0.469563
0.469014
0.468992
0.47128
0.474797
0.479005
0.483739
0.488563
0.493375
0.498215
0.503144
0.508119
0.513131
0.518121
0.523098
0.528023
0.532922
0.537765
0.542588
0.547368
0.552145
0.556923
0.561731
0.566575
0.571491
0.576475
0.581583
0.586811
0.592212
0.597776
0.603559
0.609539
0.615775
0.622237
0.628974
0.63596
0.643205
0.650698
0.65845
0.666442
0.674671
0.683154
0.691259
1.8891
0.807391
0.347489
0.364546
0.416099
0.45459
0.465039
0.463975
0.461101
0.458541
0.458075
0.458915
0.460501
0.462708
0.465127
0.467717
0.470585
0.473814
0.477406
0.481349
0.485615
0.490187
0.495043
0.500164
0.505531
0.511116
0.516901
0.522861
0.528977
0.535249
0.541652
0.548186
0.554837
0.561598
0.568464
0.575429
0.582497
0.589666
0.596944
0.604328
0.61183
0.619443
0.627182
0.635042
0.643039
0.651163
0.659428
0.66782
0.676386
0.684521
2.34277
1.12801
0.472749
0.449651
0.516404
0.580644
0.603096
0.603199
0.598119
0.59305
0.590268
0.588712
0.587585
0.586734
0.585731
0.584566
0.583341
0.582216
0.581179
0.580321
0.579581
0.579071
0.578726
0.578666
0.578823
0.579304
0.580068
0.581156
0.582583
0.584357
0.586487
0.588971
0.59181
0.595003
0.598548
0.602445
0.606686
0.611264
0.61617
0.621397
0.626928
0.632758
0.638869
0.645254
0.651894
0.658785
0.665906
0.673249
0.680819
0.68806
1.88982
0.808785
0.35345
0.381422
0.43969
0.47964
0.489599
0.487919
0.484873
0.483488
0.484914
0.487589
0.490937
0.494771
0.498671
0.502621
0.506684
0.510912
0.515275
0.519758
0.52432
0.528953
0.533636
0.538367
0.543137
0.547941
0.552782
0.55766
0.562585
0.567559
0.572592
0.577699
0.58288
0.588156
0.593527
0.599014
0.604613
0.610344
0.616204
0.622206
0.628355
0.634661
0.641126
0.647751
0.65454
0.661495
0.668614
0.675886
0.683342
0.69044
1.87525
0.799753
0.351173
0.37811
0.427537
0.459449
0.467098
0.465969
0.464287
0.463574
0.4641
0.465299
0.467199
0.469484
0.471835
0.474316
0.477023
0.480007
0.483275
0.486824
0.490646
0.494732
0.499075
0.503667
0.508497
0.513555
0.518827
0.524302
0.529965
0.535805
0.541808
0.547958
0.55426
0.560692
0.567262
0.573948
0.580763
0.58769
0.594739
0.601895
0.609166
0.616536
0.624018
0.631597
0.639287
0.647072
0.654966
0.662955
0.671087
0.678788
1.87423
0.799384
0.351696
0.375357
0.422434
0.454102
0.462317
0.461855
0.460738
0.460119
0.460389
0.461213
0.462696
0.464532
0.466379
0.468281
0.470338
0.472593
0.475066
0.477756
0.480673
0.48382
0.487207
0.490835
0.494711
0.498833
0.503205
0.507823
0.51269
0.517798
0.52315
0.528736
0.534556
0.540596
0.546853
0.553313
0.559973
0.566816
0.573843
0.581039
0.588403
0.595925
0.603602
0.61142
0.619371
0.627447
0.635654
0.643985
0.652472
0.66053
1.88906
0.809121
0.354876
0.362666
0.4133
0.452098
0.463041
0.462628
0.460839
0.459593
0.459629
0.460439
0.461978
0.463881
0.465709
0.467515
0.469433
0.471525
0.47381
0.476284
0.478951
0.481809
0.484865
0.48812
0.49158
0.495245
0.499121
0.503207
0.507508
0.512024
0.516757
0.521708
0.526879
0.532266
0.537871
0.54369
0.549722
0.555964
0.562413
0.569063
0.575909
0.582943
0.59016
0.597554
0.605126
0.612869
0.620772
0.628825
0.637049
0.644872
2.31234
1.2047
0.48545
0.431488
0.492584
0.556815
0.582806
0.586301
0.583637
0.580905
0.579617
0.579302
0.579791
0.580621
0.581159
0.58145
0.581683
0.581965
0.582342
0.582809
0.583375
0.584039
0.584816
0.585711
0.586741
0.587909
0.589232
0.590713
0.592368
0.594199
0.596222
0.598437
0.600862
0.603493
0.606348
0.609422
0.61273
0.616267
0.620047
0.624061
0.628323
0.632821
0.637565
0.642546
0.647772
0.653225
0.65891
0.664803
0.670934
0.676828
2.32255
1.2288
0.466132
0.405377
0.481451
0.557514
0.588683
0.593363
0.59073
0.587868
0.586879
0.587332
0.588622
0.590437
0.592119
0.593517
0.594847
0.59626
0.597814
0.599494
0.601297
0.603208
0.605237
0.607376
0.609638
0.612016
0.614519
0.617141
0.619893
0.622768
0.625778
0.628917
0.632196
0.63561
0.63917
0.642871
0.646725
0.650726
0.654885
0.659197
0.663673
0.668308
0.673111
0.678079
0.683217
0.688516
0.693984
0.699604
0.705403
0.710942
2.31273
1.2062
0.48669
0.432552
0.49436
0.55982
0.586883
0.591034
0.588982
0.58687
0.586301
0.586957
0.588466
0.590456
0.592255
0.593848
0.595422
0.597105
0.598933
0.600908
0.603017
0.605262
0.607639
0.610157
0.612813
0.615614
0.618557
0.621648
0.624881
0.628265
0.631794
0.635475
0.639301
0.64328
0.647405
0.651684
0.656108
0.660688
0.665412
0.670292
0.675316
0.680494
0.685815
0.69129
0.696906
0.702673
0.708578
0.714629
0.720837
0.726775
1.88896
0.809182
0.356079
0.364312
0.41639
0.457009
0.469108
0.469126
0.46754
0.466526
0.46717
0.468796
0.471279
0.474234
0.477168
0.480134
0.483243
0.486571
0.490114
0.493875
0.497829
0.501984
0.506319
0.510845
0.515544
0.520426
0.52547
0.530688
0.536058
0.541593
0.547271
0.553105
0.559075
0.565191
0.571434
0.577818
0.584321
0.590957
0.597705
0.604582
0.611564
0.61867
0.625876
0.633198
0.640615
0.648144
0.655765
0.6635
0.671362
0.67885
1.87421
0.80002
0.355307
0.380479
0.428588
0.460134
0.467654
0.466487
0.464746
0.463864
0.464081
0.464933
0.466475
0.468356
0.470188
0.472039
0.474003
0.476142
0.478453
0.480947
0.483612
0.486462
0.489489
0.492709
0.496112
0.499713
0.503502
0.507492
0.511672
0.516055
0.52063
0.525406
0.530373
0.53554
0.540894
0.546444
0.552178
0.558103
0.564205
0.570492
0.576949
0.583583
0.590378
0.597342
0.604458
0.611732
0.619149
0.626716
0.634442
0.641804
1.87704
0.803107
0.359386
0.395151
0.45156
0.484564
0.490486
0.486955
0.482771
0.480824
0.480812
0.481608
0.483019
0.484684
0.486282
0.487903
0.489647
0.491559
0.493634
0.495872
0.498264
0.500817
0.50353
0.506409
0.509452
0.512666
0.516048
0.519605
0.523333
0.527239
0.531318
0.535578
0.540012
0.544628
0.549419
0.554391
0.559538
0.564865
0.570365
0.576043
0.581891
0.587913
0.594102
0.60046
0.606978
0.613659
0.620492
0.627479
0.634624
0.641436
1.19159
1.04901
0.497675
0.19058
0.0106438
0.108699
0.16011
0.208471
0.230085
0.234467
0.222802
0.211353
0.20104
0.191505
0.179468
0.165014
0.147682
0.127749
0.105927
0.0827854
0.0589622
0.0352525
0.0158615
0.0232668
0.0470097
0.0712972
0.0954552
0.119157
0.142483
0.165386
0.187893
0.209969
0.231609
0.252753
0.272768
0.291871
0.311413
0.331788
0.351757
0.370925
0.389443
0.40744
0.424964
0.442018
0.458597
0.474695
0.490308
0.505432
0.52006
0.534186
0.547801
0.560895
0.573454
0.585463
0.596902
0.607753
0.617988
0.627584
0.63651
0.644737
0.652232
0.658963
0.664897
0.670007
0.674264
0.677656
0.680171
0.681824
0.682627
0.682818
0.682655
0.68212
0.680829
0.678363
0.675013
0.671424
0.667768
0.664064
0.660395
0.656827
0.653476
0.6504
0.647684
0.645348
0.643436
0.641937
0.640865
0.64018
0.639874
0.639862
0.640037
0.640391
0.641045
0.642155
0.643557
0.645087
0.646647
0.648325
0.64997
0.654744
1.12197
1.03609
0.806264
0.549327
0.50238
0.431341
0.381367
0.340596
0.310289
0.291729
0.260416
0.230178
0.21061
0.208874
0.21601
0.226566
0.239027
0.252949
0.268081
0.283944
0.300325
0.316804
0.333132
0.349313
0.36605
0.38304
0.400208
0.417312
0.434414
0.451349
0.468206
0.484839
0.501341
0.517578
0.53324
0.548158
0.563161
0.578883
0.594753
0.609979
0.624704
0.639078
0.653164
0.666942
0.680404
0.693523
0.706301
0.718718
0.730774
0.742449
0.753741
0.764626
0.7751
0.785134
0.794718
0.80382
0.812426
0.8205
0.828024
0.834958
0.841281
0.846954
0.851955
0.856246
0.859812
0.862627
0.864692
0.865997
0.866584
0.866614
0.866333
0.86569
0.864375
0.862033
0.858844
0.855392
0.851858
0.848311
0.84481
0.841433
0.838265
0.835379
0.832836
0.830671
0.828907
0.827549
0.826589
0.826006
0.825792
0.825835
0.826025
0.826376
0.82696
0.827944
0.829169
0.830523
0.831856
0.83328
0.834475
0.838277
1.07467
1.07555
1.00813
0.899756
0.831233
0.781002
0.745069
0.714972
0.690152
0.672064
0.656988
0.642669
0.632669
0.627549
0.626035
0.626301
0.62782
0.630241
0.633635
0.637914
0.643038
0.648819
0.655185
0.662024
0.669581
0.677744
0.686513
0.695669
0.705239
0.715042
0.725152
0.735401
0.745888
0.756434
0.766818
0.77676
0.786831
0.797612
0.808976
0.820071
0.830879
0.841497
0.852014
0.862411
0.872689
0.8828
0.892744
0.902483
0.912021
0.921319
0.930381
0.939167
0.947679
0.955871
0.963744
0.971249
0.978382
0.985093
0.991375
0.997176
1.00249
1.00725
1.01146
1.01507
1.01807
1.02042
1.02213
1.02316
1.02353
1.02343
1.02309
1.02242
1.02114
1.01898
1.01604
1.01282
1.00949
1.00616
1.0029
0.999775
0.996856