/*--------------------------------*- C++ -*----------------------------------*\
| =========                 |                                                 |
| \\      /  F ield         | OpenFOAM: The Open Source CFD Toolbox           |
|  \\    /   O peration     | Version:  2412                                  |
|   \\  /    A nd           | Website:  www.openfoam.com                      |
|    \\/     M anipulation  |                                                 |
\*---------------------------------------------------------------------------*/
FoamFile
{
    version     2.0;
    format      ascii;
    arch        "LSB;label=32;scalar=64";
    class       volScalarField;
    location    "21.5";
    object      p;
}
// * * * * * * * * * * * * * * * * * * * * * * * * * * * * * * * * * * * * * //

dimensions      [1 -1 -2 0 0 0 0];

internalField   nonuniform List<scalar> 
7000
(
1.63882
3.75649
11.455
11.528
11.0976
10.688
10.5693
10.5839
10.6249
10.6646
10.6864
10.7002
10.7147
10.7324
10.7528
10.775
10.7988
10.8243
10.8515
10.8805
10.9113
10.944
10.9785
11.0149
11.0531
11.0931
11.135
11.1787
11.2241
11.2711
11.3197
11.3698
11.4213
11.4739
11.5274
11.5816
11.6362
11.6908
11.745
11.7984
11.8504
11.9005
11.9479
11.9921
12.0323
12.068
12.0983
12.1227
12.1404
12.1533
1.63912
3.7552
11.4545
11.5274
11.0971
10.6877
10.5689
10.5835
10.6245
10.6642
10.686
10.6997
10.7142
10.7319
10.7522
10.7744
10.7982
10.8236
10.8508
10.8798
10.9106
10.9432
10.9777
11.0141
11.0522
11.0923
11.1341
11.1777
11.2231
11.2701
11.3187
11.3688
11.4202
11.4727
11.5262
11.5804
11.635
11.6896
11.7439
11.7973
11.8494
11.8995
11.947
11.9913
12.0316
12.0674
12.0978
12.1224
12.1401
12.1531
1.63901
3.75426
11.4526
11.5266
11.0964
10.6869
10.5682
10.5828
10.6237
10.6633
10.685
10.6987
10.7131
10.7308
10.7511
10.7732
10.7969
10.8223
10.8494
10.8783
10.909
10.9416
10.976
11.0122
11.0503
11.0902
11.1319
11.1754
11.2206
11.2675
11.316
11.3659
11.4171
11.4695
11.5229
11.577
11.6314
11.6859
11.74
11.7934
11.8453
11.8954
11.9429
11.9871
12.0275
12.0632
12.0937
12.1183
12.1359
12.1488
1.63888
3.75298
11.4493
11.5255
11.0954
10.6858
10.567
10.5816
10.6224
10.6618
10.6834
10.6971
10.7114
10.729
10.7492
10.7712
10.7948
10.8201
10.8471
10.8759
10.9065
10.9389
10.9731
11.0092
11.0471
11.0869
11.1284
11.1717
11.2167
11.2634
11.3116
11.3613
11.4123
11.4645
11.5176
11.5714
11.6256
11.6798
11.7338
11.7869
11.8387
11.8886
11.936
11.9802
12.0205
12.0562
12.0867
12.1113
12.1287
12.1416
1.63871
3.7511
11.4445
11.5241
11.0941
10.6842
10.5653
10.5798
10.6205
10.6598
10.6812
10.6948
10.709
10.7265
10.7465
10.7684
10.7919
10.817
10.8438
10.8724
10.9029
10.9351
10.9691
11.005
11.0426
11.0821
11.1234
11.1664
11.2111
11.2574
11.3053
11.3547
11.4053
11.4571
11.5099
11.5633
11.6171
11.6711
11.7247
11.7775
11.829
11.8787
11.926
11.97
12.0103
12.046
12.0764
12.101
12.1184
12.1313
1.63849
3.74858
11.4383
11.5223
11.0925
10.6821
10.5631
10.5775
10.6181
10.6571
10.6784
10.6917
10.7059
10.7232
10.7431
10.7648
10.788
10.8129
10.8395
10.8679
10.8981
10.93
10.9638
10.9993
11.0367
11.0758
11.1167
11.1593
11.2036
11.2495
11.297
11.3459
11.396
11.4473
11.4996
11.5525
11.6058
11.6593
11.7124
11.7648
11.8159
11.8653
11.9123
11.9561
11.9962
12.0319
12.0622
12.0869
12.1043
12.1174
1.63823
3.74535
11.4304
11.52
11.0904
10.6795
10.5602
10.5745
10.6149
10.6537
10.6747
10.6879
10.7018
10.7189
10.7386
10.7601
10.7831
10.8078
10.8341
10.8622
10.892
10.9237
10.9571
10.9922
11.0292
11.0678
11.1083
11.1504
11.1941
11.2395
11.2864
11.3346
11.3841
11.4348
11.4864
11.5386
11.5913
11.6441
11.6966
11.7484
11.799
11.8479
11.8944
11.938
11.9779
12.0134
12.0437
12.0684
12.0858
12.0991
1.63791
3.74136
11.4207
11.5173
11.0879
10.6763
10.5566
10.5709
10.611
10.6495
10.6703
10.6832
10.6969
10.7137
10.7331
10.7543
10.7771
10.8014
10.8274
10.8551
10.8846
10.9158
10.9487
10.9834
11.0199
11.058
11.0978
11.1393
11.1824
11.2271
11.2732
11.3207
11.3694
11.4193
11.47
11.5214
11.5732
11.6251
11.6768
11.7278
11.7777
11.8259
11.8719
11.915
11.9546
11.9898
12.0201
12.0448
12.0622
12.0757
1.63754
3.73655
11.4091
11.514
11.085
10.6724
10.5523
10.5664
10.6063
10.6445
10.6649
10.6775
10.6909
10.7075
10.7265
10.7474
10.7698
10.7937
10.8193
10.8466
10.8756
10.9063
10.9387
10.9728
11.0086
11.0461
11.0853
11.126
11.1683
11.2121
11.2573
11.3039
11.3516
11.4004
11.4501
11.5004
11.5511
11.6019
11.6525
11.7025
11.7514
11.7988
11.844
11.8864
11.9255
11.9604
11.9904
12.0151
12.0325
12.0464
1.63711
3.73088
11.3955
11.5101
11.0814
10.6679
10.5471
10.5611
10.6006
10.6384
10.6585
10.6707
10.6838
10.7
10.7187
10.7392
10.7611
10.7846
10.8097
10.8365
10.865
10.8951
10.9268
10.9603
10.9953
11.032
11.0703
11.1102
11.1515
11.1943
11.2384
11.2838
11.3304
11.3779
11.4263
11.4753
11.5246
11.5741
11.6233
11.672
11.7196
11.7657
11.8099
11.8514
11.8897
11.924
11.9537
11.9783
11.9957
12.0099
1.63662
3.7243
11.3798
11.5056
11.0773
10.6626
10.5411
10.5549
10.594
10.6313
10.6509
10.6628
10.6755
10.6913
10.7095
10.7295
10.751
10.774
10.7985
10.8247
10.8525
10.8819
10.913
10.9456
10.9798
11.0156
11.0528
11.0916
11.1318
11.1734
11.2163
11.2603
11.3054
11.3514
11.3982
11.4456
11.4932
11.541
11.5885
11.6354
11.6814
11.7259
11.7685
11.8087
11.8459
11.8794
11.9084
11.9328
11.9501
11.9648
1.63607
3.71676
11.3618
11.5005
11.0726
10.6566
10.5342
10.5477
10.5862
10.6231
10.6422
10.6537
10.6659
10.6812
10.6989
10.7184
10.7393
10.7616
10.7855
10.811
10.8381
10.8667
10.8969
10.9286
10.9618
10.9965
11.0326
11.0702
11.109
11.1492
11.1905
11.233
11.2764
11.3206
11.3655
11.4108
11.4564
11.5021
11.5474
11.5921
11.6359
11.6783
11.7189
11.7572
11.7926
11.8248
11.8529
11.8767
11.8937
11.9088
1.63545
3.70823
11.3415
11.4946
11.0672
10.6497
10.5262
10.5394
10.5773
10.6136
10.6322
10.6431
10.6548
10.6695
10.6867
10.7056
10.7258
10.7475
10.7707
10.7954
10.8216
10.8493
10.8785
10.9091
10.9412
10.9746
11.0094
11.0455
11.0829
11.1214
11.161
11.2015
11.2429
11.285
11.3276
11.3706
11.4137
11.4567
11.4993
11.5412
11.5821
11.6216
11.6594
11.6951
11.7281
11.758
11.7843
11.807
11.8235
11.8392
1.63478
3.69867
11.3188
11.4879
11.0611
10.642
10.5171
10.5299
10.5671
10.6027
10.6207
10.631
10.6421
10.6562
10.6728
10.6909
10.7105
10.7314
10.7537
10.7775
10.8028
10.8295
10.8575
10.887
10.9177
10.9498
10.9831
11.0176
11.0531
11.0897
11.1273
11.1656
11.2047
11.2442
11.2842
11.3243
11.3643
11.4041
11.4433
11.4817
11.5189
11.5547
11.5886
11.6204
11.6497
11.6763
11.6998
11.7204
11.7357
11.7516
1.63405
3.68804
11.2938
11.4802
11.0541
10.6333
10.5069
10.5192
10.5555
10.5903
10.6076
10.6173
10.6277
10.6412
10.657
10.6744
10.6931
10.7132
10.7346
10.7574
10.7816
10.8071
10.8339
10.862
10.8913
10.9218
10.9534
10.986
11.0195
11.054
11.0892
11.125
11.1613
11.1979
11.2347
11.2714
11.3078
11.3437
11.3787
11.4126
11.445
11.4757
11.5044
11.5307
11.5545
11.5757
11.5943
11.611
11.6237
11.64
1.63326
3.67644
11.2663
11.4719
11.0464
10.6236
10.4954
10.5071
10.5423
10.5762
10.5928
10.6018
10.6115
10.6242
10.6392
10.6558
10.6736
10.6927
10.7131
10.7348
10.7578
10.7821
10.8075
10.8341
10.8617
10.8904
10.92
10.9506
10.9819
11.0138
11.0464
11.0793
11.1125
11.1457
11.1788
11.2115
11.2435
11.2747
11.3045
11.3328
11.3591
11.3831
11.4045
11.4231
11.4387
11.4516
11.4621
11.4715
11.4787
11.4936
1.63241
3.66389
11.2366
11.4628
11.038
10.6129
10.4824
10.4934
10.5273
10.5603
10.5761
10.5844
10.5933
10.6051
10.6193
10.6349
10.6518
10.6699
10.6892
10.7097
10.7314
10.7542
10.7781
10.8029
10.8288
10.8555
10.883
10.9112
10.9399
10.9691
10.9986
11.0283
11.0579
11.0872
11.116
11.1441
11.171
11.1964
11.2199
11.2412
11.2597
11.275
11.2866
11.2943
11.2975
11.2968
11.2934
11.289
11.285
11.2957
1.63151
3.65052
11.2047
11.453
11.0289
10.6009
10.4677
10.478
10.5104
10.5423
10.5573
10.5648
10.5728
10.5838
10.597
10.6117
10.6275
10.6444
10.6625
10.6817
10.702
10.7232
10.7454
10.7685
10.7923
10.8168
10.842
10.8676
10.8935
10.9196
10.9458
10.9718
10.9973
11.0222
11.0461
11.0687
11.0896
11.1083
11.1242
11.1369
11.1457
11.1496
11.148
11.141
11.1261
11.1042
11.0763
11.0455
11.0153
11.0116
1.63057
3.6365
11.1713
11.4425
11.019
10.5877
10.4514
10.4607
10.4913
10.5221
10.5363
10.5429
10.5501
10.5601
10.5723
10.586
10.6007
10.6164
10.6332
10.651
10.6697
10.6892
10.7096
10.7306
10.7523
10.7744
10.7969
10.8197
10.8425
10.8653
10.8877
10.9096
10.9306
10.9506
10.9689
10.9853
10.9993
11.0101
11.0172
11.0191
11.0163
11.0068
10.9873
10.9583
10.9175
10.8632
10.7939
10.712
10.6215
10.5661
1.62962
3.6221
11.1371
11.4314
11.0082
10.5728
10.4327
10.4408
10.4694
10.499
10.5124
10.5183
10.5246
10.5336
10.5448
10.5573
10.5709
10.5854
10.6007
10.617
10.6341
10.6518
10.6702
10.689
10.7083
10.7279
10.7476
10.7672
10.7867
10.8057
10.8241
10.8414
10.8575
10.8719
10.8841
10.8935
10.8997
10.9012
10.8984
10.8895
10.8709
10.8427
10.8019
10.7456
10.6687
10.5657
10.4277
10.2467
10.0129
9.75855
1.62882
3.60379
11.0964
11.4182
10.9945
10.5535
10.4078
10.4145
10.4402
10.4685
10.4811
10.486
10.4912
10.499
10.5088
10.52
10.5321
10.5449
10.5585
10.5728
10.5878
10.6032
10.6191
10.6352
10.6515
10.6678
10.6839
10.6996
10.7148
10.7291
10.7422
10.7539
10.7636
10.7709
10.775
10.775
10.7721
10.7633
10.7452
10.7185
10.6807
10.6286
10.5579
10.4617
10.3308
10.1484
9.8854
9.48019
8.78184
7.25961
1.62802
3.58431
11.0533
11.4009
10.9754
10.5252
10.3716
10.3762
10.3988
10.4262
10.4387
10.4431
10.4474
10.454
10.4626
10.4723
10.4828
10.4939
10.5055
10.5176
10.53
10.5428
10.5556
10.5685
10.5812
10.5935
10.6053
10.6164
10.6264
10.6351
10.642
10.6468
10.6487
10.6477
10.6435
10.6336
10.6165
10.5921
10.5584
10.5127
10.4522
10.3719
10.2655
10.1232
9.9301
9.66242
9.27858
8.70964
7.86733
6.48102
1.62756
3.57304
11.0285
11.3893
10.9599
10.4969
10.3325
10.3347
10.3535
10.3807
10.3932
10.397
10.4
10.4053
10.4125
10.4208
10.4296
10.4388
10.4483
10.4581
10.468
10.4779
10.4877
10.4972
10.5062
10.5145
10.522
10.5282
10.5329
10.5357
10.5359
10.5345
10.5296
10.5194
10.504
10.4826
10.4536
10.4155
10.3659
10.3018
10.2194
10.1136
9.97624
9.79755
9.5622
9.249
8.82874
8.26119
7.52932
6.55632
1.62693
3.56384
11.0052
11.368
10.9319
10.4514
10.2775
10.2797
10.3
10.3307
10.3447
10.3482
10.3504
10.3547
10.3609
10.3679
10.3752
10.3826
10.3901
10.3975
10.4049
10.4119
10.4186
10.4247
10.43
10.4343
10.4374
10.4387
10.4383
10.4362
10.431
10.4214
10.4081
10.3898
10.3655
10.3343
10.2944
10.244
10.1806
10.1011
10.0017
9.87716
9.72068
9.52348
9.2744
8.95963
8.56456
8.07348
7.49312
6.76404
1.62765
3.59822
11.0666
11.3653
10.9045
10.3858
10.2005
10.2058
10.234
10.2718
10.2883
10.2918
10.2936
10.2972
10.3028
10.309
10.3151
10.321
10.3267
10.3321
10.3372
10.3417
10.3456
10.3486
10.3506
10.351
10.3504
10.3481
10.3429
10.3347
10.3233
10.3081
10.2882
10.263
10.2311
10.1915
10.1424
10.0821
10.0082
9.9179
9.80766
9.6731
9.5089
9.30875
9.06536
8.771
8.41842
8.00044
7.5195
6.96844
1.58993
3.70871
11.0715
11.2741
10.8236
10.3043
10.1314
10.1415
10.178
10.218
10.2344
10.2382
10.2402
10.2439
10.2487
10.2536
10.2581
10.2622
10.2658
10.2688
10.2713
10.273
10.2739
10.2737
10.2725
10.2697
10.2644
10.2572
10.2473
10.2344
10.218
10.1973
10.1718
10.1404
10.1021
10.0556
9.99962
9.9322
9.85139
9.75467
9.63916
9.50144
9.33764
9.14343
8.91437
8.646
8.33498
7.97865
7.579
7.13133
1.55506
4.816
11.2227
10.9529
10.312
10.0551
10.0507
10.0772
10.1246
10.1512
10.1608
10.1651
10.1693
10.1744
10.1795
10.1841
10.1879
10.191
10.1935
10.195
10.1956
10.1954
10.1944
10.1919
10.1875
10.1815
10.1738
10.1636
10.1506
10.1341
10.1136
10.0886
10.0584
10.0221
9.9789
9.92751
9.86671
9.79492
9.71034
9.61096
9.49446
9.35831
9.19974
9.01588
8.804
8.56169
8.28748
7.98135
7.64466
7.27016
1.55595
4.82299
11.1725
10.8839
10.2394
10.0001
10.0102
10.0527
10.1012
10.1229
10.1289
10.1314
10.1344
10.1377
10.1403
10.1418
10.1425
10.1424
10.1418
10.14
10.1369
10.1329
10.128
10.1217
10.1138
10.1039
10.0917
10.0769
10.0594
10.0386
10.0142
9.98561
9.95188
9.91201
9.86506
9.81019
9.74618
9.67178
9.58561
9.48602
9.37126
9.23945
9.08866
8.91695
8.7227
8.5045
8.26164
7.9936
7.7067
7.39065
1.56611
4.84211
11.2351
10.9038
10.1832
9.92263
9.93772
9.99242
10.0498
10.0742
10.0806
10.0833
10.0866
10.09
10.0923
10.0933
10.0932
10.0922
10.0898
10.0857
10.0805
10.0742
10.0666
10.0572
10.046
10.0328
10.0172
9.9991
9.97813
9.95387
9.92566
9.89286
9.85492
9.81142
9.76163
9.70452
9.63914
9.56408
9.47814
9.38005
9.26865
9.14246
9.00031
8.84087
8.66316
8.46649
8.2512
8.01706
7.76795
7.49751
1.55643
4.8203
11.1592
10.852
10.1591
9.89785
9.9099
9.95915
10.0153
10.0396
10.0452
10.0467
10.0487
10.0505
10.0512
10.0508
10.0492
10.0458
10.041
10.0351
10.028
10.0195
10.0094
9.99761
9.98379
9.9678
9.94935
9.92826
9.90413
9.87664
9.84526
9.80957
9.7691
9.72313
9.67103
9.61189
9.54499
9.46952
9.38468
9.28938
9.18268
9.06335
8.93037
8.78293
8.62075
8.44375
8.25213
8.0453
7.82689
7.59215
1.52725
4.76269
10.9517
10.7273
10.1505
9.90244
9.90335
9.93273
9.98139
10.0047
10.0104
10.0112
10.0118
10.0121
10.0116
10.0099
10.0063
10.0012
9.99493
9.98754
9.97871
9.96832
9.95618
9.94218
9.92607
9.90778
9.88695
9.86344
9.83682
9.80684
9.77312
9.73523
9.69268
9.64492
9.59143
9.53157
9.46469
9.39005
9.30696
9.21459
9.11212
8.999
8.87472
8.73881
8.59078
8.43031
8.25753
8.07457
7.88185
7.67586
1.51118
4.71719
10.8685
10.7324
10.2338
9.94103
9.88923
9.90756
9.947
9.97109
9.97782
9.97755
9.97638
9.97407
9.97117
9.96735
9.96226
9.9559
9.94825
9.93927
9.92878
9.91669
9.90282
9.88708
9.86924
9.84916
9.82653
9.8012
9.7728
9.74108
9.70571
9.66629
9.6225
9.57383
9.51978
9.45987
9.3936
9.3204
9.23972
9.15091
9.05344
8.94683
8.83069
8.70467
8.56868
8.42279
8.26735
8.10302
7.93104
7.74844
1.66806
3.29253
10.5067
11.0127
10.5968
10.077
9.88889
9.89285
9.91811
9.95116
9.96187
9.96071
9.95675
9.9504
9.94456
9.93863
9.93172
9.92347
9.91382
9.90274
9.89018
9.87597
9.85995
9.84214
9.82226
9.80012
9.77545
9.74812
9.71778
9.68426
9.64721
9.60632
9.5612
9.5115
9.45681
9.39681
9.33114
9.25935
9.18099
9.09566
9.00286
8.90227
8.79364
8.67673
8.55154
8.41819
8.277
8.12846
7.97373
7.81034
1.67598
3.16892
10.4409
11.1645
10.7158
10.1119
9.86712
9.85427
9.87201
9.90418
9.91462
9.91275
9.90674
9.89739
9.88976
9.88323
9.87628
9.86808
9.85841
9.84726
9.83458
9.82024
9.80408
9.78594
9.76567
9.74309
9.71793
9.69005
9.65915
9.62509
9.58753
9.54629
9.5011
9.45169
9.3978
9.33901
9.27493
9.2052
9.12954
9.04752
8.9589
8.86353
8.76138
8.65257
8.53694
8.41455
8.28561
8.15055
8.01036
7.86291
1.64115
3.0544
9.91215
11.0084
10.6485
10.1096
9.88639
9.86553
9.8765
9.89481
9.89647
9.89253
9.88237
9.86901
9.85783
9.84813
9.83833
9.82758
9.8156
9.80236
9.7878
9.77176
9.75409
9.7346
9.71313
9.68949
9.6635
9.63489
9.60341
9.56889
9.53113
9.48991
9.44498
9.39606
9.34289
9.28516
9.22261
9.15497
9.08201
9.00361
8.91968
8.82998
8.73433
8.63257
8.52461
8.41083
8.29204
8.16856
8.04087
7.90701
1.43598
4.54898
10.3362
10.5119
10.2195
9.92488
9.8169
9.81427
9.82255
9.83306
9.83297
9.82943
9.82039
9.80842
9.79817
9.78904
9.77955
9.76893
9.75703
9.74383
9.72928
9.71322
9.6955
9.67595
9.65443
9.63076
9.60478
9.57623
9.54494
9.51083
9.47364
9.43311
9.38905
9.34125
9.28948
9.2335
9.17311
9.10813
9.03837
8.96372
8.88403
8.7992
8.70916
8.61392
8.51389
8.40914
8.29957
8.18541
8.06766
7.94487
1.63349
3.00294
9.72708
10.8962
10.5814
10.0811
9.86161
9.82734
9.83269
9.83917
9.83641
9.82726
9.81058
9.79477
9.78117
9.76861
9.75578
9.74194
9.72692
9.71082
9.69363
9.67515
9.65518
9.63356
9.61013
9.58475
9.55727
9.52761
9.49565
9.46103
9.42357
9.38306
9.33935
9.29229
9.24165
9.1872
9.12878
9.06621
8.99936
8.92811
8.85236
8.77209
8.6873
8.59803
8.50441
8.40659
8.30469
8.19911
8.09045
7.97746
1.64235
2.93482
9.72847
11.0211
10.6398
10.0488
9.7916
9.75808
9.76824
9.78389
9.7828
9.77566
9.7597
9.7426
9.72876
9.71663
9.70438
9.69129
9.67717
9.6618
9.64503
9.62682
9.60707
9.58566
9.56246
9.53733
9.5101
9.48066
9.44884
9.41448
9.37743
9.33756
9.29468
9.24857
9.19911
9.14617
9.08964
9.02939
8.96532
8.89735
8.82541
8.74945
8.66946
8.58551
8.49768
8.4061
8.31098
8.21277
8.1119
8.00711
1.64067
2.91552
9.67397
10.9996
10.6148
10.0087
9.74214
9.70702
9.71816
9.73649
9.73599
9.72975
9.71477
9.69717
9.68304
9.67098
9.65889
9.64583
9.63155
9.61601
9.59912
9.58083
9.56102
9.53958
9.51639
9.49131
9.46422
9.43498
9.40347
9.36955
9.3331
9.29396
9.25202
9.2071
9.1591
9.10788
9.05339
8.99554
8.93423
8.86941
8.80102
8.72903
8.65346
8.57437
8.49187
8.40611
8.31716
8.22536
8.13118
8.03347
1.6263
2.92408
9.5059
10.8591
10.5492
9.99815
9.74254
9.69465
9.69936
9.70765
9.70533
9.69678
9.67956
9.66284
9.64852
9.63543
9.62221
9.60816
9.59305
9.5768
9.55935
9.54058
9.52038
9.49863
9.47521
9.45
9.42287
9.39372
9.36243
9.32888
9.29293
9.25445
9.21335
9.16953
9.12291
9.07342
9.02093
8.96535
8.90662
8.84472
8.7796
8.71126
8.6397
8.56501
8.48725
8.40657
8.32319
8.23721
8.14894
8.05735
1.39422
4.48164
10.0353
10.3042
10.0236
9.736
9.62814
9.61899
9.62439
9.63097
9.6299
9.62468
9.61335
9.60064
9.58918
9.57833
9.56697
9.55452
9.5408
9.52574
9.50933
9.4915
9.47217
9.45125
9.42866
9.40427
9.37799
9.34971
9.31936
9.28684
9.25204
9.21487
9.17522
9.13303
9.0882
9.04067
8.99034
8.93715
8.88108
8.82209
8.76019
8.69541
8.62774
8.55719
8.48383
8.40775
8.32915
8.2481
8.16497
8.07878
1.63152
2.94778
9.5932
10.8424
10.4984
9.90954
9.63604
9.59368
9.60397
9.62441
9.62599
9.62133
9.60893
9.59161
9.57668
9.56356
9.55034
9.53608
9.52051
9.50361
9.48549
9.46596
9.44508
9.42281
9.39911
9.37384
9.34685
9.31804
9.28731
9.25454
9.21973
9.18285
9.14381
9.10251
9.05887
9.01279
8.96422
8.9131
8.85936
8.80295
8.74384
8.68203
8.61756
8.55048
8.4809
8.40892
8.33465
8.25818
8.17973
8.09839
1.64177
3.07727
9.86609
10.7743
10.3919
9.78
9.51808
9.49792
9.51524
9.54804
9.55751
9.55484
9.54648
9.53224
9.51976
9.50888
9.49781
9.48551
9.47175
9.45662
9.44027
9.42264
9.40351
9.38276
9.36029
9.33609
9.31013
9.28238
9.25277
9.22126
9.18779
9.15226
9.11459
9.07471
9.03257
8.9881
8.94127
8.89204
8.84037
8.78625
8.72969
8.67075
8.60941
8.54565
8.47955
8.41118
8.34064
8.26804
8.19359
8.11642
1.40437
4.54555
10.104
10.1592
9.85344
9.54609
9.44653
9.45184
9.47122
9.4912
9.49693
9.49541
9.49037
9.48091
9.47157
9.46251
9.45274
9.44163
9.42905
9.41503
9.39958
9.38266
9.3642
9.34411
9.32238
9.29896
9.27384
9.24696
9.21826
9.18767
9.15521
9.12081
9.08441
9.04595
9.00537
8.96264
8.91772
8.87056
8.82115
8.76947
8.71551
8.65926
8.60078
8.54013
8.47734
8.41247
8.34557
8.27671
8.20604
8.13278
1.38832
4.55528
10.0004
10.0253
9.78353
9.55132
9.46894
9.46629
9.47246
9.48187
9.48356
9.48148
9.47553
9.46549
9.45519
9.44477
9.43357
9.42117
9.40749
9.39252
9.37625
9.35867
9.33972
9.31933
9.29746
9.27404
9.24903
9.22239
9.19408
9.16406
9.13222
9.09852
9.0629
9.02531
8.98573
8.9441
8.90039
8.85454
8.80665
8.75678
8.70489
8.6509
8.59483
8.5367
8.47654
8.41438
8.3503
8.28441
8.21688
8.14694
1.42147
4.56873
10.2123
10.1822
9.79825
9.46284
9.36967
9.38163
9.41284
9.43731
9.44423
9.44286
9.43825
9.42965
9.42069
9.41157
9.40161
9.39032
9.37757
9.36337
9.34774
9.33063
9.31206
9.29201
9.27046
9.24737
9.22271
9.19645
9.16858
9.13905
9.1078
9.07479
9.03996
9.00333
8.96488
8.92459
8.88246
8.83849
8.79257
8.74463
8.69469
8.6428
8.58899
8.53327
8.47567
8.41621
8.35497
8.29199
8.22738
8.16031
1.53226
3.35206
9.88848
10.7067
10.3189
9.67669
9.39281
9.36697
9.38461
9.42048
9.43464
9.43361
9.42895
9.41918
9.40871
9.39872
9.38827
9.37662
9.36354
9.34902
9.33311
9.31584
9.29718
9.27707
9.25548
9.23237
9.20764
9.18128
9.15342
9.12393
9.09276
9.05989
9.02534
8.9891
8.95115
8.91147
8.87004
8.82685
8.78186
8.73508
8.68651
8.63621
8.58405
8.53009
8.47442
8.41709
8.35815
8.29764
8.23568
8.17155
1.39669
4.53405
10.0659
10.095
9.79191
9.46685
9.34486
9.3433
9.3547
9.37616
9.38499
9.38429
9.38078
9.37311
9.36416
9.3554
9.34621
9.33585
9.32405
9.3108
9.29614
9.28007
9.26257
9.2436
9.22312
9.20111
9.17754
9.1524
9.12572
9.09748
9.06765
9.03624
9.00321
8.96848
8.93203
8.89384
8.85393
8.81229
8.7689
8.72377
8.67689
8.62825
8.57797
8.52609
8.47258
8.41747
8.36081
8.30265
8.24313
8.18169
1.39408
4.53116
10.0484
10.082
9.77533
9.44747
9.32727
9.32757
9.34014
9.36289
9.37228
9.3714
9.36734
9.35875
9.34908
9.3396
9.32964
9.31852
9.30602
9.29213
9.27692
9.26042
9.2426
9.22345
9.20293
9.18102
9.15773
9.13303
9.10683
9.07907
9.04972
9.01877
8.98625
8.95216
8.91651
8.87927
8.84042
8.79993
8.75781
8.71405
8.66867
8.62166
8.57307
8.52291
8.47118
8.41792
8.36315
8.30693
8.24934
8.18989
1.53044
3.34007
9.84905
10.6876
10.3014
9.63689
9.33306
9.29732
9.31387
9.34867
9.36388
9.36299
9.35842
9.34857
9.33775
9.32779
9.31774
9.30668
9.29426
9.28048
9.26538
9.24897
9.23123
9.21215
9.19167
9.16972
9.14645
9.12174
9.09554
9.06784
9.03863
9.0079
8.97567
8.94196
8.90675
8.87
8.83173
8.79192
8.75057
8.70768
8.66326
8.61731
8.56986
8.52093
8.47052
8.41869
8.36545
8.31085
8.255
8.19749
1.40809
4.5476
10.1183
10.092
9.70662
9.35376
9.24358
9.25284
9.28212
9.31109
9.32069
9.31977
9.31588
9.30782
9.29917
9.29069
9.28165
9.27144
9.25987
9.24694
9.23272
9.21721
9.2004
9.18226
9.16277
9.1419
9.11966
9.09603
9.07096
9.04444
9.01644
8.98702
8.95615
8.92381
8.88997
8.85463
8.81779
8.77945
8.73962
8.69828
8.65541
8.61102
8.56513
8.51776
8.46895
8.41871
8.36705
8.31407
8.25984
8.20398
1.39304
4.5554
10.0074
9.98159
9.66861
9.38826
9.29977
9.30278
9.31495
9.32576
9.3263
9.3238
9.3172
9.3071
9.29707
9.28715
9.27663
9.26509
9.25239
9.23852
9.22349
9.2073
9.18993
9.17137
9.15157
9.13051
9.10818
9.08455
9.05961
9.03333
9.00573
8.97674
8.94632
8.91445
8.88114
8.84638
8.81014
8.77244
8.73328
8.69268
8.65066
8.60722
8.56236
8.51607
8.4684
8.41932
8.36891
8.31715
8.26409
8.20926
1.38507
4.54768
9.95869
9.94734
9.65872
9.387
9.29473
9.29404
9.30019
9.3079
9.30796
9.3057
9.29955
9.28964
9.27971
9.26991
9.25956
9.24826
9.23587
9.22239
9.2078
9.19208
9.17518
9.15707
9.13774
9.11715
9.0953
9.07215
9.0477
9.02192
8.99479
8.96629
8.93641
8.90514
8.87248
8.83842
8.80298
8.76614
8.72787
8.68818
8.64707
8.60454
8.56061
8.51528
8.4686
8.42063
8.37133
8.32064
8.26863
8.21482
1.37717
4.50918
9.91912
10.0313
9.73101
9.40314
9.28189
9.27787
9.28647
9.29882
9.30091
9.29856
9.29187
9.28082
9.27011
9.25997
9.24949
9.23808
9.22555
9.21191
9.19716
9.18128
9.16427
9.14608
9.12671
9.10613
9.08433
9.06127
9.03696
9.01137
8.98448
8.95627
8.92675
8.89588
8.86367
8.8301
8.79517
8.75888
8.7212
8.68216
8.64175
8.59999
8.55689
8.51249
8.46673
8.41961
8.37118
8.32147
8.27054
8.21801
1.62612
2.96892
9.52143
10.6174
10.2729
9.64723
9.33776
9.27193
9.27949
9.2977
9.30514
9.30288
9.29534
9.28096
9.26777
9.25645
9.24558
9.23404
9.2214
9.20762
9.19276
9.17682
9.15979
9.14163
9.12232
9.10182
9.08011
9.05718
9.033
9.00755
8.98083
8.95281
8.92349
8.89284
8.86087
8.82755
8.7929
8.75691
8.71957
8.68089
8.64087
8.59952
8.55686
8.51289
8.46762
8.42109
8.37333
8.32443
8.27443
8.22304
1.63544
2.85365
9.48378
10.8211
10.4147
9.67656
9.30941
9.23145
9.242
9.26796
9.28261
9.28139
9.27526
9.26187
9.24775
9.23617
9.22573
9.21482
9.20274
9.18943
9.175
9.15948
9.14288
9.12517
9.10632
9.08629
9.06507
9.04265
9.01899
8.9941
8.96794
8.94051
8.91179
8.88178
8.85046
8.81782
8.78387
8.74859
8.71198
8.67405
8.6348
8.59424
8.55236
8.50917
8.46469
8.41895
8.372
8.32387
8.27465
8.22408
1.62648
2.96203
9.50607
10.6079
10.2635
9.63113
9.31358
9.24594
9.25433
9.27493
9.28509
9.28322
9.27616
9.26175
9.24789
9.23618
9.22522
9.21372
9.20115
9.18746
9.17271
9.15695
9.14015
9.12228
9.10331
9.08322
9.06198
9.03956
9.01595
8.99114
8.9651
8.93781
8.90927
8.87945
8.84836
8.81598
8.7823
8.74731
8.71103
8.67344
8.63454
8.59435
8.55286
8.51009
8.46605
8.42075
8.37423
8.32649
8.2776
8.22717
1.37414
4.50582
9.89972
10.0117
9.7072
9.36511
9.23643
9.23198
9.2415
9.25605
9.25917
9.25695
9.25045
9.23947
9.22887
9.21893
9.20874
9.19768
9.18556
9.17238
9.15816
9.14292
9.12664
9.10928
9.09082
9.07124
9.05051
9.02862
9.00555
8.98127
8.95578
8.92906
8.90108
8.87184
8.84133
8.80954
8.77646
8.74208
8.7064
8.66942
8.63114
8.59155
8.55066
8.50848
8.46503
8.42032
8.37435
8.32712
8.27862
8.22837
1.37991
4.54107
9.92425
9.90679
9.60699
9.32994
9.24205
9.24435
9.25506
9.26502
9.26526
9.26267
9.25572
9.24489
9.23427
9.224
9.21329
9.2017
9.18911
9.17551
9.16093
9.14534
9.12873
9.11107
9.09234
9.0725
9.05155
9.02946
9.0062
8.98177
8.95614
8.9293
8.90124
8.87193
8.84138
8.80956
8.77648
8.74212
8.70648
8.66956
8.63136
8.59188
8.55112
8.50909
8.46581
8.42128
8.37553
8.32855
8.28037
8.23068
1.4041
4.56232
10.0547
9.98729
9.59201
9.27595
9.19314
9.20474
9.23446
9.25487
9.25743
9.25478
9.24775
9.23737
9.22742
9.21773
9.20746
9.19619
9.18386
9.1705
9.15614
9.14076
9.12436
9.1069
9.08836
9.06873
9.04797
9.02607
9.00301
8.97877
8.95334
8.9267
8.89883
8.86972
8.83936
8.80774
8.77486
8.74069
8.70525
8.66852
8.63051
8.59123
8.55066
8.50883
8.46574
8.42141
8.37585
8.3291
8.2812
8.23192
3.04403
2.45863
3.00377
4.18056
4.12661
4.10988
4.04903
4.01135
3.99845
4.00119
4.02879
4.07239
4.10948
4.14018
4.17416
4.21687
4.26854
4.32661
4.38826
4.45115
4.51357
4.57431
4.63286
4.6898
4.74077
4.78613
4.8258
4.86022
4.88934
4.91337
4.93234
4.94642
4.95573
4.9605
4.96091
4.95929
4.95396
4.94266
4.92722
4.90946
4.88944
4.8671
4.84258
4.81613
4.78803
4.75855
4.72793
4.69642
4.66426
4.63166
4.59884
4.56602
4.53339
4.50116
4.46953
4.43869
4.40885
4.38021
4.35295
4.32728
4.30339
4.28147
4.26169
4.24424
4.22926
4.21687
4.20716
4.20018
4.19589
4.19434
4.19454
4.19559
4.19854
4.2051
4.21677
4.22976
4.24309
4.25662
4.27018
4.28349
4.2962
4.30798
4.31858
4.32781
4.33555
4.34176
4.34644
4.34963
4.35144
4.35203
4.35195
4.35157
4.35051
4.34818
4.34422
4.33983
4.33531
4.33061
4.32558
4.32118
4.09647
3.55437
3.75691
4.23505
4.15234
4.09571
4.03643
3.99604
3.98436
3.99656
4.03767
4.08809
4.11986
4.14179
4.17083
4.21175
4.26302
4.32104
4.38256
4.44536
4.50769
4.56857
4.6274
4.68407
4.73512
4.78048
4.82027
4.85482
4.88408
4.90825
4.92732
4.94151
4.9509
4.95569
4.95592
4.95474
4.95047
4.94048
4.92351
4.90512
4.88526
4.86326
4.83899
4.8127
4.78472
4.75535
4.72484
4.69345
4.66139
4.62889
4.59617
4.56343
4.53088
4.49872
4.46715
4.43637
4.40657
4.37797
4.35074
4.3251
4.30124
4.27934
4.25958
4.24215
4.22719
4.21485
4.2052
4.19832
4.19425
4.1932
4.19347
4.1946
4.19757
4.20402
4.21575
4.22904
4.24273
4.25654
4.27031
4.28378
4.29663
4.30853
4.31923
4.32852
4.33629
4.34251
4.34717
4.35032
4.35208
4.35258
4.35249
4.35209
4.35104
4.34875
4.34468
4.34015
4.33555
4.33093
4.32614
4.32336
5.22592
4.46488
4.23664
4.26841
4.24916
4.19667
4.11462
4.06163
4.04155
4.04402
4.05651
4.08575
4.12102
4.15243
4.18553
4.22618
4.27515
4.33071
4.39009
4.45103
4.51179
4.57125
4.62856
4.68308
4.73328
4.77813
4.8175
4.85157
4.88041
4.90416
4.92287
4.9367
4.94573
4.9501
4.95002
4.94893
4.94529
4.93667
4.91939
4.90001
4.87955
4.85743
4.83328
4.80715
4.7793
4.75003
4.71963
4.68835
4.6564
4.62403
4.59142
4.5588
4.52635
4.49429
4.46282
4.43213
4.40243
4.37391
4.34676
4.3212
4.29741
4.27558
4.2559
4.23855
4.22369
4.21147
4.202
4.19539
4.19175
4.19135
4.1917
4.19295
4.19607
4.2027
4.21437
4.22792
4.24211
4.25645
4.27067
4.2845
4.29763
4.30976
4.32061
4.33
4.33783
4.34405
4.34866
4.35171
4.35337
4.35366
4.35354
4.35308
4.35194
4.34951
4.34534
4.34067
4.33596
4.3314
4.3268
4.32576
5.82937
5.0963
4.66376
4.46716
4.42837
4.36256
4.2703
4.18992
4.13806
4.11774
4.12004
4.1311
4.15728
4.19426
4.22779
4.26266
4.30353
4.35128
4.40434
4.46042
4.51747
4.57401
4.62879
4.6811
4.72953
4.77329
4.81188
4.84519
4.87333
4.89647
4.91464
4.92795
4.9365
4.9403
4.94013
4.939
4.93563
4.92785
4.91197
4.89187
4.87052
4.84797
4.82381
4.79788
4.7703
4.7413
4.71116
4.68013
4.64844
4.61632
4.58396
4.55157
4.51936
4.48753
4.45627
4.42579
4.39629
4.36797
4.34102
4.31564
4.29203
4.27038
4.25089
4.23373
4.21907
4.20709
4.19789
4.19171
4.18873
4.18879
4.18929
4.19082
4.19433
4.20158
4.21301
4.2266
4.24127
4.25627
4.27112
4.28546
4.29896
4.31134
4.32238
4.33188
4.33975
4.34594
4.35047
4.35344
4.35493
4.35494
4.35477
4.35421
4.35287
4.35011
4.34592
4.3412
4.33639
4.33186
4.3275
4.32759
6.23237
5.59739
5.12288
4.83372
4.68491
4.57201
4.46063
4.35912
4.28163
4.23413
4.21433
4.21528
4.22158
4.23801
4.27052
4.3033
4.33957
4.38087
4.42702
4.47677
4.52859
4.58089
4.63224
4.68149
4.7276
4.76962
4.80694
4.83911
4.86626
4.88856
4.90593
4.91851
4.92642
4.92945
4.92918
4.92794
4.92458
4.91714
4.90209
4.88234
4.86055
4.83744
4.81299
4.78707
4.75969
4.73098
4.70115
4.67044
4.63906
4.60724
4.57519
4.5431
4.51119
4.47965
4.44869
4.41851
4.3893
4.36127
4.33461
4.30952
4.2862
4.26485
4.24566
4.22879
4.21447
4.20284
4.19413
4.18843
4.18621
4.18638
4.18712
4.18904
4.19315
4.20131
4.21248
4.22595
4.24088
4.25642
4.27187
4.28672
4.3006
4.31324
4.32442
4.33399
4.34187
4.34802
4.35247
4.35531
4.35648
4.35642
4.35612
4.35533
4.35363
4.35048
4.34634
4.34163
4.33676
4.33225
4.32825
4.32855
6.53942
6.00435
5.54974
5.20599
4.97303
4.80664
4.66957
4.55033
4.45226
4.38016
4.33488
4.313
4.31287
4.31606
4.32674
4.3499
4.38226
4.41825
4.45703
4.49894
4.54359
4.58986
4.63627
4.68154
4.72454
4.76424
4.79981
4.83074
4.85684
4.87819
4.89464
4.90645
4.9137
4.91594
4.91561
4.91426
4.91081
4.9034
4.8888
4.86988
4.84822
4.82478
4.8
4.77398
4.74674
4.71834
4.68891
4.65861
4.62765
4.59625
4.5646
4.53293
4.50143
4.47031
4.43978
4.41002
4.38124
4.35364
4.32742
4.30277
4.27989
4.25898
4.24023
4.2238
4.20997
4.19888
4.19072
4.18557
4.18417
4.18443
4.1854
4.18774
4.19265
4.20138
4.21268
4.22611
4.24108
4.25685
4.27264
4.28786
4.30204
4.31488
4.32616
4.33576
4.34361
4.34971
4.35408
4.35677
4.35759
4.35748
4.35706
4.35604
4.35393
4.35057
4.34637
4.34166
4.33677
4.33229
4.32858
4.32898
6.78364
6.33314
5.91556
5.55648
5.27591
5.06419
4.89647
4.75652
4.63944
4.54596
4.47729
4.43256
4.40909
4.40331
4.40495
4.41165
4.42744
4.45589
4.48768
4.52294
4.56094
4.6008
4.6415
4.68205
4.72133
4.75821
4.7917
4.82111
4.84604
4.86638
4.88205
4.89311
4.89962
4.90108
4.90069
4.89921
4.8956
4.88796
4.87383
4.85558
4.83432
4.8109
4.78598
4.75989
4.73275
4.70462
4.67558
4.64575
4.61528
4.58437
4.55322
4.52205
4.49106
4.46045
4.43044
4.40122
4.37299
4.34595
4.32029
4.29621
4.27392
4.25361
4.23546
4.21971
4.20646
4.19595
4.18839
4.18385
4.18327
4.18362
4.1848
4.18756
4.19328
4.20255
4.21408
4.22748
4.24233
4.25801
4.27381
4.28909
4.30336
4.31627
4.32758
4.33718
4.345
4.35103
4.35527
4.35781