/*--------------------------------*- C++ -*----------------------------------*\
| =========                 |                                                 |
| \\      /  F ield         | OpenFOAM: The Open Source CFD Toolbox           |
|  \\    /   O peration     | Version:  2412                                  |
|   \\  /    A nd           | Website:  www.openfoam.com                      |
|    \\/     M anipulation  |                                                 |
\*---------------------------------------------------------------------------*/
FoamFile
{
    version     2.0;
    format      ascii;
    arch        "LSB;label=32;scalar=64";
    class       surfaceScalarField;
    location    "21.5";
    object      phi;
}
// * * * * * * * * * * * * * * * * * * * * * * * * * * * * * * * * * * * * * //

dimensions      [1 0 -1 0 0 0 0];

oriented        oriented;

internalField   nonuniform List<scalar> 
13790
(
0.00292374
-1.97131e-07
0.00274462
9.30864e-07
0.002804
3.25334e-06
0.00280525
5.58864e-06
0.00279922
6.47549e-06
0.00279209
7.16727e-06
0.00278413
7.95992e-06
0.00277521
8.90993e-06
0.00276522
9.99756e-06
0.00275398
1.1242e-05
0.0027414
1.2574e-05
0.00272745
1.39552e-05
0.00271206
1.53879e-05
0.00269517
1.6889e-05
0.0026767
1.84712e-05
0.00265656
2.01401e-05
0.00263466
2.18992e-05
0.0026109
2.37527e-05
0.0025852
2.57067e-05
0.00255743
2.77687e-05
0.00252748
2.99469e-05
0.00249523
3.22499e-05
0.00246054
3.46869e-05
0.00242327
3.72679e-05
0.00238327
4.00032e-05
0.00234036
4.29036e-05
0.00229438
4.59801e-05
0.00224514
4.92436e-05
0.00219243
5.2705e-05
0.00213606
5.63741e-05
0.0020758
6.02601e-05
0.00201143
6.43695e-05
0.00194272
6.87077e-05
0.00186945
7.32743e-05
0.00179138
7.80676e-05
0.0017083
8.30754e-05
0.00162002
8.82834e-05
0.00152636
9.36613e-05
0.00142718
9.9176e-05
0.00132241
0.000104772
0.00121201
0.000110391
0.00109607
0.000115946
0.000974712
0.000121355
0.000848212
0.000126499
0.000716919
0.000131293
0.000581311
0.000135608
0.000441837
0.000139473
0.000299162
0.000142674
0.000152278
0.000146884
0.000152277
0.00303216
2.0422e-08
0.00284629
8.42469e-07
0.00290647
8.61617e-06
0.00290779
1.12904e-05
0.00290193
1.28128e-05
0.00289474
1.43797e-05
0.00288655
1.61527e-05
0.00287731
1.81552e-05
0.00286691
2.03948e-05
0.00285524
2.29105e-05
0.00284221
2.56026e-05
0.00282776
2.84077e-05
0.00281182
3.13262e-05
0.00279432
3.43865e-05
0.00277518
3.76098e-05
0.00275431
4.10091e-05
0.00273162
4.45907e-05
0.00270701
4.83653e-05
0.00268037
5.23441e-05
0.00265159
5.65436e-05
0.00262056
6.09788e-05
0.00258714
6.56689e-05
0.0025512
7.06312e-05
0.00251258
7.58876e-05
0.00247112
8.14575e-05
0.00242666
8.73646e-05
0.00237901
9.36301e-05
0.00232798
0.000100277
0.00227335
0.000107328
0.00221492
0.000114802
0.00215246
0.00012272
0.00208574
0.000131093
0.00201451
0.000139936
0.00193854
0.000149245
0.00185758
0.000159021
0.00177142
0.000169235
0.00167984
0.000179866
0.00158266
0.000190845
0.00147972
0.000202115
0.00137093
0.000213554
0.00125627
0.000225055
0.00113578
0.000236433
0.00100961
0.000247527
0.000878013
0.000258097
0.00074136
0.000267945
0.000600113
0.000276855
0.000454842
0.000284743
0.000306088
0.000291428
0.0001542
0.000298772
0.000306477
0.00314487
9.2143e-08
0.00295181
1.21233e-06
0.00301442
1.38891e-05
0.0030157
1.72779e-05
0.00300971
1.92979e-05
0.0030024
2.17255e-05
0.00299397
2.45755e-05
0.00298442
2.77067e-05
0.00297366
3.11594e-05
0.00296158
3.49925e-05
0.00294809
3.90843e-05
0.00293314
4.33547e-05
0.00291666
4.78143e-05
0.00289855
5.24885e-05
0.00287875
5.74161e-05
0.00285715
6.26037e-05
0.00283367
6.80762e-05
0.00280819
7.38351e-05
0.00278062
7.99145e-05
0.00275085
8.63211e-05
0.00271873
9.30977e-05
0.00268414
0.000100252
0.00264694
0.000107834
0.00260697
0.000115852
0.00256407
0.000124363
0.00251806
0.000133373
0.00246874
0.000142948
0.00241593
0.00015309
0.00235939
0.000163867
0.00229892
0.000175273
0.00223426
0.00018738
0.00216518
0.000200164
0.00209143
0.00021369
0.00201276
0.000227914
0.0019289
0.000242877
0.00183964
0.000258501
0.00174472
0.000274783
0.00164396
0.000291605
0.00153719
0.000308883
0.0014243
0.000326449
0.00130525
0.000344101
0.00118005
0.000361632
0.00104889
0.00037868
0.000911946
0.000395045
0.000769667
0.000410223
0.000622493
0.000424028
0.000471053
0.000436182
0.000316166
0.000446315
0.000158593
0.000456345
0.00046507
0.0032618
1.16176e-07
0.00306156
1.66977e-06
0.00312674
1.90912e-05
0.00312806
2.34698e-05
0.00312188
2.59905e-05
0.0031144
2.92426e-05
0.00310577
3.32062e-05
0.00309594
3.75409e-05
0.00308482
4.22771e-05
0.00307234
4.74756e-05
0.00305842
5.30026e-05
0.00304298
5.87881e-05
0.00302596
6.48361e-05
0.00300726
7.11872e-05
0.00298681
7.7872e-05
0.00296449
8.49174e-05
0.00294023
9.23363e-05
0.00291391
0.000100156
0.00288543
0.000108396
0.00285465
0.000117096
0.00282147
0.000126278
0.00278573
0.000135994
0.0027473
0.000146265
0.00270599
0.000157155
0.00266167
0.000168683
0.00261412
0.000180925
0.00256318
0.000193892
0.00250859
0.000207676
0.00245019
0.00022227
0.00238767
0.000237783
0.00232087
0.000254181
0.00224945
0.000271582
0.00217323
0.00028991
0.00209186
0.00030929
0.00200515
0.00032958
0.00191276
0.000350897
0.00181453
0.000373007
0.00171014
0.000395993
0.00159952
0.000419509
0.00148242
0.000443549
0.00135885
0.000467672
0.0012288
0.000491673
0.00109237
0.000515118
0.000949929
0.00053748
0.000801616
0.000558535
0.000648239
0.000577405
0.000490306
0.000594115
0.00032867
0.00060795
0.00016476
0.000620254
0.000629829
0.00338304
1.39598e-07
0.00317539
2.15915e-06
0.00324314
2.43202e-05
0.00324459
2.97936e-05
0.00323827
3.28568e-05
0.00323061
3.69394e-05
0.0032218
4.2017e-05
0.0032117
4.7646e-05
0.00320025
5.37257e-05
0.00318739
6.0334e-05
0.00317306
6.73354e-05
0.00315716
7.46862e-05
0.00313962
8.23711e-05
0.00312035
9.0459e-05
0.00309926
9.89563e-05
0.00307626
0.000107924
0.00305124
0.000117349
0.0030241
0.000127299
0.00299473
0.000137765
0.00296299
0.000148832
0.00292878
0.000160494
0.00289192
0.000172851
0.00285229
0.000185898
0.0028097
0.000199744
0.00276399
0.000214392
0.00271496
0.000229954
0.00266241
0.000246439
0.00260613
0.000263957
0.00254587
0.000282527
0.00248141
0.000302241
0.00241246
0.000323127
0.00233881
0.000345241
0.00226009
0.000368622
0.00217612
0.000393257
0.00208651
0.000419192
0.00199111
0.000446301
0.00188947
0.000474642
0.00178156
0.0005039
0.00166692
0.00053415
0.00154566
0.000564816
0.00141736
0.000595962
0.00128231
0.000626726
0.0011404
0.000657031
0.000991918
0.000685958
0.000837465
0.000712988
0.000677148
0.000737722
0.000512231
0.000759031
0.000343477
0.000776703
0.000172035
0.000791695
0.000801864
0.0035088
1.63316e-07
0.00329346
2.65492e-06
0.0033639
2.95932e-05
0.00336551
3.62204e-05
0.00335906
3.98837e-05
0.00335124
4.47988e-05
0.00334219
5.10684e-05
0.00333188
5.79519e-05
0.00332016
6.54439e-05
0.00330697
7.35226e-05
0.00329224
8.2071e-05
0.0032759
9.10174e-05
0.00325786
0.000100411
0.00323805
0.000110269
0.00321635
0.000120662
0.00319269
0.000131584
0.00316693
0.000143107
0.00313901
0.000155217
0.00310876
0.000168012
0.00307612
0.000181475
0.00304088
0.000195732
0.00300297
0.000210759
0.00296216
0.000226709
0.00291835
0.000243545
0.00287129
0.000261453
0.00282087
0.000280378
0.00276677
0.000300536
0.00270888
0.00032185
0.00264684
0.000344562
0.00258051
0.000368567
0.00250952
0.00039412
0.00243367
0.000421086
0.00235259
0.000449702
0.00226604
0.000479804
0.00217367
0.000511566
0.00207518
0.000544793
0.00197029
0.000579524
0.00185865
0.000615539
0.00174017
0.000652635
0.0016144
0.000690589
0.00148155
0.00072881
0.00134109
0.000767187
0.00119357
0.000804543
0.00103876
0.000840775
0.000877304
0.000874438
0.000709977
0.000905048
0.000537036
0.000931972
0.000360124
0.000953615
0.000180624
0.000971195
0.000982487
0.00363924
1.87374e-07
0.00341591
3.1525e-06
0.00348916
3.49054e-05
0.00349097
4.27246e-05
0.00348444
4.70214e-05
0.00347648
5.27979e-05
0.00346728
6.02669e-05
0.00345675
6.84814e-05
0.00344478
7.74185e-05
0.00343127
8.703e-05
0.00341618
9.71612e-05
0.00339942
0.000107772
0.00338092
0.000118908
0.00336058
0.000130613
0.0033383
0.000142935
0.00331399
0.000155899
0.00328755
0.000169548
0.00325884
0.000183919
0.00322779
0.000199063
0.00319423
0.000215038
0.00315806
0.000231903
0.00311908
0.000249735
0.0030772
0.000268591
0.00303217
0.000288576
0.00298388
0.000309737
0.00293205
0.000332213
0.00287656
0.000356026
0.00281705
0.000381357
0.00275342
0.000408189
0.00268524
0.000436747
0.0026124
0.000466954
0.00253441
0.000499075
0.00245117
0.000532949
0.00236211
0.00056886
0.00226713
0.000606546
0.00216567
0.000646249
0.00205759
0.000687607
0.0019424
0.000730725
0.0018199
0.000775134
0.00168982
0.000820674
0.00155185
0.000866781
0.00140622
0.000912816
0.00125242
0.00095834
0.0010912
0.001002
0.000922297
0.00104334
0.000746703
0.00108064
0.00056554
0.00111313
0.000379441
0.00113971
0.000190151
0.00116049
0.00117264
0.00377454
2.11584e-07
0.00354291
3.64918e-06
0.00361911
4.02398e-05
0.00362115
4.92773e-05
0.00361458
5.42309e-05
0.00360652
6.0898e-05
0.00359721
6.9585e-05
0.0035865
7.918e-05
0.00357431
8.96157e-05
0.00356053
0.000100805
0.00354512
0.000112573
0.00352799
0.000124897
0.00350907
0.000137832
0.00348825
0.000151434
0.00346544
0.000165746
0.00344053
0.000180802
0.00341343
0.000196644
0.00338403
0.000213321
0.0033522
0.000230892
0.00331782
0.000249422
0.00328073
0.000268984
0.00324081
0.000289658
0.00319787
0.000311531
0.00315176
0.000334691
0.00310225
0.000359245
0.00304918
0.000385283
0.00299227
0.000412932
0.00293135
0.000442273
0.00286608
0.000473459
0.00279629
0.000506538
0.00272155
0.000541697
0.00264171
0.000578915
0.00255623
0.000618427
0.002465
0.000660084
0.00236738
0.000704167
0.00226328
0.000750347
0.00215201
0.000798881
0.00203349
0.000849249
0.00190706
0.000901556
0.00177263
0.000955102
0.00162979
0.00100962
0.00147829
0.00106432
0.00131843
0.00111819
0.00114975
0.00117067
0.000973231
0.00121986
0.000788855
0.00126502
0.000597624
0.00130436
0.000401354
0.00133598
0.00020156
0.00136028
0.0013742
0.00391488
2.35811e-07
0.00367461
4.14167e-06
0.00375393
4.55665e-05
0.00375624
5.58404e-05
0.00374968
6.14739e-05
0.00374157
6.90518e-05
0.00373215
7.90061e-05
0.00372135
8.9985e-05
0.00370899
0.000101972
0.003695
0.000114798
0.00367931
0.000128259
0.00366186
0.000142347
0.00364256
0.000157137
0.0036213
0.000172687
0.003598
0.000189045
0.00357256
0.000206245
0.00354486
0.000224337
0.00351481
0.000243374
0.00348227
0.000263427
0.00344713
0.000284568
0.00340923
0.000306883
0.00336842
0.000330461
0.00332455
0.000355404
0.00327742
0.000381816
0.00322686
0.000409811
0.00317263
0.000439511
0.00311452
0.000471036
0.00305227
0.000504524
0.00298564
0.000540091
0.00291429
0.00057789
0.00283797
0.000618014
0.00275626
0.000660626
0.00266893
0.000705755
0.00257542
0.000753589
0.00247558
0.000804004
0.00236869
0.000857236
0.00225468
0.000912899
0.00213267
0.000971254
0.00200268
0.00103154
0.00186383
0.00109395
0.00171616
0.0011573
0.00155904
0.00122144
0.00139232
0.00128491
0.00121645
0.00134655
0.00103081
0.00140549
0.000836923
0.00145891
0.000635285
0.001506
0.000427026
0.00154424
0.000214247
0.00157306
0.00158844
0.00406045
2.59704e-07
0.00381121
4.62598e-06
0.00389382
5.08384e-05
0.00389647
6.23628e-05
0.00388998
6.869e-05
0.00388187
7.72076e-05
0.00387246
8.84239e-05
0.00386157
0.00010087
0.0038491
0.000114446
0.00383494
0.000128954
0.00381904
0.000144158
0.00380132
0.000160069
0.00378169
0.000176761
0.00376006
0.000194317
0.00373634
0.000212768
0.00371041
0.000232169
0.00368219
0.000252555
0.00365156
0.000274009
0.0036184
0.000296587
0.00358257
0.000320395
0.00354394
0.000345506
0.00350236
0.000372046
0.00345766
0.000400104
0.00340965
0.000429826
0.00335814
0.000461315
0.00330291
0.000494737
0.00324374
0.000530206
0.00318036
0.000567903
0.0031125
0.000607949
0.00303986
0.00065053
0.00296211
0.000695763
0.00287891
0.000743829
0.00278985
0.000794818
0.00269456
0.000848872
0.00259253
0.000906036
0.00248342
0.000966347
0.00236653
0.00102978
0.00224164
0.00109614
0.00210784
0.00116534
0.00196508
0.00123671
0.00181227
0.00131011
0.0016496
0.00138411
0.00147609
0.00145841
0.00129191
0.00153073
0.00109758
0.00159983
0.00089241
0.00166407
0.000678315
0.0017201
0.000456722
0.00176583
0.000229857
0.00179992
0.0018183
0.00421145
2.83036e-07
0.00395287
5.09615e-06
0.00403898
5.59935e-05
0.00404205
6.87801e-05
0.00403567
7.58347e-05
0.00402764
8.52927e-05
0.00401823
9.78364e-05
0.00400738
0.000111713
0.00399489
0.000126935
0.00398065
0.000143192
0.0039646
0.000160208
0.00394668
0.000177988
0.0039268
0.000196645
0.00390487
0.000216247
0.00388078
0.000236851
0.00385446
0.000258489
0.00382579
0.000281228
0.00379467
0.000305129
0.00376096
0.000330289
0.00372457
0.000356791
0.00368532
0.000384753
0.00364309
0.00041428
0.00359768
0.000445508
0.00354894
0.000478565
0.00349665
0.000513606
0.00344061
0.00055078
0.00338056
0.000590254
0.00331626
0.000632202
0.00324741
0.000676793
0.00317372
0.000724224
0.00309483
0.00077465
0.00301038
0.00082828
0.00291996
0.000885233
0.00282313
0.000945709
0.00271941
0.00100975
0.00260825
0.00107751
0.00248915
0.00114888
0.00236139
0.0012239
0.00222452
0.00130222
0.00207762
0.00138361
0.00192037
0.00146735
0.00175169
0.00155279
0.00157159
0.00163851
0.00137894
0.00172338
0.00117402
0.00180475
0.000957736
0.00188035
0.000729836
0.001948
0.000492305
0.00200336
0.00024751
0.00204472
0.00206581
0.00436808
3.04083e-07
0.0040998
5.54687e-06
0.00418966
6.09325e-05
0.00419321
7.50145e-05
0.00418704
8.28302e-05
0.00417917
9.32145e-05
0.00416995
0.000107066
0.00415917
0.000122479
0.00414672
0.000139391
0.00413246
0.000157449
0.00411635
0.00017632
0.0040983
0.000196038
0.00407825
0.000216697
0.00405608
0.00023841
0.00403174
0.000261196
0.00400509
0.000285132
0.00397608
0.000310244
0.00394455
0.000336651
0.00391044
0.000364402
0.00387357
0.000393654
0.00383386
0.00042447
0.0037911
0.000457038
0.00374517
0.000491434
0.00369585
0.000527881
0.00364299
0.000566467
0.00358632
0.000607448
0.00352565
0.000650925
0.00346067
0.000697183
0.00339113
0.000746331
0.00331667
0.000798679
0.00323699
0.000854335
0.00315165
0.000913617
0.00306025
0.000976628
0.00296231
0.00104365
0.0028573
0.00111477
0.00274466
0.00119015
0.00262368
0.00126986
0.00249378
0.00135379
0.00235402
0.00144198
0.00220382
0.00153381
0.002042
0.00162918
0.00186808
0.0017267
0.00168079
0.0018258
0.00147993
0.00192424
0.00126437
0.0020203
0.00103402
0.0021107
0.000790449
0.00219157
0.000534732
0.00225908
0.000270106
0.00230934
0.00233591
0.00453055
3.17469e-07
0.00425218
5.98211e-06
0.00434608
6.55078e-05
0.00435021
8.09924e-05
0.00434429
8.96344e-05
0.00433674
0.000100822
0.00432773
0.000116073
0.00431719
0.000133016
0.00430491
0.000151679
0.00429074
0.00017161
0.00427465
0.000192417
0.00425657
0.000214115
0.00423642
0.000236844
0.00421413
0.000260697
0.0041896
0.000285727
0.00416275
0.000311977
0.00413348
0.000339517
0.0041017
0.00036843
0.00406727
0.000398826
0.00403011
0.000430816
0.00399005
0.000464535
0.00394696
0.000500119
0.00390067
0.00053773
0.00385102
0.00057753
0.00379777
0.000619709
0.00374077
0.000664453
0.00367971
0.000711983
0.00361439
0.000762503
0.00354445
0.000816266
0.00346964
0.000873488
0.00338953
0.000934452
0.00330378
0.000999366
0.00321186
0.00106855
0.00311336
0.00114215
0.00300761
0.00122052
0.00289407
0.00130368
0.00277194
0.001392
0.00264047
0.00148526
0.00249873
0.00158372
0.00234564
0.00168689
0.00218032
0.0017945
0.00200114
0.00190588
0.00180749
0.00201946
0.00159749
0.00213423
0.00137095
0.00224685
0.00112699
0.00235466
0.0008652
0.00245336
0.000587465
0.00253682
0.000296634
0.00260017
0.00263255
0.00469909
3.27059e-07
0.0044102
6.38582e-06
0.00450836
6.96871e-05
0.00451323
8.65534e-05
0.00450778
9.60187e-05
0.00450067
0.000108003
0.00449206
0.000124683
0.00448185
0.000143225
0.00446983
0.000163701
0.00445585
0.000185587
0.00443989
0.000208383
0.00442187
0.000232132
0.00440174
0.000256968
0.00437942
0.000283022
0.00435483
0.000310315
0.00432788
0.000338929
0.00429849
0.000368898
0.00426656
0.000400361
0.004232
0.000433384
0.00419467
0.000468147
0.00415447
0.000504735
0.00411122
0.000543364
0.00406481
0.00058414
0.00401502
0.000627318
0.00396171
0.000673025
0.00390461
0.000721552
0.00384353
0.000773057
0.00377818
0.000827856
0.00370829
0.000886152
0.00363351
0.000948268
0.0035535
0.00101447
0.00346782
0.00108505
0.00337601
0.00116035
0.00327755
0.00124061
0.00317182
0.00132624
0.00305813
0.00141738
0.00293569
0.00151443
0.00280354
0.00161742
0.00266072
0.00172654
0.00250589
0.00184172
0.00233778
0.00196261
0.00215487
0.00208878
0.00195515
0.00221918
0.00173736
0.00235202
0.00149874
0.00248546
0.00123861
0.00261479
0.000956593
0.00273537
0.000653278
0.00284013
0.000332523
0.00292093
0.00296507
0.00487393
3.46475e-07
0.00457409
6.70887e-06
0.00467664
7.35478e-05
0.00468248
9.14373e-05
0.00467792
0.000101612
0.00467134
0.000114648
0.0046633
0.000132726
0.00465358
0.000152943
0.00464192
0.000175365
0.00462824
0.000199259
0.00461251
0.000224111
0.00459468
0.000249966
0.00457468
0.00027697
0.00455244
0.000305256
0.0045279
0.000334855
0.00450099
0.000365841
0.00447162
0.00039827
0.00443971
0.000432266
0.00440516
0.000467937
0.00436787
0.000505432
0.0043277
0.000544902
0.00428456
0.00058651
0.00423823
0.000630461
0.00418863
0.00067692
0.00413549
0.000726165
0.00407869
0.000778348
0.00401791
0.000833839
0.003953
0.000892764
0.00388355
0.0009556
0.00380938
0.00102244
0.00372997
0.00109387
0.00364505
0.00116996
0.00355402
0.00125138
0.00345644
0.00133819
0.00335158
0.0014311
0.00323876
0.0015302
0.0031171
0.00163609
0.00298553
0.00174898
0.00284291
0.00186916
0.00268774
0.00199689
0.00251833
0.00213202
0.00233276
0.00227435
0.00212881
0.00242313
0.00190366
0.00257717
0.00165516
0.00273397
0.00137939
0.00289055
0.00107443
0.00304033
0.000739555
0.00317501
0.000377702
0.00328278
0.00334277
0.00505528
3.6115e-07
0.00474407
6.9709e-06
0.00485155
7.6698e-05
0.00485853
9.54969e-05
0.00485492
0.000106341
0.00484919
0.000120457
0.00484187
0.000140047
0.0048328
0.000162008
0.0048217
0.000186465
0.00480849
0.000212471
0.00479312
0.000239486
0.00477558
0.000267499
0.00475582
0.000296735
0.0047338
0.000327275
0.00470943
0.000359223
0.00468269
0.000392574
0.00465348
0.000427485
0.00462176
0.000463983
0.00458739
0.000502301
0.00455034
0.000542479
0.00451044
0.000584806
0.00446762
0.000629328
0.00442168
0.000676396
0.00437254
0.000726067
0.00431995
0.000778749
0.00426378
0.00083452
0.00420377
0.000893843
0.0041397
0.000956838
0.0040713
0.001024
0.00399821
0.00109553
0.00392017
0.00117191
0.00383662
0.0012535
0.00374729
0.00134071
0.00365139
0.00143409
0.00354854
0.00153395
0.00343769
0.00164104
0.00331819
0.00175558
0.00318876
0.00187842
0.00304814
0.00200978
0.00289471
0.00215031
0.00272642
0.00230031
0.00254076
0.00246001
0.00233474
0.00262915
0.00210497
0.00280694
0.00184635
0.00299258
0.00155518
0.00318172
0.00122623
0.00336928
0.000855753
0.00354549
0.000444115
0.00369442
0.00378688
0.00524338
3.69341e-07
0.00492039
7.14416e-06
0.00503328
7.884e-05
0.00504173
9.84051e-05
0.00503937
0.00010992
0.00503476
0.000125149
0.00502839
0.000146413
0.00502018
0.000170222
0.00500982
0.000196824
0.00499719
0.000225098
0.0049823
0.000254374
0.00496517
0.00028463
0.00494577
0.000316134
0.00492407
0.000348968
0.00490003
0.000383262
0.0048736
0.000419006
0.00484473
0.000456354
0.00481335
0.000495363
0.00477941
0.000536245
0.00474279
0.000579098
0.00470343
0.000624162
0.00466118
0.000671579
0.00461597
0.000721605
0.00456759
0.000774447
0.00451597
0.000830369
0.00446082
0.00088966
0.00440208
0.000952586
0.00433938
0.00101953
0.00427261
0.00109077
0.00420133
0.0011668
0.00412534
0.00124791
0.00404415
0.00133469
0.00395736
0.00142751
0.00386443
0.00152701
0.00376465
0.00163374
0.0036574
0.00174828
0.00354152
0.00187147
0.00341616
0.00200378
0.00327961
0.00214632
0.00313029
0.00229964
0.00296608
0.00246452
0.0027839
0.00264219
0.00258004
0.00283301
0.00235069
0.00303629
0.00208924
0.00325403
0.00178648
0.00348448
0.00143337
0.00372239
0.00101965
0.00395921
0.000538155
0.00417591
0.00432504
0.00543846
3.70333e-07
0.0051033
7.19755e-06
0.00522214
7.96056e-05
0.00523251
9.97086e-05
0.00523184
0.00011191
0.00522873
0.00012836
0.00522368
0.000151458
0.00521654
0.000177361
0.00520706
0.00020631
0.00519513
0.000237019
0.00518086
0.000268647
0.00516425
0.00030124
0.00514534
0.000335037
0.00512408
0.000370226
0.0051005
0.000406848
0.0050745
0.000444996
0.00504613
0.000484728
0.00501527
0.000526223
0.00498192
0.000569587
0.00494597
0.000615052
0.00490738
0.000662748
0.00486601
0.000712948
0.0048218
0.000765812
0.00477459
0.000821659
0.00472427
0.000880688
0.00467067
0.00094326
0.00461361
0.00100964
0.00455293
0.00108022
0.00448833
0.00115537
0.00441965
0.00123548
0.00434648
0.00132108
0.0042686
0.00141257
0.00418545
0.00151066
0.0040967
0.00161577
0.00400162
0.00172881
0.00389956
0.00185035
0.00378968
0.00198135
0.00367062
0.00212283
0.00354144
0.00227551
0.00339943
0.00244164
0.0032435
0.00262045
0.00307143
0.00281426
0.00287665
0.00302779
0.0026518
0.00326115
0.00239139
0.00351444
0.00208591
0.00378996
0.00171799
0.0040903
0.00126609
0.00441111
0.000701245
0.00474075
0.00502628
0.00564081
3.50267e-07
0.00529303
7.10313e-06
0.00541858
7.84335e-05
0.00543148
9.87972e-05
0.00543306
0.000111771
0.00543186
0.000129661
0.00542843
0.000154889
0.00542263
0.00018316
0.00541414
0.000214802
0.00540304
0.000248119
0.00538946
0.000282225
0.0053735
0.000317193
0.0053552
0.000353343
0.00533455
0.000390872
0.00531155
0.000429848
0.00528622
0.000470328
0.0052585
0.000512439
0.00522843
0.000556299
0.0051959
0.000602114
0.00516092
0.000650027
0.00512337
0.000700295
0.00508325
0.00075307
0.00504039
0.000808675
0.00499477
0.000867271
0.0049462
0.000929259
0.00489465
0.000994815
0.00483986
0.00106443
0.00478178
0.0011383
0.00472012
0.00121702
0.00465475
0.00130085
0.00458537
0.00139046
0.00451168
0.00148625
0.00443341
0.00158893
0.00435001
0.00169917
0.00426117
0.00181765
0.004166
0.00194552
0.00406417
0.00208318
0.0039541
0.00223291
0.00383573
0.00239387
0.00370883
0.00256854
0.00356681
0.00276246
0.00340584
0.00297523
0.00322581
0.00320782
0.00302107
0.00346589
0.00278111
0.00375439
0.00249013
0.00408094
0.00212836
0.00445207
0.00165433
0.00488514
0.000999291
0.00539579
0.00602557
0.00585083
2.00509e-07
0.00548956
7.14972e-06
0.00562299
7.44845e-05
0.00563949
9.45874e-05
0.00564401
0.000108809
0.00564541
0.000128379
0.005644
0.000156295
0.00563972
0.00018743
0.00563238
0.000222146
0.00562215
0.00025835
0.0056093
0.000295073
0.00559401
0.000332484
0.00557632
0.000371032
0.0055563
0.000410888
0.00553395
0.000452195
0.00550932
0.000494957
0.0054824
0.000539356
0.00545321
0.000585488
0.00542172
0.000633609
0.0053879
0.000683846
0.0053517
0.000736486
0.00531308
0.000791687
0.00527199
0.000849766
0.00522833
0.000910933
0.00518205
0.000975532
0.00513302
0.00104385
0.0050812
0.00111625
0.00502636
0.00119313
0.00496852
0.00127486
0.00490735
0.00136202
0.00484285
0.00145495
0.00477463
0.00155448
0.0047026
0.00166095
0.00462633
0.00177544
0.00454553
0.00189845
0.00445932
0.00203172
0.00436861
0.0021739
0.00427378
0.00232773
0.0041694
0.00249825
0.00405337
0.00268457
0.00392867
0.00288715
0.00379289
0.00311101
0.00364123
0.00335947
0.00346868
0.00363843
0.0032685
0.00395457
0.00302852
0.00432092
0.00272151
0.00475908
0.00229837
0.00530829
0.0016458
0.00604835
0.00767138
0.00846014
1.38351e-07
0.00793534
6.2297e-06
0.00813427
6.48e-05
0.00816373
8.30561e-05
0.00817638
9.84639e-05
0.00818336
0.000121572
0.00818558
0.000154065
0.0081829
0.000190104
0.0081753
0.000229753
0.0081633
0.000270346
0.00814754
0.000310835
0.00812833
0.000351692
0.00810586
0.000393492
0.0080802
0.000436551
0.00805148
0.000480914
0.00801973
0.000526704
0.00798508
0.000574008
0.00794749
0.000623074
0.00790706
0.000674039
0.00786371
0.000727195
0.00781751
0.000782683
0.00776836
0.000840834
0.00771632
0.000901804
0.00766127
0.000965981
0.00760326
0.00103355
0.00754216
0.00110495
0.00747799
0.00118041
0.00741066
0.00126046
0.00734013
0.00134539
0.00726636
0.00143578
0.00718922
0.00153209
0.00710876
0.00163494
0.00702462
0.00174509
0.00693732
0.00186274
0.00684747
0.0019883
0.00675543
0.00212376
0.00665655
0.00227278
0.00655062
0.00243366
0.00644176
0.00260711
0.00633066
0.00279567
0.00621378
0.00300404
0.0060926
0.00323218
0.00596541
0.00348666
0.00583398
0.00376986
0.00570038
0.00408817
0.00557208
0.00444922
0.0054824
0.00484876
0.00550625
0.00528444
0.00591274
0.00564185
0.00547758
0.00810654
0.00846194
1.0664e-07
0.00793477
3.86413e-06
0.00814842
4.23415e-05
0.00818869
6.0902e-05
0.00821066
7.88333e-05
0.00822462
0.000107774
0.00823092
0.00014777
0.00823049
0.000190523
0.0082238
0.000236443
0.00821267
0.000281477
0.00819809
0.000325411
0.00818039
0.000369396
0.00815966
0.000414219
0.00813607
0.000460135
0.00810977
0.000507215
0.00808092
0.000555552
0.00804959
0.000605334
0.00801589
0.000656775
0.00797981
0.000710112
0.00794145
0.000765554
0.00790078
0.000823356
0.00785788
0.000883731
0.0078127
0.000946978
0.00776537
0.00101332
0.0077158
0.00108311
0.00766416
0.00115659
0.00761035
0.00123421
0.00755459
0.00131622
0.0074968
0.00140318
0.00743721
0.00149538
0.00737561
0.00159368
0.00731322
0.00169733
0.00725067
0.00180764
0.00718641
0.00192699
0.00711892
0.00205579
0.00704926
0.00219341
0.00698158
0.00234046
0.00691584
0.0024994
0.00685176
0.00267118
0.00679015
0.00285729
0.00673544
0.00305874
0.00668814
0.00327948
0.00665836
0.00351644
0.00664931
0.00377891
0.00668182
0.00405566
0.00677864
0.0043524
0.00698569
0.00464171
0.00738562
0.00488451
0.00800259
0.00502488
0.00467582
0.00880434
0.00846266
1.52839e-07
0.00793445
7.47316e-07
0.00816343
5.49557e-06
0.00822209
2.04513e-05
0.00825921
4.40669e-05
0.00828284
8.43071e-05
0.0082942
0.00013641
0.00829474
0.000189981
0.00828895
0.000242235
0.00827925
0.00029117
0.00826632
0.000338346
0.00825022
0.000385487
0.00823116
0.000433279
0.0082094
0.000481896
0.0081852
0.000531415
0.00815877
0.000581976
0.00813024
0.000633866
0.00809971
0.000687303
0.00806726
0.000742559
0.00803299
0.000799822
0.00799697
0.000859376
0.00795929
0.000921409
0.00792003
0.000986231
0.00787931
0.00105404
0.00783725
0.00112517
0.00779397
0.00119987
0.00774966
0.00127852
0.00770443
0.00136145
0.00765873
0.00144887
0.00761341
0.0015407
0.00756915
0.00163794
0.00752365
0.00174282
0.00747698
0.00185431
0.00743185
0.00197212
0.00739035
0.0020973
0.00735198
0.00223177
0.00731774
0.0023747
0.00728823
0.0025289
0.00726698
0.00269243
0.00725479
0.00286948
0.00725686
0.00305667
0.00727793
0.00325841
0.00732467
0.0034697
0.00741267
0.00369091
0.00755117
0.00391716
0.00777063
0.00413293
0.00808361
0.00432873
0.00851
0.00445811
0.00902999
0.00450489
0.00424757
0.00945824
0.00846126
1.29753e-06
0.00794072
-9.84608e-06
0.00821695
-7.85133e-05
0.00830511
-4.95154e-05
0.00835091
6.44167e-07
0.00837142
6.39713e-05
0.00837573
0.000132097
0.00837147
0.000194227
0.00836378
0.000249936
0.00835438
0.000300565
0.00834243
0.000350293
0.00832758
0.000400332
0.00831019
0.000450675
0.00829055
0.000501527
0.00826909
0.000552872
0.00824594
0.000605132
0.00822114
0.000658659
0.00819479
0.000713657
0.00816694
0.000770402
0.00813769
0.000829075
0.00810709
0.00088997
0.00807524
0.000953259
0.00804225
0.00101922
0.00800825
0.00108804
0.00797343
0.00115999
0.0079379
0.0012354
0.00790232
0.0013141
0.0078673
0.00139647
0.00783266
0.00148351
0.00779723
0.00157612
0.0077618
0.00167337
0.0077292
0.00177542
0.00770025
0.00188326
0.0076746
0.00199777
0.00765357
0.00211832
0.00763851
0.00224683
0.00763121
0.002382
0.00763392
0.00252619
0.0076484
0.00267795
0.00767959
0.00283829
0.00772904
0.00300722
0.00780564
0.00318181
0.007912
0.00336334
0.00806015
0.00354276
0.00825814
0.00371917
0.00851401
0.00387705
0.0088383
0.00400444
0.00921588
0.00408053
0.0096698
0.00405096
0.0039282
0.00998917
0.00845144
9.92878e-06
0.00798012
-6.57276e-05
0.00836222
-0.000271066
0.0085439
-0.000213071
0.00858694
-4.00956e-05
0.00857783
7.32551e-05
0.00856115
0.000148783
0.00854539
0.000209974
0.00853277
0.000262558
0.00851976
0.000313578
0.00850365
0.000366396
0.00848465
0.00041933
0.00846356
0.000471764
0.00844123
0.000523861
0.00841758
0.000576522
0.00839271
0.000630001
0.00836678
0.000684578
0.00833994
0.000740496
0.00831233
0.000798016
0.00828405
0.000857352
0.00825525
0.000918769
0.00822602
0.000982488
0.00819652
0.00104872
0.00816701
0.00111754
0.00813803
0.00118897
0.00810997
0.00126346
0.00808187
0.0013422
0.00805365
0.00142469
0.00802648
0.00151068
0.00800204
0.00160057
0.00798027
0.00169514
0.00796134
0.00179435
0.00794595
0.00189865
0.00793569
0.00200802
0.00793095
0.00212307
0.00793442
0.00224336
0.00794644
0.00236998
0.00797138
0.00250124
0.00800983
0.0026395
0.00806727
0.00278085
0.00814637
0.00292812
0.00825235
0.00307583
0.00839134
0.00322434
0.0085663
0.0033678
0.00878571
0.00349975
0.00904816
0.00361461
0.00935676
0.00369584
0.00970203
0.00373525
0.010049
0.00370401
0.0035952
0.010382
0.00851921
1.56363e-05
0.00824796
-0.000394647
0.00879257
-0.0006046
0.00889073
-0.000291184
0.0088721
-1.84917e-05
0.00880414
0.000141438
0.00877217
0.00018075
0.00875226
0.000229875
0.00874256
0.000272262
0.00872803
0.000328106
0.00870907
0.000385357
0.00868802
0.00044038
0.008666
0.000493776
0.00864299
0.000546869
0.00861901
0.000600501
0.00859396
0.000655048
0.00856782
0.000710715
0.00854068
0.00076764
0.00851264
0.00082605
0.00848387
0.000886119
0.00845444
0.000948207
0.00842469
0.00101223
0.00839514
0.00107826
0.00836602
0.00114666
0.00833655
0.00121844
0.00830741
0.0012926
0.00828035
0.00136925
0.0082563
0.00144874
0.00823485
0.00153213
0.00821691
0.0016185
0.00820271
0.00170935
0.00819361
0.00180346
0.00818968
0.00190258
0.00819273
0.00200497
0.00820302
0.00211277
0.00822264
0.00222374
0.00825259
0.00234003
0.00829487
0.00245895
0.00835252
0.00258185
0.00842676
0.00270661
0.00852309
0.00283179
0.0086421
0.00295681
0.00879073
0.00307571
0.00896917
0.00318937
0.00918238
0.00328654
0.00942922
0.00336776
0.00970739
0.00341767
0.0100122
0.00343046
0.0103155
0.00340069
0.00330266
0.0106081
0.00816077