/*--------------------------------*- C++ -*----------------------------------*\
| =========                 |                                                 |
| \\      /  F ield         | OpenFOAM: The Open Source CFD Toolbox           |
|  \\    /   O peration     | Version:  2412                                  |
|   \\  /    A nd           | Website:  www.openfoam.com                      |
|    \\/     M anipulation  |                                                 |
\*---------------------------------------------------------------------------*/
FoamFile
{
    version     2.0;
    format      ascii;
    arch        "LSB;label=32;scalar=64";
    class       volScalarField;
    location    "21.5";
    object      T;
}
// * * * * * * * * * * * * * * * * * * * * * * * * * * * * * * * * * * * * * //

dimensions      [0 0 0 1 0 0 0];

internalField   nonuniform List<scalar> 
7000
(
1.31911
2.65683
2.71976
2.66984
2.66466
2.64797
2.64455
2.64729
2.64934
2.65154
2.6528
2.65381
2.65494
2.65629
2.65779
2.65942
2.66115
2.66301
2.66497
2.66708
2.66929
2.67164
2.67411
2.6767
2.67941
2.68225
2.68519
2.68826
2.69142
2.6947
2.69806
2.70151
2.70503
2.70862
2.71223
2.71589
2.71952
2.72316
2.72672
2.73021
2.73356
2.73677
2.73976
2.74253
2.74498
2.74714
2.74888
2.75028
2.75122
2.75177
1.31917
2.65704
2.72001
2.66994
2.66479
2.64809
2.64468
2.64741
2.64947
2.65166
2.65291
2.65392
2.65505
2.6564
2.6579
2.65953
2.66125
2.66311
2.66507
2.66717
2.66938
2.67173
2.67419
2.67678
2.67949
2.68232
2.68526
2.68832
2.69148
2.69475
2.69811
2.70156
2.70506
2.70865
2.71225
2.7159
2.71952
2.72315
2.72669
2.73017
2.73351
2.73671
2.73968
2.74242
2.74487
2.74698
2.74875
2.75004
2.75097
2.75132
1.31915
2.65696
2.7199
2.66992
2.66475
2.64804
2.64462
2.64737
2.64937
2.65161
2.65281
2.65386
2.65495
2.65634
2.65779
2.65946
2.66113
2.66303
2.66494
2.66709
2.66924
2.67163
2.67404
2.67667
2.67932
2.6822
2.68508
2.68818
2.69129
2.69459
2.6979
2.70138
2.70485
2.70845
2.71203
2.71569
2.71931
2.72293
2.72649
2.72995
2.73332
2.73648
2.73949
2.74217
2.74465
2.74674
2.74849
2.74984
2.75066
2.75108
1.31912
2.65678
2.71972
2.66992
2.6647
2.64793
2.64452
2.64723
2.6493
2.65144
2.65272
2.65368
2.65485
2.65615
2.65768
2.65925
2.66102
2.66281
2.66482
2.66684
2.66911
2.67137
2.67389
2.67638
2.67916
2.68188
2.68491
2.68783
2.69109
2.69421
2.69768
2.70095
2.70459
2.70798
2.71173
2.71518
2.71895
2.7224
2.72607
2.72944
2.73284
2.73603
2.73897
2.74182
2.7441
2.74633
2.748
2.74926
2.75027
2.75045
1.31909
2.65656
2.71949
2.66994
2.66465
2.6478
2.64441
2.64701
2.64923
2.65121
2.65263
2.65344
2.65474
2.65589
2.65755
2.65897
2.66086
2.66251
2.66462
2.66652
2.66888
2.67103
2.67362
2.67603
2.67883
2.68151
2.68452
2.68746
2.69064
2.69383
2.69715
2.70058
2.70399
2.70761
2.71106
2.71482
2.7182
2.72201
2.72523
2.72895
2.73196
2.73537
2.7382
2.74098
2.7436
2.7454
2.74738
2.74864
2.7493
2.74987
1.31905
2.65627
2.7192
2.66998
2.6646
2.64767
2.64421
2.64701
2.64888
2.65119
2.65225
2.6534
2.65432
2.65583
2.6571
2.6589
2.66037
2.66242
2.6641
2.66641
2.66831
2.67088
2.67299
2.67583
2.67816
2.68124
2.68379
2.68711
2.68986
2.69338
2.69634
2.70001
2.70317
2.70691
2.71025
2.71397
2.71746
2.72103
2.72462
2.72786
2.73142
2.73412
2.73746
2.7398
2.74249
2.74473
2.74608
2.74767
2.74859
2.74857
1.319
2.65591
2.71883
2.67004
2.66454
2.64747
2.64401
2.64675
2.6487
2.65089
2.65205
2.65306
2.65412
2.65546
2.65688
2.65848
2.66015
2.66195
2.66387
2.66589
2.66806
2.67029
2.67274
2.67517
2.6779
2.68049
2.6835
2.68624
2.68953
2.69239
2.69592
2.69889
2.70262
2.70569
2.70953
2.7127
2.71653
2.71977
2.72344
2.72672
2.73004
2.73333
2.73591
2.73891
2.7409
2.74326
2.74516
2.74615
2.74685
2.74759
1.31894
2.65547
2.71839
2.67011
2.66446
2.64723
2.64377
2.64644
2.64845
2.65055
2.65176
2.65269
2.65379
2.65505
2.65651
2.65804
2.65972
2.66147
2.66337
2.66537
2.6675
2.66974
2.6721
2.67458
2.67715
2.67989
2.68265
2.68564
2.68855
2.69179
2.69482
2.69829
2.70136
2.70504
2.70809
2.7119
2.71494
2.71873
2.72177
2.72534
2.72841
2.73153
2.73471
2.73701
2.73973
2.74143
2.74308
2.74487
2.7457
2.74545
1.31887
2.65496
2.71787
2.67019
2.66437
2.64695
2.64345
2.64616
2.64807
2.65022
2.65134
2.65232
2.65332
2.65464
2.656
2.65757
2.65916
2.66095
2.66277
2.66478
2.66684
2.66907
2.67137
2.67382
2.67635
2.67901
2.68176
2.68461
2.68759
2.6906
2.69379
2.69692
2.70032
2.70348
2.70709
2.71015
2.71392
2.7168
2.72059
2.72328
2.72687
2.72948
2.73247
2.73539
2.73715
2.73985
2.74127
2.74219
2.7429
2.74391
1.31878
2.65435
2.71726
2.67029
2.66427
2.64661
2.6431
2.64569
2.64775
2.64971
2.65096
2.65175
2.6529
2.65403
2.65552
2.65691
2.65862
2.66023
2.66215
2.66399
2.66614
2.66821
2.67057
2.67287
2.67545
2.67796
2.68074
2.68346
2.68642
2.68933
2.69244
2.69552
2.69875
2.70197
2.70524
2.70858
2.71179
2.71523
2.7182
2.7217
2.72426
2.7277
2.72983
2.73283
2.73526
2.7365
2.73875
2.74031
2.74109
2.74057
1.31869
2.65365
2.71656
2.67041
2.66415
2.64624
2.64265
2.64535
2.64717
2.64931
2.65032
2.6513
2.6522
2.65351
2.65476
2.65633
2.6578
2.65957
2.66126
2.66325
2.66516
2.66736
2.6695
2.67191
2.67426
2.67686
2.67943
2.6822
2.68497
2.6879
2.69084
2.69388
2.69698
2.70009
2.7033
2.70643
2.70969
2.71276
2.716
2.71889
2.72202
2.72455
2.72746
2.72942
2.73207
2.73435
2.73507
2.73611
2.73679
2.73818
1.31858
2.65284
2.71575
2.67054
2.66401
2.64578
2.64218
2.64471
2.64674
2.6486
2.64982
2.65052
2.65164
2.65266
2.65413
2.65541
2.65709
2.65856
2.66046
2.66214
2.66426
2.66615
2.66848
2.67057
2.67311
2.67539
2.67811
2.68057
2.68346
2.68609
2.68911
2.69189
2.695
2.6979
2.70103
2.70402
2.70707
2.71015
2.71299
2.71613
2.71862
2.72168
2.72377
2.72635
2.72791
2.7298
2.73211
2.73328
2.73395
2.73304
1.31846
2.65193
2.71484
2.6707
2.66384
2.64529
2.6416
2.6442
2.64602
2.648
2.64902
2.64986
2.65076
2.65193
2.65317
2.65459
2.65603
2.65766
2.6593
2.66114
2.66297
2.66503
2.66705
2.66931
2.67152
2.67396
2.67634
2.67896
2.68148
2.68426
2.68689
2.6898
2.69252
2.69552
2.69825
2.70132
2.704
2.70704
2.70965
2.71246
2.71506
2.71736
2.72007
2.72173
2.72416
2.72539
2.72599
2.72687
2.72739
2.72924
1.31833
2.65092
2.71376
2.67107
2.66344
2.64473
2.64095
2.64349
2.64531
2.64719
2.64823
2.64896
2.6499
2.65094
2.65222
2.6535
2.65499
2.65645
2.65815
2.6598
2.66171
2.66354
2.66565
2.66765
2.66995
2.6721
2.67458
2.67688
2.67949
2.68192
2.68463
2.68718
2.68993
2.69258
2.69531
2.69801
2.70067
2.70331
2.7059
2.70831
2.71076
2.71287
2.71478
2.71681
2.71785
2.72
2.72156
2.72238
2.7227
2.72108
1.3182
2.64985
2.71248
2.67178
2.66274
2.64409
2.64021
2.64265
2.64451
2.64625
2.64733
2.64793
2.64889
2.64982
2.65111
2.65228
2.65376
2.65513
2.65678
2.65836
2.66017
2.66197
2.66392
2.66592
2.66799
2.6702
2.67235
2.67476
2.67696
2.67955
2.68177
2.68449
2.68671
2.68948
2.69169
2.69439
2.69662
2.69909
2.70131
2.70349
2.70556
2.7075
2.70925
2.71058
2.71192
2.71184
2.71224
2.7124
2.71295
2.71468
1.31805
2.64863
2.71113
2.67236
2.6621
2.64339
2.63935
2.64185
2.64346
2.64532
2.64618
2.6469
2.64763
2.64869
2.64973
2.65105
2.65225
2.65377
2.65512
2.65685
2.65835
2.66028
2.66191
2.66401
2.66578
2.66803
2.66992
2.67227
2.67428
2.67667
2.67882
2.68116
2.68344
2.68565
2.68803
2.69002
2.6924
2.69416
2.69629
2.69787
2.69949
2.70078
2.70201
2.70302
2.70356
2.70491
2.70454
2.70451
2.70319
2.70082
1.31788
2.64729
2.70968
2.67292
2.66141
2.64259
2.63839
2.64093
2.64231
2.64425
2.64492
2.64572
2.64627
2.64739
2.64824
2.6496
2.65064
2.65215
2.65339
2.65504
2.65646
2.65824
2.65984
2.66171
2.66349
2.66542
2.66736
2.66931
2.67139
2.67333
2.6755
2.6774
2.67957
2.68145
2.68347
2.68535
2.68705
2.68891
2.6902
2.69179
2.69274
2.69353
2.69383
2.69393
2.69327
2.69145
2.69076
2.6886
2.68794
2.68783
1.3177
2.64584
2.70812
2.67349
2.66068
2.64167
2.63734
2.63971
2.64118
2.64286
2.64367
2.64421
2.64491
2.64574
2.64678
2.64781
2.64904
2.6502
2.65162
2.65291
2.65449
2.65591
2.65763
2.65915
2.66099
2.66261
2.66451
2.66621
2.66812
2.66989
2.67173
2.67355
2.67522
2.67702
2.67846
2.68008
2.68128
2.68245
2.6835
2.68388
2.68468
2.68459
2.68422
2.68325
2.68205
2.68041
2.67612
2.67254
2.66671
2.66069
1.31751
2.6443
2.70648
2.67407
2.65986
2.64066
2.63614
2.63839
2.63985
2.64137
2.6422
2.6426
2.6433
2.64401
2.645
2.64594
2.64708
2.64819
2.64944
2.65071
2.65206
2.65349
2.65491
2.65647
2.65792
2.6596
2.66106
2.66281
2.66425
2.66601
2.66741
2.66908
2.67042
2.67187
2.67312
2.67415
2.67524
2.6756
2.67624
2.67607
2.67522
2.67446
2.67203
2.66992
2.66527
2.65992
2.65476
2.64501
2.63537
2.62273
1.3173
2.64271
2.70479
2.67464
2.65893
2.63955
2.63475
2.63707
2.63818
2.63985
2.64042
2.64099
2.64142
2.6423
2.64298
2.64409
2.64492
2.64616
2.64712
2.64847
2.64955
2.65099
2.65216
2.65364
2.65489
2.65636
2.65766
2.65906
2.6604
2.66165
2.66297
2.66399
2.66522
2.66594
2.66693
2.66723
2.66789
2.66777
2.66742
2.66656
2.66548
2.66282
2.6606
2.6553
2.65065
2.64067
2.62784
2.61094
2.58207
2.51103
1.31729
2.6418
2.70039
2.67515
2.65752
2.63779
2.63268
2.63479
2.63591
2.6373
2.63801
2.63828
2.63884
2.63936
2.64023
2.64094
2.64195
2.64277
2.6439
2.6448
2.64604
2.64699
2.6483
2.64927
2.65061
2.65156
2.65288
2.65377
2.655
2.65578
2.65679
2.6574
2.65804
2.65835
2.65856
2.65824
2.65765
2.65675
2.65485
2.65281
2.6487
2.64511
2.63747
2.63139
2.61843
2.6062
2.58346
2.54735
2.48959
2.36403
1.31727
2.64081
2.69567
2.67533
2.65562
2.63542
2.62981
2.63189
2.63276
2.63419
2.63481
2.63511
2.6355
2.63603
2.63668
2.63741
2.63816
2.63898
2.6398
2.6407
2.64156
2.6425
2.64336
2.64432
2.64513
2.64607
2.64676
2.64762
2.64813
2.64884
2.64907
2.64958
2.64954
2.64936
2.64888
2.6483
2.64678
2.64551
2.64239
2.63996
2.63487
2.62893
2.62128
2.60786
2.59491
2.56852
2.54179
2.49172
2.41721
2.31798
1.31724
2.64015
2.6932
2.67517
2.65403
2.63313
2.6269
2.62874
2.6295
2.63093
2.63151
2.63175
2.63204
2.63249
2.63304
2.63367
2.63432
2.63502
2.63572
2.63647
2.6372
2.63797
2.63869
2.63942
2.64007
2.6407
2.64121
2.64165
2.64191
2.64207
2.6419
2.64152
2.64097
2.63978
2.63855
2.63621
2.63411
2.6302
2.62708
2.62079
2.61615
2.60614
2.59866
2.58344
2.56677
2.54292
2.50651
2.46401
2.39207
2.31848
1.31712
2.63901
2.69239
2.67398
2.65209
2.63033
2.62364
2.62558
2.62642
2.62793
2.62846
2.62852
2.62862
2.62889
2.62914
2.62959
2.6299
2.63039
2.63073
2.63125
2.63162
2.63216
2.63255
2.63307
2.63344
2.63391
2.63422
2.63462
2.63473
2.6348
2.63469
2.63435
2.63376
2.63247
2.6312
2.62842
2.62608
2.62117
2.6168
2.60952
2.60133
2.59131
2.57733
2.56327
2.54111
2.51828
2.48442
2.44397
2.39091
2.32894
1.31688
2.64019
2.70394
2.67062
2.65208
2.62871
2.6215
2.62423
2.62519
2.62703
2.62751
2.62746
2.62742
2.62746
2.62754
2.62764
2.6277
2.62774
2.62772
2.62768
2.6276
2.62743
2.62727
2.62693
2.62666
2.62618
2.62581
2.625
2.62453
2.62343
2.62278
2.62131
2.62044
2.61842
2.61712
2.61429
2.61177
2.60794
2.60277
2.59715
2.58813
2.57878
2.5647
2.54878
2.52839
2.50255
2.47341
2.43469
2.392
2.3448
1.30178
2.58658
2.6985
2.67707
2.65965
2.63613
2.62924
2.63214
2.6332
2.63472
2.63459
2.63415
2.63348
2.63294
2.63235
2.63182
2.63118
2.63063
2.62997
2.62942
2.62874
2.62822
2.62748
2.62699
2.62611
2.62557
2.62432
2.62341
2.62155
2.62023
2.61758
2.61577
2.61225
2.61
2.60553
2.60275
2.59706
2.59353
2.58641
2.58089
2.57196
2.56263
2.55065
2.53534
2.518
2.49461
2.46886
2.43589
2.39827
2.35809
1.7205
2.46896
2.72872
2.70689
2.68434
2.67403
2.67457
2.67611
2.67751
2.67778
2.67659
2.67513
2.67351
2.67173
2.66976
2.66756
2.66515
2.66254
2.65971
2.65675
2.65353
2.65029
2.64674
2.64328
2.63929
2.63538
2.63095
2.62785
2.624
2.62144
2.61777
2.61507
2.61079
2.60712
2.60192
2.59686
2.59073
2.58374
2.57682
2.56741
2.55925
2.5469
2.53638
2.52031
2.50554
2.48449
2.46325
2.43567
2.40596
2.37318
1.7324
2.46205
2.72322
2.70215
2.6774
2.66842
2.67231
2.67401
2.67669
2.67752
2.67772
2.67757
2.67731
2.67702
2.67634
2.67573
2.67441
2.67345
2.67142
2.6701
2.66736
2.66565
2.66224
2.65995
2.65602
2.6534
2.649
2.64484
2.63923
2.6338
2.62722
2.62104
2.61487
2.60885
2.60316
2.59612
2.59012
2.58135
2.57385
2.56303
2.55339
2.54029
2.52775
2.5121
2.49578
2.47693
2.45608
2.43318
2.40777
2.38169
1.72916
2.4676
2.7252
2.70245
2.67383
2.66435
2.66919
2.67162
2.67479
2.67591
2.67625
2.67639
2.67656
2.67654
2.67644
2.67619
2.67559
2.67519
2.67428
2.67356
2.67199
2.67091
2.6687
2.66697
2.66413
2.66146
2.65807
2.6544
2.65029
2.64534
2.64065
2.63411
2.62807
2.61905
2.61181
2.60169
2.59374
2.58346
2.57488
2.56366
2.55332
2.54049
2.52746
2.51225
2.49615
2.47787
2.45808
2.4363
2.4128
2.38985
1.73186
2.46089
2.72067
2.69696
2.67076
2.66111
2.66567
2.66792
2.67109
2.67234
2.67275
2.67303
2.67336
2.67366
2.67393
2.67396
2.67388
2.67363
2.67319
2.6725
2.67181
2.67051
2.66954
2.66753
2.66621
2.66351
2.66171
2.65801
2.65561
2.65069
2.6476
2.64135
2.63707
2.62954
2.62342
2.61422
2.60568
2.59432
2.58349
2.5707
2.55813
2.5444
2.53048
2.51518
2.49909
2.48148
2.46332
2.44327
2.42222
2.40152
1.74103
2.44273
2.70913
2.68461
2.66703
2.65766
2.66061
2.66231
2.6654
2.66645
2.66711
2.6672
2.66742
2.66754
2.66768
2.66767
2.66762
2.66745
2.66726
2.66679
2.66645
2.66566
2.66508
2.66382
2.66288
2.66083
2.65944
2.65647
2.65453
2.65052
2.64761
2.64267
2.63857
2.63259
2.62692
2.61962
2.6122
2.60316
2.59348
2.58225
2.57011
2.55617
2.54154
2.52545
2.50913
2.49138
2.47316
2.45386
2.43384
2.41434
1.73598
2.4363
2.70578
2.67708
2.66923
2.65599
2.65611
2.65811
2.66111
2.66222
2.66329
2.66339
2.66367
2.66386
2.66403
2.6641
2.66408
2.66398
2.66382
2.66347
2.66318
2.66251
2.662
2.66089
2.6601
2.65838
2.6572
2.6547
2.65295
2.64965
2.64694
2.64275
2.63875
2.63362
2.62844
2.62204
2.61541
2.60751
2.59922
2.5896
2.57938
2.56765
2.55511
2.54096
2.52588
2.50941
2.49216
2.47382
2.45471
2.43607
1.35698
2.46738
2.67922
2.66852
2.64651
2.62387
2.61682
2.62086
2.62284
2.62571
2.62714
2.62817
2.62897
2.62998
2.63069
2.63179
2.63244
2.63342
2.63392
2.63475
2.63507
2.63581
2.63593
2.63612
2.63613
2.63602
2.63579
2.6352
2.63462
2.63342
2.63225
2.63035
2.62836
2.62538
2.62214
2.61755
2.61252
2.60613
2.59922
2.59096
2.58226
2.57217
2.56153
2.54968
2.53695
2.52304
2.50822
2.49235
2.47555
2.45909
1.3604
2.47695
2.68634
2.6771
2.65248
2.62351
2.61388
2.6147
2.61668
2.61865
2.61946
2.61955
2.61976
2.61979
2.62005
2.62039
2.62076
2.62108
2.62142
2.62165
2.62192
2.62201
2.62217
2.62209
2.62192
2.62153
2.62114
2.62027
2.61958
2.61809
2.61694
2.61473
2.61281
2.60987
2.60704
2.6035
2.59984
2.59539
2.59044
2.58478
2.57806
2.57049
2.56149
2.55157
2.54073
2.52906
2.5167
2.50348
2.48939
2.47558
1.3496
2.41264
2.66939
2.66956
2.65015
2.62376
2.61399
2.61404
2.61475
2.6153
2.61497
2.6141
2.61335
2.61232
2.61165
2.61096
2.61046
2.60981
2.60933
2.60868
2.60821
2.60757
2.60708
2.60641
2.60584
2.60506
2.60435
2.60352
2.60263
2.60154
2.60017
2.59862
2.5966
2.59444
2.59164
2.58868
2.585
2.58113
2.57648
2.57141
2.56567
2.55958
2.55289
2.54559
2.53753
2.52816
2.51763
2.50655
2.49476
2.48339
1.74169
2.3966
2.67497
2.6613
2.6525
2.63859
2.63343
2.63368
2.63344
2.63315
2.63235
2.63112
2.62972
2.62806
2.62644
2.62486
2.62319
2.62147
2.61962
2.61776
2.61576
2.61379
2.61165
2.60959
2.60731
2.60519
2.60279
2.6007
2.59822
2.59579
2.59323
2.59059
2.58779
2.58474
2.58156
2.57793
2.57418
2.56979
2.56532
2.56002
2.55464
2.54833
2.54197
2.53463
2.52705
2.51904
2.51091
2.50189
2.49216
2.48257
1.34701
2.3956
2.66018
2.66581
2.64948
2.6242
2.61559
2.61425
2.61551
2.61578
2.6155
2.61515
2.61427
2.61335
2.6127
2.61185
2.61112
2.61006
2.60911
2.60778
2.60665
2.60528
2.60412
2.60262
2.60134
2.59948
2.5979
2.59539
2.59338
2.59066
2.58831
2.58523
2.58243
2.57887
2.57564
2.57171
2.568
2.5636
2.55926
2.55427
2.54912
2.54334
2.53722
2.53057
2.52339
2.51581
2.50767
2.49926
2.49029
2.48168
1.34833
2.40649
2.66737
2.67128
2.65096
2.62223
2.61097
2.61079
2.61175
2.61246
2.61234
2.61164
2.61089
2.60989
2.60929
2.60855
2.60796
2.60706
2.60625
2.60512
2.60398
2.60231
2.60063
2.59847
2.5963
2.5938
2.59128
2.58848
2.58557
2.58247
2.57917
2.57578
2.57221
2.56865
2.56469
2.56078
2.55637
2.55209
2.54722
2.54252
2.53718
2.53205
2.52618
2.52048
2.51401
2.50762
2.50043
2.49315
2.48533
2.47798
1.34775
2.40214
2.6646
2.66932
2.64836
2.61894
2.60694
2.60679
2.6076
2.60851
2.60822
2.60737
2.60655
2.60545
2.60473
2.60398
2.60335
2.60255
2.60179
2.60085
2.59989
2.59874
2.59745
2.59597
2.59426
2.59236
2.59014
2.58777
2.58502
2.58214
2.57884
2.57545
2.57161
2.56774
2.56344
2.55907
2.55422
2.54927
2.54391
2.5384
2.53258
2.52656
2.52031
2.51378
2.50711
2.50012
2.49308
2.4856
2.47805
2.47067
1.34491
2.37913
2.64743
2.66155
2.6424
2.61456
2.60275
2.60131
2.60162
2.60185
2.6012
2.60042
2.59908
2.59799
2.59691
2.59604
2.595
2.59408
2.59292
2.59189
2.59062
2.5895
2.58812
2.58688
2.58536
2.58394
2.5822
2.58049
2.57842
2.57633
2.57386
2.57126
2.56827
2.56503
2.5614
2.55748
2.55327
2.5487
2.54386
2.53858
2.5331
2.52715
2.52103
2.51444
2.50771
2.50055
2.49331
2.4858
2.47817
2.47084
1.7513
2.37309
2.64564
2.64171
2.62825
2.61416
2.60928
2.60952
2.60951
2.60939
2.60881
2.60815
2.60692
2.60578
2.6045
2.60339
2.60201
2.6007
2.59912
2.59758
2.59579
2.59402
2.59204
2.59005
2.58787
2.58566
2.58326
2.58081
2.57818
2.57545
2.57264
2.56967
2.56661
2.56329
2.55985
2.55606
2.55214
2.5478
2.54326
2.5383
2.53308
2.52748
2.52169
2.51556
2.50925
2.5026
2.49572
2.48856
2.48106
2.47392
1.34701
2.38876
2.65258
2.65981
2.63927
2.60893
2.59759
2.59623
2.59786
2.59918
2.59902
2.59852
2.59793
2.59666
2.59599
2.59478
2.59404
2.59256
2.59161
2.58988
2.58834
2.5865
2.58468
2.58255
2.58047
2.57824
2.57616
2.57386
2.57171
2.56926
2.56672
2.56383
2.56087
2.5576
2.55425
2.55063
2.54688
2.5429
2.5388
2.53447
2.52996
2.52515
2.52005
2.51461
2.50886
2.5028
2.49647
2.48994
2.48309
2.47654
1.35071
2.41201
2.6548
2.64884
2.6269
2.59634
2.58558
2.58585
2.58763
2.58955
2.58989
2.58966
2.58919
2.58842
2.5879
2.58739
2.58692
2.5863
2.58564
2.58484
2.58396
2.58294
2.58179
2.58047
2.57898
2.57715
2.57506
2.57267
2.57004
2.56716
2.56416
2.56097
2.55764
2.55413
2.55045
2.5466
2.54258
2.53838
2.534
2.52945
2.52472
2.51982
2.51482
2.5097
2.50435
2.49886
2.49309
2.48714
2.48088
2.47492
1.7712
2.37216
2.63842
2.6175
2.61117
2.59587
2.59314
2.59389
2.59501
2.59629
2.59603
2.59554
2.59519
2.59453
2.59395
2.59338
2.5928
2.59212
2.5914
2.59057
2.58969
2.58869
2.58761
2.58638
2.58505
2.58353
2.58187
2.57998
2.5779
2.5755
2.57276
2.56974
2.5664
2.56281
2.55893
2.55483
2.55048
2.54593
2.54116
2.53622
2.53104
2.52568
2.52002
2.5142
2.50821
2.50208
2.49587
2.48956
2.48313
2.477
1.79773
2.35512
2.62642
2.60583
2.60266
2.59273
2.58935
2.58957
2.58981
2.59037
2.59011
2.5895
2.58886
2.58783
2.5868
2.58568
2.5845
2.58317
2.58177
2.58023
2.57865
2.57694
2.57524
2.57346
2.57171
2.56986
2.56804
2.56613
2.56421
2.56225
2.56037
2.55834
2.55635
2.55415
2.55193
2.54943
2.54684
2.54389
2.54057
2.53689
2.53299
2.52881
2.52441
2.5197
2.51476
2.50952
2.50399
2.49816
2.49207
2.48616
1.76256
2.38161
2.65004
2.61925
2.61347
2.59932
2.59615
2.59826
2.59974
2.60057
2.6003
2.59981
2.59876
2.59756
2.59628
2.59496
2.59353
2.59202
2.59038
2.58868
2.58687
2.58503
2.58294
2.58074
2.57829
2.57577
2.573
2.57018
2.56712
2.56406
2.56077
2.55751
2.55406
2.55055
2.54684
2.54311
2.53917
2.53527
2.53137
2.52745
2.52337
2.51919
2.51482
2.5104
2.50581
2.50114
2.49626
2.49129
2.48606
2.48113
1.28617
2.49452
2.6447
2.642
2.61674
2.58403
2.57197
2.57241
2.57505
2.57743
2.57869
2.57891
2.57914
2.57911
2.57905
2.57898
2.57882
2.57851
2.57805
2.57739
2.57656
2.57552
2.57437
2.57302
2.57155
2.56985
2.56812
2.56598
2.56374
2.56134
2.55873
2.55595
2.55284
2.54965
2.54614
2.54257
2.53871
2.53479
2.53061
2.52641
2.52196
2.5175
2.513
2.50827
2.50341
2.49833
2.49315
2.48775
2.48225
2.47698
1.77182
2.36718
2.63948
2.6169
2.61061
2.59519
2.59025
2.59116
2.59158
2.59317
2.5928
2.59223
2.59177
2.59098
2.59023
2.58938
2.58861
2.58763
2.58671
2.58555
2.58445
2.5831
2.5818
2.58023
2.5787
2.57689
2.57509
2.57299
2.57067
2.56806
2.56527
2.56219
2.55911
2.55579
2.55247
2.54885
2.54522
2.54127
2.5373
2.53297
2.52865
2.52395
2.51909
2.51402
2.50886
2.50351
2.49807
2.49245
2.48672
2.48124
1.77322
2.36538
2.63738
2.61498
2.60874
2.59345
2.58849
2.5896
2.59065
2.59175
2.59228
2.59178
2.59135
2.59055
2.5897
2.58876
2.58778
2.58663
2.58539
2.58401
2.58253
2.58093
2.57925
2.57746
2.57557
2.5736
2.57151
2.5694
2.56734
2.56518
2.563
2.56067
2.55817
2.55546
2.55256
2.54951
2.54628
2.54291
2.53935
2.53565
2.53175
2.52771
2.52347
2.5191
2.51451
2.5098
2.50488
2.49985
2.49459
2.4895
1.28558
2.49091
2.64201
2.63933
2.61359
2.57895
2.56601
2.56551
2.56804
2.5701
2.57106
2.571
2.57086
2.57047
2.57016
2.56969
2.5694
2.56877
2.56833
2.56744
2.56679
2.56563
2.56475
2.56332
2.5622
2.56057
2.55894
2.55716
2.55526
2.55325
2.55112
2.54891
2.54659
2.54418
2.54164
2.53898
2.53617
2.53322
2.53012
2.52685
2.52343
2.51983
2.51609
2.51216
2.50811
2.50387
2.4995
2.49495
2.49028
2.48574
1.76676
2.37283
2.64057
2.60984
2.60342
2.58745
2.58439
2.58657
2.58747
2.58959
2.58934
2.5888
2.58834
2.5875
2.58672
2.58583
2.58496
2.58392
2.58286
2.58164
2.58039
2.57899
2.57754
2.57596
2.57429
2.57253
2.57063
2.56865
2.56651
2.56428
2.5619
2.55928
2.55653
2.55356
2.55047
2.54718
2.54378
2.54017
2.53649
2.53268
2.52879
2.52476
2.52062
2.51634
2.51194
2.50741
2.50275
2.49797
2.49303
2.48831
1.79464
2.35594
2.62399
2.59588
2.59187
2.58016
2.57689
2.57809
2.5784
2.57911
2.57893
2.57852
2.57806
2.57732
2.5766
2.57585
2.57505
2.57414
2.57315
2.57207
2.5709
2.56963
2.56827
2.56682
2.56528
2.56365
2.56193
2.56011
2.5582
2.5562
2.55411
2.55205
2.54988
2.54771
2.5454
2.54308
2.54057
2.53798
2.53515
2.53219
2.52899
2.5257
2.5222
2.51861
2.51482
2.51093
2.50684
2.50266
2.49824
2.49407
1.79925
2.35071
2.61896
2.5927
2.58906
2.57781
2.57399
2.57467
2.57485
2.57524
2.5751
2.57469
2.57419
2.57343
2.57266
2.57188
2.57101
2.57008
2.56904
2.56792
2.56668
2.56536
2.56392
2.56239
2.56073
2.55899
2.55711
2.55514
2.55304
2.55085
2.54851
2.54609
2.54353
2.54089
2.53812
2.53525
2.53227
2.52926
2.52615
2.52299
2.51973
2.51638
2.51289
2.50932
2.5056
2.5018
2.49785
2.4938
2.48959
2.48559
1.7798
2.35593
2.61652
2.60297
2.5936
2.57715
2.57212
2.5726
2.57321
2.57384
2.57382
2.57334
2.57282
2.57199
2.57118
2.5704
2.56955
2.56864
2.56762
2.56653
2.56533
2.56405
2.56266
2.56119
2.5596
2.55792
2.55612
2.55422
2.55219
2.55006
2.5478
2.54543
2.54293
2.54031
2.53756
2.53469
2.53169
2.52857
2.52531
2.52194
2.51845
2.51484
2.51111
2.50727
2.50331
2.49923
2.49503
2.49071
2.48627
2.48202
1.34476
2.37983
2.63797
2.63735
2.61517
2.58171
2.5675
2.56512
2.56642
2.56754
2.56749
2.56723
2.56654
2.56554
2.56463
2.56384
2.56302
2.56214
2.56114
2.56007
2.55889
2.55763
2.55624
2.55479
2.55319
2.55151
2.5497
2.54779
2.54574
2.5436
2.54131
2.53892
2.53637
2.53374
2.53094
2.52804
2.52498
2.52183
2.5185
2.51508
2.51149
2.50781
2.50395
2.50001
2.49589
2.4917
2.48733
2.48291
2.47831
2.47392
1.34601
2.38743
2.65285
2.65698
2.63094
2.59244
2.57491
2.57256
2.5742
2.57548
2.57593
2.57558
2.57475
2.57375
2.57269
2.57182
2.57094
2.57004
2.569
2.56792
2.56671
2.56545
2.56408
2.56265
2.5611
2.5595
2.55776
2.55596
2.55403
2.55204
2.5499
2.54769
2.54534
2.54291
2.54033
2.53767
2.53486
2.53195
2.52889
2.52574
2.52243
2.51903
2.51546
2.51179
2.50796
2.50403
2.49994
2.49576
2.49141
2.48724
1.34511
2.37931
2.63632
2.63632
2.61341
2.58008
2.56492
2.56292
2.56428
2.5652
2.56561
2.56518
2.56448
2.56344
2.56251
2.56168
2.56087
2.56
2.55905
2.55801
2.5569
2.5557
2.55444
2.55307
2.55164
2.55011
2.54851
2.54679
2.545
2.54309
2.54111
2.539
2.53682
2.53451
2.53212
2.52959
2.52698
2.52423
2.5214
2.51842
2.51536
2.51215
2.50886
2.50541
2.50188
2.49818
2.49441
2.49048
2.48646
2.48253
1.78107
2.35421
2.614
2.59967
2.59
2.57212
2.56704
2.56741
2.56799
2.56903
2.56887
2.56833
2.56784
2.56696
2.5662
2.56539
2.56461
2.56368
2.56275
2.56166
2.56057
2.55933
2.55807
2.55666
2.55523
2.55364
2.55204
2.55027
2.54847
2.54651
2.54452
2.54236
2.54017
2.5378
2.5354
2.53282
2.53021
2.5274
2.52457
2.52154
2.51848
2.51522
2.51193
2.50843
2.5049
2.50118
2.4974
2.49343
2.48939
2.48545
1.80132
2.34719
2.61457
2.58736
2.58381
2.57255
2.56905
2.57013
2.57043
2.57086
2.57072
2.5702
2.56965
2.56875
2.56793
2.56704
2.56616
2.56514
2.56409
2.5629
2.56168
2.56032
2.55892
2.55738
2.5558
2.55407
2.55229
2.55036
2.54838
2.54624
2.54405
2.54171
2.5393
2.53673
2.5341
2.53131
2.52845
2.52543
2.52235
2.51909
2.51577
2.51229
2.50873
2.50501
2.50122
2.49726
2.49324
2.48905
2.48478
2.48064
1.78827
2.36082
2.62698
2.59536
2.58874
2.57463
2.57215
2.57418
2.57567
2.57659
2.57656
2.57605
2.57551
2.57468
2.57391
2.57309
2.57224
2.57127
2.57024
2.56911
2.56792
2.56661
2.56525
2.56377
2.56223
2.56056
2.55883
2.55697
2.55505
2.55299
2.55085
2.54858
2.54624
2.54376
2.54119
2.53849
2.5357
2.53277
2.52975
2.52659
2.52334
2.51994
2.51646
2.51282
2.5091
2.50522
2.50126
2.49716
2.49295
2.48889
2.1722
2.34528
2.76281
2.8604
2.86208
2.81962
2.81782
2.81722
2.81
2.80889
2.81194
2.81346
2.81482
2.81564
2.81743
2.81874
2.82082
2.82258
2.82416
2.82512
2.82554
2.82566
2.82437
2.82355
2.82056
2.81822
2.81422
2.81042
2.8055
2.80056
2.79482
2.78897
2.78254
2.776
2.76924
2.76229
2.75518
2.7474
2.7393
2.7312
2.72305
2.71486
2.70663
2.69838
2.69013
2.68193
2.67378
2.66571
2.65775
2.64991
2.64223
2.63471
2.6274
2.62031
2.61348
2.60691
2.60066
2.59473
2.58918
2.58401
2.57928
2.575
2.57122
2.56794
2.56521
2.56303
2.56142
2.56037
2.55988
2.55978
2.5599
2.56024
2.5611
2.56257
2.56462
2.56687
2.56907
2.57137
2.57356
2.57577
2.57775
2.57965
2.58125
2.5827
2.58382
2.58478
2.5854
2.58588
2.58606
2.58614
2.58603
2.5858
2.58546
2.58474
2.584
2.58296
2.58211
2.58098
2.58007
2.57704
2.18037
2.26035
2.45044
2.62854
2.69711
2.73388
2.76117
2.78601
2.80032
2.81303
2.82103
2.83103
2.83663
2.83623
2.83235
2.82699
2.81954
2.81209
2.80286
2.79396
2.78378
2.77415
2.76362
2.75381
2.74293
2.73265
2.72149
2.71101
2.69978
2.68925
2.67807
2.66756
2.65649
2.64608
2.63542
2.62547
2.61521
2.60489
2.59415
2.58378
2.57363
2.5637
2.55388
2.54426
2.53477
2.52551
2.51641
2.50756
2.49889
2.4905
2.48231
2.47442
2.46677
2.45944
2.45239
2.4457
2.43934
2.43338
2.42778
2.42264
2.41792
2.4137
2.40996
2.40677
2.40409
2.40201
2.40046
2.3995
2.39906
2.39907
2.39933
2.39988
2.40098
2.40273
2.40518
2.40784
2.41056
2.4133
2.416
2.4186
2.42103
2.42324
2.42519
2.42684
2.42819
2.42922
2.42995
2.43039
2.43054
2.43051
2.43036
2.43004
2.42966
2.42885
2.42807
2.42694
2.42608
2.42489
2.42411
2.42123
2.22679
2.21293
2.27126
2.35844
2.41096
2.46063
2.49433
2.52169
2.54287
2.55879
2.5707
2.57983
2.5866
2.58905
2.58833
2.58662
2.58268
2.57817
2.57265
2.56668
2.55997
2.55313
2.54579
2.53857
2.53077
2.5231
2.51488
2.50692
2.49849
2.49043
2.48191
2.47381
2.46526
2.45716
2.44885
2.44122
2.4333
2.42529
2.41669
2.40836
2.40019
2.39223
2.3843
2.37652
2.36878
2.36122
2.35372
2.34642
2.33921
2.33222
2.32535
2.31873
2.31226
2.30607
2.30006
2.29437
2.28891
2.2838
2.27898
2.27456
2.27047
2.26683
2.26358
2.26082
2.25849
2.25671
2.25537
2.2546
2.25429
2.25437
2.25468
2.25518
2.25619
2.25779
2.26005
2.26251
2.26507
2.2676
2.27011
2.27248
2.27472
2.27672
2.2785
2.27997
2.28119
2.28209
2.28273
2.28308
2.2832
2.28314
2.283
2.28271
2.28237
2.28164
2.28096
2.27993
2.2792
2.27817
2.27768
2.27527
2.25963
2.22032
2.21596
2.24097
2.27154
2.29405
2.30929
2.3211
2.33164
2.34089
2.34855
2.35466
2.35938
2.36299
2.36453
2.36478
2.36473
2.36462
2.36442
2.36415
2.36366
2.36301
2.36227
2.361
2.35947
2.35768
2.35538
2.35288
2.34992
2.3468
2.34325
2.33959
2.33549
2.33133
2.32699
2.32289
2.31853
2.31378
2.30835
2.30282
2.29725
2.29179
2.28621
2.28066
2.27497
2.26935
2.26364
2.25803
2.25237
2.24685
2.24131
2.23595
2.23062
2.22551
2.22047
2.21569
2.21104
2.2067
2.20254
2.19874
2.19517
2.19202
2.18915
2.18676
2.18469
2.18315
2.18197
2.18134
2.18113
2.18129
2.18161
2.1821
2.18311
2.18461
2.18672
2.18901
2.19148
2.19389
2.19631
2.19853
2.20066
2.20251
2.20419
2.20553
2.20668
2.20747
2.20808
2.20835
2.20847
2.20839
2.20829
2.20805
2.20776
2.2071
2.20653
2.20562
2.20501
2.20414
2.2039
2.20183
2.27507
2.24096
2.21925
2.21176
2.21882
2.22345
2.22551
2.22611
2.22711
2.22896
2.23179
2.23409
2.23615
2.23798
2.24073
2.24301
2.24523
2.24768
2.25036
2.25321
2.25611
2.25889
2.26151
2.26376
2.26569
2.26706
2.26801
2.2685
2.26822
2.26767
2.26656
2.26511
2.2631
2.26084
2.25831
2.25587
2.25308
2.2498
2.24577
2.24144
2.23695
2.23244
2.22779
2.2231
2.21826
2.21339
2.20841
2.20344
2.19841
2.19343
2.18844
2.18355
2.17868
2.17397
2.16933
2.1649
2.16059
2.15654
2.15267
2.14911
2.14577
2.14282
2.14014
2.13789
2.13597
2.13454
2.13346
2.13295
2.13282
2.13301
2.13331
2.13387
2.13487
2.13639
2.13834
2.14052
2.14289
2.14526
2.1476
2.14977
2.15181
2.15359
2.15517
2.15644
2.1575
2.15825
2.15878
2.15902
2.15909
2.159
2.1589
2.15864
2.15833
2.15765
2.15716
2.15626
2.15572
2.1549
2.15476
2.15276
2.29854
2.25472
2.23052
2.21065
2.20087
2.194
2.18826
2.18217
2.17734
2.17355
2.17183
2.17134
2.17195
2.17232
2.17342
2.17565
2.17822
2.1814
2.18435
2.18798
2.19136
2.19522
2.19855
2.20207
2.20483
2.20754
2.20933
2.21097
2.21167
2.21224
2.21201
2.21136
2.21017
2.20866
2.20693
2.20519
2.20309
2.20048
2.19715
2.19344
2.18951
2.18546
2.18129
2.17704
2.17267
2.16823
2.1637
2.15911
2.15449
2.14986
2.14522
2.14064
2.1361
2.13166
2.12732
2.12312
2.11907
2.11523
2.11158
2.1082
2.10506
2.10225
2.09974
2.0976
2.09582
2.09446
2.09353
2.09311
2.09307
2.09325
2.09357
2.09416
2.0952
2.0967
2.09856
2.10064
2.10292
2.10521
2.10748
2.1096
2.11157
2.11329
2.11479
2.11602
2.11701
2.11771
2.1182
2.11842
2.11846
2.11837
2.11826
2.11797
2.11766
2.11697
2.11651
2.11563
2.11515
2.11436
2.1143
2.11235
2.32216
2.28216
2.24849
2.22369
2.20325
2.18829
2.1759
2.16541
2.1559
2.14844
2.14257
2.13908
2.13696
2.13659
2.13664
2.13721
2.13909
2.14193
2.14515
2.14854
2.1522
2.15598
2.15976
2.16347
2.16689
2.17002
2.17261
2.1748
2.17633
2.17746
2.17791
2.17803
2.17743
2.17651
2.17544
2.17428
2.17277
2.17071
2.16799
2.16485
2.16144
2.15782
2.15407
2.15021
2.14625
2.14218
2.13803
2.13379
2.12951
2.12519
2.12087
2.11655
2.11229
2.10809
2.10399
2.1
2.09617
2.0925
2.08905
2.08581
2.08285
2.08016
2.0778
2.07576
2.0741
2.07285
2.07203
2.0717
2.07173
2.07189
2.07223
2.07287
2.07395
2.07545
2.07725
2.07926
2.08144
2.08366
2.08585
2.08792
2.08982
2.09149
2.09293
2.09412
2.09507
2.09576
2.09622
2.09641
2.09642
2.09635
2.09622
2.0959