/*--------------------------------*- C++ -*----------------------------------*\
| =========                 |                                                 |
| \\      /  F ield         | OpenFOAM: The Open Source CFD Toolbox           |
|  \\    /   O peration     | Version:  2412                                  |
|   \\  /    A nd           | Website:  www.openfoam.com                      |
|    \\/     M anipulation  |                                                 |
\*---------------------------------------------------------------------------*/
FoamFile
{
    version     2.0;
    format      ascii;
    arch        "LSB;label=32;scalar=64";
    class       volVectorField;
    location    "21.5";
    object      U;
}
// * * * * * * * * * * * * * * * * * * * * * * * * * * * * * * * * * * * * * //

dimensions      [0 1 -1 0 0 0 0];

internalField   nonuniform List<vector> 
7000
(
(2.5911 -7.24995e-05 0)
(1.62062 0.000178376 0)
(0.495717 0.000208919 0)
(0.552996 0.000350715 0)
(0.654688 0.000446522 0)
(0.719891 0.000524564 0)
(0.732775 0.000592405 0)
(0.725882 0.000662699 0)
(0.71582 0.000741159 0)
(0.708121 0.000831575 0)
(0.703653 0.000930218 0)
(0.700085 0.00103343 0)
(0.696 0.00114039 0)
(0.691144 0.00125206 0)
(0.68568 0.00136945 0)
(0.679733 0.00149314 0)
(0.67332 0.00162342 0)
(0.666409 0.00176062 0)
(0.658964 0.00190516 0)
(0.650959 0.00205761 0)
(0.642371 0.00221855 0)
(0.633177 0.00238867 0)
(0.623352 0.00256867 0)
(0.612869 0.00275932 0)
(0.601698 0.00296143 0)
(0.589809 0.00317589 0)
(0.57717 0.00340361 0)
(0.563748 0.00364554 0)
(0.549507 0.00390266 0)
(0.534412 0.00417593 0)
(0.518425 0.00446635 0)
(0.501508 0.00477479 0)
(0.483624 0.00510213 0)
(0.464734 0.00544898 0)
(0.444804 0.00581596 0)
(0.423798 0.00620315 0)
(0.401689 0.00661059 0)
(0.37845 0.00703746 0)
(0.354066 0.00748283 0)
(0.328529 0.00794451 0)
(0.301842 0.00842012 0)
(0.274024 0.00890557 0)
(0.24511 0.00939692 0)
(0.215152 0.00988779 0)
(0.184225 0.0103737 0)
(0.152421 0.0108476 0)
(0.119823 0.0113136 0)
(0.0868506 0.0117556 0)
(0.051492 0.0123443 0)
(0.0221152 0.0131965 0)
(2.59123 -4.81032e-05 0)
(1.62079 0.000347446 0)
(0.495405 0.000827972 0)
(0.552735 0.00113966 0)
(0.654449 0.0013748 0)
(0.719666 0.00159683 0)
(0.732551 0.00180484 0)
(0.725662 0.00202014 0)
(0.715608 0.00225764 0)
(0.707919 0.00252742 0)
(0.703457 0.00282022 0)
(0.699893 0.00312646 0)
(0.695811 0.00344398 0)
(0.69096 0.00377504 0)
(0.685501 0.00412228 0)
(0.67956 0.00448708 0)
(0.673153 0.00487017 0)
(0.666248 0.00527224 0)
(0.65881 0.00569438 0)
(0.650811 0.00613785 0)
(0.64223 0.00660417 0)
(0.633044 0.00709482 0)
(0.623227 0.00761153 0)
(0.612751 0.00815593 0)
(0.601589 0.00872994 0)
(0.589709 0.00933528 0)
(0.57708 0.00997397 0)
(0.563667 0.0106476 0)
(0.549436 0.0113581 0)
(0.534351 0.0121067 0)
(0.518373 0.012895 0)
(0.501464 0.0137233 0)
(0.483587 0.0145925 0)
(0.464703 0.0155014 0)
(0.444776 0.0164493 0)
(0.423771 0.0174327 0)
(0.401658 0.0184483 0)
(0.378411 0.0194893 0)
(0.354012 0.0205483 0)
(0.32845 0.0216142 0)
(0.301729 0.0226744 0)
(0.273865 0.0237122 0)
(0.24489 0.0247101 0)
(0.214854 0.0256469 0)
(0.18383 0.0265019 0)
(0.151909 0.0272557 0)
(0.119165 0.0279058 0)
(0.0860651 0.0284263 0)
(0.0505461 0.029077 0)
(0.0211892 0.029827 0)
(2.59135 4.76323e-05 0)
(1.62108 0.000392314 0)
(0.495612 0.00160487 0)
(0.552788 0.00198044 0)
(0.65449 0.00230464 0)
(0.719708 0.00267026 0)
(0.732593 0.00303967 0)
(0.725715 0.00341851 0)
(0.715683 0.0038286 0)
(0.708015 0.00428652 0)
(0.703567 0.00478121 0)
(0.700013 0.00529984 0)
(0.69594 0.0058395 0)
(0.691101 0.00640304 0)
(0.685655 0.00699444 0)
(0.679727 0.0076157 0)
(0.673335 0.00826846 0)
(0.666444 0.0089538 0)
(0.659022 0.00967394 0)
(0.65104 0.0104308 0)
(0.642477 0.0112273 0)
(0.633309 0.0120658 0)
(0.623512 0.0129497 0)
(0.613059 0.0138815 0)
(0.601919 0.014865 0)
(0.590064 0.0159029 0)
(0.577461 0.0169992 0)
(0.564075 0.0181565 0)
(0.549872 0.0193786 0)
(0.534816 0.0206678 0)
(0.518868 0.0220271 0)
(0.50199 0.0234574 0)
(0.484142 0.0249606 0)
(0.465287 0.0265354 0)
(0.445386 0.0281806 0)
(0.424404 0.0298916 0)
(0.402309 0.0316623 0)
(0.379072 0.0334832 0)
(0.354674 0.0353408 0)
(0.329102 0.0372188 0)
(0.302356 0.0390939 0)
(0.274449 0.0409415 0)
(0.245409 0.042729 0)
(0.215286 0.0444244 0)
(0.184146 0.0459908 0)
(0.152086 0.0473932 0)
(0.119171 0.0486192 0)
(0.0859287 0.0496295 0)
(0.0502704 0.0506819 0)
(0.0207495 0.0516748 0)
(2.59153 5.41112e-05 0)
(1.62153 0.00053578 0)
(0.496039 0.00235085 0)
(0.55291 0.00281422 0)
(0.654613 0.00323689 0)
(0.719851 0.00375689 0)
(0.732741 0.00430321 0)
(0.725877 0.00485913 0)
(0.715874 0.00545185 0)
(0.708238 0.0061041 0)
(0.703814 0.0068056 0)
(0.700276 0.0075425 0)
(0.696221 0.00831098 0)
(0.691401 0.00911416 0)
(0.685977 0.00995661 0)
(0.680072 0.0108412 0)
(0.673703 0.0117701 0)
(0.666839 0.0127454 0)
(0.659443 0.0137698 0)
(0.651489 0.0148464 0)
(0.642957 0.0159791 0)
(0.633822 0.0171716 0)
(0.62406 0.0184281 0)
(0.613644 0.019753 0)
(0.602544 0.0211509 0)
(0.590731 0.0226267 0)
(0.578172 0.0241849 0)
(0.564833 0.0258307 0)
(0.55068 0.0275682 0)
(0.535674 0.0294022 0)
(0.519779 0.0313356 0)
(0.502954 0.0333722 0)
(0.48516 0.0355122 0)
(0.466357 0.037757 0)
(0.446506 0.0401027 0)
(0.42557 0.0425462 0)
(0.403514 0.0450767 0)
(0.380309 0.0476842 0)
(0.35593 0.0503481 0)
(0.330361 0.0530478 0)
(0.303598 0.055751 0)
(0.27565 0.0584216 0)
(0.246542 0.0610173 0)
(0.216319 0.0634868 0)
(0.185046 0.065786 0)
(0.152819 0.0678584 0)
(0.119703 0.0696755 0)
(0.0862765 0.0711838 0)
(0.0504197 0.0726089 0)
(0.0206056 0.073765 0)
(2.59178 6.77428e-05 0)
(1.62216 0.000716302 0)
(0.49659 0.00310355 0)
(0.553021 0.00367952 0)
(0.65474 0.00421123 0)
(0.720023 0.00488532 0)
(0.732927 0.00560869 0)
(0.726081 0.00634878 0)
(0.716115 0.00713289 0)
(0.70852 0.00798566 0)
(0.704128 0.00889923 0)
(0.700617 0.00986072 0)
(0.696589 0.0108653 0)
(0.691798 0.0119166 0)
(0.686405 0.0130189 0)
(0.680535 0.0141765 0)
(0.674202 0.0153914 0)
(0.667375 0.0166674 0)
(0.660019 0.0180073 0)
(0.652108 0.019416 0)
(0.643621 0.0208975 0)
(0.634535 0.0224578 0)
(0.624826 0.0241013 0)
(0.614465 0.025835 0)
(0.603425 0.0276638 0)
(0.591674 0.0295951 0)
(0.579182 0.031634 0)
(0.565914 0.0337882 0)
(0.551834 0.0360625 0)
(0.536906 0.0384638 0)
(0.52109 0.0409957 0)
(0.504345 0.0436633 0)
(0.486633 0.0464677 0)
(0.46791 0.0494102 0)
(0.448137 0.052487 0)
(0.427273 0.055693 0)
(0.405281 0.0590169 0)
(0.382127 0.0624426 0)
(0.357784 0.0659487 0)
(0.33223 0.069503 0)
(0.305456 0.0730711 0)
(0.277464 0.0765994 0)
(0.248275 0.0800365 0)
(0.217929 0.0833123 0)
(0.186488 0.0863606 0)
(0.154051 0.0891157 0)
(0.120674 0.0915189 0)
(0.0869968 0.0934931 0)
(0.0508515 0.0952307 0)
(0.0206234 0.0964794 0)
(2.59212 8.00288e-05 0)
(1.62301 0.00090039 0)
(0.497289 0.00385534 0)
(0.553136 0.00455742 0)
(0.654883 0.00520442 0)
(0.720233 0.0060329 0)
(0.733163 0.00693883 0)
(0.726344 0.00786812 0)
(0.716421 0.00885224 0)
(0.708876 0.00991441 0)
(0.704527 0.0110484 0)
(0.701052 0.0122423 0)
(0.697059 0.0134916 0)
(0.692307 0.0147995 0)
(0.686956 0.0161709 0)
(0.68113 0.0176103 0)
(0.674844 0.0191209 0)
(0.668067 0.0207069 0)
(0.660764 0.0223724 0)
(0.65291 0.0241229 0)
(0.644483 0.0259643 0)
(0.635462 0.0279029 0)
(0.625822 0.0299456 0)
(0.615535 0.0320997 0)
(0.604574 0.0343729 0)
(0.592909 0.0367729 0)
(0.580506 0.0393082 0)
(0.567333 0.0419863 0)
(0.553353 0.0448158 0)
(0.538529 0.047803 0)
(0.522821 0.0509556 0)
(0.506188 0.0542774 0)
(0.488588 0.0577731 0)
(0.469977 0.0614421 0)
(0.450313 0.0652831 0)
(0.429552 0.069288 0)
(0.407652 0.0734461 0)
(0.384577 0.0777361 0)
(0.36029 0.0821335 0)
(0.334768 0.0865984 0)
(0.30799 0.0910862 0)
(0.279954 0.0955374 0)
(0.25067 0.0998806 0)
(0.220174 0.104034 0)
(0.188523 0.107902 0)
(0.155816 0.111395 0)
(0.122105 0.114433 0)
(0.088068 0.116903 0)
(0.0515123 0.118953 0)
(0.0207748 0.120273 0)
(2.59255 9.26909e-05 0)
(1.62408 0.00108665 0)
(0.498146 0.0046149 0)
(0.553257 0.00545088 0)
(0.655042 0.00621963 0)
(0.720484 0.00720625 0)
(0.733454 0.00830223 0)
(0.726667 0.00942529 0)
(0.716799 0.0106162 0)
(0.709313 0.0118962 0)
(0.705016 0.0132588 0)
(0.701587 0.0146927 0)
(0.69764 0.0161945 0)
(0.692937 0.0177672 0)
(0.68764 0.0194163 0)
(0.68187 0.0211464 0)
(0.675643 0.0229619 0)
(0.668928 0.0248673 0)
(0.661692 0.0268683 0)
(0.653909 0.0289709 0)
(0.645559 0.0311828 0)
(0.63662 0.033511 0)
(0.627068 0.0359645 0)
(0.616876 0.0385515 0)
(0.606015 0.0412819 0)
(0.594457 0.0441649 0)
(0.582169 0.047211 0)
(0.569117 0.0504294 0)
(0.555265 0.0538305 0)
(0.540575 0.0574232 0)
(0.525006 0.061216 0)
(0.508517 0.0652158 0)
(0.491063 0.0694273 0)
(0.4726 0.0738526 0)
(0.453079 0.0784896 0)
(0.432456 0.0833313 0)
(0.410684 0.0883645 0)
(0.387718 0.0935673 0)
(0.363516 0.0989094 0)
(0.338045 0.104346 0)
(0.311278 0.109823 0)
(0.2832 0.115267 0)
(0.253814 0.120595 0)
(0.223139 0.125704 0)
(0.191234 0.130477 0)
(0.158188 0.134795 0)
(0.124046 0.138538 0)
(0.089543 0.14156 0)
(0.0524193 0.143969 0)
(0.0210222 0.145393 0)
(2.59308 0.000105469 0)
(1.6254 0.00127342 0)
(0.499173 0.00538026 0)
(0.553386 0.00635388 0)
(0.655218 0.00724799 0)
(0.720781 0.00839695 0)
(0.733805 0.00968555 0)
(0.727059 0.0110096 0)
(0.717256 0.0124156 0)
(0.709841 0.0139215 0)
(0.705606 0.0155203 0)
(0.702234 0.017202 0)
(0.698344 0.0189643 0)
(0.693702 0.0208104 0)
(0.68847 0.0227458 0)
(0.682769 0.0247757 0)
(0.676615 0.0269052 0)
(0.669977 0.0291396 0)
(0.662823 0.0314858 0)
(0.655128 0.0339508 0)
(0.646873 0.0365434 0)
(0.638034 0.0392725 0)
(0.62859 0.0421481 0)
(0.618514 0.0451806 0)
(0.607778 0.0483811 0)
(0.596352 0.0517612 0)
(0.584205 0.0553328 0)
(0.571303 0.059108 0)
(0.557609 0.0630984 0)
(0.543085 0.0673158 0)
(0.52769 0.0717702 0)
(0.511381 0.0764709 0)
(0.494111 0.0814249 0)
(0.475833 0.0866351 0)
(0.456497 0.0921024 0)
(0.436051 0.0978186 0)
(0.414445 0.103772 0)
(0.391625 0.109938 0)
(0.367543 0.116284 0)
(0.342153 0.122761 0)
(0.315416 0.129305 0)
(0.287304 0.135832 0)
(0.257806 0.142238 0)
(0.226932 0.148407 0)
(0.194719 0.154186 0)
(0.161265 0.159426 0)
(0.126585 0.163977 0)
(0.091461 0.167638 0)
(0.0536163 0.170465 0)
(0.0214119 0.172028 0)
(2.59372 0.000118313 0)
(1.62698 0.00145981 0)
(0.500385 0.00614875 0)
(0.553528 0.00726235 0)
(0.655416 0.00828504 0)
(0.721128 0.00960054 0)
(0.734223 0.0110874 0)
(0.727529 0.0126179 0)
(0.717805 0.0142463 0)
(0.710471 0.0159859 0)
(0.70631 0.0178289 0)
(0.703007 0.0197666 0)
(0.699186 0.0217976 0)
(0.694618 0.0239254 0)
(0.689463 0.0261558 0)
(0.683845 0.0284942 0)
(0.677778 0.0309464 0)
(0.671232 0.0335188 0)
(0.664177 0.0362191 0)
(0.656587 0.0390559 0)
(0.648445 0.042039 0)
(0.639728 0.0451789 0)
(0.630414 0.0484873 0)
(0.620478 0.0519763 0)
(0.609892 0.055659 0)
(0.598626 0.0595489 0)
(0.586651 0.0636603 0)
(0.57393 0.0680071 0)
(0.560429 0.0726041 0)
(0.546108 0.0774647 0)
(0.530925 0.0826025 0)
(0.514836 0.0880281 0)
(0.497792 0.0937522 0)
(0.479744 0.0997792 0)
(0.460637 0.106112 0)
(0.440415 0.112746 0)
(0.41902 0.119667 0)
(0.396392 0.126854 0)
(0.37247 0.13427 0)
(0.347198 0.141863 0)
(0.32052 0.149561 0)
(0.292392 0.157274 0)
(0.262784 0.164876 0)
(0.231684 0.172225 0)
(0.199117 0.179151 0)
(0.165164 0.185449 0)
(0.129836 0.190926 0)
(0.0939384 0.195333 0)
(0.0551457 0.198671 0)
(0.0219197 0.200425 0)
(2.59447 0.000131086 0)
(1.62885 0.00164455 0)
(0.501797 0.00691525 0)
(0.553685 0.00817028 0)
(0.655641 0.00932373 0)
(0.721534 0.0108093 0)
(0.734718 0.0124984 0)
(0.728088 0.0142413 0)
(0.718458 0.0160996 0)
(0.711217 0.0180812 0)
(0.707141 0.0201768 0)
(0.703919 0.0223789 0)
(0.700181 0.0246869 0)
(0.6957 0.0271049 0)
(0.690637 0.0296386 0)
(0.685115 0.032294 0)
(0.679151 0.0350774 0)
(0.672714 0.0379964 0)
(0.665775 0.0410596 0)
(0.65831 0.0442769 0)
(0.650301 0.0476596 0)
(0.641727 0.0512197 0)
(0.632568 0.0549706 0)
(0.622797 0.0589262 0)
(0.612389 0.0631019 0)
(0.601314 0.0675131 0)
(0.589542 0.0721767 0)
(0.577038 0.0771091 0)
(0.563768 0.082328 0)
(0.54969 0.0878494 0)
(0.534763 0.0936902 0)
(0.51894 0.0998645 0)
(0.502171 0.106385 0)
(0.484404 0.113262 0)
(0.46558 0.120499 0)
(0.445637 0.128094 0)
(0.424509 0.136037 0)
(0.402127 0.144307 0)
(0.37842 0.152868 0)
(0.353311 0.161666 0)
(0.326735 0.170623 0)
(0.298616 0.17964 0)
(0.268908 0.188578 0)
(0.237573 0.197266 0)
(0.204602 0.2055 0)
(0.170065 0.213038 0)
(0.133932 0.219624 0)
(0.097064 0.224934 0)
(0.0571068 0.228895 0)
(0.0226251 0.230901 0)
(2.59534 0.00014366 0)
(1.63102 0.00182587 0)
(0.503424 0.00767238 0)
(0.553861 0.00907022 0)
(0.655898 0.0103568 0)
(0.722005 0.0120146 0)
(0.735299 0.013911 0)
(0.728749 0.0158711 0)
(0.719229 0.0179662 0)
(0.712095 0.0201983 0)
(0.708117 0.0225556 0)
(0.704989 0.0250307 0)
(0.701347 0.0276242 0)
(0.696967 0.0303407 0)
(0.692011 0.0331861 0)
(0.686601 0.0361665 0)
(0.680756 0.0392893 0)
(0.674445 0.0425628 0)
(0.66764 0.0459968 0)
(0.66032 0.0496027 0)
(0.652466 0.0533931 0)
(0.64406 0.0573817 0)
(0.635081 0.0615837 0)
(0.625504 0.066015 0)
(0.615303 0.0706932 0)
(0.604452 0.0756362 0)
(0.592919 0.0808633 0)
(0.580671 0.086394 0)
(0.567672 0.0922487 0)
(0.553882 0.0984472 0)
(0.539259 0.10501 0)
(0.523754 0.111954 0)
(0.507317 0.119298 0)
(0.48989 0.127054 0)
(0.471411 0.135232 0)
(0.451812 0.143835 0)
(0.43102 0.152855 0)
(0.408954 0.162278 0)
(0.385528 0.172066 0)
(0.360651 0.182171 0)
(0.334231 0.192508 0)
(0.306173 0.202972 0)
(0.276388 0.213414 0)
(0.244816 0.223636 0)
(0.211403 0.233401 0)
(0.176188 0.242403 0)
(0.139118 0.250322 0)
(0.101046 0.256752 0)
(0.0595852 0.261522 0)
(0.0235149 0.263879 0)
(2.59633 0.000155712 0)
(1.6335 0.00200178 0)
(0.505278 0.00840893 0)
(0.554061 0.00995307 0)
(0.656191 0.0113761 0)
(0.722552 0.0132048 0)
(0.735978 0.0153121 0)
(0.729523 0.0174946 0)
(0.720133 0.0198348 0)
(0.713122 0.0223269 0)
(0.709255 0.024955 0)
(0.706235 0.027712 0)
(0.702704 0.0305996 0)
(0.69844 0.0336228 0)
(0.693606 0.0367878 0)
(0.688325 0.0401011 0)
(0.682615 0.0435706 0)
(0.676449 0.0472058 0)
(0.669799 0.0510178 0)
(0.662645 0.0550192 0)
(0.65497 0.0592241 0)
(0.646757 0.0636482 0)
(0.637984 0.0683084 0)
(0.628631 0.0732229 0)
(0.618671 0.0784115 0)
(0.608078 0.0838948 0)
(0.596823 0.0896948 0)
(0.584872 0.0958343 0)
(0.572191 0.102337 0)
(0.558739 0.109227 0)
(0.544473 0.116527 0)
(0.529345 0.124263 0)
(0.513302 0.132454 0)
(0.496283 0.14112 0)
(0.478223 0.150277 0)
(0.459047 0.159934 0)
(0.438673 0.17009 0)
(0.417008 0.180736 0)
(0.393954 0.191843 0)
(0.369395 0.203364 0)
(0.343215 0.215222 0)
(0.315289 0.227302 0)
(0.285488 0.239451 0)
(0.253699 0.251445 0)
(0.219825 0.263015 0)
(0.18384 0.273804 0)
(0.145638 0.283389 0)
(0.106105 0.291245 0)
(0.0627951 0.297064 0)
(0.0247289 0.299904 0)
(2.59746 0.000164973 0)
(1.6363 0.00217184 0)
(0.507372 0.00910727 0)
(0.554295 0.0108061 0)
(0.656527 0.0123734 0)
(0.723179 0.0143639 0)
(0.736767 0.016687 0)
(0.730428 0.0190984 0)
(0.721191 0.0216924 0)
(0.714319 0.0244546 0)
(0.710577 0.0273635 0)
(0.707679 0.0304117 0)
(0.704274 0.033602 0)
(0.700142 0.0369401 0)
(0.695446 0.0404324 0)
(0.69031 0.0440858 0)
(0.684754 0.047909 0)
(0.678752 0.0519123 0)
(0.672278 0.0561083 0)
(0.665312 0.060511 0)
(0.657841 0.0651361 0)
(0.649847 0.0700011 0)
(0.641311 0.075125 0)
(0.632213 0.0805282 0)
(0.622529 0.0862328 0)
(0.612234 0.0922626 0)
(0.601298 0.0986423 0)
(0.58969 0.105398 0)
(0.577376 0.112558 0)
(0.564317 0.12015 0)
(0.550469 0.128203 0)
(0.535783 0.136746 0)
(0.520205 0.145806 0)
(0.503673 0.15541 0)
(0.486117 0.16558 0)
(0.467456 0.176337 0)
(0.4476 0.187687 0)
(0.426446 0.199631 0)
(0.403874 0.212154 0)
(0.379753 0.225214 0)
(0.353931 0.238748 0)
(0.326249 0.252642 0)
(0.296524 0.266741 0)
(0.264585 0.280813 0)
(0.230265 0.294539 0)
(0.193464 0.307507 0)
(0.153973 0.319197 0)
(0.112635 0.328929 0)
(0.066942 0.336197 0)
(0.0262954 0.339745 0)
(2.59872 0.000170301 0)
(1.63944 0.00233363 0)
(0.509704 0.00975437 0)
(0.55457 0.0116113 0)
(0.656905 0.0133276 0)
(0.723886 0.0154711 0)
(0.737677 0.0180205 0)
(0.731475 0.0206671 0)
(0.722417 0.0235238 0)
(0.715704 0.0265668 0)
(0.712102 0.0297669 0)
(0.70934 0.0331159 0)
(0.706077 0.0366177 0)
(0.702092 0.0402787 0)
(0.697551 0.0441054 0)
(0.692578 0.0481052 0)
(0.687195 0.0522875 0)
(0.681377 0.056664 0)
(0.6751 0.0612483 0)
(0.668348 0.0660563 0)
(0.661106 0.0711051 0)
(0.65336 0.0764144 0)
(0.645093 0.082005 0)
(0.636285 0.0879001 0)
(0.626914 0.094124 0)
(0.616956 0.100704 0)
(0.606385 0.107667 0)
(0.59517 0.115045 0)
(0.583279 0.122867 0)
(0.570672 0.131169 0)
(0.557308 0.139984 0)
(0.543138 0.149347 0)
(0.528107 0.159294 0)
(0.512151 0.169859 0)
(0.495198 0.181075 0)
(0.477162 0.192972 0)
(0.457946 0.205573 0)
(0.437433 0.218891 0)
(0.41549 0.232927 0)
(0.391962 0.247658 0)
(0.366664 0.263037 0)
(0.339391 0.278968 0)
(0.309906 0.295304 0)
(0.277947 0.311815 0)
(0.243252 0.328165 0)
(0.2056 0.343875 0)
(0.164653 0.358299 0)
(0.121176 0.370559 0)
(0.0725095 0.379862 0)
(0.0284953 0.384473 0)
(2.60012 0.000178126 0)
(1.64292 0.00247602 0)
(0.512272 0.0103546 0)
(0.554888 0.01235 0)
(0.657331 0.0141981 0)
(0.724685 0.0165108 0)
(0.738726 0.0192846 0)
(0.732686 0.0221769 0)
(0.723837 0.025313 0)
(0.717302 0.0286498 0)
(0.713854 0.0321518 0)
(0.711243 0.0358115 0)
(0.708136 0.0396339 0)
(0.704315 0.0436263 0)
(0.699946 0.0477947 0)
(0.695154 0.0521474 0)
(0.689962 0.0566943 0)
(0.684349 0.0614485 0)
(0.678293 0.0664247 0)
(0.671778 0.0716407 0)
(0.664793 0.0771151 0)
(0.657325 0.0828697 0)
(0.649359 0.0889275 0)
(0.640877 0.0953143 0)
(0.63186 0.102057 0)
(0.622285 0.109186 0)
(0.612127 0.116732 0)
(0.601359 0.124731 0)
(0.589949 0.133217 0)
(0.577861 0.14223 0)
(0.565054 0.15181 0)
(0.551481 0.162 0)
(0.537088 0.172844 0)
(0.521811 0.184386 0)
(0.505576 0.196672 0)
(0.488294 0.209744 0)
(0.469862 0.223645 0)
(0.450156 0.238406 0)
(0.429025 0.254053 0)
(0.406291 0.270589 0)
(0.38174 0.287996 0)
(0.355115 0.306212 0)
(0.326114 0.325116 0)
(0.294384 0.344501 0)
(0.25952 0.364037 0)
(0.221132 0.38321 0)
(0.178641 0.401248 0)
(0.13261 0.417054 0)
(0.0800921 0.429393 0)
(0.0315273 0.435742 0)
(2.60164 0.000187986 0)
(1.64673 0.00259336 0)
(0.515103 0.0108857 0)
(0.555256 0.0129935 0)
(0.65783 0.0149537 0)
(0.725618 0.0174525 0)
(0.739946 0.0204561 0)
(0.734109 0.0236059 0)
(0.725502 0.0270382 0)
(0.71916 0.0306827 0)
(0.715879 0.0344982 0)
(0.713432 0.0384779 0)
(0.710497 0.0426282 0)
(0.706856 0.0469575 0)
(0.702674 0.0514719 0)
(0.698079 0.0561803 0)
(0.693097 0.0610937 0)
(0.687709 0.0662264 0)
(0.681895 0.0715949 0)
(0.675642 0.0772184 0)
(0.668941 0.0831177 0)
(0.661781 0.0893163 0)
(0.654149 0.0958397 0)
(0.64603 0.102716 0)
(0.637407 0.109975 0)
(0.62826 0.11765 0)
(0.618566 0.125776 0)
(0.608301 0.134391 0)
(0.597436 0.143537 0)
(0.585937 0.153258 0)
(0.573767 0.163602 0)
(0.560881 0.174618 0)
(0.547226 0.186361 0)
(0.532743 0.198888 0)
(0.517356 0.212257 0)
(0.500979 0.226529 0)
(0.483504 0.241766 0)
(0.464802 0.258028 0)
(0.444712 0.275369 0)
(0.423038 0.293834 0)
(0.399536 0.313448 0)
(0.3739 0.334209 0)
(0.345754 0.356049 0)
(0.314638 0.378819 0)
(0.279981 0.402282 0)
(0.241128 0.425902 0)
(0.197198 0.448793 0)
(0.14834 0.469685 0)
(0.0910102 0.486702 0)
(0.0361566 0.496112 0)
(2.60329 0.000194172 0)
(1.65086 0.00268318 0)
(0.518185 0.0112973 0)
(0.555676 0.0135013 0)
(0.658415 0.015568 0)
(0.726713 0.0182529 0)
(0.741378 0.02151 0)
(0.735782 0.0249339 0)
(0.727453 0.0286793 0)
(0.721321 0.0326527 0)
(0.718217 0.0368017 0)
(0.715946 0.0411181 0)
(0.713195 0.0456106 0)
(0.709747 0.0502879 0)
(0.705768 0.0551575 0)
(0.701386 0.0602282 0)
(0.696632 0.0655121 0)
(0.691489 0.0710247 0)
(0.68594 0.0767843 0)
(0.679974 0.0828118 0)
(0.673585 0.0891305 0)
(0.666764 0.0957656 0)
(0.659502 0.102745 0)
(0.651784 0.1101 0)
(0.643598 0.117864 0)
(0.634926 0.126072 0)
(0.625749 0.134764 0)
(0.616046 0.143982 0)
(0.605791 0.153774 0)
(0.594957 0.164188 0)
(0.583508 0.175281 0)
(0.571405 0.187111 0)
(0.5586 0.199742 0)
(0.545036 0.213245 0)
(0.530645 0.227694 0)
(0.515342 0.243172 0)
(0.499023 0.259763 0)
(0.48156 0.277561 0)
(0.46279 0.296661 0)
(0.442505 0.31716 0)
(0.420446 0.339133 0)
(0.396267 0.362692 0)
(0.36952 0.387863 0)
(0.339678 0.414524 0)
(0.305956 0.442719 0)
(0.267306 0.472036 0)
(0.222425 0.501638 0)
(0.170704 0.530081 0)
(0.107366 0.55489 0)
(0.0434836 0.57007 0)
(2.60505 0.000196817 0)
(1.65528 0.0027341 0)
(0.521492 0.0115401 0)
(0.556161 0.0138253 0)
(0.659112 0.0159931 0)
(0.728011 0.0188663 0)
(0.743073 0.0223951 0)
(0.737759 0.0261109 0)
(0.72975 0.030187 0)
(0.723849 0.0345026 0)
(0.720932 0.0389922 0)
(0.718846 0.0436478 0)
(0.71629 0.0484822 0)
(0.713048 0.0535064 0)
(0.709285 0.0587295 0)
(0.705131 0.0641608 0)
(0.700619 0.0698137 0)
(0.695738 0.0757049 0)
(0.690474 0.0818546 0)
(0.684818 0.0882849 0)
(0.678766 0.095021 0)
(0.672314 0.10209 0)
(0.665454 0.109522 0)
(0.658175 0.11735 0)
(0.650468 0.12561 0)
(0.642319 0.134341 0)
(0.633712 0.143587 0)
(0.624632 0.153393 0)
(0.615057 0.163812 0)
(0.604965 0.1749 0)
(0.594326 0.186719 0)
(0.583108 0.199338 0)
(0.57127 0.212832 0)
(0.558764 0.227286 0)
(0.545529 0.242792 0)
(0.531491 0.259454 0)
(0.516555 0.277386 0)
(0.500605 0.296721 0)
(0.483488 0.317592 0)
(0.464989 0.340208 0)
(0.44488 0.364635 0)
(0.422811 0.391075 0)
(0.398173 0.419907 0)
(0.370519 0.451189 0)
(0.338956 0.485057 0)
(0.301912 0.521519 0)
(0.25746 0.560244 0)
(0.203863 0.600018 0)
(0.133823 0.638299 0)
(0.056561 0.666341 0)
(2.60689 0.000195293 0)
(1.65992 0.00273493 0)
(0.524993 0.0115399 0)
(0.556736 0.0138908 0)
(0.659954 0.0161672 0)
(0.72956 0.0192566 0)
(0.745087 0.0231065 0)
(0.740099 0.0271738 0)
(0.732447 0.031647 0)
(0.726782 0.0363583 0)
(0.724052 0.0412289 0)
(0.722154 0.0462546 0)
(0.719803 0.0514536 0)
(0.716779 0.0568405 0)
(0.713245 0.0624241 0)
(0.709335 0.0682153 0)
(0.705085 0.0742293 0)
(0.700488 0.0804858 0)
(0.695531 0.0870073 0)
(0.690212 0.0938189 0)
(0.684527 0.100948 0)
(0.678474 0.108425 0)
(0.672051 0.116282 0)
(0.665249 0.124554 0)
(0.658064 0.133282 0)
(0.650485 0.142506 0)
(0.642502 0.152273 0)
(0.634105 0.162636 0)
(0.625278 0.173649 0)
(0.616005 0.185374 0)
(0.606266 0.197882 0)
(0.596037 0.21125 0)
(0.585288 0.225564 0)
(0.573982 0.240921 0)
(0.562073 0.257436 0)
(0.549503 0.275231 0)
(0.5362 0.294441 0)
(0.522057 0.315288 0)
(0.507001 0.337858 0)
(0.490754 0.362401 0)
(0.473065 0.389349 0)
(0.453927 0.418927 0)
(0.432716 0.45162 0)
(0.40863 0.487927 0)
(0.380862 0.5283 0)
(0.347865 0.573465 0)
(0.306995 0.624245 0)
(0.255018 0.680973 0)
(0.180396 0.743017 0)
(0.0832319 0.803176 0)
(2.60877 0.000140724 0)
(1.66469 0.00273085 0)
(0.528586 0.011205 0)
(0.557425 0.0135506 0)
(0.661001 0.0159214 0)
(0.731457 0.0192099 0)
(0.747553 0.0233829 0)
(0.742958 0.0278053 0)
(0.735705 0.0326792 0)
(0.730274 0.0377797 0)
(0.727718 0.0430186 0)
(0.726 0.0484041 0)
(0.72385 0.0539649 0)
(0.721043 0.0597178 0)
(0.717738 0.0656715 0)
(0.714072 0.0718359 0)
(0.710089 0.0782265 0)
(0.705784 0.0848638 0)
(0.70115 0.0917715 0)
(0.696185 0.0989759 0)
(0.69089 0.106506 0)
(0.685266 0.114392 0)
(0.679312 0.12267 0)
(0.673027 0.131376 0)
(0.666406 0.140552 0)
(0.659447 0.150244 0)
(0.652144 0.1605 0)
(0.644492 0.171376 0)
(0.636484 0.182933 0)
(0.628112 0.195239 0)
(0.619365 0.208371 0)
(0.610231 0.222413 0)
(0.600694 0.237462 0)
(0.590736 0.253628 0)
(0.580329 0.271049 0)
(0.569422 0.289904 0)
(0.558035 0.310215 0)
(0.546002 0.332259 0)
(0.533215 0.356423 0)
(0.519853 0.382912 0)
(0.505635 0.412245 0)
(0.490266 0.444858 0)
(0.473492 0.481241 0)
(0.45482 0.52238 0)
(0.433607 0.56945 0)
(0.408681 0.624269 0)
(0.377652 0.689736 0)
(0.336611 0.770922 0)
(0.270947 0.87818 0)
(0.146442 1.04341 0)
(2.61114 8.01883e-05 0)
(1.67046 0.00260072 0)
(0.532326 0.0103802 0)
(0.557937 0.0128157 0)
(0.662137 0.0154312 0)
(0.733807 0.0191842 0)
(0.75073 0.023982 0)
(0.746686 0.0290412 0)
(0.739969 0.0345585 0)
(0.734829 0.0402263 0)
(0.732505 0.0459552 0)
(0.731058 0.0517808 0)
(0.729223 0.0577536 0)
(0.726757 0.0639005 0)
(0.723813 0.0702361 0)
(0.720532 0.0767749 0)
(0.716965 0.0835374 0)
(0.713114 0.0905495 0)
(0.708975 0.0978394 0)
(0.704552 0.105437 0)
(0.69985 0.113375 0)
(0.694874 0.121686 0)
(0.689629 0.130407 0)
(0.684119 0.139578 0)
(0.678349 0.149242 0)
(0.672321 0.159446 0)
(0.66604 0.170243 0)
(0.659511 0.181689 0)
(0.652738 0.193849 0)
(0.645728 0.206795 0)
(0.638488 0.220609 0)
(0.631024 0.235379 0)
(0.623339 0.251234 0)
(0.615459 0.268258 0)
(0.607448 0.286543 0)
(0.599078 0.306338 0)
(0.590398 0.327873 0)
(0.581887 0.351328 0)
(0.573403 0.377133 0)
(0.564721 0.40565 0)
(0.555963 0.437229 0)
(0.547215 0.472576 0)
(0.538666 0.512531 0)
(0.530544 0.558378 0)
(0.523389 0.611902 0)
(0.518379 0.675866 0)
(0.518234 0.754734 0)
(0.531158 0.855933 0)
(0.58713 0.990645 0)
(0.657206 1.18532 0)
(2.61366 5.93007e-05 0)
(1.67661 0.00194177 0)
(0.536847 0.00776139 0)
(0.559572 0.00992197 0)
(0.664782 0.0125033 0)
(0.738197 0.0166781 0)
(0.756198 0.0222086 0)
(0.752756 0.0280482 0)
(0.746498 0.0343793 0)
(0.741428 0.0407675 0)
(0.73912 0.0471445 0)
(0.737774 0.0535861 0)
(0.736119 0.0601574 0)
(0.733877 0.0668849 0)
(0.731186 0.0737793 0)
(0.728195 0.0808556 0)
(0.724961 0.0881372 0)
(0.721495 0.0956524 0)
(0.717797 0.103432 0)
(0.713871 0.111507 0)
(0.709726 0.119912 0)
(0.705371 0.128682 0)
(0.700815 0.137856 0)
(0.696067 0.147477 0)
(0.691138 0.15759 0)
(0.686039 0.168244 0)
(0.680783 0.179495 0)
(0.675386 0.191402 0)
(0.669864 0.204032 0)
(0.664239 0.217464 0)
(0.658529 0.231802 0)
(0.6528 0.247062 0)
(0.647031 0.263363 0)
(0.641145 0.280921 0)
(0.635383 0.299867 0)
(0.629957 0.320335 0)
(0.624758 0.342671 0)
(0.619855 0.367072 0)
(0.615476 0.393728 0)
(0.611777 0.423094 0)
(0.609033 0.455689 0)
(0.607719 0.492169 0)
(0.608504 0.533446 0)
(0.61248 0.580674 0)
(0.621471 0.635514 0)
(0.638795 0.700126 0)
(0.670463 0.777424 0)
(0.725483 0.870845 0)
(0.836637 0.980414 0)
(0.984496 1.09498 0)
(2.61511 7.01493e-05 0)
(1.68016 0.00130399 0)
(0.539703 0.00545597 0)
(0.561321 0.00790715 0)
(0.668133 0.0110995 0)
(0.743962 0.0164617 0)
(0.763409 0.0232592 0)
(0.760697 0.0301936 0)
(0.75491 0.0372544 0)
(0.749833 0.0440605 0)
(0.747535 0.050735 0)
(0.746325 0.0574551 0)
(0.744875 0.0643011 0)
(0.742857 0.0712934 0)
(0.740403 0.0784383 0)
(0.737673 0.0857591 0)
(0.73474 0.093289 0)
(0.73162 0.101063 0)
(0.728315 0.109114 0)
(0.724833 0.117476 0)
(0.721188 0.126182 0)
(0.717395 0.135269 0)
(0.713467 0.144773 0)
(0.709423 0.154735 0)
(0.705278 0.165198 0)
(0.701054 0.17621 0)
(0.696773 0.187821 0)
(0.692458 0.2001 0)
(0.688148 0.213099 0)
(0.683913 0.226847 0)
(0.679659 0.241458 0)
(0.675421 0.257079 0)
(0.671534 0.273768 0)
(0.668034 0.291689 0)
(0.66484 0.311039 0)
(0.662109 0.3319 0)
(0.660013 0.354443 0)
(0.65873 0.378934 0)
(0.65854 0.405664 0)
(0.65981 0.434975 0)
(0.663007 0.467325 0)
(0.668877 0.503232 0)
(0.678484 0.543357 0)
(0.693309 0.588463 0)
(0.715736 0.639407 0)
(0.749221 0.697033 0)
(0.799352 0.761611 0)
(0.87173 0.832188 0)
(0.984662 0.903806 0)
(1.12031 0.956637 0)
(2.61632 3.79191e-05 0)
(1.68323 -0.00152953 0)
(0.545065 -0.00484941 0)
(0.567291 -0.00305273 0)
(0.675902 0.000993355 0)
(0.754098 0.00904671 0)
(0.774422 0.0185803 0)
(0.771487 0.0278642 0)
(0.765103 0.0364504 0)
(0.759435 0.0442516 0)
(0.756958 0.0517435 0)
(0.755833 0.0592217 0)
(0.754551 0.0667638 0)
(0.752717 0.0743894 0)
(0.750475 0.0820937 0)
(0.748013 0.0899128 0)
(0.745412 0.0978918 0)
(0.742681 0.106072 0)
(0.739818 0.114492 0)
(0.736831 0.123187 0)
(0.733734 0.132198 0)
(0.730542 0.141564 0)
(0.727275 0.151324 0)
(0.723952 0.161519 0)
(0.720598 0.172196 0)
(0.717239 0.183415 0)
(0.713923 0.195196 0)
(0.71067 0.207584 0)
(0.707439 0.220679 0)
(0.704356 0.23456 0)
(0.701632 0.249278 0)
(0.699236 0.264999 0)
(0.697181 0.281811 0)
(0.695634 0.299733 0)
(0.694699 0.318916 0)
(0.694538 0.339518 0)
(0.695372 0.361709 0)
(0.697455 0.385686 0)
(0.701146 0.411678 0)
(0.706873 0.439936 0)
(0.715245 0.470744 0)
(0.727071 0.504431 0)
(0.743487 0.541278 0)
(0.765989 0.581565 0)
(0.79663 0.625371 0)
(0.838103 0.672419 0)
(0.894042 0.721651 0)
(0.967143 0.770479 0)
(1.06833 0.814684 0)
(1.18135 0.840241 0)
(2.61199 0.00228964 0)
(1.6732 -0.0067661 0)
(0.549606 -0.0137882 0)
(0.583075 -0.00801762 0)
(0.696136 -0.000390164 0)
(0.777899 0.00988488 0)
(0.798505 0.0200782 0)
(0.794084 0.0297243 0)
(0.785752 0.0382372 0)
(0.778709 0.0460973 0)
(0.775594 0.0537775 0)
(0.774114 0.0614343 0)
(0.772529 0.0691022 0)
(0.770389 0.0768131 0)
(0.767854 0.0846196 0)
(0.765166 0.0925747 0)
(0.762406 0.100723 0)
(0.759579 0.109101 0)
(0.756684 0.117744 0)
(0.753734 0.126683 0)
(0.750746 0.135951 0)
(0.74774 0.145582 0)
(0.744736 0.155609 0)
(0.741763 0.166063 0)
(0.738872 0.176956 0)
(0.736044 0.188347 0)
(0.733277 0.200316 0)
(0.730734 0.212881 0)
(0.728509 0.226107 0)
(0.726584 0.240102 0)
(0.725022 0.254898 0)
(0.723931 0.270519 0)
(0.723396 0.287079 0)
(0.723563 0.304668 0)
(0.724595 0.323392 0)
(0.726674 0.343382 0)
(0.730049 0.364757 0)
(0.735001 0.38767 0)
(0.741903 0.412253 0)
(0.751224 0.438658 0)
(0.763559 0.467013 0)
(0.779684 0.497423 0)
(0.80057 0.529907 0)
(0.82747 0.56435 0)
(0.861905 0.600406 0)
(0.905708 0.637316 0)
(0.961164 0.673743 0)
(1.02988 0.707353 0)
(1.11624 0.735221 0)
(1.20907 0.748969 0)
(2.60372 0.00790814 0)
(1.643 -0.0735164 0)
(0.584912 -0.0725584 0)
(0.623945 -0.0457618 0)
(0.731388 -0.00576608 0)
(0.809011 0.0165234 0)
(0.827011 0.0266242 0)
(0.821053 0.0352831 0)
(0.811538 0.0426475 0)
(0.804178 0.0507622 0)
(0.800804 0.0592919 0)
(0.798945 0.0677238 0)
(0.796964 0.075934 0)
(0.794522 0.0840027 0)
(0.791798 0.0920668 0)
(0.788967 0.100205 0)
(0.786087 0.108465 0)
(0.783158 0.11689 0)
(0.78018 0.12552 0)
(0.777167 0.134403 0)
(0.774138 0.143588 0)
(0.77112 0.153098 0)
(0.768135 0.162952 0)
(0.765176 0.173201 0)
(0.76232 0.183913 0)
(0.75971 0.195095 0)
(0.757331 0.206803 0)
(0.755183 0.219097 0)
(0.753385 0.231996 0)
(0.752012 0.245556 0)
(0.751137 0.259849 0)
(0.750873 0.274938 0)
(0.751346 0.290885 0)
(0.75271 0.30777 0)
(0.755141 0.325653 0)
(0.758837 0.34462 0)
(0.764049 0.36474 0)
(0.771077 0.386095 0)
(0.780271 0.408754 0)