/*--------------------------------*- C++ -*----------------------------------*\
| =========                 |                                                 |
| \\      /  F ield         | OpenFOAM: The Open Source CFD Toolbox           |
|  \\    /   O peration     | Version:  2412                                  |
|   \\  /    A nd           | Website:  www.openfoam.com                      |
|    \\/     M anipulation  |                                                 |
\*---------------------------------------------------------------------------*/
FoamFile
{
    version     2.0;
    format      ascii;
    arch        "LSB;label=32;scalar=64";
    class       volScalarField;
    location    "16";
    object      Ma;
}
// * * * * * * * * * * * * * * * * * * * * * * * * * * * * * * * * * * * * * //

dimensions      [0 0 0 0 0 0 0];

internalField   nonuniform List<scalar> 
7000
(
2.25688
0.995725
0.30158
0.338501
0.401165
0.442608
0.450855
0.44639
0.440045
0.435122
0.432282
0.430004
0.427412
0.42432
0.42085
0.417073
0.413002
0.408624
0.403903
0.398845
0.39341
0.387616
0.381415
0.374826
0.367797
0.360347
0.352422
0.344036
0.33514
0.32574
0.315793
0.305296
0.294216
0.282539
0.270243
0.25731
0.243729
0.229479
0.214564
0.198969
0.182714
0.165795
0.148254
0.130104
0.111416
0.0922279
0.0726137
0.0528639
0.0319389
0.0155578
2.25693
0.995786
0.301376
0.338334
0.401009
0.442459
0.450707
0.446245
0.439906
0.43499
0.432155
0.42988
0.427291
0.424204
0.420738
0.416966
0.412901
0.408529
0.403814
0.398763
0.393335
0.38755
0.381357
0.374779
0.36776
0.360321
0.352409
0.344037
0.335156
0.325773
0.315844
0.305367
0.294309
0.282656
0.270387
0.257483
0.243934
0.229719
0.214844
0.199294
0.18309
0.166231
0.148764
0.130708
0.112148
0.0931504
0.0738406
0.0546712
0.0351727
0.0220832
2.25706
0.995982
0.301508
0.338369
0.401039
0.442492
0.45074
0.446284
0.439963
0.435059
0.432237
0.429967
0.427389
0.424307
0.420856
0.417092
0.413041
0.408679
0.403982
0.398943
0.393535
0.387766
0.381596
0.375037
0.368046
0.360633
0.352752
0.344412
0.33557
0.326226
0.316344
0.305916
0.294915
0.283323
0.271124
0.258297
0.244835
0.230719
0.215955
0.200535
0.184482
0.167807
0.150561
0.132791
0.11461
0.0961475
0.0776549
0.0598553
0.043057
0.0335944
2.25723
0.996287
0.301779
0.338447
0.40112
0.442592
0.450843
0.446404
0.440092
0.435219
0.432404
0.430157
0.427582
0.424527
0.421082
0.417347
0.413307
0.408977
0.404293
0.39929
0.3939
0.388172
0.382025
0.375514
0.368553
0.361196
0.353354
0.34508
0.336288
0.327021
0.317203
0.306867
0.295947
0.284466
0.272371
0.259678
0.246351
0.232402
0.217815
0.202608
0.186797
0.170411
0.153523
0.136194
0.118599
0.100927
0.083571
0.0674743
0.0533209
0.046202
2.25748
0.996717
0.302128
0.338516
0.401205
0.442711
0.450974
0.446547
0.440261
0.435416
0.432624
0.430399
0.427843
0.424813
0.421391
0.417686
0.413673
0.409376
0.404726
0.399761
0.394413
0.388727
0.382634
0.376173
0.369277
0.361978
0.354217
0.346012
0.337319
0.328137
0.318439
0.308207
0.297434
0.286081
0.274166
0.261635
0.24853
0.234789
0.22048
0.205551
0.190098
0.174103
0.157701
0.140967
0.124116
0.107441
0.0913941
0.077047
0.0651289
0.0595176
2.25781
0.997288
0.30257
0.338588
0.401301
0.442857
0.451142
0.44672
0.440487
0.435655
0.432917
0.430694
0.428193
0.425164
0.421806
0.418106
0.414164
0.409878
0.405305
0.400359
0.395096
0.38944
0.383442
0.377024
0.370235
0.362996
0.355357
0.347235
0.338679
0.329607
0.320067
0.30998
0.299388
0.288224
0.276522
0.264234
0.251385
0.237957
0.223968
0.209447
0.194414
0.178962
0.163152
0.147163
0.13121
0.115645
0.101008
0.0883194
0.0782112
0.0736441
2.25822
0.998012
0.303112
0.338664
0.401409
0.443036
0.451345
0.446958
0.440742
0.435971
0.433251
0.431082
0.428597
0.425627
0.42229
0.418658
0.414741
0.410531
0.40599
0.401134
0.395911
0.390361
0.384412
0.37812
0.371393
0.364304
0.356745
0.348799
0.340348
0.331483
0.322081
0.312236
0.301827
0.290944
0.279483
0.267522
0.25499
0.241951
0.228379
0.21433
0.199853
0.185006
0.169955
0.154803
0.139876
0.125514
0.112261
0.1011
0.0924708
0.0886518
2.25873
0.998901
0.303762
0.338745
0.401529
0.443245
0.451593
0.447234
0.441065
0.436343
0.433668
0.431544
0.429099
0.426181
0.422891
0.419319
0.415457
0.411317
0.406842
0.402065
0.396924
0.391466
0.385619
0.379433
0.372836
0.36587
0.358472
0.350671
0.342421
0.333728
0.324575
0.314939
0.304836
0.294214
0.283125
0.271496
0.259412
0.2468
0.233769
0.220279
0.206458
0.19235
0.178112
0.163953
0.150106
0.136992
0.125107
0.115291
0.107872
0.104651
2.25935
0.999967
0.30453
0.338834
0.401665
0.44349
0.451889
0.447562
0.441456
0.436782
0.434169
0.432088
0.429705
0.426837
0.423614
0.420104
0.41632
0.412251
0.407866
0.403174
0.398141
0.392786
0.387067
0.381008
0.37456
0.367754
0.360532
0.352929
0.344889
0.336443
0.32754
0.318208
0.308406
0.298162
0.287437
0.276278
0.264645
0.252611
0.240147
0.227366
0.214274
0.201027
0.187735
0.174596
0.161949
0.150068
0.139482
0.130919
0.124525
0.121747
2.26007
1.00122
0.305424
0.338932
0.401819
0.443778
0.452236
0.447961
0.441909
0.437312
0.434752
0.432739
0.43041
0.427619
0.424461
0.421036
0.417327
0.413359
0.409062
0.40449
0.399561
0.394349
0.388758
0.382868
0.376581
0.369972
0.362954
0.355583
0.347796
0.339625
0.331035
0.322038
0.312621
0.302783
0.292534
0.281866
0.27082
0.259388
0.24765
0.235607
0.223409
0.211078
0.198854
0.186853
0.175393
0.164827
0.15548
0.148025
0.142526
0.140179
2.2609
1.00268
0.306455
0.339042
0.401995
0.44411
0.452646
0.44842
0.442452
0.437925
0.435439
0.433496
0.431241
0.428527
0.425455
0.422118
0.41851
0.414641
0.410467
0.406009
0.40123
0.396151
0.390743
0.385013
0.378945
0.372532
0.365774
0.358651
0.351171
0.343312
0.335087
0.326477
0.317497
0.308139
0.29842
0.288346
0.277942
0.267241
0.25628
0.245135
0.23387
0.222625
0.211513
0.200756
0.19058
0.18127
0.173202
0.166845
0.162174
0.160137
2.26186
1.00435
0.307629
0.33917
0.402196
0.444496
0.453121
0.448968
0.443081
0.438646
0.436238
0.434374
0.432207
0.429577
0.426609
0.423366
0.419878
0.41612
0.412085
0.407762
0.403144
0.398233
0.393011
0.387491
0.381642
0.375489
0.368992
0.362186
0.355024
0.347549
0.339716
0.331568
0.323073
0.314271
0.30515
0.295747
0.286082
0.276191
0.266135
0.25596
0.24579
0.235682
0.225857
0.21639
0.207596
0.199664
0.192813
0.187531
0.183675
0.182066
2.26293
1.00623
0.308955
0.339314
0.402432
0.444928
0.453672
0.449592
0.443821
0.439476
0.437165
0.435389
0.433318
0.43079
0.427929
0.424805
0.421438
0.41782
0.413926
0.409771
0.405322
0.40061
0.395595
0.39031
0.384716
0.378844
0.37266
0.366189
0.359413
0.352341
0.344978
0.337323
0.329399
0.321202
0.312774
0.304114
0.295285
0.286302
0.277253
0.268177
0.259196
0.250395
0.241918
0.233936
0.226583
0.220116
0.214695
0.210592
0.207617
0.206312
2.26413
1.00833
0.310429
0.339456
0.402719
0.445415
0.454304
0.450318
0.444669
0.440437
0.438223
0.436554
0.434585
0.432178
0.42943
0.426446
0.423209
0.419752
0.416013
0.412046
0.407786
0.403298
0.398511
0.393495
0.388178
0.382628
0.376781
0.370701
0.364333
0.357739
0.350874
0.343796
0.336482
0.328984
0.321306
0.313492
0.305582
0.297619
0.289686
0.281834
0.274186
0.266817
0.259892
0.253497
0.247853
0.242996
0.239079
0.236342
0.23442
0.233765
2.26546
1.01067
0.312064
0.339623
0.403039
0.445974
0.45503
0.451161
0.445646
0.441545
0.439438
0.437884
0.436032
0.433751
0.431138
0.428295
0.425216
0.421922
0.418372
0.414599
0.410562
0.406306
0.401788
0.397052
0.392059
0.386848
0.381393
0.375725
0.369835
0.363737
0.357454
0.350981
0.344377
0.337618
0.330799
0.323895
0.317022
0.310178
0.303488
0.296993
0.290827
0.285066
0.279862
0.275319
0.271552
0.268735
0.266758
0.265783
0.265251
0.265215
2.26691
1.01323
0.313863
0.339827
0.403402
0.446624
0.455874
0.452135
0.446795
0.442819
0.440842
0.439401
0.437688
0.435536
0.433077
0.430382
0.427479
0.424361
0.421015
0.417452
0.413662
0.409659
0.405436
0.401007
0.396368
0.391531
0.386502
0.38129
0.375913
0.370376
0.364707
0.358924
0.35306
0.347151
0.341229
0.335364
0.32959
0.324007
0.318673
0.313697
0.309189
0.305253
0.302027
0.299618
0.29817
0.29766
0.298146
0.299576
0.301222
0.302743
2.26848
1.01601
0.315815
0.340057
0.403823
0.447379
0.456856
0.453274
0.448126
0.444294
0.442448
0.441139
0.439561
0.437563
0.435256
0.432737
0.430009
0.427097
0.423959
0.420641
0.4171
0.413392
0.40947
0.405395
0.40112
0.39671
0.392122
0.387425
0.382582
0.37767
0.372659
0.367628
0.362573
0.357569
0.352651
0.347876
0.343346
0.33909
0.335284
0.331951
0.329298
0.327423
0.326494
0.326613
0.328009
0.330745
0.334603
0.339702
0.34481
0.348802
2.27015
1.01899
0.317908
0.340325
0.404315
0.448267
0.458008
0.45462
0.449672
0.446016
0.444291
0.443134
0.441691
0.439863
0.437711
0.435383
0.432836
0.430147
0.427228
0.424174
0.420897
0.417505
0.413906
0.410208
0.406329
0.402369
0.398266
0.394106
0.389858
0.385588
0.381307
0.377053
0.372892
0.368837
0.365011
0.361416
0.358213
0.355447
0.353258
0.351816
0.351188
0.35163
0.353317
0.356521
0.361432
0.368167
0.376992
0.38772
0.399461
0.410064
2.27191
1.02212
0.320113
0.340645
0.4049
0.449312
0.459365
0.456192
0.451483
0.447995
0.44641
0.445394
0.44411
0.442447
0.44048
0.438338
0.436005
0.433534
0.430871
0.428078
0.42511
0.422029
0.418802
0.415479
0.412048
0.408539
0.404976
0.401365
0.397767
0.394169
0.390665
0.387242
0.384012
0.380988
0.378285
0.375976
0.374149
0.372991
0.372563
0.37306
0.374717
0.37783
0.382748
0.389614
0.39904
0.411363
0.427052
0.447206
0.471107
0.498711
2.27369
1.0253
0.322333
0.340979
0.405581
0.450545
0.460979
0.458056
0.45363
0.450295
0.448855
0.447963
0.446851
0.445338
0.443566
0.441602
0.439496
0.437244
0.434852
0.432329
0.429685
0.426935
0.424093
0.421174
0.418202
0.415189
0.412171
0.409166
0.406216
0.403358
0.400633
0.398113
0.39583
0.393904
0.392373
0.391407
0.391042
0.391468
0.392849
0.395531
0.399732
0.405823
0.414026
0.425181
0.439747
0.459287
0.485206
0.520708
0.572072
0.665056
2.27574
1.02898
0.324808
0.34123
0.406364
0.45212
0.463104
0.460552
0.456472
0.453368
0.452087
0.451419
0.450521
0.449288
0.447764
0.446117
0.4443
0.442416
0.440373
0.438283
0.436063
0.433825
0.431496
0.429186
0.426832
0.424543
0.422272
0.420127
0.418082
0.416249
0.414626
0.413329
0.412397
0.411951
0.412089
0.412857
0.414414
0.417174
0.421362
0.427053
0.434745
0.444712
0.457983
0.474967
0.497749
0.52776
0.569755
0.631297
0.730014
0.88176
2.27792
1.03292
0.327798
0.342191
0.408098
0.454989
0.466692
0.464519
0.460754
0.457712
0.456467
0.455894
0.455151
0.454097
0.452791
0.451366
0.449835
0.448241
0.446566
0.444846
0.443079
0.441298
0.439519
0.437762
0.436068
0.434446
0.432959
0.431617
0.430505
0.429634
0.429122
0.428988
0.42935
0.43023
0.431862
0.434446
0.438157
0.443072
0.449636
0.457961
0.468756
0.482478
0.499975
0.5228
0.55197
0.591532
0.644115
0.71825
0.829236
0.967522
2.27918
1.0352
0.329649
0.343255
0.410263
0.458735
0.471415
0.469742
0.466305
0.463283
0.462075
0.461616
0.461041
0.460161
0.459047
0.457824
0.456531
0.455198
0.453827
0.452439
0.451052
0.449688
0.448377
0.44714
0.446015
0.445032
0.444238
0.443673
0.443402
0.443486
0.443942
0.444844
0.446425
0.448826
0.452046
0.456334
0.461767
0.468758
0.477373
0.488343
0.501676
0.518677
0.539402
0.565954
0.599265
0.641923
0.697618
0.768047
0.864495
0.96795
2.28032
1.03729
0.33295
0.346955
0.415129
0.465153
0.478433
0.476632
0.47285
0.469476
0.468195
0.467834
0.467424
0.466715
0.465809
0.464812
0.463806
0.462779
0.461767
0.460754
0.45979
0.458869
0.458045
0.45732
0.456753
0.45636
0.456213
0.456325
0.456741
0.457545
0.458916
0.460896
0.463544
0.467031
0.471423
0.477026
0.483865
0.492452
0.50281
0.515589
0.531086
0.54991
0.573051
0.600917
0.635545
0.677369
0.729181
0.791315
0.869233
0.950453
2.27678
1.03091
0.335152
0.356939
0.427605
0.480035
0.49358
0.4908
0.485809
0.481555
0.479888
0.479327
0.478749
0.477875
0.47681
0.475711
0.474643
0.473613
0.472633
0.471717
0.470888
0.470174
0.469593
0.46919
0.468991
0.469027
0.469297
0.469961
0.471037
0.472638
0.474731
0.477517
0.480964
0.485358
0.490671
0.497259
0.505175
0.514743
0.526287
0.539992
0.556561
0.576136
0.599692
0.627624
0.660823
0.700357
0.746623
0.801073
0.864614
0.92927
2.28267
1.02365
0.359617
0.382559
0.448665
0.498605
0.510566
0.506839
0.501109
0.496717
0.495006
0.49431
0.493606
0.492651
0.49158
0.490497
0.489458
0.488454
0.48751
0.486623
0.48584
0.48516
0.484642
0.484254
0.484117
0.484267
0.48481
0.485672
0.487059
0.488903
0.491453
0.494594
0.49868
0.503542
0.509655
0.516781
0.525548
0.535665
0.5479
0.562052
0.578845
0.598425
0.621281
0.648062
0.67891
0.7149
0.755892
0.802806
0.856068
0.909675
1.87658
0.772498
0.274012
0.34422
0.417586
0.441231
0.441249
0.437287
0.433644
0.433544
0.435721
0.438614
0.441625
0.444676
0.447827
0.451082
0.454411
0.45776
0.461106
0.464426
0.467708
0.47089
0.474034
0.477174
0.480366
0.483548
0.486836
0.490157
0.493774
0.497585
0.501879
0.506578
0.511997
0.51811
0.525214
0.533371
0.5428
0.553768
0.566285
0.580958
0.59752
0.616939
0.63871
0.66406
0.692358
0.724853
0.760878
0.801382
0.846237
0.891041
1.86909
0.77181
0.282831
0.355478
0.428214
0.447778
0.443413
0.436113
0.430435
0.428518
0.428422
0.428828
0.429433
0.430343
0.431696
0.433485
0.435752
0.438369
0.441451
0.444887
0.44878
0.452861
0.45734
0.461997
0.467029
0.472197
0.47773
0.483473
0.489554
0.495893
0.502611
0.509697
0.517241
0.525394
0.534174
0.54394
0.554527
0.566566
0.57975
0.594837
0.611485
0.630481
0.651532
0.67531
0.701663
0.731002
0.763337
0.798507
0.836943
0.874673
1.86813
0.770505
0.284957
0.365209
0.443534
0.463716
0.457635
0.448322
0.441292
0.438534
0.437623
0.437023
0.436435
0.436032
0.435944
0.436217
0.43685
0.437854
0.439389
0.44138
0.443873
0.446803
0.45032
0.454345
0.458969
0.464137
0.469856
0.476132
0.482914
0.490306
0.498171
0.506779
0.515857
0.525827
0.536236
0.547695
0.559743
0.573029
0.587192
0.60288
0.619808
0.638555
0.658979
0.681498
0.706046
0.732882
0.761946
0.793185
0.826836
0.859407
1.8696
0.77375
0.290711
0.36742
0.443612
0.464306
0.459183
0.450722
0.444125
0.441737
0.441251
0.44107
0.440854
0.440743
0.44083
0.441136
0.441723
0.442631
0.443823
0.445311
0.447117
0.449358
0.452004
0.455221
0.458913
0.463302
0.468222
0.473951
0.480233
0.487439
0.495191
0.503964
0.513269
0.523658
0.534668
0.546816
0.559725
0.573836
0.588834
0.6051
0.622465
0.641217
0.661309
0.682975
0.70617
0.73104
0.75751
0.785631
0.81545
0.844134
1.87266
0.780367
0.298335
0.361345
0.428954
0.450266
0.448076
0.442061
0.436439
0.434546
0.434574
0.435105
0.435695
0.436412
0.437309
0.438482
0.439945
0.441635
0.443512
0.445625
0.447975
0.450644
0.453609
0.456986
0.46073
0.465015
0.469739
0.475157
0.481091
0.487876
0.495258
0.503599
0.512641
0.522702
0.533577
0.545503
0.558334
0.572265
0.587212
0.603326
0.62056
0.639057
0.658711
0.679668
0.701803
0.725292
0.74992
0.775666
0.802706
0.82857
1.88124
0.786946
0.300581
0.349096
0.412047
0.4412
0.44425
0.439591
0.434444
0.432144
0.431891
0.432413
0.43313
0.43405
0.435151
0.436486
0.438087
0.439947
0.442066
0.444468
0.44715
0.450163
0.453481
0.457188
0.461234
0.465759
0.470673
0.476184
0.482151
0.488837
0.49609
0.504159
0.512935
0.522604
0.533101
0.54458
0.556968
0.5704
0.584807
0.600311
0.61684
0.634502
0.653216
0.673082
0.693999
0.716001
0.738943
0.762787
0.787627
0.811299
2.26361
1.10701
0.40796
0.399407
0.459531
0.508282
0.519619
0.514744
0.507826
0.501762
0.498232
0.49575
0.493628
0.491598
0.48956
0.487577
0.485843
0.484343
0.483186
0.482329
0.481893
0.481836
0.482285
0.483213
0.48469
0.486754
0.489438
0.4928
0.496843
0.501657
0.50722
0.513642
0.520892
0.529095
0.538199
0.548337
0.559437
0.571619
0.584806
0.599104
0.61441
0.630821
0.648214
0.666639
0.686013
0.70632
0.727466
0.749365
0.7721
0.793728
2.27304
1.12895
0.392393
0.377286
0.450133
0.510921
0.529374
0.528513
0.524291
0.520482
0.519034
0.518654
0.518631
0.518584
0.518163
0.517528
0.516848
0.51621
0.515633
0.515149
0.514773
0.514569
0.514558
0.514822
0.515397
0.51636
0.51775
0.519677
0.522138
0.525286
0.529076
0.533689
0.539053
0.54534
0.55249
0.560626
0.569734
0.579897
0.59111
0.603394
0.616782
0.631218
0.646734
0.663228
0.680676
0.699006
0.718127
0.737943
0.758522
0.778107
2.29789
1.17762
0.434943
0.384143
0.447204
0.503543
0.522063
0.523109
0.521289
0.520105
0.520524
0.521756
0.523549
0.525348
0.526755
0.527952
0.529074
0.530219
0.531365
0.532541
0.533724
0.534963
0.536251
0.537648
0.539156
0.540846
0.542738
0.544903
0.54739
0.550262
0.553591
0.557424
0.561863
0.566937
0.572765
0.579359
0.586835
0.595182
0.604497
0.614756
0.626003
0.638208
0.651399
0.665561
0.680666
0.696685
0.713519
0.731013
0.749256
0.766659
1.90088
0.805216
0.306152
0.316853
0.373941
0.414824
0.42912
0.432962
0.435795
0.439457
0.444397
0.450155
0.456601
0.46311
0.469298
0.475309
0.481285
0.487261
0.493217
0.499116
0.504949
0.5107
0.516382
0.52198
0.527522
0.532992
0.538451
0.543876
0.549354
0.55488
0.560523
0.56633
0.572364
0.578694
0.585371
0.592495
0.600093
0.608285
0.61706
0.626554
0.636723
0.647704
0.659411
0.671946
0.6852
0.699182
0.713834
0.729176
0.745212
0.760543
2.30638
1.1947
0.450248
0.386783
0.44076
0.492373
0.509407
0.509487
0.506342
0.503865
0.502605
0.502416
0.502866
0.503256
0.503574
0.504071
0.50489
0.506159
0.507851
0.510005
0.512578
0.515617
0.519081
0.523008
0.527327
0.532087
0.537179
0.542685
0.548452
0.554592
0.560983
0.567725
0.57471
0.58205
0.589645
0.597628
0.60592
0.614647
0.623753
0.633351
0.643412
0.654015
0.665151
0.676846
0.689114
0.701934
0.715319
0.729172
0.74359
0.757322
2.31161
1.20465
0.433498
0.369829
0.438462
0.500778
0.522271
0.523697
0.521477
0.520004
0.52013
0.521257
0.522984
0.524487
0.525511
0.526354
0.527186
0.528131
0.529201
0.530484
0.531989
0.533799
0.535903
0.538385
0.541231
0.544507
0.548201
0.552358
0.556972
0.56206
0.56762
0.57364
0.580124
0.58705
0.594446
0.602257
0.610531
0.619194
0.628323
0.637828
0.647806
0.658155
0.668993
0.6802
0.691891
0.70395
0.716466
0.729307
0.742595
0.755206
2.31432
1.21044
0.437651
0.371867
0.441583
0.505488
0.527903
0.529599
0.527436
0.526086
0.526557
0.528071
0.530339
0.532533
0.534252
0.53578
0.537304
0.538934
0.540662
0.542522
0.544506
0.546651
0.548969
0.551496
0.554261
0.557294
0.560632
0.564295
0.56833
0.572741
0.577581
0.582841
0.588574
0.594753
0.601427
0.608559
0.616192
0.62428
0.632857
0.641881
0.651367
0.661288
0.671637
0.682398
0.693539
0.705063
0.71691
0.729088
0.741599
0.753491
2.31725
1.21806
0.464014
0.387984
0.447185
0.506329
0.528925
0.532177
0.531303
0.530933
0.531825
0.533753
0.536288
0.538588
0.540613
0.542518
0.544473
0.546516
0.548691
0.550973
0.553402
0.555953
0.558677
0.561549
0.564625
0.567884
0.571385
0.575112
0.579124
0.583408
0.588027
0.592972
0.598296
0.603994
0.610103
0.616622
0.623574
0.630968
0.638806
0.6471
0.655827
0.665008
0.674601
0.684625
0.695023
0.705805
0.716905
0.728319
0.740071
0.751255
1.90568
0.81368
0.324931
0.323663
0.376443
0.414322
0.427199
0.430233
0.432517
0.435854
0.440622
0.446533
0.45326
0.460085
0.466801
0.473473
0.480217
0.487026
0.493903
0.500798
0.50771
0.514606
0.521498
0.528363
0.535222
0.542066
0.548917
0.555776
0.562666
0.569596
0.576588
0.583666
0.590849
0.598172
0.605646
0.613321
0.621194
0.629319
0.637688
0.646341
0.655272
0.664503
0.674023
0.683852
0.693969
0.704382
0.715066
0.72601
0.737263
0.747947
2.31231
1.20929
0.465464
0.403657
0.466332
0.527553
0.549518
0.550471
0.546337
0.542508
0.540304
0.538932
0.538335
0.537934
0.537193
0.536463
0.535887
0.535724
0.5359
0.536576
0.537679
0.539281
0.541357
0.543938
0.546995
0.550548
0.554563
0.559058
0.563984
0.569356
0.575124
0.58129
0.587807
0.59468
0.601874
0.60939
0.617202
0.625311
0.633699
0.642369
0.651313
0.660532
0.670019
0.679772
0.689774
0.700016
0.710484
0.721154
0.732087
0.742457
2.2943
1.17012
0.460493
0.422869
0.485929
0.546343
0.566256
0.566306
0.562587
0.55935
0.558595
0.559001
0.560091
0.561354
0.56223
0.562869
0.563463
0.564119
0.564855
0.565676
0.566596
0.567654
0.568901
0.570378
0.572121
0.574172
0.576551
0.579289
0.582403
0.585915
0.589828
0.594166
0.598931
0.604133
0.609766
0.61583
0.622314
0.629211
0.636505
0.644183
0.652225
0.660613
0.669326
0.678347
0.687671
0.697266
0.70713
0.717225
0.727603
0.737463
1.88788
0.805135
0.340982
0.355397
0.406345
0.443104
0.452817
0.452623
0.451672
0.452508
0.455813
0.460431
0.46597
0.472035
0.478131
0.484261
0.49049
0.496825
0.503217
0.509621
0.516001
0.522344
0.528638
0.534884
0.541075
0.547224
0.553337
0.559441
0.565553
0.571707
0.577926
0.584235
0.590662
0.597229
0.603965
0.610886
0.618016
0.625364
0.632949
0.640773
0.648856
0.65719
0.665791
0.674636
0.683725
0.693048
0.702588
0.712337
0.722333
0.731834
1.87402
0.796347
0.339669
0.356691
0.398304
0.426913
0.434821
0.43478
0.43377
0.43325
0.433971
0.435592
0.438135
0.441329
0.44481
0.448632
0.452883
0.457597
0.462759
0.468343
0.474315
0.480647
0.487299
0.494241
0.501436
0.508851
0.516452
0.524211
0.532099
0.540096
0.548182
0.556361
0.56461
0.572947
0.581352
0.589852
0.598433
0.607124
0.615921
0.62483
0.633847
0.642994
0.652267
0.661683
0.671236
0.680938
0.690784
0.700766
0.710928
0.720547
1.88891
0.8061
0.345202
0.373719
0.430965
0.466939
0.473676
0.469613
0.464517
0.461405
0.460448
0.460414
0.460998
0.461955
0.462984
0.464149
0.465569
0.467319
0.469433
0.471925
0.474816
0.478119
0.481861
0.48604
0.490669
0.495738
0.50125
0.507183
0.51353
0.520263
0.527374
0.534826
0.542609
0.550685
0.559039
0.567632
0.576454
0.585468
0.594663
0.604031
0.613563
0.623238
0.633054
0.642985
0.653038
0.66319
0.673448
0.68379
0.694284
0.704187
2.34091
1.12462
0.469327
0.447714
0.513262
0.575036
0.595695
0.595111
0.589823
0.584526
0.581522
0.579622
0.578063
0.576698
0.57515
0.573421
0.571647
0.569934
0.568314
0.566833
0.565493
0.564353
0.563418
0.562756
0.562376
0.56235
0.562675
0.56343
0.564596
0.566217
0.568322
0.570918
0.574032
0.577644
0.581782
0.586414
0.591559
0.597178
0.603284
0.609824
0.616803
0.624172
0.631916
0.640026
0.648456
0.657192
0.666193
0.675447
0.68496
0.694034
1.88938
0.807277
0.346292
0.363511
0.415827
0.456066
0.468522
0.469512
0.468949
0.468914
0.47119
0.474699
0.478899
0.483632
0.488456
0.493274
0.49812
0.503059
0.508044
0.513069
0.518071
0.523062
0.527999
0.53291
0.537764
0.542598
0.547387
0.552171
0.556956
0.561766
0.566613
0.57153
0.576516
0.581622
0.58685
0.59225
0.597814
0.603595
0.609577
0.615814
0.622279
0.62902
0.63601
0.643261
0.650761
0.658523
0.666523
0.674763
0.683256
0.691374
1.88911
0.80742
0.347588
0.364571
0.416108
0.454591
0.465035
0.463966
0.461087
0.458519
0.458043
0.458873
0.460446
0.462641
0.46505
0.46763
0.470489
0.473709
0.477295
0.481233
0.485497
0.490068
0.494927
0.500053
0.505426
0.51102
0.516815
0.522786
0.528914
0.535198
0.541614
0.548161
0.554824
0.561599
0.568475
0.575453
0.582529
0.58971
0.596994
0.604388
0.611894
0.619517
0.62726
0.635129
0.643128
0.651261
0.65953
0.667932
0.676501
0.684645
2.34288
1.12821
0.472932
0.449749
0.516492
0.580752
0.603237
0.603363
0.5983
0.593243
0.590472
0.588929
0.587813
0.586972
0.58598
0.584823
0.583602
0.58248
0.581441
0.580581
0.579832
0.579318
0.578957
0.578889
0.579029
0.579497
0.580244
0.581317
0.582727
0.584487
0.5866
0.589073
0.591898
0.595082
0.598616
0.602506
0.606739
0.611314
0.616214
0.621441
0.62697
0.632802
0.638911
0.645302
0.651942
0.65884
0.665962
0.673313
0.680886
0.688135
1.88982
0.808802
0.353537
0.381455
0.43969
0.479634
0.489585
0.487889
0.484827
0.483428
0.48484
0.487504
0.490846
0.494675
0.498573
0.502523
0.506588
0.510821
0.515191
0.519683
0.524255
0.528901
0.533595
0.538339
0.54312
0.547938
0.552789
0.557679
0.562612
0.567596
0.572636
0.577751
0.582935
0.588217
0.59359
0.599081
0.604681
0.610415
0.616274
0.622279
0.628427
0.634735
0.641198
0.647826
0.654615
0.661573
0.668692
0.675968
0.683424
0.690527
1.87524
0.799752
0.351229
0.378128
0.427526
0.459434
0.467084
0.465951
0.464266
0.463546
0.464061
0.465248
0.46714
0.469411
0.471753
0.474221
0.476919
0.479891
0.483151
0.486692
0.490508
0.49459
0.498932
0.503525
0.508358
0.513423
0.518702
0.524187
0.52986
0.535713
0.541729
0.547894
0.554209
0.560656
0.56724
0.573941
0.580769
0.587709
0.59477
0.601939
0.609222
0.616604
0.624094
0.631685
0.639382
0.647177
0.655077
0.663075
0.671212
0.67892
1.87422
0.79938
0.351741
0.375374
0.42243
0.454093
0.462309
0.461844
0.460721
0.460096
0.460356
0.461171
0.462646
0.46447
0.466307
0.468197
0.470242
0.472485
0.474946
0.477623
0.480528
0.483663
0.487041
0.490659
0.494528
0.498644
0.503012
0.507628
0.512496
0.517607
0.522963
0.528557
0.534385
0.540436
0.546705
0.55318
0.559855
0.566716
0.573758
0.580973
0.588353
0.595895
0.603588
0.611425
0.619392
0.627487
0.635708
0.644059
0.652557
0.660633
1.88906
0.809136
0.354935
0.362685
0.413311
0.452103
0.463041
0.462623
0.460828
0.459577
0.459605
0.460406
0.461941
0.463832
0.465653
0.467447
0.469357
0.471435
0.473711
0.476172
0.478829
0.481673
0.48472
0.487963
0.491414
0.495068
0.498937
0.503014
0.50731
0.51182
0.516551
0.5215
0.52667
0.532059
0.537666
0.543492
0.54953
0.555783
0.562239
0.568904
0.575759
0.582812
0.590039
0.597455
0.60504
0.612805
0.620721
0.628798
0.637036
0.644882
2.31239
1.20481
0.48554
0.431526
0.492619
0.556863
0.582872
0.586379
0.583722
0.580999
0.579717
0.579407
0.579906
0.580741
0.58129
0.581584
0.581824
0.582107
0.582488
0.582954
0.583521
0.58418
0.584955
0.585844
0.586868
0.588028
0.589343
0.590813
0.592457
0.594275
0.596285
0.598488
0.600897
0.603517
0.606356
0.609419
0.612712
0.61624
0.620006
0.624013
0.628262
0.632755
0.637491
0.642469
0.64769
0.653144
0.658826
0.664722
0.670853
0.676753
2.32261
1.22892
0.466215
0.405403
0.481478
0.557553
0.588732
0.593417
0.590788
0.58793
0.586946
0.587404
0.588702
0.590525
0.592216
0.593621
0.59496
0.59638
0.597941
0.599627
0.601437
0.603354
0.605388
0.607532
0.609799
0.612178
0.614684
0.617307
0.62006
0.622935
0.625944
0.62908
0.632357
0.635767
0.639323
0.643018
0.646866
0.65086
0.655013
0.659318
0.663787
0.668413
0.67321
0.67817
0.683301
0.688594
0.694054
0.69967
0.705462
0.710997
2.31277
1.20628
0.486753
0.43258
0.494376
0.559835
0.586904
0.591061
0.589015
0.58691
0.586345
0.587006
0.588522
0.59052
0.592326
0.593926
0.595507
0.597196
0.599032
0.601012
0.603129
0.605379
0.607764
0.610286
0.61295
0.615755
0.618705
0.621799
0.62504
0.628426
0.631961
0.635643
0.639475
0.643455
0.647585
0.651864
0.656293
0.660871
0.6656
0.670477
0.675504
0.680679
0.686004
0.691475
0.697093
0.702857
0.708763
0.714811
0.72102
0.726955
1.88895
0.809178
0.356109
0.364319
0.416388
0.457
0.469091
0.469097
0.467494
0.466469
0.467096
0.468707
0.471173
0.474121
0.47704
0.479997
0.483091
0.486413
0.489946
0.493704
0.497653
0.501808
0.506142
0.510672
0.515375
0.520264
0.525317
0.530545
0.535929
0.541476
0.547171
0.553019
0.559008
0.56514
0.571405
0.577805
0.584331
0.590983
0.597755
0.604646
0.611653
0.618772
0.626002
0.633337
0.640776
0.648316
0.655959
0.663702
0.671585
0.67908
1.87418
0.800009
0.355331
0.38049
0.428586
0.460127
0.467644
0.466474
0.464728
0.463845
0.464054
0.464898
0.466428
0.468308
0.470126
0.471972
0.473919
0.476051
0.478343
0.48083
0.483476
0.486318
0.489329
0.49254
0.495927
0.49952
0.503297
0.50728
0.511453
0.51583
0.520401
0.525173
0.530141
0.535306
0.540667
0.546218
0.551963
0.55789
0.564008
0.570299
0.576776
0.583416
0.590235
0.597207
0.604348
0.611632
0.619077
0.626655
0.634409
0.641781
1.87703
0.80311
0.359416
0.395166
0.451564
0.484566
0.49049
0.486958
0.482772
0.480826
0.480809
0.481604
0.483005
0.484677
0.486265
0.48789
0.489621
0.491534
0.493595
0.495832
0.49821
0.500761
0.50346
0.506335
0.509364
0.512573
0.515943
0.519492
0.523211
0.527108
0.531181
0.535431
0.539862
0.544467
0.549258
0.554219
0.559369
0.564686
0.570193
0.575862
0.581719
0.587734
0.593934
0.600287
0.606819
0.613497
0.620348
0.627334
0.634498
0.64131
1.19226
1.05125
0.499546
0.190877
0.00869752
0.108435
0.159048
0.207547
0.229295
0.233829
0.222369
0.211
0.200726
0.191157
0.179092
0.164619
0.147269
0.127334
0.105497
0.082362
0.0585239
0.0348416
0.0156349
0.0237295
0.0475103
0.071883
0.0960345
0.119765
0.143137
0.166077
0.188631
0.210734
0.232429
0.2536
0.273669
0.2928
0.312386
0.332798
0.352827
0.372041
0.390621
0.408666
0.426261
0.443374
0.460032
0.476204
0.491906
0.507118
0.52185
0.536079
0.549816
0.563032
0.575735
0.587889
0.599501
0.610523
0.620964
0.630763
0.63993
0.648395
0.656171
0.663179
0.669435
0.674857
0.679472
0.683202
0.686094
0.68809
0.689275
0.689654
0.689642
0.689364
0.688517
0.686594
0.683614
0.680143
0.676588
0.673003
0.669426
0.665937
0.662613
0.659565
0.656832
0.654499
0.652559
0.651067
0.649979
0.649315
0.649033
0.649098
0.649354
0.649765
0.650441
0.651574
0.653062
0.654679
0.656319
0.658047
0.659712
0.664464
1.12274
1.03754
0.808025
0.550975
0.503787
0.432383
0.381984
0.340978
0.310489
0.291918
0.260906
0.230861
0.21141
0.209752
0.216872
0.227461
0.239959
0.253946
0.269116
0.285036
0.301465
0.31799
0.334357
0.350608
0.367402
0.384448
0.401666
0.418818
0.435972
0.452954
0.469855
0.486536
0.503076
0.519367
0.535062
0.550031
0.565064
0.580835
0.596751
0.612033
0.626807
0.641234
0.655379
0.669212
0.68274
0.695919
0.708774
0.721258
0.733403
0.745162
0.756561
0.76755
0.778149
0.788312
0.798046
0.807305
0.816088
0.824351
0.83208
0.839238
0.8458
0.851732
0.857006
0.861592
0.865464
0.8686
0.870986
0.872622
0.873506
0.873767
0.873632
0.873219
0.872297
0.870465
0.867693
0.864433
0.86103
0.857612
0.854214
0.850937
0.84782
0.844988
0.842451
0.840314
0.838542
0.83721
0.836248
0.835719
0.835536
0.835652
0.835923
0.836338
0.836956
0.837967
0.839247
0.840678
0.84208
0.843555
0.84477
0.848565
1.07531
1.07672
1.00933
0.901412
0.832332
0.782366
0.746309
0.71615
0.691295
0.67324
0.658331
0.644123
0.63406
0.629033
0.627558
0.627902
0.629545
0.632084
0.635592
0.639978
0.645187
0.65105
0.657476
0.664378
0.671976
0.680186
0.68898
0.698162
0.707751
0.717569
0.727695
0.737952
0.748456
0.759009
0.769406
0.779354
0.789435
0.800224
0.8116
0.822717
0.83354
0.844186
0.854719
0.865153
0.875452
0.885611
0.895585
0.905383
0.914959
0.924328
0.93344
0.942312
0.950887
0.959186
0.967141
0.974774
0.982014
0.98888
0.995297
1.00128
1.00676
1.01174
1.01615
1.02
1.02323
1.02585
1.02781
1.02912
1.02976
1.02986
1.02964
1.02915
1.02819
1.02646
1.02388
1.0209
1.0177
1.0145
1.01131
1.00827
1.00539
1.00279
1.00048
0.998543
0.996962
0.99578
0.994961