/*--------------------------------*- C++ -*----------------------------------*\
| =========                 |                                                 |
| \\      /  F ield         | OpenFOAM: The Open Source CFD Toolbox           |
|  \\    /   O peration     | Version:  2412                                  |
|   \\  /    A nd           | Website:  www.openfoam.com                      |
|    \\/     M anipulation  |                                                 |
\*---------------------------------------------------------------------------*/
FoamFile
{
    version     2.0;
    format      ascii;
    arch        "LSB;label=32;scalar=64";
    class       volScalarField;
    location    "16";
    object      p;
}
// * * * * * * * * * * * * * * * * * * * * * * * * * * * * * * * * * * * * * //

dimensions      [1 -1 -2 0 0 0 0];

internalField   nonuniform List<scalar> 
7000
(
1.63832
3.74982
11.4391
11.5234
11.0935
10.6831
10.564
10.5785
10.6195
10.6593
10.6811
10.6949
10.7095
10.7272
10.7476
10.7698
10.7937
10.8192
10.8464
10.8755
10.9064
10.9391
10.9737
11.0101
11.0484
11.0885
11.1305
11.1742
11.2197
11.2668
11.3155
11.3657
11.4172
11.4698
11.5234
11.5777
11.6324
11.687
11.7413
11.7947
11.8468
11.8969
11.9444
11.9886
12.0289
12.0645
12.0948
12.1193
12.137
12.1499
1.63863
3.74853
11.4386
11.5228
11.093
10.6828
10.5636
10.5782
10.6191
10.6589
10.6807
10.6945
10.709
10.7267
10.747
10.7693
10.7931
10.8186
10.8458
10.8748
10.9057
10.9384
10.9729
11.0093
11.0476
11.0877
11.1296
11.1733
11.2187
11.2658
11.3144
11.3646
11.4161
11.4687
11.5223
11.5765
11.6312
11.6859
11.7402
11.7936
11.8457
11.8959
11.9435
11.9878
12.0282
12.0639
12.0944
12.119
12.1367
12.1497
1.63852
3.7476
11.4367
11.522
11.0923
10.6821
10.5629
10.5775
10.6183
10.658
10.6797
10.6934
10.7079
10.7256
10.7459
10.768
10.7918
10.8172
10.8443
10.8733
10.9041
10.9367
10.9712
11.0075
11.0456
11.0856
11.1274
11.1709
11.2162
11.2632
11.3117
11.3617
11.413
11.4655
11.5189
11.5731
11.6276
11.6821
11.7363
11.7897
11.8417
11.8918
11.9393
11.9836
12.024
12.0598
12.0902
12.1149
12.1325
12.1454
1.6384
3.74632
11.4334
11.5209
11.0914
10.6809
10.5618
10.5763
10.617
10.6565
10.6781
10.6918
10.7062
10.7238
10.744
10.7661
10.7897
10.815
10.8421
10.8709
10.9015
10.934
10.9683
11.0045
11.0425
11.0823
11.1239
11.1672
11.2123
11.259
11.3073
11.3571
11.4082
11.4604
11.5136
11.5675
11.6217
11.6761
11.7301
11.7832
11.8351
11.885
11.9325
11.9767
12.017
12.0527
12.0832
12.1078
12.1253
12.1382
1.63822
3.74446
11.4287
11.5195
11.0901
10.6793
10.5601
10.5745
10.6152
10.6545
10.676
10.6895
10.7038
10.7213
10.7414
10.7633
10.7868
10.8119
10.8388
10.8675
10.8979
10.9302
10.9643
11.0002
11.038
11.0775
11.1188
11.1619
11.2067
11.2531
11.3011
11.3505
11.4012
11.4531
11.5059
11.5594
11.6133
11.6673
11.721
11.7738
11.8254
11.8751
11.9224
11.9665
12.0068
12.0425
12.0729
12.0976
12.115
12.1279
1.63801
3.74195
11.4224
11.5177
11.0884
10.6772
10.5578
10.5722
10.6127
10.6518
10.6731
10.6865
10.7006
10.7179
10.7379
10.7596
10.7829
10.8079
10.8345
10.863
10.8932
10.9252
10.959
10.9946
11.032
11.0712
11.1122
11.1549
11.1993
11.2452
11.2928
11.3417
11.3919
11.4433
11.4956
11.5486
11.602
11.6555
11.7087
11.7611
11.8123
11.8617
11.9087
11.9526
11.9928
12.0284
12.0588
12.0835
12.1009
12.1139
1.63774
3.73873
11.4145
11.5154
11.0864
10.6746
10.5549
10.5692
10.6096
10.6484
10.6695
10.6827
10.6966
10.7137
10.7334
10.755
10.778
10.8027
10.8291
10.8572
10.8871
10.9188
10.9523
10.9875
11.0245
11.0633
11.1037
11.1459
11.1898
11.2352
11.2821
11.3305
11.3801
11.4308
11.4824
11.5347
11.5875
11.6403
11.6929
11.7447
11.7954
11.8443
11.8909
11.9345
11.9744
12.0099
12.0403
12.065
12.0824
12.0957
1.63743
3.73476
11.4049
11.5127
11.0839
10.6714
10.5513
10.5656
10.6057
10.6442
10.665
10.6779
10.6917
10.7085
10.728
10.7492
10.772
10.7964
10.8224
10.8502
10.8797
10.911
10.944
10.9787
11.0152
11.0534
11.0933
11.1349
11.1781
11.2228
11.269
11.3166
11.3654
11.4152
11.466
11.5175
11.5694
11.6213
11.6731
11.7241
11.7741
11.8223
11.8684
11.9115
11.9511
11.9864
12.0166
12.0413
12.0588
12.0723
1.63706
3.72998
11.3934
11.5094
11.0809
10.6676
10.547
10.5611
10.6009
10.6392
10.6596
10.6723
10.6857
10.7023
10.7214
10.7423
10.7647
10.7887
10.8143
10.8417
10.8707
10.9015
10.934
10.9681
11.004
11.0416
11.0808
11.1216
11.1639
11.2078
11.2531
11.2997
11.3475
11.3964
11.4461
11.4965
11.5473
11.5982
11.6488
11.6989
11.7478
11.7952
11.8405
11.8829
11.922
11.9569
11.987
12.0117
12.0291
12.043
1.63664
3.72434
11.3798
11.5056
11.0774
10.6631
10.5419
10.5558
10.5953
10.6331
10.6532
10.6655
10.6786
10.6948
10.7136
10.7341
10.7561
10.7796
10.8047
10.8316
10.8601
10.8903
10.9221
10.9556
10.9907
11.0275
11.0658
11.1057
11.1472
11.19
11.2342
11.2797
11.3263
11.3739
11.4223
11.4714
11.5208
11.5703
11.6196
11.6683
11.716
11.7621
11.8063
11.8479
11.8862
11.9206
11.9503
11.9749
11.9923
12.0065
1.63615
3.71779
11.3642
11.5011
11.0733
10.6578
10.5359
10.5496
10.5887
10.6261
10.6457
10.6576
10.6703
10.6861
10.7044
10.7244
10.7459
10.7689
10.7935
10.8198
10.8476
10.8771
10.9082
10.9409
10.9752
11.011
11.0484
11.0872
11.1275
11.1691
11.2121
11.2562
11.3013
11.3474
11.3943
11.4417
11.4894
11.5372
11.5848
11.6317
11.6778
11.7223
11.765
11.8052
11.8424
11.8759
11.905
11.9293
11.9467
11.9614
1.6356
3.7103
11.3463
11.4959
11.0686
10.6518
10.529
10.5425
10.581
10.6178
10.637
10.6485
10.6607
10.676
10.6938
10.7133
10.7342
10.7566
10.7806
10.8061
10.8332
10.8619
10.8921
10.9239
10.9572
10.992
11.0282
11.0658
11.1047
11.1449
11.1863
11.2288
11.2723
11.3166
11.3615
11.407
11.4526
11.4983
11.5437
11.5885
11.6323
11.6747
11.7153
11.7537
11.7892
11.8213
11.8494
11.8732
11.8903
11.9054
1.63499
3.70181
11.3261
11.49
11.0632
10.645
10.5211
10.5342
10.5721
10.6083
10.627
10.6379
10.6496
10.6644
10.6816
10.7005
10.7208
10.7425
10.7657
10.7905
10.8167
10.8445
10.8738
10.9045
10.9366
10.9701
11.005
11.0412
11.0786
11.1171
11.1568
11.1974
11.2388
11.281
11.3237
11.3667
11.4099
11.4529
11.4956
11.5375
11.5785
11.6181
11.6559
11.6916
11.7246
11.7546
11.7809
11.8036
11.8201
11.8358
1.63434
3.69227
11.3036
11.4832
11.057
10.6373
10.5121
10.5248
10.5619
10.5975
10.6155
10.6259
10.637
10.6511
10.6677
10.6859
10.7055
10.7264
10.7488
10.7727
10.798
10.8247
10.8528
10.8823
10.9132
10.9453
10.9786
11.0132
11.0488
11.0855
11.1231
11.1615
11.2006
11.2403
11.2803
11.3204
11.3605
11.4004
11.4396
11.4781
11.5153
11.5511
11.5851
11.6169
11.6462
11.6729
11.6964
11.717
11.7323
11.7482
1.63362
3.68172
11.2787
11.4756
11.05
10.6287
10.5019
10.5141
10.5503
10.5851
10.6025
10.6122
10.6227
10.6361
10.6519
10.6694
10.6881
10.7082
10.7297
10.7526
10.7768
10.8024
10.8293
10.8574
10.8868
10.9173
10.9489
10.9816
11.0152
11.0497
11.085
11.1209
11.1573
11.194
11.2308
11.2676
11.304
11.3399
11.375
11.409
11.4415
11.4722
11.5009
11.5272
11.5511
11.5723
11.5909
11.6076
11.6204
11.6366
1.63283
3.67019
11.2514
11.4673
11.0424
10.6191
10.4903
10.502
10.5371
10.571
10.5877
10.5967
10.6065
10.6191
10.6342
10.6508
10.6687
10.6878
10.7083
10.73
10.7531
10.7774
10.8028
10.8295
10.8572
10.8859
10.9156
10.9462
10.9776
11.0096
11.0422
11.0752
11.1085
11.1418
11.1749
11.2077
11.2398
11.2709
11.3008
11.3291
11.3555
11.3796
11.401
11.4196
11.4353
11.4482
11.4586
11.4681
11.4754
11.4902
1.63198
3.65773
11.2217
11.4582
11.0341
10.6083
10.4774
10.4883
10.5222
10.5552
10.5711
10.5793
10.5883
10.6001
10.6143
10.63
10.6469
10.665
10.6843
10.7049
10.7266
10.7495
10.7734
10.7984
10.8243
10.851
10.8786
10.9068
10.9357
10.9649
10.9945
11.0242
11.0539
11.0833
11.1122
11.1402
11.1672
11.1927
11.2163
11.2376
11.2562
11.2715
11.2831
11.2909
11.294
11.2934
11.2899
11.2856
11.2817
11.2923
1.63109
3.64446
11.1901
11.4485
11.0249
10.5964
10.4628
10.473
10.5053
10.5372
10.5523
10.5598
10.5678
10.5788
10.592
10.6067
10.6226
10.6396
10.6577
10.677
10.6973
10.7186
10.7408
10.7639
10.7878
10.8124
10.8376
10.8633
10.8893
10.9155
10.9417
10.9677
10.9934
11.0183
11.0423
11.0649
11.0858
11.1046
11.1206
11.1333
11.1422
11.146
11.1445
11.1375
11.1226
11.1007
11.0729
11.0421
11.012
11.0082
1.63017
3.63055
11.157
11.438
11.015
10.5832
10.4464
10.4557
10.4863
10.517
10.5313
10.538
10.5452
10.5552
10.5674
10.5811
10.5958
10.6116
10.6284
10.6462
10.665
10.6846
10.705
10.7261
10.7478
10.77
10.7926
10.8154
10.8383
10.8611
10.8836
10.9056
10.9267
10.9467
10.9651
10.9816
10.9956
11.0064
11.0135
11.0155
11.0127
11.0032
10.9839
10.9548
10.914
10.8598
10.7905
10.7086
10.6181
10.5626
1.62931
3.616
11.1231
11.427
11.0042
10.5683
10.4278
10.4359
10.4644
10.494
10.5074
10.5133
10.5196
10.5287
10.5399
10.5525
10.5661
10.5806
10.596
10.6123
10.6294
10.6472
10.6657
10.6846
10.7039
10.7235
10.7433
10.763
10.7825
10.8016
10.82
10.8375
10.8536
10.868
10.8803
10.8898
10.896
10.8975
10.8948
10.8859
10.8674
10.8392
10.7984
10.7421
10.6653
10.5622
10.4243
10.2433
10.0096
9.75503
1.62857
3.59773
11.0829
11.4139
10.9905
10.549
10.403
10.4095
10.4353
10.4635
10.4762
10.4812
10.4863
10.4941
10.504
10.5152
10.5273
10.5402
10.5539
10.5682
10.5832
10.5987
10.6146
10.6308
10.6471
10.6635
10.6796
10.6954
10.7107
10.725
10.7382
10.7499
10.7597
10.7671
10.7713
10.7712
10.7684
10.7596
10.7417
10.7149
10.6772
10.6251
10.5544
10.4583
10.3274
10.145
9.88194
9.47673
8.77834
7.25604
1.62779
3.57843
11.0403
11.3967
10.9714
10.5208
10.3668
10.3714
10.3939
10.4214
10.4339
10.4383
10.4426
10.4492
10.4578
10.4676
10.4781
10.4892
10.5009
10.513
10.5255
10.5383
10.5512
10.5641
10.5769
10.5893
10.6012
10.6123
10.6224
10.6311
10.6381
10.6429
10.6448
10.6439
10.6397
10.6299
10.6129
10.5885
10.5548
10.5092
10.4486
10.3684
10.262
10.1197
9.92659
9.6589
9.27501
8.70597
7.86347
6.47661
1.62734
3.56734
11.0158
11.3852
10.956
10.4925
10.3278
10.3299
10.3487
10.3759
10.3884
10.3922
10.3953
10.4006
10.4079
10.4162
10.425
10.4342
10.4438
10.4536
10.4636
10.4736
10.4834
10.4929
10.502
10.5104
10.5179
10.5241
10.5289
10.5318
10.5321
10.5306
10.5258
10.5157
10.5003
10.4789
10.45
10.4119
10.3623
10.2983
10.2159
10.1101
9.97273
9.79398
9.55861
9.24535
8.82498
8.25724
7.52511
6.55166
1.62672
3.55828
10.9928
11.364
10.9281
10.4472
10.273
10.2751
10.2953
10.326
10.34
10.3435
10.3458
10.3501
10.3563
10.3634
10.3707
10.3781
10.3856
10.3931
10.4005
10.4077
10.4144
10.4205
10.4259
10.4303
10.4334
10.4348
10.4344
10.4323
10.4272
10.4177
10.4043
10.3861
10.3619
10.3307
10.2908
10.2404
10.177
10.0976
9.99818
9.87362
9.71712
9.51986
9.27072
8.95584
8.56061
8.06928
7.48855
6.75894
1.62731
3.59315
11.0544
11.3613
10.901
10.3819
10.1962
10.2013
10.2294
10.2672
10.2837
10.2873
10.289
10.2927
10.2983
10.3045
10.3107
10.3166
10.3223
10.3278
10.3329
10.3375
10.3415
10.3445
10.3466
10.3471
10.3464
10.3442
10.3391
10.3309
10.3196
10.3044
10.2845
10.2594
10.2275
10.1879
10.1388
10.0786
10.0047
9.91439
9.80414
9.66955
9.50531
9.30509
9.06161
8.76712
8.41436
7.99614
7.5149
6.96334
1.58953
3.70417
11.0599
11.2699
10.8201
10.3006
10.1272
10.1371
10.1734
10.2134
10.2299
10.2337
10.2358
10.2395
10.2443
10.2493
10.2538
10.2579
10.2615
10.2647
10.2672
10.269
10.2698
10.2697
10.2686
10.2658
10.2606
10.2534
10.2436
10.2307
10.2143
10.1937
10.1682
10.1368
10.0986
10.0521
9.99614
9.92873
9.84791
9.75119
9.63566
9.4979
9.33405
9.13975
8.91059
8.64207
8.33087
7.9743
7.57435
7.12629
1.55378
4.81308
11.2127
10.9467
10.3095
10.0517
10.0462
10.0726
10.12
10.1466
10.1564
10.1606
10.1649
10.17
10.1752
10.1798
10.1837
10.1869
10.1894
10.191
10.1916
10.1914
10.1905
10.1881
10.1836
10.1777
10.17
10.1599
10.1469
10.1305
10.11
10.085
10.0549
10.0187
9.97545
9.92408
9.86329
9.7915
9.70692
9.60752
9.491
9.3548
9.19617
9.01222
8.80024
8.55778
8.28339
7.97704
7.64008
7.26524
1.55474
4.82035
11.1631
10.8776
10.2366
9.99659
10.0062
10.048
10.0965
10.1184
10.1246
10.1271
10.1302
10.1335
10.1361
10.1377
10.1385
10.1384
10.1378
10.136
10.133
10.1291
10.1242
10.118
10.1101
10.1002
10.088
10.0733
10.0559
10.0351
10.0108
9.98218
9.94848
9.90863
9.8617
9.80684
9.74284
9.66844
9.58226
9.48264
9.36785
9.23599
9.08513
8.91333
8.71898
8.50064
8.25761
7.98938
7.70224
7.38588
1.56496
4.8395
11.2261
10.8978
10.1805
9.91927
9.93387
9.98784
10.0452
10.0699
10.0764
10.0791
10.0825
10.0859
10.0883
10.0893
10.0892
10.0883
10.086
10.0819
10.0768
10.0705
10.0629
10.0536
10.0424
10.0292
10.0137
9.99562
9.97469
9.95047
9.92229
9.88953
9.85161
9.80813
9.75836
9.70126
9.63589
9.56082
9.47486
9.37674
9.26531
9.13907
8.99685
8.83732
8.65951
8.46272
8.24729
8.01294
7.76361
7.49291
1.55533
4.81789
11.1506
10.8462
10.1564
9.89457
9.90619
9.95475
10.011
10.0354
10.0412
10.0427
10.0447
10.0466
10.0474
10.047
10.0454
10.0421
10.0373
10.0314
10.0244
10.016
10.0059
9.99411
9.98033
9.96438
9.94596
9.92491
9.90081
9.87336
9.842
9.80636
9.7659
9.71994
9.66785
9.60872
9.54182
9.46635
9.38149
9.28616
9.17942
9.06003
8.92698
8.77947
8.61718
8.44007
8.2483
8.04132
7.82273
7.58777
1.52615
4.76053
10.9434
10.7216
10.1477
9.89924
9.89976
9.92856
9.97723
10.0007
10.0065
10.0073
10.008
10.0083
10.0079
10.0062
10.0027
9.99758
9.99139
9.98403
9.97524
9.96489
9.95278
9.93882
9.92275
9.9045
9.8837
9.86023
9.83363
9.8037
9.77
9.73211
9.68959
9.64183
9.58836
9.5285
9.46162
9.38697
9.30387
9.21146
9.10895
8.99579
8.87145
8.73547
8.58734
8.42677
8.25385
8.07075
7.87788
7.6717
1.51011
4.71512
10.8604
10.727
10.2312
9.93806
9.88556
9.90374
9.94303
9.96725
9.9741
9.97386
9.97275
9.9705
9.96763
9.96384
9.95879
9.95247
9.94486
9.93592
9.92547
9.91342
9.89958
9.88388
9.86607
9.84603
9.82342
9.79813
9.76975
9.73805
9.70271
9.6633
9.61953
9.57087
9.51682
9.45691
9.39063
9.31743
9.23673
9.14789
9.05039
8.94373
8.82753
8.70145
8.56537
8.41939
8.26383
8.09938
7.92726
7.7445
1.66762
3.28936
10.4973
11.0094
10.5943
10.0742
9.88548
9.88932
9.91443
9.94755
9.95836
9.95722
9.95332
9.94701
9.9412
9.93532
9.92845
9.92023
9.91062
9.89958
9.88706
9.87288
9.85689
9.83911
9.81926
9.79715
9.77251
9.7452
9.71489
9.68138
9.64435
9.60347
9.55836
9.50866
9.45398
9.39397
9.32829
9.25649
9.17811
9.09275
8.99991
8.89928
8.79061
8.67363
8.54837
8.41493
8.27365
8.125
7.97016
7.80663
1.67555
3.16572
10.4315
11.1618
10.7137
10.1093
9.86397
9.85088
9.86859
9.90079
9.91127
9.90942
9.90346
9.89415
9.88655
9.88005
9.87314
9.86497
9.85534
9.84424
9.83159
9.81728
9.80116
9.78305
9.76281
9.74026
9.71512
9.68728
9.65639
9.62234
9.5848
9.54357
9.49839
9.44898
9.39509
9.3363
9.27222
9.20248
9.1268
9.04475
8.9561
8.86068
8.75847
8.64961
8.53391
8.41145
8.28243
8.14728
8.00698
7.85942
1.64087
3.05124
9.90308
11.0054
10.6461
10.1069
9.88344
9.86239
9.87334
9.89166
9.89334
9.8894
9.87928
9.86595
9.85481
9.84514
9.83537
9.82465
9.81271
9.79951
9.78497
9.76897
9.75133
9.73187
9.71042
9.68681
9.66084
9.63226
9.6008
9.56629
9.52855
9.48734
9.44241
9.39349
9.34032
9.28259
9.22002
9.15236
9.07938
9.00095
8.91698
8.82726
8.73157
8.62977
8.52176
8.4079
8.28903
8.16547
8.03769
7.90373
1.43503
4.54748
10.3293
10.5082
10.2162
9.92189
9.81395
9.81128
9.81954
9.83005
9.82997
9.82645
9.81744
9.80551
9.79528
9.78618
9.77672
9.76614
9.75427
9.74111
9.72659
9.71056
9.69288
9.67335
9.65186
9.62821
9.60226
9.57373
9.54247
9.50837
9.47119
9.43067
9.38662
9.33882
9.28704
9.23106
9.17066
9.10565
9.03588
8.9612
8.88148
8.79662
8.70654
8.61124
8.51115
8.40634
8.29671
8.18248
8.06466
7.94178
1.63322
3.00005
9.71866
10.8934
10.5792
10.0788
9.85901
9.82457
9.8299
9.83639
9.83364
9.82451
9.80785
9.79207
9.77849
9.76595
9.75316
9.73936
9.72436
9.70829
9.69113
9.67267
9.65272
9.63113
9.60772
9.58237
9.5549
9.52526
9.49331
9.45871
9.42126
9.38076
9.33705
9.28999
9.23934
9.18489
9.12645
9.06387
8.997
8.92572
8.84994
8.76964
8.68481
8.59549
8.50183
8.40395
8.30199
8.19635
8.08763
7.97457
1.6421
2.93208
9.72048
11.0188
10.638
10.0466
9.78902
9.75535
9.7655
9.78119
9.78012
9.77302
9.75712
9.74004
9.72622
9.71411
9.70189
9.68882
9.67473
9.65939
9.64265
9.62447
9.60475
9.58336
9.56019
9.53508
9.50788
9.47845
9.44664
9.41229
9.37525
9.33538
9.29251
9.2464
9.19693
9.14398
9.08744
9.02718
8.96309
8.89509
8.82313
8.74713
8.66711
8.58312
8.49524
8.40362
8.30843
8.21016
8.10922
8.00435
1.64042
2.91291
9.66633
10.9974
10.613
10.0067
9.73974
9.70447
9.7156
9.73397
9.73348
9.72727
9.71235
9.69475
9.68064
9.6686
9.65654
9.6435
9.62926
9.61374
9.59689
9.57862
9.55884
9.53743
9.51426
9.4892
9.46212
9.43289
9.4014
9.36749
9.33104
9.29191
9.24997
9.20505
9.15704
9.10582
9.05131
8.99344
8.93212
8.86727
8.79886
8.72684
8.65123
8.5721
8.48955
8.40373
8.31474
8.2229
8.12867
8.03091
1.62607
2.9218
9.49904
10.8564
10.5472
9.99625
9.7404
9.69231
9.69698
9.70528
9.70297
9.69445
9.67728
9.66058
9.64627
9.6332
9.62001
9.60599
9.59091
9.57469
9.55726
9.53851
9.51833
9.4966
9.4732
9.44801
9.4209
9.39176
9.36048
9.32694
9.29099
9.25252
9.21141
9.16759
9.12097
9.07147
9.01897
8.96337
8.90462
8.84269
8.77755
8.70918
8.63759
8.56286
8.48506
8.40433
8.32092
8.2349
8.14658
8.05493
1.39355
4.4807
10.0306
10.3015
10.0212
9.7337
9.62585
9.61672
9.62212
9.6287
9.62764
9.62244
9.61115
9.59847
9.58704
9.57621
9.56488
9.55246
9.53876
9.52373
9.50735
9.48954
9.47023
9.44933
9.42676
9.40239
9.37612
9.34786
9.31751
9.285
9.25021
9.21303
9.17338
9.13119
9.08636
9.03882
8.98848
8.93527
8.87918
8.82017
8.75825
8.69345
8.62574
8.55516
8.48176
8.40565
8.32699
8.24589
8.16271
8.07646
1.63133
2.94569
9.58711
10.8403
10.4968
9.90779
9.6341
9.59157
9.60185
9.62232
9.62394
9.61928
9.60692
9.58963
9.57473
9.56163
9.54843
9.5342
9.51866
9.50178
9.48368
9.46418
9.4433
9.42104
9.39735
9.37209
9.34511
9.31631
9.28557
9.25281
9.21801
9.18112
9.14209
9.10078
9.05714
9.01105
8.96246
8.91132
8.85757
8.80113
8.742
8.68017
8.61566
8.54855
8.47893
8.4069
8.33259
8.25608
8.17759
8.0962
1.64156
3.07576
9.86133
10.7723
10.3902
9.77824
9.5161
9.49585
9.51317
9.54602
9.55553
9.55288
9.54454
9.53034
9.51788
9.50703
9.49598
9.48371
9.46997
9.45486
9.43851
9.4209
9.40179
9.38106
9.35861
9.33442
9.30847
9.28073
9.25112
9.21962
9.18615
9.15062
9.11295
9.07306
9.03091
8.98643
8.93959
8.89033
8.83864
8.7845
8.72792
8.66894
8.60758
8.54379
8.47766
8.40926
8.33868
8.26604
8.19155
8.11433
1.40384
4.54485
10.1004
10.1568
9.85141
9.54409
9.44462
9.44994
9.46935
9.48934
9.49509
9.49358
9.48856
9.47913
9.46981
9.46076
9.45101
9.43992
9.42736
9.41335
9.39791
9.38102
9.36257
9.3425
9.32077
9.29737
9.27226
9.24539
9.21668
9.1861
9.15363
9.11923
9.08283
9.04436
9.00378
8.96104
8.9161
8.86892
8.8195
8.7678
8.71382
8.65755
8.59904
8.53837
8.47555
8.41065
8.34372
8.27481
8.20411
8.1308
1.38783
4.5547
9.99716
10.023
9.78149
9.54963
9.46736
9.46463
9.47076
9.48015
9.48185
9.47979
9.47386
9.46385
9.45357
9.44317
9.43198
9.4196
9.40593
9.39097
9.37471
9.35714
9.3382
9.31783
9.29596
9.27254
9.24754
9.2209
9.1926
9.16257
9.13073
9.09703
9.0614
9.02381
8.98421
8.94257
8.89883
8.85297
8.80506
8.75517
8.70326
8.64925
8.59315
8.535
8.47481
8.41261
8.34849
8.28257
8.21501
8.14504
1.42107
4.56817
10.2095
10.1799
9.79663
9.46109
9.36786
9.37986
9.41116
9.4357
9.44265
9.44129
9.43669
9.42811
9.41917
9.41006
9.40011
9.38884
9.3761
9.36191
9.34629
9.3292
9.31063
9.29059
9.26905
9.24596
9.22131
9.19505
9.16717
9.13763
9.10638
9.07335
9.03852
9.00188
8.96343
8.92313
8.88098
8.837
8.79106
8.7431
8.69314
8.64122
8.58739
8.53165
8.47401
8.41453
8.35325
8.29024
8.2256
8.15849
1.53211
3.35111
9.88541
10.7052
10.3179
9.67556
9.39136
9.36538
9.38303
9.41893
9.43316
9.43214
9.42751
9.41777
9.40731
9.39731
9.38687
9.37525
9.36217
9.34766
9.33177
9.31451
9.29586
9.27576
9.25417
9.23106
9.20634
9.17998
9.15212
9.12262
9.09144
9.05856
9.024
8.98775
8.94978
8.91007
8.86862
8.82541
8.7804
8.73359
8.685
8.63467
8.58249
8.5285
8.4728
8.41545
8.35649
8.29595
8.23395
8.16979
1.39635
4.5336
10.0636
10.0935
9.79044
9.46548
9.34354
9.34197
9.35336
9.3748
9.38361
9.38292
9.37941
9.37176
9.3628
9.35405
9.34486
9.33451
9.32272
9.30947
9.29482
9.27875
9.26126
9.2423
9.22183
9.19982
9.17624
9.1511
9.12442
9.09617
9.06633
9.03492
9.00187
8.96714
8.93067
8.89247
8.85254
8.81088
8.76747
8.72232
8.67542
8.62676
8.57647
8.52456
8.47103
8.4159
8.35921
8.30102
8.24147
8.18001
1.39377
4.53075
10.0464
10.0805
9.77401
9.44621
9.32606
9.32636
9.33891
9.36166
9.37105
9.37017
9.36612
9.35754
9.34786
9.33837
9.32841
9.31729
9.30478
9.2909
9.27569
9.25918
9.24136
9.2222
9.20168
9.17976
9.15647
9.13177
9.10556
9.07779
9.04844
9.01748
8.98494
8.95084
8.91517
8.87792
8.83905
8.79855
8.75642
8.71264
8.66724
8.62021
8.5716
8.52142
8.46967
8.41638
8.36159
8.30535
8.24773
8.18826
1.53034
3.33941
9.84693
10.6866
10.3006
9.63607
9.33201
9.29613
9.31266
9.34745
9.36268
9.3618
9.35724
9.34739
9.33656
9.3266
9.31653
9.30548
9.29306
9.27929
9.26418
9.24778
9.23004
9.21095
9.19048
9.16852
9.14525
9.12053
9.09433
9.06662
9.0374
9.00666
8.97443
8.9407
8.90547
8.86871
8.83042
8.79059
8.74921
8.7063
8.66186
8.6159
8.56843
8.51947
8.46904
8.41719
8.36393
8.30931
8.25344
8.19591
1.40787
4.54733
10.1168
10.0908
9.7057
9.3528
9.24259
9.25184
9.28112
9.31008
9.31967
9.31873
9.31482
9.30673
9.29806
9.28957
9.28051
9.27028
9.2587
9.24576
9.23153
9.21601
9.19919
9.18104
9.16154
9.14067
9.11842
9.09478
9.0697
9.04318
9.01517
8.98574
8.95486
8.92251
8.88866
8.85331
8.81646
8.77811
8.73827
8.69692
8.65403
8.60962
8.56372
8.51633
8.46751
8.41725
8.36557
8.31257
8.25833
8.20245
1.39285
4.55518
10.0061
9.98045
9.66777
9.38746
9.29893
9.30192
9.31405
9.32483
9.32535
9.32284
9.31621
9.3061
9.29605
9.28611
9.27557
9.264
9.25128
9.2374
9.22235
9.20614
9.18876
9.17018
9.15037
9.1293
9.10696
9.08332
9.05836
9.03208
9.00447
8.97547
8.94504
8.91317
8.87985
8.84508
8.80883
8.77111
8.73194
8.69133
8.64929
8.60584
8.56097
8.51467
8.46698
8.41789
8.36747
8.31569
8.26261
8.20777
1.38491
4.54751
9.95759
9.94633
9.65792
9.38624
9.29394
9.29321
9.29935
9.30703
9.30707
9.3048
9.29863
9.2887
9.27874
9.26891
9.25854
9.24721
9.23479
9.22129
9.20668
9.19094
9.17401
9.15589
9.13654
9.11594
9.09407
9.07092
9.04645
9.02066
8.99353
8.96502
8.93514
8.90386
8.87119
8.83713
8.80168
8.76482
8.72655
8.68685
8.64573
8.6032
8.55925
8.51391
8.46722
8.41924
8.36992
8.31922
8.26719
8.21337
1.37701
4.50896
9.91805
10.0305
9.73026
9.40242
9.28117
9.27714
9.28573
9.29805
9.30012
9.29776
9.29104
9.27996
9.26921
9.25904
9.24853
9.23709
9.22453
9.21086
9.19608
9.18018
9.16314
9.14494
9.12554
9.10495
9.08312
9.06006
9.03573
9.01012
8.98322
8.95501
8.92547
8.8946
8.86238
8.82881
8.79388
8.75757
8.7199
8.68085
8.64043
8.59866
8.55556
8.51114
8.46537
8.41824
8.3698
8.32008
8.26914
8.21659
1.62609
2.96853
9.5203
10.6169
10.2725
9.64675
9.33717
9.27125
9.27879
9.29696
9.30438
9.30211
9.29455
9.28013
9.26689
9.25554
9.24464
9.23307
9.2204
9.20659
9.1917
9.17573
9.15868
9.1405
9.12116
9.10064
9.07892
9.05597
9.03178
9.00632
8.97959
8.95156
8.92223
8.89158
8.8596
8.82628
8.79163
8.75563
8.71828
8.67959
8.63957
8.59821
8.55554
8.51157
8.46629
8.41974
8.37198
8.32307
8.27307
8.22167
1.63541
2.85326
9.48266
10.8207
10.4144
9.6761
9.30886
9.23084
9.24138
9.26732
9.28195
9.28072
9.27456
9.26112
9.24695
9.23533
9.22485
9.21389
9.20177
9.18843
9.17396
9.15841
9.14178
9.12403
9.10515
9.0851
9.06386
9.04142
9.01775
8.99284
8.96667
8.93923
8.91051
8.88049
8.84916
8.81652
8.78256
8.74728
8.71068
8.67274
8.63349
8.59292
8.55104
8.50784
8.46335
8.41761
8.37065
8.32252
8.2733
8.22273
1.62646
2.96175
9.50523
10.6075
10.2631
9.63074
9.31316
9.24546
9.25382
9.27438
9.28449
9.28259
9.2755
9.26102
9.24711
9.23535
9.22435
9.21281
9.20019
9.18646
9.17167
9.15587
9.13903
9.12113
9.10214
9.08202
9.06075
9.03831
9.01469
8.98986
8.96381
8.93651
8.90796
8.87815
8.84705
8.81466
8.78098
8.746
8.70971
8.67212
8.63322
8.59303
8.55154
8.50876
8.46472
8.41942
8.37289
8.32515
8.27626
8.22583
1.37403
4.50573
9.89906
10.0111
9.70675
9.36469
9.23598
9.23151
9.24102
9.25553
9.25861
9.25637
9.24982
9.23878
9.22812
9.21813
9.20789
9.19678
9.18461
9.17138
9.15711
9.14183
9.1255
9.1081
9.08961
9.07
9.04925
9.02734
9.00425
8.97996
8.95446
8.92772
8.89974
8.87051
8.84
8.80821
8.77513
8.74075
8.70508
8.6681
8.62982
8.59023
8.54934
8.50717
8.46371
8.419
8.37303
8.32579
8.27729
8.22703
1.37981
4.54099
9.92363
9.90623
9.60655
9.32952
9.24162
9.24392
9.25459
9.2645
9.26469
9.26209
9.2551
9.2442
9.23353
9.22321
9.21246
9.20082
9.18817
9.17453
9.1599
9.14427
9.12762
9.10992
9.09115
9.07128
9.0503
9.02818
9.00491
8.98046
8.95482
8.92797
8.8999
8.87059
8.84004
8.80823
8.77514
8.74079
8.70515
8.66824
8.63004
8.59056
8.5498
8.50778
8.4645
8.41997
8.37421
8.32724
8.27906
8.22935
1.40401
4.56222
10.0541
9.98677
9.5916
9.27555
9.1927
9.20429
9.23398
9.25435
9.25687
9.25421
9.24715
9.2367
9.22669
9.21695
9.20663
9.19531
9.18292
9.16951
9.15511
9.13969
9.12324
9.10574
9.08717
9.0675
9.04671
9.02479
9.00171
8.97746
8.95201
8.92536
8.89749
8.86838
8.83802
8.8064
8.77352
8.73936
8.70392
8.6672
8.62919
8.58991
8.54935
8.50752
8.46443
8.4201
8.37455
8.32779
8.27989
8.23061
3.04034
2.45179
2.99204
4.17173
4.11838
4.10315
4.04275
4.00531
3.99239
3.99504
4.02237
4.06566
4.10275
4.1337
4.16792
4.21083
4.26261
4.3208
4.38255
4.44556
4.50811
4.56897
4.62773
4.68477
4.73588
4.78134
4.82117
4.85572
4.88494
4.90907
4.9281
4.94226
4.95159
4.9564
4.95679
4.95517
4.94982
4.93849
4.92296
4.90509
4.88496
4.8625
4.83783
4.81122
4.78293
4.75324
4.7224
4.69064
4.6582
4.6253
4.59216
4.55898
4.52596
4.49331
4.46121
4.42988
4.39949
4.37024
4.34234
4.31597
4.29132
4.26859
4.24796
4.2296
4.21367
4.20031
4.18962
4.18167
4.17645
4.17391
4.17392
4.17445
4.17638
4.18113
4.19094
4.20368
4.21695
4.23035
4.24381
4.25712
4.26995
4.28195
4.29283
4.30238
4.31046
4.31699
4.32195
4.32537
4.32738
4.32817
4.32814
4.32786
4.32701
4.32501
4.32104
4.31655
4.31196
4.30727
4.30233
4.29813
4.0915
3.54615
3.7477
4.22579
4.14503
4.08871
4.03008
3.99019
3.97843
3.99041
4.03102
4.08109
4.11293
4.13533
4.16469
4.20575
4.25712
4.31522
4.37684
4.43974
4.50219
4.56321
4.62224
4.67901
4.73019
4.77567
4.8156
4.85028
4.87965
4.90391
4.92305
4.93731
4.94674
4.95155
4.95177
4.95059
4.94632
4.93629
4.91922
4.90073
4.88076
4.85863
4.83422
4.80777
4.7796
4.75003
4.71929
4.68765
4.65531
4.62251
4.58946
4.55637
4.52343
4.49085
4.45882
4.42754
4.3972
4.368
4.34014
4.3138
4.28918
4.26647
4.24586
4.22752
4.21162
4.19829
4.18766
4.17981
4.17474
4.17259
4.1727
4.17341
4.17548
4.18026
4.19001
4.20279
4.21638
4.23014
4.24386
4.25736
4.27033
4.28245
4.29344
4.30306
4.31118
4.31772
4.32267
4.32607
4.32806
4.32875
4.32869
4.32837
4.32748
4.32547
4.32147
4.31688
4.31219
4.30754
4.30278
4.30022
5.2202
4.45797
4.22778
4.25972
4.24097
4.1893
4.10826
4.05583
4.03563
4.03797
4.05016
4.07899
4.11448
4.14594
4.17938
4.22025
4.26933
4.32498
4.38445
4.44548
4.50637
4.56595
4.62341
4.67806
4.72839
4.77336
4.81286
4.84704
4.87597
4.89981
4.91859
4.93247
4.94154
4.94591
4.94584
4.94474
4.94108
4.93242
4.91508
4.89559
4.87501
4.85277
4.82847
4.80218
4.77415
4.74468
4.71405
4.68252
4.65032
4.61765
4.58473
4.55176
4.51893
4.48646
4.45453
4.42334
4.3931
4.36398
4.3362
4.30995
4.28541
4.26278
4.24225
4.22399
4.20818
4.19497
4.18449
4.17684
4.1721
4.17064
4.17085
4.17175
4.17405
4.17904
4.18904
4.20169
4.21556
4.22982
4.24404
4.25794
4.27121
4.28356
4.29472
4.30447
4.31265
4.31919
4.32409
4.32744
4.32937
4.32984
4.32973
4.32932
4.32827
4.32604
4.32199
4.31732
4.31252
4.30789
4.30327
4.30236
5.82349
5.08966
4.6556
4.45907
4.42046
4.3556
4.26426
4.18434
4.13248
4.11182
4.11402
4.12482
4.15057
4.18781
4.22167
4.25679
4.29778
4.34558
4.39869
4.45483
4.51197
4.56861
4.62353
4.67597
4.72451
4.76838
4.80709
4.84052
4.86876
4.89198
4.91022
4.92359
4.93218
4.93599
4.93582
4.93469
4.93132
4.92352
4.9076
4.88741
4.86594
4.84327
4.81897
4.79288
4.76512
4.73593
4.70558
4.67431
4.64236
4.60995
4.57728
4.54455
4.51196
4.47972
4.44802
4.41705
4.38702
4.35812
4.33054
4.30448
4.28013
4.25769
4.23735
4.21929
4.20368
4.1907
4.18047
4.17316
4.16891
4.16823
4.16854
4.16963
4.17227
4.17784
4.18793
4.20054
4.21465
4.22942
4.24424
4.25866
4.27233
4.28497
4.29632
4.30618
4.31441
4.32095
4.32584
4.32914
4.3309
4.33101
4.33086
4.33032
4.32905
4.32642
4.32235
4.31766
4.31277
4.30816
4.30373
4.30382
6.22665
5.59115
5.1156
4.82608
4.67735
4.56502
4.45434
4.35333
4.27602
4.22843
4.20841
4.20931
4.2155
4.23177
4.26434
4.29737
4.33382
4.3752
4.42139
4.47118
4.52307
4.57546
4.62692
4.67628
4.72251
4.76465
4.80209
4.83437
4.86162
4.884
4.90147
4.91409
4.92205
4.92509
4.92483
4.92359
4.92022
4.91276
4.89768
4.87786
4.85597
4.83273
4.80813
4.78206
4.75451
4.72561
4.69557
4.66462
4.63299
4.60089
4.56853
4.53611
4.50383
4.47189
4.4405
4.40983
4.3801
4.3515
4.32423
4.29847
4.27443
4.2523
4.23226
4.21451
4.19923
4.18658
4.17675
4.16992
4.16624
4.16623
4.16664
4.16796
4.17104
4.17742
4.18761
4.20017
4.21438
4.22949
4.24479
4.25969
4.27375
4.28666
4.29817
4.30812
4.31635
4.32288
4.32773
4.33088
4.33231
4.33227
4.332
4.33127
4.32966
4.32658
4.32249
4.3178
4.31287
4.30827
4.30413
4.30442
6.53386
5.99832
5.54315
5.19891
4.96585
4.79976
4.66323
4.54449
4.44673
4.3747
4.32931
4.30731
4.30686
4.31005
4.32076
4.34399
4.37647
4.41256
4.45139
4.49334
4.53804
4.58437
4.63086
4.67623
4.71933
4.75913
4.79481
4.82585
4.85205
4.8735
4.89004
4.90189
4.90919
4.91146
4.91113
4.90978
4.90633
4.89892
4.88428
4.86531
4.84357
4.82002
4.7951
4.76893
4.74152
4.71293
4.68329
4.65277
4.62157
4.58989
4.55795
4.52595
4.4941
4.46258
4.43162
4.40139
4.3721
4.34395
4.31712
4.29182
4.26823
4.24655
4.22698
4.20969
4.19487
4.18273
4.17345
4.16718
4.1643
4.16441
4.16505
4.16677
4.17048
4.17791
4.18809
4.20052
4.21467
4.22988
4.24543
4.26063
4.27494
4.28803
4.29964
4.3096
4.31788
4.32438
4.3291
4.33208
4.33316
4.33307
4.33268
4.33172
4.3297
4.32638
4.32219
4.31748
4.31254
4.30796
4.30407
4.30446
6.77825
6.32727
5.90932
5.54991
5.26918
5.05756
4.89019
4.75066
4.63391
4.5406
4.47194
4.42713
4.40362
4.39756
4.39917
4.40584
4.42158
4.45012
4.48198
4.51729
4.55535
4.59526
4.63601
4.67663
4.71599
4.75297
4.78657
4.81609
4.84113
4.86156
4.87732
4.88843
4.89501
4.89651
4.89611
4.89463
4.89102
4.88339
4.86924
4.85096
4.82962
4.8061
4.78105
4.75481
4.7275
4.6992
4.66996
4.6399
4.60919
4.57801
4.54658
4.51508
4.48374
4.45276
4.42233
4.39265
4.36392
4.33633
4.31008
4.28536
4.26237
4.24131
4.22234
4.20568
4.19151
4.17998
4.17132
4.16564
4.16361
4.16382
4.16467
4.1668
4.17128
4.17935
4.18974
4.20213
4.2161
4.23112
4.24655
4.26172
4.2761
4.28924
4.30086
4.3108
4.31898