/*--------------------------------*- C++ -*----------------------------------*\
| =========                 |                                                 |
| \\      /  F ield         | OpenFOAM: The Open Source CFD Toolbox           |
|  \\    /   O peration     | Version:  2412                                  |
|   \\  /    A nd           | Website:  www.openfoam.com                      |
|    \\/     M anipulation  |                                                 |
\*---------------------------------------------------------------------------*/
FoamFile
{
    version     2.0;
    format      ascii;
    arch        "LSB;label=32;scalar=64";
    class       surfaceScalarField;
    location    "16";
    object      phi;
}
// * * * * * * * * * * * * * * * * * * * * * * * * * * * * * * * * * * * * * //

dimensions      [1 0 -1 0 0 0 0];

oriented        oriented;

internalField   nonuniform List<scalar> 
13790
(
0.00292385
-1.98002e-07
0.00274465
9.29636e-07
0.00280422
3.23023e-06
0.00280551
5.5693e-06
0.00279953
6.45905e-06
0.00279243
7.15042e-06
0.00278451
7.94191e-06
0.00277563
8.89094e-06
0.00276567
9.97826e-06
0.00275445
1.12224e-05
0.00274191
1.2555e-05
0.00272796
1.39363e-05
0.0027126
1.53702e-05
0.00269571
1.6872e-05
0.00267726
1.84554e-05
0.00265711
2.01255e-05
0.00263522
2.18854e-05
0.00261146
2.37404e-05
0.00258575
2.56948e-05
0.00255797
2.77587e-05
0.00252802
2.99366e-05
0.00249576
3.22419e-05
0.00246107
3.46781e-05
0.00242379
3.72617e-05
0.00238378
3.99957e-05
0.00234087
4.28989e-05
0.00229487
4.59738e-05
0.00224561
4.92401e-05
0.00219288
5.27e-05
0.00213649
5.63715e-05
0.0020762
6.02567e-05
0.00201182
6.4368e-05
0.00194309
6.87063e-05
0.00186979
7.32741e-05
0.00179169
7.80684e-05
0.0017086
8.3076e-05
0.00162028
8.82859e-05
0.00152659
9.36618e-05
0.00142738
9.91787e-05
0.00132258
0.00010477
0.00121216
0.000110393
0.0010962
0.000115941
0.000974819
0.000121354
0.00084831
0.000126488
0.000717013
0.000131285
0.000581395
0.000135597
0.000441941
0.000139463
0.000299257
0.000142688
0.000152326
0.000146909
0.000152284
0.00303227
1.99667e-08
0.00284633
8.36997e-07
0.0029067
8.57481e-06
0.00290806
1.12531e-05
0.00290224
1.27784e-05
0.0028951
1.43446e-05
0.00288694
1.61157e-05
0.00287773
1.81157e-05
0.00286737
2.03552e-05
0.00285573
2.28703e-05
0.00284273
2.55636e-05
0.00282829
2.83687e-05
0.00281238
3.12899e-05
0.00279488
3.43514e-05
0.00277577
3.75775e-05
0.00275489
4.09787e-05
0.00273221
4.45623e-05
0.00270758
4.83399e-05
0.00268095
5.23198e-05
0.00265216
5.65229e-05
0.00262112
6.09579e-05
0.00258769
6.56523e-05
0.00255174
7.06133e-05
0.00251311
7.58746e-05
0.00247165
8.14423e-05
0.00242718
8.73548e-05
0.00237951
9.36176e-05
0.00232847
0.00010027
0.00227381
0.000107318
0.00221537
0.000114797
0.00215288
0.000122713
0.00208615
0.000131091
0.00201489
0.000139934
0.0019389
0.000149245
0.00185791
0.000159023
0.00177173
0.000169237
0.00168011
0.000179871
0.0015829
0.000190847
0.00147992
0.000202121
0.00137111
0.000213553
0.00125642
0.000225059
0.00113591
0.000236425
0.00100971
0.000247524
0.000878098
0.00025808
0.000741443
0.000267927
0.000600184
0.000276833
0.000454918
0.000284741
0.000306182
0.000291427
0.000154243
0.000298825
0.000306484
0.00314499
9.17096e-08
0.00295184
1.20418e-06
0.00301466
1.38276e-05
0.00301597
1.72224e-05
0.00301003
1.92453e-05
0.00300276
2.16712e-05
0.00299437
2.45194e-05
0.00298487
2.7644e-05
0.00297414
3.10996e-05
0.00296208
3.4931e-05
0.00294863
3.90242e-05
0.0029337
4.32951e-05
0.00291724
4.77584e-05
0.00289914
5.24348e-05
0.00287935
5.73661e-05
0.00285775
6.25574e-05
0.00283427
6.80323e-05
0.00280879
7.37964e-05
0.00278122
7.98767e-05
0.00275143
8.62899e-05
0.00271931
9.3065e-05
0.00268471
0.000100227
0.00264751
0.000107806
0.00260753
0.000115833
0.00256462
0.000124339
0.0025186
0.00013336
0.00246926
0.000142928
0.00241643
0.000153081
0.00235987
0.00016385
0.00229938
0.000175268
0.00223469
0.000187368
0.0021656
0.000200163
0.00209182
0.000213685
0.00201313
0.000227918
0.00192924
0.000242878
0.00183994
0.000258507
0.00174499
0.000274791
0.0016442
0.000291611
0.00153739
0.000308891
0.00142447
0.000326449
0.00130539
0.000344105
0.00118017
0.000361623
0.00104899
0.000378676
0.000912026
0.00039502
0.000769722
0.000410218
0.000622564
0.000423967
0.000471117
0.0004362
0.000316236
0.000446312
0.000158632
0.000456407
0.00046507
0.00326192
1.15533e-07
0.00306159
1.65897e-06
0.00312698
1.90076e-05
0.00312834
2.33951e-05
0.00312223
2.59173e-05
0.00311478
2.91699e-05
0.0031062
3.31188e-05
0.0030964
3.74637e-05
0.00308532
4.21989e-05
0.00307286
4.73926e-05
0.00305898
5.29196e-05
0.00304356
5.87079e-05
0.00302656
6.4759e-05
0.00300787
7.11153e-05
0.00298743
7.7803e-05
0.00296511
8.48553e-05
0.00294086
9.22755e-05
0.00291453
0.000100105
0.00288605
0.000108343
0.00285526
0.000117054
0.00282208
0.000126232
0.00278632
0.000135961
0.00274789
0.000146225
0.00270658
0.00015713
0.00266225
0.000168648
0.00261469
0.000180906
0.00256373
0.000193863
0.00250913
0.000207663
0.00245069
0.000222248
0.00238817
0.000237776
0.00232133
0.000254166
0.0022499
0.00027158
0.00217365
0.000289905
0.00209225
0.000309294
0.00200551
0.000329586
0.00191309
0.000350906
0.00181482
0.000373022
0.00171039
0.000396004
0.00159972
0.000419527
0.00148259
0.000443553
0.00135898
0.000467684
0.00122892
0.000491658
0.00109245
0.000515118
0.000950011
0.000537434
0.000801669
0.000558546
0.000648273
0.000577338
0.000490382
0.000594102
0.000328739
0.000607959
0.000164784
0.000620335
0.000629807
0.00338316
1.38786e-07
0.00317542
2.14542e-06
0.0032434
2.42137e-05
0.00324489
2.96988e-05
0.00323862
3.27672e-05
0.003231
3.68465e-05
0.00322222
4.19224e-05
0.00321216
4.75395e-05
0.00320076
5.36183e-05
0.00318793
6.02231e-05
0.00317364
6.72335e-05
0.00315775
7.45822e-05
0.00314024
8.22765e-05
0.00312097
9.03655e-05
0.00309991
9.88721e-05
0.00307689
0.000107842
0.00305189
0.000117276
0.00302473
0.000127231
0.00299536
0.000137703
0.00296361
0.000148776
0.00292938
0.000160442
0.00289252
0.000172805
0.00285287
0.000185854
0.00281028
0.000199706
0.00276455
0.000214355
0.00271552
0.000229923
0.00266295
0.000246409
0.00260666
0.000263932
0.00254637
0.000282505
0.0024819
0.000302221
0.00241292
0.000323115
0.00233926
0.000345226
0.00226051
0.000368622
0.00217653
0.000393247
0.00208688
0.000419205
0.00199146
0.000446298
0.00188978
0.000474668
0.00178185
0.000503905
0.00166715
0.000534185
0.00154586
0.000564821
0.00141751
0.000595996
0.00128242
0.000626717
0.00114047
0.00065704
0.000991985
0.000685892
0.000837525
0.000712991
0.000677181
0.000737659
0.000512265
0.000759025
0.000343536
0.000776697
0.000172071
0.000791778
0.000801827
0.00350892
1.62321e-07
0.0032935
2.63811e-06
0.00336416
2.94623e-05
0.00336581
3.6104e-05
0.00335942
3.97757e-05
0.00335164
4.46848e-05
0.00334263
5.09583e-05
0.00333236
5.78192e-05
0.0033207
6.53058e-05
0.00330754
7.33867e-05
0.00329284
8.19441e-05
0.00327653
9.08913e-05
0.00325851
0.000100295
0.0032387
0.000110153
0.00321702
0.000120558
0.00319335
0.000131483
0.00316761
0.000143017
0.00313968
0.000155133
0.00310944
0.000167936
0.00307678
0.000181407
0.00304154
0.000195668
0.00300361
0.000210705
0.00296279
0.000226655
0.00291897
0.000243503
0.0028719
0.000261409
0.00282146
0.000280345
0.00276734
0.0003005
0.00270943
0.000321825
0.00264736
0.000344534
0.00258101
0.00036855
0.00250998
0.000394103
0.00243411
0.000421079
0.002353
0.000449697
0.00226642
0.000479807
0.00217401
0.000511572
0.00207548
0.000544801
0.00197057
0.000579539
0.0018589
0.000615547
0.0017404
0.000652645
0.0016146
0.000690596
0.00148173
0.000728836
0.00134122
0.000767194
0.00119364
0.000804584
0.00103882
0.000840689
0.000877358
0.000874436
0.000710007
0.000904982
0.000537115
0.00093193
0.000360172
0.000953638
0.000180645
0.00097128
0.000982419
0.00363936
1.86135e-07
0.00341595
3.13256e-06
0.00348943
3.47477e-05
0.00349128
4.25847e-05
0.00348482
4.68884e-05
0.0034769
5.26629e-05
0.00346776
6.01167e-05
0.00345728
6.83323e-05
0.00344533
7.72638e-05
0.00343185
8.68737e-05
0.00341679
9.70078e-05
0.00340006
0.000107624
0.00338159
0.000118767
0.00336125
0.000130479
0.003339
0.000142808
0.00331468
0.000155783
0.00328825
0.000169437
0.00325954
0.000183822
0.0032285
0.000198967
0.00319492
0.00021496
0.00315876
0.000231821
0.00311976
0.000249674
0.00307788
0.00026852
0.00303283
0.000288531
0.00298454
0.000309675
0.00293269
0.000332181
0.00287718
0.000355974
0.00281766
0.000381338
0.002754
0.000408148
0.00268579
0.000436739
0.00261293
0.000466925
0.00253492
0.000499079
0.00245163
0.000532942
0.00236255
0.000568875
0.00226752
0.000606559
0.00216602
0.000646271
0.00205789
0.000687631
0.00194265
0.000730747
0.00182009
0.000775163
0.00168998
0.000820664
0.00155199
0.000866803
0.00140639
0.000912771
0.00125253
0.000958411
0.0010912
0.00100198
0.000922359
0.00104327
0.000746724
0.00108059
0.000565554
0.00111311
0.00037951
0.00113968
0.000190187
0.00116058
0.00117255
0.00377467
2.10128e-07
0.00354295
3.62586e-06
0.00361939
4.00537e-05
0.00362147
4.91122e-05
0.00361497
5.40759e-05
0.00360696
6.07402e-05
0.00359769
6.94119e-05
0.00358704
7.90003e-05
0.00357488
8.94383e-05
0.00356114
0.000100623
0.00354577
0.000112397
0.00352865
0.000124724
0.00350976
0.000137669
0.00348894
0.000151279
0.00346616
0.000165599
0.00344124
0.000180668
0.00341416
0.000196516
0.00338473
0.00021321
0.00335292
0.000230781
0.00331851
0.000249333
0.00328143
0.000268888
0.00324148
0.000289588
0.00319854
0.000311446
0.00315241
0.000334639
0.00310289
0.000359171
0.00304981
0.000385245
0.00299288
0.000412869
0.00293196
0.000442248
0.00286666
0.000473409
0.00279685
0.000506525
0.00272207
0.000541662
0.00264222
0.000578911
0.00255671
0.000618416
0.00246547
0.000660098
0.0023678
0.000704186
0.00226367
0.000750378
0.00215234
0.000798923
0.00203378
0.000849272
0.00190729
0.000901613
0.00177281
0.000955103
0.00162991
0.00100967
0.00147838
0.00106428
0.00131859
0.00111817
0.00114987
0.00117068
0.00097323
0.0012199
0.000788941
0.00126485
0.000597683
0.00130439
0.000401395
0.00133598
0.000201584
0.00136036
0.00137408
0.00391501
2.34138e-07
0.00367466
4.11472e-06
0.00375422
4.53492e-05
0.00375658
5.56482e-05
0.00375009
6.12976e-05
0.00374203
6.88721e-05
0.00373265
7.88096e-05
0.0037219
8.97768e-05
0.00370959
0.000101765
0.00369563
0.000114587
0.00367998
0.000128059
0.00366254
0.000142149
0.00364328
0.000156951
0.00362202
0.000172509
0.00359875
0.000188878
0.0035733
0.000206092
0.00354562
0.000224191
0.00351555
0.000243247
0.00348302
0.000263301
0.00344786
0.000284465
0.00340995
0.000306774
0.00336913
0.00033038
0.00332525
0.000355309
0.00327811
0.000381754
0.00322752
0.000409729
0.00317328
0.000439466
0.00311515
0.000470968
0.00305289
0.000504493
0.00298622
0.00054004
0.00291485
0.000577869
0.00283849
0.000617981
0.00275677
0.000660615
0.0026694
0.000705747
0.00257588
0.00075359
0.002476
0.00080403
0.00236911
0.000857249
0.00225503
0.000912961
0.00213298
0.000971274
0.00200294
0.00103161
0.00186404
0.00109397
0.00171631
0.00115736
0.00155913
0.00122142
0.00139234
0.00128491
0.00121653
0.00134647
0.00103088
0.00140552
0.000836875
0.00145882
0.000635353
0.00150591
0.000427095
0.00154424
0.000214284
0.00157315
0.0015883
0.00406058
2.57785e-07
0.00381125
4.5951e-06
0.00389413
5.05846e-05
0.00389683
6.21416e-05
0.0038904
6.84953e-05
0.00388234
7.70068e-05
0.00387296
8.82059e-05
0.00386214
0.000100628
0.00384972
0.000114205
0.0038356
0.000128715
0.00381974
0.000143932
0.00380202
0.000159845
0.00378244
0.000176551
0.00376081
0.000194116
0.00373712
0.000212579
0.00371117
0.000231996
0.00368298
0.00025239
0.00365231
0.000273867
0.00361916
0.000296443
0.0035833
0.000320282
0.00354468
0.00034538
0.00350307
0.000371957
0.00345836
0.000399996
0.00341034
0.000429757
0.00335883
0.000461224
0.0033036
0.000494684
0.0032444
0.000530135
0.00318102
0.000567864
0.00311311
0.0006079
0.00304046
0.0006505
0.00296265
0.000695737
0.00287944
0.000743807
0.00279033
0.000794816
0.00269503
0.000848867
0.00259295
0.000906066
0.00248381
0.000966358
0.0023669
0.00102984
0.00224195
0.00109618
0.00210811
0.0011654
0.0019653
0.00123675
0.00181246
0.00131016
0.00164971
0.00138413
0.00147621
0.00145839
0.00129197
0.00153067
0.00109762
0.00159986
0.000892483
0.00166393
0.000678335
0.00172007
0.000456779
0.0017658
0.000229891
0.00180001
0.00181814
0.00421158
2.80662e-07
0.00395292
5.06095e-06
0.00403931
5.56922e-05
0.00404242
6.85286e-05
0.00403611
7.56305e-05
0.00402812
8.50651e-05
0.00401878
9.75759e-05
0.00400796
0.000111443
0.00399554
0.000126669
0.00398132
0.000142928
0.00396533
0.000159954
0.00394741
0.000177741
0.00392757
0.000196409
0.00390564
0.000216025
0.00388159
0.00023664
0.00385526
0.000258298
0.0038266
0.000281044
0.00379547
0.00030497
0.00376176
0.000330132
0.00372535
0.00035666
0.00368608
0.00038462
0.00364385
0.000414172
0.00359842
0.000445398
0.00354968
0.000478477
0.00349735
0.000513517
0.00344131
0.000550706
0.00338124
0.000590187
0.00331694
0.000632145
0.00324806
0.000676749
0.00317434
0.000724183
0.0030954
0.000774627
0.00301092
0.000828254
0.00292046
0.000885234
0.0028236
0.000945703
0.00271984
0.00100978
0.00260865
0.00107752
0.00248951
0.00114894
0.00236171
0.00122394
0.00222478
0.00130228
0.00207783
0.00138366
0.00192055
0.0014674
0.00175182
0.00155282
0.00157159
0.00163857
0.00137904
0.00172319
0.00117407
0.00180481
0.0009577
0.00188027
0.00072989
0.00194788
0.000492361
0.00200333
0.000247556
0.00204478
0.00206563
0.00436821
2.98937e-07
0.00409985
5.51162e-06
0.00419002
6.05522e-05
0.00419361
7.47439e-05
0.00418747
8.26513e-05
0.00417967
9.29354e-05
0.0041705
0.000106776
0.00415979
0.00012217
0.00414738
0.000139092
0.00413318
0.000157152
0.00411709
0.000176043
0.00409907
0.000195761
0.00407903
0.000216443
0.00405689
0.000238158
0.00403256
0.000260972
0.00400592
0.000284912
0.0039769
0.000310051
0.00394538
0.000336462
0.00391126
0.000364241
0.00387438
0.000393497
0.00383465
0.000424335
0.00379187
0.000456907
0.00374593
0.000491321
0.0036966
0.000527775
0.00364373
0.000566372
0.00358704
0.000607366
0.00352636
0.000650849
0.00346135
0.000697125
0.00339178
0.000746276
0.00331731
0.000798639
0.00323758
0.000854302
0.00315222
0.000913598
0.00306078
0.000976621
0.0029628
0.00104366
0.00285775
0.00111479
0.00274506
0.00119018
0.00262405
0.0012699
0.0024941
0.00135386
0.0023543
0.00144203
0.00220406
0.00153386
0.00204219
0.00162923
0.00186829
0.00172669
0.00168088
0.00182594
0.0014799
0.00192412
0.00126447
0.00202022
0.00103409
0.0021106
0.000790464
0.00219153
0.000534783
0.00225901
0.000270145
0.00230939
0.00233571
0.00453069
3.07382e-07
0.00425222
5.95645e-06
0.00434644
6.50345e-05
0.00435063
8.07141e-05
0.00434472
8.9464e-05
0.00433725
0.000100489
0.00432831
0.000115744
0.00431781
0.000132678
0.00430559
0.000151346
0.00429147
0.000171284
0.00427542
0.000192111
0.00425735
0.000213815
0.00423725
0.000236562
0.00421496
0.000260428
0.00419046
0.000285474
0.0041636
0.000311745
0.00413434
0.000339295
0.00410253
0.000368237
0.00406813
0.000398634
0.00403093
0.000430659
0.00399087
0.000464368
0.00394775
0.000499995
0.00390145
0.000537586
0.00385178
0.000577434
0.00379853
0.000619587
0.00374151
0.000664381
0.00368044
0.000711884
0.00361511
0.000762452
0.00354514
0.000816195
0.0034703
0.000873455
0.00339014
0.000934407
0.00330435
0.000999354
0.0032124
0.00106853
0.00311387
0.00114216
0.00300808
0.00122053
0.00289449
0.00130373
0.00277231
0.00139204
0.0026408
0.00148532
0.00249898
0.0015838
0.00234587
0.00168691
0.00218044
0.00179462
0.0020013
0.00190579
0.00180763
0.00201957
0.00159756
0.00213415
0.00137091
0.00224685
0.001127
0.00235446
0.000865253
0.00245327
0.000587514
0.00253677
0.000296678
0.0026002
0.00263233
0.00469924
3.25321e-07
0.00441024
6.33544e-06
0.00450857
6.93076e-05
0.00451357
8.61788e-05
0.00450833
9.56883e-05
0.00450122
0.000107685
0.00449267
0.000124324
0.0044825
0.000142845
0.00447054
0.000163346
0.00445658
0.000185232
0.00444068
0.000208048
0.00442266
0.000231802
0.00440259
0.00025666
0.00438026
0.000282726
0.00435571
0.000310039
0.00432875
0.000338673
0.00429938
0.000368657
0.00426743
0.000400147
0.00423287
0.000433176
0.00419552
0.000467973
0.00415531
0.000504557
0.00411205
0.000543224
0.00406563
0.000583988
0.00401583
0.000627208
0.00396248
0.000672895
0.00390538
0.000721467
0.00384427
0.00077295
0.00377891
0.000827797
0.003709
0.000886072
0.00363419
0.000948235
0.00355413
0.00101441
0.00346841
0.00108504
0.00337656
0.00116033
0.00327807
0.00124062
0.0031723
0.00132626
0.00305859
0.00141742
0.00293607
0.0015145
0.00280391
0.00161745
0.002661
0.00172666
0.00250615
0.00184172
0.00233797
0.00196276
0.00215497
0.00208875
0.00195524
0.00221926
0.00173742
0.00235194
0.00149884
0.00248541
0.0012386
0.00261467
0.000956623
0.00273524
0.000653332
0.00284008
0.000332559
0.00292095
0.00296482
0.00487408
3.45923e-07
0.00457412
6.65408e-06
0.00467694
7.31629e-05
0.00468286
9.10125e-05
0.00467841
0.000101203
0.00467191
0.000114285
0.00466392
0.000132334
0.00465425
0.000152537
0.00464264
0.000174979
0.004629
0.000198873
0.00461333
0.000223748
0.00459551
0.000249609
0.00457554
0.000276636
0.0045533
0.000304934
0.0045288
0.000334555
0.00450187
0.000365562
0.00447252
0.000398007
0.0044406
0.000432031
0.00440607
0.00046771
0.00436876
0.000505241
0.00432859
0.000544707
0.00428541
0.000586359
0.00423908
0.000630291
0.00418944
0.000676803
0.00413629
0.000726015
0.00407946
0.000778261
0.00401867
0.000833711
0.00395375
0.000892707
0.00388427
0.000955505
0.00381007
0.00102241
0.00373061
0.00109381
0.00364568
0.00116995
0.00355458
0.00125136
0.00345697
0.0013382
0.00335206
0.00143113
0.00323922
0.00153022
0.00311749
0.00163618
0.00298588
0.00174901
0.00284319
0.00186929
0.00268797
0.00199689
0.00251855
0.00213214
0.00233293
0.00227434
0.00212891
0.00242324
0.00190365
0.00257715
0.00165515
0.00273387
0.0013794
0.00289038
0.00107446
0.00304017
0.0007396
0.00317495
0.000377741
0.00328279
0.00334249
0.00505542
3.58057e-07
0.00474411
6.91657e-06
0.00485193
7.62297e-05
0.00485899
9.50274e-05
0.00485545
0.0001059
0.0048498
0.000120035
0.00484253
0.000139628
0.0048335
0.00016158
0.00482247
0.000186041
0.00480928
0.000212059
0.00479396
0.000239092
0.00477643
0.000267121
0.00475672
0.000296372
0.00473468
0.000326936
0.00471036
0.000358892
0.00468361
0.000392284
0.00465442
0.00042719
0.00462267
0.000463743
0.00458831
0.000502041
0.00455124
0.000542284
0.00451134
0.000584578
0.00446849
0.000629176
0.00442253
0.000676199
0.00437336
0.000725949
0.00432074
0.000778577
0.00426456
0.000834431
0.00420452
0.0008937
0.00414046
0.000956772
0.00407203
0.00102389
0.00399893
0.00109549
0.00392082
0.00117186
0.00383726
0.00125348
0.00374786
0.00134071
0.00365194
0.00143409
0.00354902
0.001534
0.00343816
0.00164106
0.00331859
0.0017557
0.00318911
0.00187845
0.00304842
0.00200992
0.00289493
0.00215033
0.00272658
0.00230042
0.00254089
0.00245999
0.0023349
0.00262919
0.00210506
0.00280694
0.00184637
0.00299254
0.00155513
0.00318159
0.00122624
0.00336903
0.000855821
0.00354537
0.000444133
0.00369447
0.00378655
0.00524351
3.65617e-07
0.00492045
7.08392e-06
0.00503367
7.8294e-05
0.00504221
9.78566e-05
0.00503995
0.000109425
0.00503541
0.000124683
0.00502911
0.000145956
0.00502092
0.000169774
0.00501062
0.000196381
0.004998
0.000224665
0.00498319
0.00025395
0.00496603
0.000284232
0.00494669
0.000315739
0.00492498
0.000348617
0.00490099
0.000382903
0.00487454
0.000418702
0.00484569
0.000456032
0.00481429
0.000495111
0.00478034
0.000535961
0.00474371
0.000578893
0.00470433
0.000623913
0.00466208
0.000671415
0.00461684
0.000721391
0.00456846
0.000774318
0.00451679
0.000830191
0.00446165
0.000889559
0.00440285
0.000952442
0.00434015
0.00101946
0.00427333
0.00109067
0.00420208
0.00116675
0.00412603
0.00124786
0.00404482
0.00133466
0.00395796
0.00142751
0.00386502
0.001527
0.00376516
0.0016338
0.0036579
0.00174829
0.00354195
0.00187159
0.00341653
0.00200383
0.00327993
0.00214646
0.00313052
0.00229971
0.00296626
0.00246463
0.00278397
0.00264224
0.00258006
0.00283303
0.00235069
0.00303627
0.00208923
0.00325394
0.00178645
0.00348434
0.00143332
0.00372215
0.00101971
0.00395898
0.000538177
0.00417598
0.00432465
0.00543859
3.60853e-07
0.00510335
7.13301e-06
0.00522256
7.89509e-05
0.00523306
9.90516e-05
0.0052325
0.000111357
0.00522943
0.000127864
0.00522444
0.000150976
0.00521732
0.000176891
0.00520789
0.00020585
0.00519598
0.000236562
0.00518176
0.000268204
0.00516514
0.000300817
0.00514628
0.000334628
0.00512502
0.000369848
0.00510147
0.000406476
0.00507547
0.000444666
0.00504712
0.000484395
0.00501625
0.000525944
0.0049829
0.000569294
0.00494693
0.000614822
0.00490831
0.000662491
0.00486694
0.00071276
0.0048227
0.000765594
0.00477549
0.000821507
0.00472513
0.000880508
0.00467153
0.000943137
0.00461442
0.0010095
0.00455374
0.00108012
0.00448909
0.00115527
0.00442041
0.0012354
0.00434717
0.00132104
0.00426927
0.00141252
0.00418604
0.00151066
0.00409726
0.00161574
0.00400213
0.00172887
0.00390001
0.00185036
0.0037901
0.00198144
0.00367097
0.00212291
0.00354176
0.0022756
0.00339967
0.00244172
0.00324371
0.00262054
0.00307157
0.00281434
0.00287674
0.00302781
0.00265181
0.00326115
0.00239134
0.00351438
0.00208583
0.00378981
0.00171791
0.00409003
0.00126608
0.00441082
0.000701248
0.00474079
0.00502583
0.00564099
2.94882e-07
0.005293
7.14932e-06
0.00541902
7.75728e-05
0.0054321
9.79783e-05
0.00543375
0.000111198
0.00543258
0.00012916
0.00542918
0.000154401
0.0054234
0.00018267
0.00541498
0.000214311
0.0054039
0.000247635
0.00539038
0.000281761
0.00537443
0.000316745
0.00535617
0.000352917
0.00533553
0.000390466
0.00531256
0.000429454
0.00528721
0.000469974
0.00525951
0.000512086
0.00522942
0.000555998
0.0051969
0.000601804
0.0051619
0.000649778
0.00512433
0.000700024
0.0050842
0.000752864
0.00504131
0.000808443
0.00499569
0.000867102
0.00494707
0.000929068
0.0048955
0.000994674
0.00484066
0.00106428
0.00478258
0.00113818
0.00472088
0.00121692
0.00465551
0.00130076
0.00458609
0.00139041
0.00451237
0.0014862
0.00443404
0.00158893
0.00435058
0.00169916
0.00426171
0.0018177
0.00416646
0.00194558
0.00406459
0.00208326
0.00395444
0.00223302
0.003836
0.002394
0.00370898
0.00256867
0.00356693
0.00276253
0.00340591
0.00297529
0.00322582
0.00320785
0.00302105
0.00346587
0.00278103
0.00375434
0.00248998
0.00408083
0.00212819
0.00445177
0.00165431
0.0048847
0.000999249
0.00539584
0.00602501
0.00585115
1.72377e-07
0.00548936
7.11637e-06
0.00562317
7.36631e-05
0.00563971
9.37993e-05
0.00564431
0.000108184
0.00564577
0.000127818
0.00564444
0.00015574
0.00564024
0.000186878
0.00563297
0.000221588
0.00562279
0.000257801
0.00561001
0.000294542
0.00559477
0.000331972
0.00557715
0.000370549
0.00555713
0.000410439
0.00553483
0.000451761
0.00551021
0.000494567
0.00548334
0.000538968
0.00545417
0.000585161
0.0054227
0.00063327
0.0053889
0.000683575
0.00535268
0.000736195
0.00531406
0.000791461
0.00527292
0.000849519
0.00522926
0.000910743
0.00518293
0.000975331
0.0051339
0.00104369
0.00508202
0.00111609
0.00502718
0.001193
0.00496929
0.00127475
0.00490811
0.00136192
0.00484359
0.00145489
0.00477533
0.00155443
0.00470327
0.00166094
0.00462693
0.00177545
0.0045461
0.00189848
0.00445983
0.0020318
0.00436905
0.002174
0.00427417
0.00232786
0.00416976
0.00249836
0.00405367
0.00268471
0.00392883
0.00288731
0.00379293
0.00311113
0.00364117
0.00335955
0.00346855
0.00363843
0.00326835
0.0039545
0.00302829
0.00432083
0.00272118
0.00475885
0.00229818
0.00530769
0.0016458
0.00604819
0.00767072
0.00846074
1.33801e-07
0.00793479
6.16298e-06
0.00813426
6.41713e-05
0.00816375
8.23602e-05
0.00817645
9.78177e-05
0.0081835
0.000120945
0.00818583
0.000153429
0.00818323
0.000189455
0.00817573
0.000229092
0.00816384
0.000269694
0.00814817
0.0003102
0.00812904
0.000351087
0.00810666
0.0003929
0.00808108
0.000436007
0.00805246
0.000480376
0.00802081
0.000526227
0.00798623
0.000573535
0.00794869
0.000622667
0.00790828
0.000673634
0.00786497
0.000726855
0.00781876
0.00078234
0.00776963
0.000840549
0.00771755
0.000901519
0.00766252
0.000965743
0.00760447
0.00103331
0.00754337
0.00110475
0.00747916
0.00118023
0.00741179
0.00126031
0.00734121
0.00134526
0.0072674
0.00143568
0.00719023
0.00153201
0.00710973
0.00163489
0.00702554
0.00174507
0.00693814
0.00186276
0.00684818
0.00198835
0.00675609
0.0021238
0.00665716
0.00227284
0.00655117
0.00243377
0.00644217
0.00260726
0.00633096
0.00279583
0.00621398
0.0030042
0.00609263
0.00323238
0.00596532
0.00348678
0.00583367
0.00377
0.00569989
0.00408819
0.00557155
0.00444912
0.00548156
0.00484873
0.00550523
0.00528401
0.00591215
0.00564126
0.00547699
0.00810582
0.00846251
1.04139e-07
0.00793421
3.80056e-06
0.00814849
4.17861e-05
0.0081888
6.02862e-05
0.00821078
7.82037e-05
0.00822479
0.000107111
0.00823117
0.000147068
0.00823079
0.000189793
0.00822421
0.000235694
0.00821315
0.000280742
0.00819866
0.000324688
0.00818103
0.000368705
0.00816039
0.000413539
0.00813687
0.000459498
0.00811062
0.000506595
0.00808183
0.000554982
0.00805056
0.000604783
0.00801693
0.000656279
0.00798089
0.000709637
0.00794258
0.000765132
0.0079019
0.000822956
0.00785903
0.000883377
0.00781384
0.000946647
0.00776652
0.00101302
0.00771693
0.00108284
0.00766528
0.00115636
0.00761146
0.001234
0.00755567
0.00131604
0.00749784
0.00140303
0.0074382
0.00149525
0.00737657
0.00159358
0.00731413
0.00169728
0.00725153
0.00180762
0.00718726
0.00192698
0.00711972
0.00205582
0.00704994
0.00219349
0.00698214
0.00234057
0.00691628
0.00249955
0.00685211
0.00267136
0.00679036
0.0028575
0.00673556
0.00305892
0.00668811
0.00327973
0.00665817
0.00351662
0.00664903
0.00377906
0.00668118
0.00405594
0.00677786
0.00435239
0.00698472
0.00464179
0.00738419
0.00488444
0.00800117
0.00502423
0.00467531
0.00880281
0.00846319
1.57811e-07
0.0079339
6.92636e-07
0.00816354
4.94533e-06
0.00822222
1.99201e-05
0.00825935
4.34567e-05
0.00828304
8.36054e-05
0.00829448
0.000135638
0.00829509
0.000189166
0.00828938
0.000241411
0.00827975
0.00029036
0.00826689
0.000337551
0.00825086
0.000384717
0.00823186
0.000432529
0.00821016
0.000481176
0.008186
0.000530721
0.00815963
0.000581324
0.00813113
0.000633247
0.00810065
0.000686727
0.00806823
0.000742019
0.00803401
0.000799325
0.00799801
0.000858917
0.00796035
0.000920991
0.0079211
0.000985849
0.00788037
0.00105369
0.0078383
0.00112486
0.00779502
0.00119959
0.00775069
0.00127828
0.00770545
0.00136123
0.0076597
0.00144871
0.00761432
0.00154057
0.00757002
0.00163783
0.0075245
0.00174273
0.00747781
0.00185426
0.0074326
0.00197213
0.00739102
0.00209734
0.00735259
0.00223186
0.00731826
0.00237483
0.00728866
0.00252906
0.00726729
0.00269266
0.00725501
0.00286969
0.00725689
0.00305697
0.00727787
0.00325867
0.00732437
0.00347004
0.00741224
0.0036911
0.00755064
0.00391744
0.00776971
0.00413323
0.00808273
0.00432871
0.00850866
0.00445843
0.0090284
0.0045044
0.00424715
0.00945649
0.00846175
1.32945e-06
0.00794027
-9.98626e-06
0.00821701
-7.89419e-05
0.00830527
-5.00439e-05
0.00835112
6.55458e-09
0.00837176
6.31533e-05
0.00837618
0.000131227
0.00837202
0.000193316
0.00836439
0.000249047
0.00835504
0.000299699
0.00834314
0.000349444
0.00832834
0.000399501
0.00831098
0.000449868
0.00829139
0.000500746
0.00826996
0.000552122
0.00824683
0.000604417
0.00822206
0.000657981
0.00819573
0.000713018
0.00816791
0.000769804
0.00813867
0.000828518
0.00810809
0.000889455
0.00807625
0.000952785
0.00804326
0.00101879
0.00800926
0.00108765
0.00797442
0.00115964
0.00793889
0.00123508
0.00790327
0.00131384
0.0078682
0.00139625
0.00783357
0.0014833
0.00779814
0.00157595
0.00776265
0.00167326
0.00772998
0.00177534
0.00770097
0.00188321
0.00767528
0.00199776
0.0076542
0.00211836
0.0076391
0.00224691
0.00763167
0.00238219
0.00763435
0.00252634
0.00764868
0.00267824
0.00767976
0.00283855
0.00772907
0.00300756
0.00780548
0.00318218
0.00791178
0.00336364
0.00805955
0.00354325
0.00825757
0.00371932
0.00851309
0.00387761
0.00883729
0.00400442
0.00921473
0.0040809
0.00966834
0.0040507
0.00392787
0.00998752
0.00845154
9.98347e-06
0.00798004
-6.57863e-05
0.00836294
-0.000272002
0.00854476
-0.000213757
0.00858821
-4.10833e-05
0.0085792
7.23579e-05
0.00856265
0.000147796
0.00854695
0.000209027
0.00853433
0.000261693
0.00852129
0.000312745
0.00850515
0.000365586
0.00848611
0.000418542
0.00846498
0.000470999
0.00844259
0.000523128
0.00841889
0.000575816
0.00839397
0.000629321
0.00836801
0.000683929
0.00834113
0.000739877
0.00831347
0.000797429
0.00828516
0.000856799
0.00825634
0.00091825
0.00822708
0.000982004
0.00819756
0.00104827
0.00816802
0.00111715
0.00813899
0.00118861
0.0081109
0.00126312
0.00808281
0.00134189
0.00805459
0.00142442
0.00802736
0.00151047
0.00800286
0.00160039
0.00798105
0.00169501
0.00796208
0.00179426
0.00794663
0.0018986
0.00793632
0.00200802
0.0079315
0.00212313
0.00793495
0.00224341
0.00794694
0.00237015
0.00797179
0.00250144
0.00801025
0.00263974
0.00806747
0.00278126
0.00814658
0.00292838
0.00825227
0.0030764
0.00839122
0.00322461
0.00856591
0.00336845
0.00878513
0.00350002
0.00904745
0.00361517
0.00935567
0.00369609
0.00970091
0.00373555
0.0100474
0.00370413
0.00359497
0.0103802
0.00851939
1.5816e-05
0.00824815
-0.000395106
0.00879407
-0.000606539
0.00889199
-0.000291543
0.00887354
-1.96332e-05
0.00880605
0.000140085
0.00877416
0.000179703
0.00875422
0.000228977
0.00874452
0.000271412
0.00872998
0.000327299
0.00871099
0.000384589
0.00868989
0.000439646
0.00866782
0.000493075
0.00864475
0.000546196
0.0086207
0.000599859
0.00859558
0.000654431
0.00856937
0.000710128
0.00854216
0.00076708
0.00851405
0.000825521
0.00848521
0.000885612
0.00845571
0.000947725
0.00842589
0.00101179
0.00839625
0.00107787
0.00836711
0.00114626
0.00833761
0.00121807
0.0083084
0.00129228
0.00828129
0.00136896
0.00825717
0.00144848
0.00823569
0.0015319
0.00821771
0.00161833
0.00820346
0.00170921
0.00819428
0.00180338
0.00819033
0.0019025
0.00819331
0.00200499
0.00820359
0.00211279
0.00822307
0.00222388
0.00825306
0.00234012
0.0082952
0.00245926
0.0083529
0.002582
0.00842703
0.00270707
0.0085233
0.00283206
0.00864224
0.00295739
0.00879068
0.0030761
0.00896908
0.00318997
0.00918197
0.00328703
0.00942877
0.00336829
0.00970661
0.00341815
0.0100113
0.00343076
0.0103144
0.00340096
0.00330269