/*--------------------------------*- C++ -*----------------------------------*\
| =========                 |                                                 |
| \\      /  F ield         | OpenFOAM: The Open Source CFD Toolbox           |
|  \\    /   O peration     | Version:  2412                                  |
|   \\  /    A nd           | Website:  www.openfoam.com                      |
|    \\/     M anipulation  |                                                 |
\*---------------------------------------------------------------------------*/
FoamFile
{
    version     2.0;
    format      ascii;
    arch        "LSB;label=32;scalar=64";
    class       volScalarField;
    location    "16";
    object      T;
}
// * * * * * * * * * * * * * * * * * * * * * * * * * * * * * * * * * * * * * //

dimensions      [0 0 0 1 0 0 0];

internalField   nonuniform List<scalar> 
7000
(
1.31901
2.65612
2.71904
2.66992
2.66451
2.64758
2.64412
2.64691
2.64885
2.65115
2.65231
2.6534
2.65447
2.65587
2.65735
2.65899
2.66075
2.66257
2.66462
2.66665
2.66898
2.67122
2.67383
2.67629
2.67914
2.68185
2.68493
2.68789
2.69118
2.69438
2.69782
2.70123
2.7048
2.70838
2.71201
2.7157
2.71932
2.72302
2.72654
2.73014
2.73341
2.73675
2.73961
2.74257
2.74481
2.74716
2.74869
2.75001
2.75062
2.75192
1.31907
2.65634
2.71929
2.67002
2.66464
2.6477
2.64424
2.64703
2.64897
2.65126
2.65242
2.65351
2.65458
2.65598
2.65746
2.65909
2.66085
2.66267
2.66472
2.66674
2.66907
2.67131
2.67391
2.67637
2.67922
2.68192
2.685
2.68795
2.69124
2.69443
2.69787
2.70128
2.70483
2.70841
2.71203
2.71571
2.71932
2.72301
2.72652
2.7301
2.73336
2.73669
2.73954
2.74247
2.74471
2.74701
2.74853
2.74978
2.75036
2.75147
1.31905
2.65625
2.71918
2.67
2.6646
2.64764
2.64418
2.64699
2.64888
2.65121
2.65232
2.65345
2.65447
2.65591
2.65735
2.65902
2.66074
2.66259
2.66459
2.66665
2.66894
2.6712
2.67376
2.67625
2.67907
2.68179
2.68483
2.6878
2.69106
2.69426
2.69768
2.70109
2.70463
2.70821
2.71182
2.7155
2.71911
2.7228
2.72632
2.72989
2.73317
2.73646
2.73935
2.74222
2.74446
2.7468
2.74826
2.74957
2.75008
2.75124
1.31903
2.65608
2.719
2.67
2.66455
2.64753
2.64409
2.64681
2.64883
2.65103
2.65226
2.65325
2.6544
2.6557
2.65726
2.6588
2.66064
2.66235
2.66448
2.66639
2.66881
2.67093
2.67362
2.67595
2.67891
2.68146
2.68465
2.68744
2.69085
2.69387
2.69744
2.70066
2.70435
2.70774
2.7115
2.71499
2.71874
2.72227
2.7259
2.72938
2.73271
2.73604
2.73883
2.74189
2.74389
2.74636
2.74782
2.74896
2.74967
2.75063
1.31899
2.65585
2.71877
2.67002
2.6645
2.64741
2.64396
2.64669
2.64869
2.65087
2.6521
2.65307
2.65423
2.6555
2.65708
2.65857
2.66043
2.66211
2.66425
2.66614
2.66854
2.67067
2.67331
2.67568
2.67854
2.68118
2.68423
2.68715
2.69036
2.69356
2.69688
2.70035
2.70372
2.70741
2.71079
2.71464
2.71794
2.72187
2.725
2.72887
2.73177
2.73537
2.73805
2.74107
2.74344
2.74541
2.74719
2.7484
2.74875
2.75003
1.31895
2.65556
2.71848
2.67006
2.66445
2.64728
2.64377
2.64665
2.64837
2.65081
2.65174
2.65301
2.65382
2.65544
2.65662
2.6585
2.65993
2.66201
2.6637
2.66599
2.66795
2.67048
2.67268
2.67544
2.67787
2.68087
2.68352
2.68676
2.68961
2.69308
2.69612
2.69975
2.70297
2.7067
2.71008
2.71381
2.71731
2.72091
2.72448
2.72777
2.73124
2.73406
2.73726
2.7399
2.74233
2.74474
2.74591
2.74731
2.74803
2.74874
1.3189
2.6552
2.71812
2.67012
2.66439
2.64707
2.64359
2.64631
2.64827
2.65045
2.65161
2.65262
2.65367
2.65502
2.65646
2.65804
2.65976
2.6615
2.66352
2.66543
2.66775
2.66983
2.67247
2.67471
2.67764
2.68004
2.68326
2.68581
2.6893
2.69201
2.69571
2.69856
2.7024
2.70542
2.70931
2.71249
2.71634
2.71964
2.72329
2.72672
2.72991
2.73335
2.73565
2.73887
2.7409
2.74327
2.74498
2.74594
2.74632
2.74774
1.31884
2.65476
2.71768
2.67018
2.66431
2.64683
2.64333
2.64605
2.64797
2.65015
2.65129
2.65227
2.65333
2.65461
2.65609
2.65758
2.65935
2.66101
2.66306
2.6649
2.66723
2.66928
2.67187
2.67414
2.67694
2.67946
2.68244
2.68523
2.68834
2.69144
2.69461
2.69799
2.70114
2.70478
2.70785
2.71168
2.71471
2.7186
2.72156
2.7253
2.72827
2.73157
2.73464
2.73684
2.73946
2.74157
2.74279
2.74452
2.74516
2.7456
1.31877
2.65425
2.71716
2.67027
2.66422
2.64656
2.64302
2.64578
2.64757
2.64984
2.65085
2.65191
2.65286
2.6542
2.65558
2.65712
2.65878
2.66049
2.66242
2.66434
2.66653
2.66864
2.67109
2.67339
2.6761
2.6786
2.68154
2.68424
2.68737
2.69028
2.69357
2.69665
2.70009
2.70326
2.70684
2.70998
2.71363
2.71668
2.72037
2.72321
2.72671
2.72948
2.73241
2.73553
2.73695
2.73985
2.74125
2.74192
2.74239
2.74403
1.31869
2.65364
2.71655
2.67037
2.66412
2.64622
2.64266
2.64533
2.64723
2.64934
2.65044
2.65138
2.65241
2.65362
2.65506
2.65649
2.65823
2.65978
2.66182
2.66353
2.66587
2.66776
2.67034
2.67243
2.67522
2.67755
2.68048
2.68309
2.68615
2.68903
2.69218
2.69528
2.69849
2.70177
2.70499
2.70842
2.71156
2.71507
2.71803
2.72159
2.72412
2.7276
2.72978
2.7328
2.73508
2.73652
2.7385
2.74003
2.74058
2.74067
1.31859
2.65294
2.71584
2.67049
2.664
2.64585
2.64223
2.64495
2.64673
2.64887
2.6499
2.65082
2.65182
2.65301
2.6544
2.65581
2.65747
2.65906
2.66096
2.66276
2.66488
2.66692
2.66921
2.67152
2.67396
2.67652
2.67912
2.6819
2.68465
2.68762
2.69055
2.69366
2.69672
2.6999
2.70305
2.70627
2.70947
2.71261
2.71583
2.71878
2.7219
2.72447
2.72734
2.72966
2.7318
2.73432
2.73505
2.73587
2.73632
2.73826
1.31849
2.65213
2.71504
2.67061
2.66386
2.64539
2.64174
2.64437
2.64621
2.64825
2.64928
2.65018
2.6511
2.65233
2.6536
2.65508
2.65658
2.65824
2.65998
2.66184
2.66382
2.66586
2.66809
2.67028
2.67275
2.67509
2.67779
2.68026
2.68317
2.6858
2.68884
2.69163
2.69475
2.69767
2.7008
2.70383
2.7069
2.70997
2.71286
2.71598
2.71849
2.7216
2.72348
2.72644
2.72793
2.72968
2.73188
2.73302
2.73349
2.73309
1.31837
2.65122
2.71411
2.67083
2.6636
2.64493
2.64117
2.64385
2.64553
2.64762
2.64854
2.64945
2.65031
2.6515
2.65274
2.65414
2.65565
2.6572
2.65897
2.66068
2.66269
2.66458
2.66681
2.66888
2.67129
2.67355
2.6761
2.67858
2.68122
2.68393
2.68665
2.68952
2.6923
2.69526
2.69805
2.70108
2.70385
2.70685
2.70949
2.7124
2.71488
2.71746
2.71982
2.72172
2.72402
2.72552
2.72588
2.7266
2.72696
2.72927
1.31825
2.65026
2.71297
2.67147
2.66297
2.64436
2.64051
2.64315
2.64479
2.64682
2.64775
2.64855
2.64944
2.6505
2.6518
2.65304
2.65461
2.65599
2.65781
2.65936
2.66141
2.66311
2.66537
2.66725
2.66968
2.67173
2.67431
2.67653
2.67922
2.68159
2.68438
2.68689
2.68972
2.69233
2.6951
2.69779
2.70045
2.70318
2.70565
2.70828
2.7105
2.7129
2.71465
2.71682
2.71774
2.71989
2.72145
2.7221
2.72227
2.72109
1.31811
2.64917
2.71171
2.6721
2.66234
2.64372
2.63978
2.6423
2.64399
2.64588
2.64683
2.64754
2.64841
2.64942
2.65066
2.65187
2.65334
2.65471
2.6564
2.65793
2.65984
2.66155
2.66363
2.66551
2.66774
2.6698
2.67213
2.67437
2.67674
2.67919
2.68155
2.68418
2.68649
2.68923
2.69147
2.69421
2.69636
2.69898
2.70108
2.70344
2.70536
2.70744
2.70905
2.71055
2.71195
2.71184
2.71215
2.71212
2.71255
2.71467
1.31796
2.64794
2.71039
2.67259
2.66175
2.64301
2.63893
2.64148
2.64298
2.64493
2.64572
2.64649
2.64719
2.64825
2.64933
2.65057
2.65189
2.65328
2.65482
2.65637
2.65808
2.6598
2.66168
2.66357
2.66558
2.66762
2.66972
2.67189
2.67405
2.67632
2.67857
2.68089
2.68319
2.68544
2.68778
2.68987
2.69214
2.69406
2.69605
2.69782
2.69932
2.70077
2.70187
2.70286
2.70342
2.70485
2.70452
2.70426
2.70273
2.70081
1.31779
2.64661
2.70893
2.67315
2.66106
2.64221
2.63798
2.64052
2.64189
2.64381
2.64453
2.64523
2.64593
2.64686
2.64795
2.64904
2.65038
2.65159
2.65315
2.6545
2.65625
2.65773
2.65964
2.66124
2.66328
2.665
2.66715
2.66895
2.67116
2.67301
2.67523
2.67713
2.67929
2.68123
2.68319
2.68518
2.68677
2.68878
2.68995
2.69169
2.69257
2.69345
2.69379
2.69389
2.69321
2.69136
2.69069
2.68844
2.68744
2.68779
1.31761
2.64516
2.70738
2.67372
2.66033
2.6413
2.63692
2.63931
2.64076
2.64243
2.64328
2.64375
2.64454
2.64526
2.64643
2.64731
2.64872
2.6497
2.65132
2.65242
2.65422
2.65545
2.65737
2.65873
2.66073
2.66223
2.66425
2.66588
2.66784
2.66961
2.67143
2.67331
2.67493
2.67685
2.67818
2.67994
2.68104
2.68229
2.68331
2.68372
2.68452
2.68444
2.68408
2.68313
2.68198
2.68034
2.67605
2.6724
2.66627
2.66062
1.31742
2.64362
2.70575
2.6743
2.6595
2.64029
2.63572
2.63804
2.63939
2.64099
2.64176
2.64219
2.64288
2.64357
2.64461
2.64548
2.64672
2.64772
2.64911
2.65025
2.65177
2.65305
2.65463
2.65606
2.65765
2.65924
2.66079
2.66251
2.66396
2.66574
2.66711
2.66884
2.67014
2.67167
2.67287
2.67395
2.67505
2.67541
2.67607
2.67593
2.67512
2.67436
2.67195
2.66982
2.66515
2.65982
2.6547
2.64491
2.63486
2.62263
1.31727
2.64229
2.70346
2.67485
2.65856
2.63914
2.63433
2.63666
2.63775
2.63945
2.64002
2.64059
2.64103
2.64187
2.64266
2.64365
2.64462
2.6457
2.64682
2.648
2.64925
2.65054
2.65187
2.65325
2.6546
2.65602
2.65737
2.65878
2.66011
2.66139
2.66268
2.66374
2.66494
2.6657
2.6667
2.667
2.66767
2.66755
2.66721
2.66636
2.66531
2.66269
2.66049
2.65523
2.65056
2.64053
2.62776
2.61089
2.58161
2.51086
1.31728
2.6415
2.69884
2.67533
2.65711
2.63736
2.63224
2.63435
2.63548
2.63687
2.63759
2.63786
2.63846
2.63892
2.63989
2.64047
2.64163
2.64229
2.64359
2.64434
2.64573
2.64657
2.648
2.6489
2.65031
2.65123
2.65258
2.65347
2.65472
2.65551
2.65653
2.65713
2.65779
2.65809
2.65834
2.65803
2.65746
2.65656
2.65468
2.65264
2.64852
2.64495
2.63732
2.63127
2.61836
2.6061
2.58329
2.54734
2.48934
2.36356
1.31726
2.64051
2.69416
2.67549
2.6552
2.63498
2.62937
2.63143
2.63235
2.63372
2.63441
2.63464
2.63512
2.63556
2.63633
2.63696
2.63782
2.63855
2.63946
2.64029
2.64122
2.64213
2.64304
2.64398
2.64481
2.64575
2.64646
2.64732
2.64785
2.64857
2.64881
2.64932
2.64928
2.6491
2.64863
2.64807
2.64656
2.6453
2.6422
2.63977
2.63475
2.62872
2.62118
2.60767
2.59476
2.56844
2.54159
2.49159
2.4171
2.31756
1.31724
2.63986
2.69173
2.67531
2.65363
2.6327
2.62646
2.62827
2.62909
2.63048
2.63111
2.6313
2.63165
2.63205
2.63266
2.63325
2.63395
2.63462
2.63536
2.6361
2.63685
2.63762
2.63835
2.63909
2.63975
2.64039
2.6409
2.64135
2.64161
2.64179
2.64163
2.64126
2.64072
2.63954
2.63831
2.63597
2.63389
2.62998
2.62688
2.62058
2.61597
2.60595
2.59848
2.58339
2.56648
2.54282
2.5063
2.46372
2.39191
2.31803
1.31712
2.63872
2.69094
2.67413
2.6517
2.62991
2.62321
2.62513
2.62598
2.6275
2.62803
2.6281
2.62821
2.62847
2.62874
2.62919
2.62951
2.63
2.63036
2.63089
2.63127
2.63181
2.63221
2.63274
2.63313
2.6336
2.63391
2.63433
2.63444
2.63452
2.63442
2.63409
2.6335
2.63222
2.63096
2.62816
2.62584
2.62096
2.61652
2.60936
2.60107
2.59118
2.57711
2.56311
2.54102
2.51796
2.48441
2.44351
2.3908
2.32834
1.31681
2.63959
2.70331
2.67083
2.65179
2.62839
2.62115
2.62387
2.62482
2.62666
2.62714
2.62709
2.62705
2.62709
2.62717
2.62728
2.62734
2.62738
2.62737
2.62733
2.62725
2.62709
2.62693
2.62661
2.62633
2.62587
2.62551
2.6247
2.62423
2.62315
2.6225
2.62104
2.62018
2.61816
2.61685
2.61411
2.61142
2.60774
2.60245
2.59689
2.5879
2.57846
2.56459
2.54841
2.52837
2.50218
2.47334
2.43436
2.39178
2.34451
1.3017
2.58604
2.69787
2.67725
2.65934
2.6358
2.62887
2.63177
2.63282
2.63435
2.63422
2.63379
2.63312
2.63258
2.63199
2.63146
2.63083
2.63027
2.62961
2.62907
2.6284
2.62788
2.62715
2.62667
2.62579
2.62525
2.62402
2.62311
2.62126
2.61995
2.61728
2.61551
2.61197
2.60974
2.60525
2.60249
2.59683
2.5932
2.58626
2.58046
2.57183
2.56218
2.55052
2.53493
2.51782
2.49429
2.46862
2.43563
2.39791
2.35777
1.72081
2.46809
2.72815
2.70611
2.68393
2.67357
2.67406
2.67562
2.67702
2.67732
2.67613
2.6747
2.67308
2.67132
2.66935
2.66718
2.66476
2.66217
2.65934
2.6564
2.65317
2.64995
2.64639
2.64295
2.63896
2.63504
2.63063
2.62752
2.62371
2.62112
2.61753
2.61472
2.61057
2.60676
2.60173
2.59648
2.59057
2.58335
2.57666
2.56702
2.55903
2.54653
2.53609
2.51997
2.50519
2.48418
2.46288
2.43533
2.40561
2.37278
1.73274
2.46123
2.72266
2.70143
2.677
2.66796
2.67184
2.67349
2.6762
2.67704
2.67726
2.67712
2.67687
2.67658
2.67591
2.67531
2.674
2.67305
2.67103
2.66972
2.66702
2.66526
2.66191
2.65956
2.65572
2.65302
2.64872
2.64446
2.63897
2.63341
2.62698
2.62067
2.61465
2.60849
2.60296
2.59577
2.58992
2.58101
2.57362
2.56271
2.55313
2.53997
2.52744
2.51175
2.49544
2.47654
2.45572
2.43274
2.40736
2.38123
1.72947
2.46681
2.72468
2.70175
2.67346
2.66391
2.66874
2.67113
2.67431
2.67544
2.6758
2.67594
2.67612
2.67611
2.67602
2.67577
2.67519
2.6748
2.6739
2.67318
2.67165
2.67053
2.66843
2.66654
2.66388
2.66104
2.65783
2.654
2.65005
2.64495
2.64041
2.63372
2.62783
2.61868
2.61157
2.60133
2.5935
2.58314
2.57463
2.56335
2.55305
2.54017
2.52716
2.5119
2.49582
2.47749
2.45771
2.43588
2.41235
2.38936
1.73217
2.46014
2.72014
2.69629
2.67038
2.66067
2.66521
2.66743
2.67061
2.67189
2.6723
2.67259
2.67293
2.67325
2.67351
2.67356
2.67348
2.67324
2.67283
2.67212
2.67147
2.67016
2.6692
2.6672
2.66589
2.66319
2.6614
2.6577
2.65531
2.65039
2.6473
2.64099
2.63681
2.62919
2.62314
2.61388
2.60538
2.59397
2.58319
2.57037
2.55784
2.54407
2.53018
2.51485
2.49876
2.48112
2.46294
2.44287
2.4218
2.40106
1.74139
2.442
2.70857
2.68395
2.66662
2.65722
2.6601
2.66182
2.66493
2.66599
2.66667
2.66676
2.66699
2.66712
2.66727
2.66728
2.66724
2.66707
2.6669
2.66645
2.66611
2.66533
2.66476
2.66351
2.66257
2.66053
2.65915
2.65618
2.65425
2.6502
2.64737
2.64235
2.63831
2.63227
2.62664
2.61929
2.61189
2.60282
2.59315
2.58189
2.56975
2.55579
2.54117
2.52508
2.50875
2.49101
2.47278
2.45347
2.43344
2.41392
1.73631
2.43559
2.70522
2.67636
2.6688
2.6555
2.65561
2.6576
2.6606
2.66172
2.66281
2.66292
2.6632
2.66341
2.66358
2.66367
2.66366
2.66357
2.66343
2.6631
2.66281
2.66216
2.66166
2.66057
2.65979
2.65808
2.65691
2.65441
2.6527
2.64937
2.64668
2.64248
2.63849
2.63336
2.62817
2.62177
2.61512
2.60721
2.59891
2.58928
2.57904
2.56729
2.55474
2.54057
2.52548
2.50899
2.49174
2.47338
2.45425
2.43561
1.35685
2.46654
2.67893
2.6683
2.64632
2.62365
2.61655
2.62058
2.62254
2.62541
2.62682
2.62785
2.62863
2.62964
2.63034
2.63143
2.63207
2.63305
2.63354
2.63437
2.63469
2.63543
2.63556
2.63575
2.63576
2.63566
2.63544
2.63486
2.6343
2.63311
2.63195
2.63005
2.62807
2.62509
2.62186
2.61728
2.61224
2.60585
2.59893
2.59066
2.58195
2.57184
2.56119
2.54933
2.53657
2.52265
2.50781
2.49193
2.4751
2.45862
1.36026
2.47607
2.68611
2.67695
2.65237
2.62335
2.61369
2.6145
2.61649
2.61845
2.61926
2.61935
2.61955
2.61959
2.61985
2.62018
2.62055
2.62086
2.6212
2.62143
2.6217
2.62178
2.62195
2.62186
2.62169
2.6213
2.62091
2.62003
2.61933
2.61786
2.61667
2.61449
2.61253
2.6096
2.60673
2.60321
2.59952
2.59508
2.59009
2.58445
2.57773
2.57016
2.56114
2.55122
2.54036
2.52868
2.51629
2.50307
2.48895
2.47514
1.34954
2.41194
2.66893
2.6694
2.64996
2.62356
2.61377
2.61382
2.61453
2.61509
2.61476
2.61389
2.61314
2.61211
2.61144
2.61076
2.61026
2.60961
2.60913
2.60849
2.60802
2.60739
2.60689
2.60623
2.60566
2.6049
2.60418
2.60336
2.60247
2.60139
2.60002
2.59848
2.59645
2.59429
2.59148
2.58851
2.58482
2.58093
2.57626
2.57116
2.56538
2.55926
2.55255
2.54523
2.53715
2.52776
2.51722
2.50612
2.49431
2.48292
1.74188
2.39613
2.67432
2.66102
2.65204
2.63815
2.633
2.63325
2.63302
2.63274
2.63196
2.63073
2.62936
2.62769
2.62611
2.62452
2.62289
2.62116
2.61934
2.61747
2.6155
2.61353
2.61141
2.60934
2.60709
2.60496
2.60259
2.60049
2.59803
2.59561
2.59306
2.59043
2.58764
2.5846
2.58143
2.5778
2.57406
2.56968
2.5652
2.5599
2.55451
2.54819
2.5418
2.53445
2.52682
2.51878
2.51061
2.50156
2.49178
2.48218
1.34693
2.39493
2.65974
2.66564
2.64931
2.62397
2.61538
2.61399
2.61526
2.61552
2.61524
2.61488
2.614
2.61307
2.61242
2.61156
2.61083
2.60978
2.60882
2.6075
2.60636
2.605
2.60383
2.60235
2.60107
2.59923
2.59763
2.59515
2.59312
2.59043
2.58807
2.58501
2.58221
2.57867
2.57544
2.57154
2.56783
2.56345
2.55911
2.55415
2.54899
2.54322
2.53708
2.53044
2.52323
2.51564
2.50747
2.49904
2.49003
2.48139
1.34824
2.40583
2.66697
2.67114
2.65081
2.62205
2.61077
2.61057
2.61154
2.61225
2.61213
2.61143
2.61068
2.60968
2.60909
2.60835
2.60775
2.60686
2.60605
2.60492
2.60377
2.60211
2.60043
2.59826
2.59609
2.59359
2.59106
2.58826
2.58535
2.58224
2.57895
2.57554
2.57199
2.56842
2.56448
2.56056
2.55617
2.55188
2.54703
2.54233
2.53701
2.53189
2.52605
2.52035
2.51391
2.50752
2.50035
2.49306
2.48525
2.47789
1.34766
2.40151
2.66421
2.66919
2.64822
2.61877
2.60674
2.60659
2.60739
2.60831
2.60802
2.60718
2.60636
2.60525
2.60454
2.60379
2.60317
2.60236
2.60161
2.60066
2.59971
2.59855
2.59728
2.59579
2.59409
2.59217
2.58996
2.58758
2.58483
2.58194
2.57865
2.57524
2.57141
2.56753
2.56323
2.55884
2.55399
2.54904
2.54367
2.53816
2.53233
2.52632
2.52006
2.51355
2.50688
2.4999
2.49286
2.4854
2.47783
2.47048
1.34484
2.37857
2.64705
2.66139
2.64224
2.6144
2.60257
2.60112
2.60143
2.60166
2.60102
2.60023
2.59891
2.5978
2.59674
2.59586
2.59484
2.5939
2.59276
2.59172
2.59047
2.58934
2.58798
2.58673
2.58523
2.5838
2.58207
2.58036
2.5783
2.57621
2.57374
2.57115
2.56815
2.56491
2.56127
2.55737
2.55313
2.54858
2.54371
2.53842
2.53292
2.52697
2.52082
2.51423
2.50749
2.50033
2.49307
2.48557
2.47794
2.47061
1.75149
2.37274
2.64515
2.64135
2.62787
2.61377
2.60889
2.60914
2.60912
2.60901
2.60845
2.60777
2.60658
2.60542
2.60417
2.60304
2.6017
2.60038
2.59882
2.59727
2.59551
2.59374
2.59177
2.58979
2.58762
2.58542
2.58303
2.58059
2.57797
2.57526
2.57245
2.5695
2.56644
2.56314
2.55971
2.55593
2.55201
2.54767
2.54313
2.53817
2.53294
2.52735
2.52155
2.51541
2.50909
2.50243
2.49555
2.48837
2.48086
2.4737
1.34695
2.38827
2.65224
2.65969
2.63913
2.60878
2.59742
2.59605
2.59768
2.599
2.59884
2.59833
2.59774
2.59647
2.5958
2.59458
2.59384
2.59234
2.59139
2.58966
2.5881
2.58626
2.58442
2.5823
2.58019
2.57797
2.57586
2.57358
2.57141
2.56896
2.5664
2.56352
2.56055
2.55729
2.55393
2.55033
2.54658
2.54262
2.53853
2.53422
2.52971
2.52492
2.51984
2.51441
2.50867
2.50261
2.49629
2.48975
2.4829
2.47634
1.35064
2.41156
2.65462
2.6487
2.62678
2.59621
2.58543
2.5857
2.58749
2.58941
2.58975
2.58952
2.58905
2.58829
2.58777
2.58726
2.58679
2.58619
2.58552
2.58473
2.58384
2.58283
2.58168
2.58037
2.57887
2.57704
2.57495
2.57255
2.56992
2.56703
2.56402
2.56082
2.55748
2.55395
2.55028
2.54641
2.54239
2.53817
2.53379
2.52923
2.5245
2.51959
2.51458
2.50946
2.50411
2.49862
2.49286
2.4869
2.48065
2.47469
1.77134
2.37191
2.63801
2.61724
2.61087
2.59555
2.5928
2.59358
2.59466
2.59596
2.59569
2.59521
2.59486
2.5942
2.59363
2.59307
2.59248
2.59182
2.5911
2.59029
2.58942
2.58843
2.58736
2.58615
2.58483
2.58332
2.58168
2.5798
2.57773
2.57534
2.57261
2.56958
2.56625
2.56265
2.55878
2.55467
2.55031
2.54576
2.54098
2.53603
2.53084
2.52547
2.51979
2.51397
2.50796
2.50182
2.49561
2.4893
2.48286
2.47673
1.79792
2.35485
2.62605
2.60556
2.60237
2.59243
2.58905
2.58925
2.5895
2.59004
2.58978
2.58917
2.58851
2.58749
2.58645
2.58532
2.58413
2.5828
2.58138
2.57985
2.57825
2.57654
2.57483
2.57306
2.57129
2.56947
2.56763
2.56575
2.56382
2.56189
2.56001
2.55801
2.55604
2.55388
2.55168
2.54921
2.54664
2.5437
2.54039
2.53671
2.53282
2.52865
2.52425
2.51954
2.5146
2.50936
2.50381
2.49797
2.49186
2.48595
1.76271
2.38137
2.64976
2.61901
2.61322
2.59905
2.59589
2.598
2.59948
2.6003
2.60004
2.59954
2.59849
2.59727
2.596
2.59466
2.59322
2.59169
2.59004
2.58832
2.5865
2.58464
2.58254
2.58032
2.57787
2.57531
2.57254
2.56969
2.56664
2.56354
2.56027
2.55698
2.55353
2.54999
2.54629
2.54254
2.53862
2.53471
2.53084
2.52693
2.52288
2.51872
2.51438
2.50998
2.50541
2.50076
2.49592
2.49096
2.48575
2.48084
1.28613
2.49425
2.64457
2.6419
2.61666
2.58392
2.57185
2.57227
2.57491
2.5773
2.57855
2.57877
2.579
2.57897
2.57891
2.57883
2.57867
2.57834
2.57792
2.57721
2.57643
2.57532
2.57421
2.5728
2.57137
2.56961
2.56791
2.56573
2.56348
2.56106
2.55842
2.55563
2.5525
2.5493
2.54577
2.54219
2.5383
2.53438
2.53018
2.52596
2.5215
2.51704
2.51254
2.5078
2.50294
2.49785
2.49267
2.48727
2.48177
2.4765
1.77193
2.367
2.63922
2.61673
2.61041
2.59499
2.59004
2.59095
2.59136
2.59295
2.59258
2.59199
2.59154
2.59074
2.59
2.58913
2.58837
2.58738
2.58646
2.5853
2.5842
2.58285
2.58155
2.57998
2.57845
2.57664
2.57484
2.57274
2.57042
2.56781
2.565
2.56192
2.55882
2.5555
2.55216
2.54855
2.5449
2.54094
2.53695
2.53262
2.52828
2.52356
2.51868
2.5136
2.50843
2.50307
2.49762
2.49199
2.48626
2.48077
1.77332
2.36521
2.63715
2.61482
2.60856
2.59326
2.58829
2.5894
2.59043
2.59153
2.59205
2.59154
2.59111
2.5903
2.58944
2.58849
2.58749
2.58634
2.58509
2.58369
2.5822
2.5806
2.5789
2.5771
2.5752
2.57323
2.57113
2.56902
2.56695
2.56479
2.56262
2.56029
2.55779
2.55508
2.55219
2.54912
2.54591
2.54251
2.53897
2.53524
2.53136
2.5273
2.52307
2.51867
2.5141
2.50937
2.50446
2.49941
2.49416
2.48904
1.28555
2.49072
2.64192
2.63926
2.61353
2.57888
2.56592
2.56542
2.56795
2.57
2.57096
2.5709
2.57076
2.57036
2.57005
2.56958
2.56928
2.56865
2.56821
2.56729
2.56667
2.56546
2.56461
2.56313
2.56203
2.56037
2.55873
2.55693
2.55502
2.55298
2.55086
2.54861
2.5463
2.54385
2.54132
2.53863
2.53584
2.53286
2.52978
2.52648
2.52307
2.51945
2.51572
2.51177
2.50774
2.50347
2.49912
2.49455
2.48989
2.48533
1.76685
2.3727
2.6404
2.60969
2.60327
2.5873
2.58423
2.5864
2.5873
2.5894
2.58916
2.58861
2.58814
2.5873
2.5865
2.5856
2.58473
2.58368
2.58262
2.58138
2.58013
2.57872
2.57727
2.57568
2.57402
2.57224
2.57035
2.56835
2.56623
2.56398
2.56161
2.55897
2.55623
2.55324
2.55016
2.54684
2.54345
2.53982
2.53614
2.53231
2.52843
2.52439
2.52025
2.51596
2.51157
2.50702
2.50237
2.49757
2.49264
2.4879
1.79474
2.35582
2.62383
2.59574
2.59173
2.58003
2.57674
2.57793
2.57823
2.57892
2.57873
2.57832
2.57782
2.57709
2.57633
2.57558
2.57473
2.57382
2.57281
2.57171
2.57051
2.56923
2.56785
2.56638
2.56483
2.56317
2.56145
2.55961
2.55771
2.55569
2.5536
2.55154
2.54937
2.5472
2.54491
2.54258
2.5401
2.53751
2.5347
2.53175
2.52856
2.52526
2.52178
2.51818
2.51441
2.51051
2.50644
2.50225
2.49785
2.49367
1.79933
2.35061
2.61884
2.59259
2.58895
2.5777
2.57387
2.57454
2.57471
2.57508
2.57493
2.57451
2.57398
2.57322
2.57241
2.57163
2.57073
2.56978
2.5687
2.56757
2.5663
2.56496
2.56348
2.56194
2.56025
2.55849
2.55658
2.5546
2.55247
2.55025
2.5479
2.54546
2.54289
2.54023
2.53745
2.53458
2.53159
2.52857
2.52547
2.5223
2.51906
2.5157
2.51225
2.50867
2.50499
2.50117
2.49727
2.49321
2.48904
2.48503
1.77985
2.35584
2.61638
2.60287
2.59347
2.57703
2.57199
2.57245
2.57307
2.57366
2.57363
2.57317
2.57259
2.57177
2.57091
2.57014
2.56924
2.56833
2.56725
2.56616
2.56491
2.56363
2.56219
2.56071
2.55908
2.55739
2.55555
2.55363
2.55158
2.54943
2.54714
2.54475
2.54224
2.53959
2.53684
2.53394
2.53094
2.52779
2.52455
2.52115
2.51768
2.51404
2.51035
2.50647
2.50255
2.49843
2.49429
2.48994
2.48555
2.48127
1.34475
2.37976
2.63789
2.63731
2.61512
2.58165
2.56744
2.56505
2.56636
2.56747
2.56741
2.56716
2.56644
2.56546
2.56452
2.56375
2.56289
2.56203
2.561
2.55994
2.55872
2.55747
2.55606
2.5546
2.55298
2.55129
2.54945
2.54754
2.54547
2.54331
2.54099
2.53858
2.53602
2.53336
2.53055
2.52762
2.52455
2.52136
2.51803
2.51457
2.51097
2.50725
2.50339
2.49941
2.4953
2.49107
2.48671
2.48225
2.47766
2.47324
1.346
2.38734
2.65279
2.65696
2.63091
2.59241
2.57487
2.57251
2.57415
2.57544
2.57589
2.57554
2.5747
2.5737
2.57263
2.57177
2.57088
2.56997
2.56893
2.56784
2.56663
2.56537
2.56399
2.56256
2.561
2.5594
2.55765
2.55586
2.55391
2.55192
2.54977
2.54756
2.5452
2.54277
2.54018
2.53751
2.53469
2.53178
2.52871
2.52556
2.52223
2.51882
2.51524
2.51156
2.50772
2.50378
2.49968
2.49548
2.49113
2.48694
1.3451
2.37924
2.63628
2.63628
2.61338
2.58005
2.56488
2.56288
2.56423
2.56515
2.56556
2.56512
2.56441
2.56337
2.56243
2.5616
2.56078
2.5599
2.55895
2.5579
2.55678
2.55558
2.5543
2.55295
2.5515
2.54998
2.54835
2.54665
2.54484
2.54295
2.54094
2.53885
2.53665
2.53435
2.53194
2.52943
2.5268
2.52407
2.52122
2.51826
2.51518
2.51199
2.50867
2.50524
2.50169
2.49802
2.49422
2.49031
2.48627
2.48236
1.78112
2.35415
2.61392
2.59962
2.58994
2.57206
2.56697
2.56729
2.56791
2.56891
2.56875
2.56817
2.56769
2.56675
2.566
2.56513
2.56436
2.56338
2.56244
2.56131
2.56021
2.55892
2.55766
2.55621
2.55477
2.55317
2.55154
2.54976
2.54794
2.54598
2.54397
2.54181
2.5396
2.53725
2.53482
2.53226
2.52962
2.52685
2.52398
2.521
2.5179
2.51469
2.51136
2.50792
2.50435
2.50068
2.49687
2.49296
2.48888
2.485
1.8014
2.3471
2.61449
2.58729
2.58376
2.5725
2.56898
2.57003
2.57034
2.57074
2.5706
2.57003
2.56952
2.56853
2.56775
2.56677
2.56592
2.56481
2.56379
2.56251
2.56132
2.55987
2.55849
2.55687
2.55531
2.55351
2.55174
2.54976
2.54776
2.5456
2.54338
2.54102
2.53858
2.53602
2.53335
2.53057
2.52766
2.52467
2.52152
2.51832
2.51494
2.51151
2.50789
2.50423
2.50037
2.49649
2.4924
2.48829
2.48395
2.47989
1.78832
2.36075
2.62692
2.5953
2.58869
2.57458
2.57208
2.5741
2.57559
2.57648
2.57645
2.57589
2.5754
2.57448
2.57376
2.57283
2.57204
2.57096
2.56999
2.56876
2.56761
2.56621
2.56488
2.56332
2.5618
2.56007
2.55834
2.55645
2.5545
2.55242
2.55025
2.54799
2.54559
2.54314
2.54051
2.53785
2.53498
2.53211
2.52901
2.52591
2.52258
2.51925
2.51568
2.51212
2.50832
2.50452
2.50048
2.49645
2.49218
2.4882
2.17156
2.34274
2.76433
2.85801
2.90159
2.84774
2.84381
2.84234
2.83458
2.83316
2.83546
2.83706
2.83783
2.83855
2.83967
2.8408
2.84231
2.84373
2.84476
2.84525
2.84537
2.84469
2.84337
2.84216
2.83912
2.83584
2.83144
2.82756
2.82237
2.81722
2.81091
2.80495
2.79798
2.79135
2.78412
2.77707
2.7696
2.76169
2.75327
2.74507
2.73663
2.7284
2.71988
2.71157
2.70308
2.69477
2.68642
2.67825
2.67009
2.66216
2.65428
2.64668
2.63918
2.632
2.62495
2.61831
2.61182
2.60582
2.60001
2.59477
2.58977
2.58541
2.58133
2.57797
2.57494
2.57269
2.57079
2.5697
2.56893
2.56893
2.56901
2.5693
2.56995
2.57137
2.57328
2.57563
2.57796
2.58033
2.58268
2.58493
2.58714
2.58907
2.59092
2.59239
2.59376
2.59471
2.59555
2.59598
2.59632
2.59633
2.59622
2.596
2.59566
2.59498
2.59415
2.59309
2.59217
2.59105
2.59013
2.58715
2.1797
2.25897
2.44908
2.62773
2.69515
2.7415
2.77436
2.80224
2.819
2.83234
2.841
2.85126
2.85768
2.85725
2.85335
2.84709
2.83882
2.82997
2.81976
2.80959
2.79822
2.78738
2.77595
2.76499
2.75315
2.74196
2.72988
2.71859
2.70658
2.69534
2.68354
2.67239
2.66083
2.6498
2.63876
2.62829
2.61771
2.60694
2.59589
2.58516
2.57471
2.56451
2.55442
2.5446
2.53487
2.52547
2.51616
2.5072
2.49834
2.48984
2.48144
2.47342
2.46556
2.45806
2.45079
2.4439
2.4373
2.43111
2.42527
2.41987
2.4149
2.4104
2.40639
2.4029
2.39994
2.39753
2.3957
2.39444
2.39375
2.39353
2.39366
2.39401
2.39478
2.39621
2.39831
2.40084
2.4035
2.40613
2.40882
2.41133
2.41382
2.41596
2.41802
2.41962
2.4211
2.42208
2.42294
2.42331
2.42356
2.4235
2.42335
2.42304
2.42268
2.4219
2.42113
2.41997
2.41908
2.41787
2.41708
2.41418
2.22652
2.21161
2.27091
2.35643
2.41096
2.45854
2.49253
2.52047
2.54251
2.55893
2.57132
2.58046
2.58751
2.58964
2.58875
2.58673
2.58223
2.5772
2.57116
2.56465
2.55748
2.55016
2.54245
2.5348
2.52673
2.51874
2.51031
2.50215
2.49356
2.48537
2.47673
2.46857
2.45994
2.45183
2.44347
2.43586
2.42794
2.41996
2.4114
2.40308
2.39499
2.38705
2.37922
2.37145
2.36382
2.35625
2.34886
2.34154
2.33444
2.32742
2.32066
2.31399
2.30761
2.30135
2.29542
2.28963
2.28422
2.27899
2.27419
2.26961
2.2655
2.26168
2.25836
2.2554
2.25297
2.25095
2.24948
2.24847
2.248
2.24792
2.24811
2.24848
2.2493
2.2505
2.25255
2.25475
2.25726
2.25964
2.26212
2.26437
2.2666
2.26852
2.2703
2.27171
2.27292
2.27377
2.27439
2.27468
2.27476
2.27461
2.27445
2.27409
2.27373
2.27298
2.27224
2.27121
2.27041
2.26939
2.26889
2.26655
2.25937
2.21945
2.21482
2.23964
2.27062
2.29307
2.30835
2.32008
2.33062
2.3398
2.34743
2.35342
2.35804
2.36158
2.36315
2.36331
2.36323
2.36305
2.36287
2.36253
2.3621
2.36143
2.3608
2.35954
2.35814
2.3564
2.35426
2.35182
2.34902
2.34598
2.3426
2.33901
2.33507
2.33099
2.3268
2.32277
2.31856
2.31385
2.30856
2.30305
2.29761
2.29214
2.28667
2.28109
2.27551
2.26984
2.26421
2.25853
2.25294
2.24733
2.24184
2.23638
2.23108
2.22585
2.22082
2.21592
2.21125
2.20677
2.20257
2.19862
2.19499
2.19166
2.18872
2.18612
2.18397
2.1822
2.18092
2.18007
2.17975
2.17978
2.18003
2.18042
2.18126
2.18246
2.18443
2.18653
2.18898
2.1913
2.19377
2.19595
2.19817
2.2
2.20179
2.20314
2.20441
2.20521
2.20592
2.20621
2.20644
2.20637
2.20629
2.20611
2.20585
2.20526
2.20472
2.20385
2.20325
2.20242
2.20218
2.20017
2.27451
2.24067
2.21855
2.21082
2.21784
2.22251
2.22455
2.22518
2.2261
2.22792
2.23066
2.23292
2.23492
2.23674
2.23945
2.24177
2.24397
2.24643
2.24909
2.25194
2.25484
2.25764
2.26025
2.26251
2.26445
2.26583
2.26677
2.26727
2.26698
2.26642
2.26528
2.26386
2.26177
2.25954
2.25692
2.2545
2.25163
2.24837
2.24425
2.23994
2.23536
2.23087
2.22613
2.22146
2.21654
2.21169
2.20663
2.20167
2.19657
2.1916
2.18654
2.18165
2.17673
2.172
2.1673
2.16283
2.15846
2.15434
2.1504
2.14675
2.14334
2.14026
2.13749
2.13509
2.13307
2.13146
2.13027
2.12954
2.12932
2.12942
2.12965
2.13009
2.1309
2.13218
2.13396
2.13603
2.13828
2.14061
2.14291
2.1451
2.14712
2.14895
2.15052
2.15185
2.15289
2.15366
2.15417
2.15444
2.15446
2.15434
2.1542
2.15389
2.15356
2.15282
2.15229
2.15132
2.15074
2.14982
2.14965
2.14755
2.29806
2.25419
2.23013
2.21015
2.20029
2.19341
2.18768
2.18158
2.17673
2.17289
2.17112
2.17055
2.17111
2.17147
2.17256
2.17478
2.17734
2.18053
2.18346
2.18708
2.19045
2.19432
2.19765
2.20118
2.20393
2.20665
2.20845
2.21008
2.21079
2.21135
2.21112
2.21048
2.20925
2.20778
2.20599
2.20428
2.20215
2.19956
2.19619
2.19251
2.18854
2.1845
2.1803
2.17605
2.17166
2.16721
2.16265
2.15806
2.15341
2.14875
2.1441
2.13948
2.13491
2.13043
2.12605
2.12179
2.1177
2.11378
2.11008
2.1066
2.1034
2.10047
2.09788
2.0956
2.09372
2.0922
2.09115
2.09052
2.0904
2.09052
2.09077
2.09128
2.09211
2.09346
2.09515
2.09713
2.09929
2.10154
2.10379
2.10593
2.10792
2.10968
2.11123
2.1125
2.11355
2.11431
2.11486
2.11512
2.1152
2.11511
2.11501
2.11474
2.11444
2.11375
2.1133
2.11241
2.11192
2.1111
2.11102
2.10905
2.32179
2.2816
2.24791
2.22311
2.20271
2.18774
2.17539
2.1649
2.15543
2.14793
2.14205
2.1385
2.13637
2.13594
2.13599
2.13654
2.13842
2.14123
2.14449
2.14784
2.15153
2.15527
2.15909
2.16276
2.16621
2.16932
2.17193
2.1741
2.17564
2.17676
2.1772
2.17731
2.17669
2.17577
2.17466
2.1735
2.17195
2.16989
2.16712
2.16397
2.16051
2.15687
2.15307
2.14918
2.14516
2.14106
2.13686
2.13259
2.12826
2.12389
2.11951
2.11515
2.11083
2.10656
2.10241
2.09835
2.09446
2.0907
2.08718
2.08385
2.08081
2.07801
2.07556
2.07338
2.07163
2.0702
2.06927
2.06873
2.06869
2.06882
2.06908
2.06963
2.07053
2.07189
2.07354
2.07543
2.0775
2.07966
2.08181
2.08388
2.0858
2.08752
2.08902
2.09027
2.09128
2.09203
2.09255
2.09278