/*--------------------------------*- C++ -*----------------------------------*\
| =========                 |                                                 |
| \\      /  F ield         | OpenFOAM: The Open Source CFD Toolbox           |
|  \\    /   O peration     | Version:  2412                                  |
|   \\  /    A nd           | Website:  www.openfoam.com                      |
|    \\/     M anipulation  |                                                 |
\*---------------------------------------------------------------------------*/
FoamFile
{
    version     2.0;
    format      ascii;
    arch        "LSB;label=32;scalar=64";
    class       volVectorField;
    location    "16";
    object      U;
}
// * * * * * * * * * * * * * * * * * * * * * * * * * * * * * * * * * * * * * //

dimensions      [0 1 -1 0 0 0 0];

internalField   nonuniform List<vector> 
7000
(
(2.59197 -7.27915e-05 0)
(1.62279 0.000178442 0)
(0.497289 0.000207356 0)
(0.553105 0.000349391 0)
(0.654833 0.000445391 0)
(0.720182 0.000523445 0)
(0.733122 0.000591249 0)
(0.726244 0.000661515 0)
(0.716184 0.000739973 0)
(0.708479 0.000830428 0)
(0.704009 0.000929123 0)
(0.700442 0.0010324 0)
(0.696359 0.00113946 0)
(0.691505 0.00125123 0)
(0.686041 0.00136874 0)
(0.680092 0.00149255 0)
(0.673677 0.00162296 0)
(0.666763 0.00176028 0)
(0.659314 0.00190496 0)
(0.651303 0.00205752 0)
(0.642709 0.00221859 0)
(0.633509 0.00238882 0)
(0.623676 0.00256893 0)
(0.613184 0.00275969 0)
(0.602005 0.00296191 0)
(0.590107 0.00317647 0)
(0.577459 0.00340431 0)
(0.564027 0.00364634 0)
(0.549776 0.00390359 0)
(0.53467 0.00417698 0)
(0.518672 0.00446755 0)
(0.501743 0.00477612 0)
(0.483847 0.00510363 0)
(0.464945 0.00545065 0)
(0.445002 0.0058178 0)
(0.423984 0.00620516 0)
(0.401862 0.00661276 0)
(0.37861 0.00703978 0)
(0.354213 0.00748527 0)
(0.328662 0.00794702 0)
(0.301963 0.00842267 0)
(0.274131 0.00890809 0)
(0.245205 0.0093993 0)
(0.215233 0.00989016 0)
(0.184295 0.0103756 0)
(0.152478 0.0108501 0)
(0.119854 0.0113154 0)
(0.0868726 0.0117593 0)
(0.0515114 0.0123477 0)
(0.0221764 0.013202 0)
(2.5921 -4.84544e-05 0)
(1.62295 0.000346714 0)
(0.496976 0.000824146 0)
(0.552842 0.00113616 0)
(0.654593 0.00137155 0)
(0.719955 0.00159349 0)
(0.732896 0.00180136 0)
(0.726022 0.00201651 0)
(0.715971 0.00225399 0)
(0.708275 0.00252387 0)
(0.703811 0.00281681 0)
(0.700249 0.00312328 0)
(0.69617 0.00344109 0)
(0.691321 0.00377246 0)
(0.685862 0.00412005 0)
(0.679919 0.00448519 0)
(0.67351 0.00486865 0)
(0.666602 0.00527107 0)
(0.659159 0.00569359 0)
(0.651155 0.0061374 0)
(0.642568 0.00660406 0)
(0.633375 0.00709501 0)
(0.623551 0.00761204 0)
(0.613067 0.00815672 0)
(0.601897 0.00873103 0)
(0.590008 0.00933663 0)
(0.577369 0.0099756 0)
(0.563946 0.0106495 0)
(0.549705 0.0113603 0)
(0.534608 0.0121092 0)
(0.518619 0.0128978 0)
(0.501699 0.0137265 0)
(0.48381 0.014596 0)
(0.464914 0.0155053 0)
(0.444975 0.0164535 0)
(0.423957 0.0174373 0)
(0.401831 0.0184532 0)
(0.37857 0.0194946 0)
(0.354157 0.0205539 0)
(0.328582 0.02162 0)
(0.301848 0.0226802 0)
(0.27397 0.0237182 0)
(0.244983 0.0247157 0)
(0.214932 0.0256529 0)
(0.183897 0.0265064 0)
(0.151962 0.0272611 0)
(0.119193 0.0279111 0)
(0.0860841 0.0284328 0)
(0.0505632 0.0290836 0)
(0.0212481 0.0298382 0)
(2.59223 4.74669e-05 0)
(1.62325 0.000390283 0)
(0.497182 0.00159934 0)
(0.552895 0.00197496 0)
(0.654634 0.00229919 0)
(0.719997 0.00266453 0)
(0.732938 0.00303378 0)
(0.726075 0.00341234 0)
(0.716046 0.00382248 0)
(0.708371 0.00428045 0)
(0.703922 0.0047753 0)
(0.700369 0.00529432 0)
(0.696299 0.00583448 0)
(0.691461 0.00639861 0)
(0.686015 0.0069906 0)
(0.680086 0.0076125 0)
(0.673691 0.00826588 0)
(0.666798 0.00895189 0)
(0.659371 0.00967265 0)
(0.651384 0.0104301 0)
(0.642815 0.0112272 0)
(0.63364 0.0120663 0)
(0.623836 0.0129507 0)
(0.613375 0.0138831 0)
(0.602227 0.014867 0)
(0.590362 0.0159055 0)
(0.577749 0.0170023 0)
(0.564354 0.0181602 0)
(0.550141 0.0193828 0)
(0.535073 0.0206726 0)
(0.519114 0.0220323 0)
(0.502224 0.0234635 0)
(0.484365 0.0249672 0)
(0.465497 0.0265428 0)
(0.445584 0.0281884 0)
(0.424589 0.0299002 0)
(0.40248 0.0316713 0)
(0.37923 0.0334928 0)
(0.354819 0.0353507 0)
(0.329233 0.037229 0)
(0.302474 0.0391039 0)
(0.274552 0.0409519 0)
(0.2455 0.0427388 0)
(0.215361 0.044435 0)
(0.18421 0.0460002 0)
(0.152136 0.0474021 0)
(0.119197 0.0486291 0)
(0.0859455 0.0496395 0)
(0.0502854 0.0506925 0)
(0.0208068 0.0516919 0)
(2.5924 5.3845e-05 0)
(1.62369 0.00053293 0)
(0.497609 0.00234319 0)
(0.553018 0.00280647 0)
(0.654757 0.0032289 0)
(0.72014 0.00374861 0)
(0.733086 0.00429392 0)
(0.726237 0.00485017 0)
(0.716237 0.00544336 0)
(0.708594 0.00609566 0)
(0.704168 0.00679728 0)
(0.700633 0.00753466 0)
(0.69658 0.00830376 0)
(0.691761 0.00910779 0)
(0.686337 0.00995102 0)
(0.680431 0.0108365 0)
(0.67406 0.0117663 0)
(0.667192 0.0127425 0)
(0.659792 0.0137677 0)
(0.651833 0.0148453 0)
(0.643295 0.0159787 0)
(0.634153 0.0171721 0)
(0.624384 0.0184292 0)
(0.61396 0.019755 0)
(0.602852 0.0211535 0)
(0.591029 0.0226301 0)
(0.578461 0.0241889 0)
(0.565112 0.0258357 0)
(0.550948 0.0275738 0)
(0.535932 0.0294088 0)
(0.520025 0.031343 0)
(0.503189 0.0333806 0)
(0.485383 0.0355215 0)
(0.466568 0.0377676 0)
(0.446705 0.0401142 0)
(0.425755 0.0425589 0)
(0.403687 0.0450904 0)
(0.380467 0.047699 0)
(0.356074 0.0503636 0)
(0.330491 0.0530638 0)
(0.303715 0.0557667 0)
(0.275752 0.0584372 0)
(0.246632 0.0610315 0)
(0.216393 0.0635013 0)
(0.185108 0.0658003 0)
(0.152867 0.0678717 0)
(0.119726 0.0696895 0)
(0.0862922 0.0711968 0)
(0.0504336 0.0726226 0)
(0.0206601 0.0737882 0)
(2.59265 6.73823e-05 0)
(1.62432 0.000712639 0)
(0.498158 0.00309354 0)
(0.553128 0.00366942 0)
(0.654885 0.0042009 0)
(0.720311 0.00487455 0)
(0.733272 0.00559698 0)
(0.726442 0.00633707 0)
(0.716478 0.00712129 0)
(0.708876 0.0079743 0)
(0.704482 0.00888841 0)
(0.700974 0.0098506 0)
(0.696948 0.0108561 0)
(0.692158 0.0119084 0)
(0.686766 0.0130118 0)
(0.680894 0.0141705 0)
(0.674558 0.0153866 0)
(0.667728 0.0166638 0)
(0.660368 0.0180048 0)
(0.652452 0.0194147 0)
(0.643959 0.0208972 0)
(0.634866 0.0224586 0)
(0.625149 0.0241031 0)
(0.614781 0.0258377 0)
(0.603732 0.0276673 0)
(0.591973 0.0295995 0)
(0.579471 0.0316393 0)
(0.566193 0.0337945 0)
(0.552103 0.0360697 0)
(0.537163 0.038472 0)
(0.521336 0.041005 0)
(0.50458 0.0436737 0)
(0.486856 0.0464794 0)
(0.468121 0.0494229 0)
(0.448335 0.0525011 0)
(0.427458 0.0557082 0)
(0.405454 0.0590336 0)
(0.382286 0.0624607 0)
(0.35793 0.0659683 0)
(0.332361 0.0695241 0)
(0.305574 0.0730928 0)
(0.277566 0.0766218 0)
(0.248364 0.0800571 0)
(0.218003 0.0833314 0)
(0.186548 0.08638 0)
(0.154099 0.0891338 0)
(0.120696 0.0915377 0)
(0.0870103 0.0935111 0)
(0.0508653 0.0952484 0)
(0.0206775 0.0965087 0)
(2.59299 7.95843e-05 0)
(1.62516 0.000895836 0)
(0.498856 0.00384281 0)
(0.553244 0.00454484 0)
(0.655028 0.00519194 0)
(0.720522 0.00601964 0)
(0.733508 0.00692595 0)
(0.726704 0.00785383 0)
(0.716784 0.00883688 0)
(0.709232 0.00989947 0)
(0.704881 0.0110346 0)
(0.701408 0.0122295 0)
(0.697418 0.01348 0)
(0.692667 0.0147891 0)
(0.687316 0.016162 0)
(0.681489 0.0176027 0)
(0.675201 0.019115 0)
(0.66842 0.0207024 0)
(0.661113 0.0223695 0)
(0.653254 0.0241214 0)
(0.644821 0.0259643 0)
(0.635793 0.0279041 0)
(0.626146 0.0299482 0)
(0.615851 0.0321033 0)
(0.604882 0.0343779 0)
(0.593207 0.0367789 0)
(0.580795 0.0393156 0)
(0.567612 0.0419946 0)
(0.553622 0.0448256 0)
(0.538786 0.0478139 0)
(0.523067 0.0509681 0)
(0.506422 0.0542912 0)
(0.48881 0.0577885 0)
(0.470187 0.0614588 0)
(0.45051 0.0653015 0)
(0.429736 0.0693076 0)
(0.407823 0.0734672 0)
(0.384735 0.0777585 0)
(0.360435 0.0821566 0)
(0.334899 0.086623 0)
(0.308108 0.0911118 0)
(0.280057 0.0955649 0)
(0.250759 0.0999085 0)
(0.220248 0.104058 0)
(0.188584 0.107926 0)
(0.155864 0.111418 0)
(0.122129 0.114454 0)
(0.0880824 0.116924 0)
(0.0515251 0.118974 0)
(0.020827 0.120307 0)
(2.59341 9.21365e-05 0)
(1.62623 0.00108116 0)
(0.499709 0.00459957 0)
(0.553365 0.00543556 0)
(0.655186 0.00620436 0)
(0.720773 0.00719012 0)
(0.733799 0.00828563 0)
(0.727025 0.00940771 0)
(0.717161 0.010598 0)
(0.709669 0.0118785 0)
(0.70537 0.0132422 0)
(0.701943 0.0146773 0)
(0.697999 0.0161805 0)
(0.693297 0.0177546 0)
(0.688 0.0194053 0)
(0.682229 0.021137 0)
(0.676 0.0229544 0)
(0.669282 0.0248615 0)
(0.662041 0.0268644 0)
(0.654254 0.0289686 0)
(0.645898 0.0311822 0)
(0.636952 0.0335118 0)
(0.627392 0.035967 0)
(0.617192 0.0385553 0)
(0.606323 0.0412874 0)
(0.594756 0.0441716 0)
(0.582459 0.0472193 0)
(0.569397 0.050439 0)
(0.555534 0.0538419 0)
(0.540833 0.0574359 0)
(0.525254 0.0612308 0)
(0.508753 0.0652323 0)
(0.491287 0.0694461 0)
(0.472811 0.0738733 0)
(0.453278 0.0785125 0)
(0.432642 0.0833561 0)
(0.410856 0.0883911 0)
(0.387876 0.0935957 0)
(0.363661 0.0989386 0)
(0.338176 0.104377 0)
(0.311396 0.109853 0)
(0.283303 0.115298 0)
(0.253903 0.120628 0)
(0.223213 0.125737 0)
(0.191295 0.130508 0)
(0.158236 0.134826 0)
(0.12407 0.138566 0)
(0.0895571 0.141586 0)
(0.0524333 0.143993 0)
(0.0210741 0.145433 0)
(2.59394 0.000104794 0)
(1.62755 0.00126694 0)
(0.500733 0.00536183 0)
(0.553496 0.00633557 0)
(0.655363 0.00722965 0)
(0.721069 0.0083778 0)
(0.734149 0.00966465 0)
(0.727417 0.0109886 0)
(0.717618 0.012395 0)
(0.710197 0.0139013 0)
(0.70596 0.015501 0)
(0.70259 0.017184 0)
(0.698703 0.0189478 0)
(0.694062 0.0207956 0)
(0.68883 0.022733 0)
(0.683128 0.024765 0)
(0.676971 0.0268966 0)
(0.67033 0.0291331 0)
(0.663172 0.0314812 0)
(0.655472 0.0339482 0)
(0.647211 0.0365428 0)
(0.638366 0.0392737 0)
(0.628914 0.0421511 0)
(0.61883 0.0451852 0)
(0.608086 0.0483874 0)
(0.596651 0.0517691 0)
(0.584495 0.0553423 0)
(0.571583 0.0591192 0)
(0.557879 0.0631113 0)
(0.543344 0.0673306 0)
(0.527938 0.071787 0)
(0.511617 0.07649 0)
(0.494336 0.0814461 0)
(0.476045 0.0866591 0)
(0.456697 0.0921285 0)
(0.436238 0.0978477 0)
(0.414619 0.103803 0)
(0.391785 0.109972 0)
(0.36769 0.11632 0)
(0.342285 0.122798 0)
(0.315534 0.129342 0)
(0.287408 0.135869 0)
(0.257897 0.142275 0)
(0.227006 0.148444 0)
(0.194783 0.154221 0)
(0.161314 0.159462 0)
(0.126611 0.16401 0)
(0.0914765 0.167667 0)
(0.0536291 0.170492 0)
(0.0214623 0.172072 0)
(2.59458 0.000117532 0)
(1.62913 0.00145224 0)
(0.501942 0.00612691 0)
(0.553638 0.00724088 0)
(0.655561 0.00826391 0)
(0.721416 0.00957849 0)
(0.734566 0.0110635 0)
(0.727887 0.0125935 0)
(0.718167 0.0142223 0)
(0.710827 0.0159626 0)
(0.706663 0.0178066 0)
(0.703362 0.0197458 0)
(0.699545 0.0217786 0)
(0.694978 0.0239085 0)
(0.689823 0.0261411 0)
(0.684203 0.0284818 0)
(0.678134 0.0309364 0)
(0.671585 0.0335112 0)
(0.664525 0.0362139 0)
(0.656931 0.039053 0)
(0.648783 0.0420384 0)
(0.64006 0.0451805 0)
(0.630738 0.0484909 0)
(0.620794 0.0519819 0)
(0.6102 0.0556665 0)
(0.598925 0.0595584 0)
(0.58694 0.0636715 0)
(0.57421 0.0680205 0)
(0.560699 0.0726192 0)
(0.546367 0.0774822 0)
(0.531173 0.0826219 0)
(0.515073 0.0880503 0)
(0.498017 0.0937765 0)
(0.479957 0.0998067 0)
(0.460838 0.106142 0)
(0.440603 0.112779 0)
(0.419195 0.119703 0)
(0.396554 0.126892 0)
(0.372619 0.134311 0)
(0.347332 0.141906 0)
(0.320639 0.149606 0)
(0.292496 0.157319 0)
(0.262875 0.16492 0)
(0.231758 0.17227 0)
(0.19918 0.179192 0)
(0.165215 0.18549 0)
(0.129861 0.190965 0)
(0.093955 0.195367 0)
(0.0551603 0.198701 0)
(0.0219697 0.200475 0)
(2.59532 0.000130185 0)
(1.63099 0.00163578 0)
(0.50335 0.0068894 0)
(0.553797 0.00814544 0)
(0.655787 0.00930001 0)
(0.721821 0.0107843 0)
(0.73506 0.0124716 0)
(0.728446 0.0142131 0)
(0.718819 0.0160715 0)
(0.711573 0.0180542 0)
(0.707495 0.0201513 0)
(0.704275 0.0223552 0)
(0.70054 0.0246653 0)
(0.696059 0.0270857 0)
(0.690997 0.0296219 0)
(0.685474 0.0322799 0)
(0.679507 0.0350661 0)
(0.673067 0.0379878 0)
(0.666123 0.0410536 0)
(0.658653 0.0442736 0)
(0.650638 0.0476588 0)
(0.642059 0.0512214 0)
(0.632892 0.0549745 0)
(0.623114 0.0589326 0)
(0.612697 0.0631102 0)
(0.601613 0.0675238 0)
(0.589832 0.0721893 0)
(0.577319 0.0771243 0)
(0.564038 0.082345 0)
(0.549949 0.0878692 0)
(0.535011 0.0937123 0)
(0.519177 0.0998896 0)
(0.502397 0.106413 0)
(0.484618 0.113293 0)
(0.465782 0.120533 0)
(0.445826 0.128131 0)
(0.424685 0.136078 0)
(0.40229 0.144351 0)
(0.378569 0.152914 0)
(0.353447 0.161715 0)
(0.326856 0.170674 0)
(0.298723 0.179692 0)
(0.269003 0.188628 0)
(0.23765 0.197319 0)
(0.204665 0.20555 0)
(0.170118 0.213085 0)
(0.13396 0.219669 0)
(0.0970795 0.224973 0)
(0.0571208 0.228929 0)
(0.0226742 0.230956 0)
(2.59619 0.000142642 0)
(1.63314 0.00181575 0)
(0.504972 0.00764129 0)
(0.553975 0.00904204 0)
(0.656044 0.0103313 0)
(0.722291 0.0119862 0)
(0.73564 0.0138798 0)
(0.729105 0.0158385 0)
(0.71959 0.0179343 0)
(0.712451 0.020168 0)
(0.70847 0.022527 0)
(0.705344 0.0250041 0)
(0.701705 0.0276 0)
(0.697326 0.0303191 0)
(0.69237 0.0331673 0)
(0.68696 0.0361508 0)
(0.681111 0.0392765 0)
(0.674798 0.0425531 0)
(0.667989 0.0459901 0)
(0.660664 0.049599 0)
(0.652804 0.0533921 0)
(0.644392 0.0573836 0)
(0.635405 0.061588 0)
(0.62582 0.0660221 0)
(0.615612 0.0707025 0)
(0.604752 0.0756481 0)
(0.593209 0.0808774 0)
(0.580952 0.0864107 0)
(0.567943 0.0922678 0)
(0.554142 0.0984692 0)
(0.539508 0.105034 0)
(0.523992 0.111982 0)
(0.507544 0.119329 0)
(0.490104 0.127089 0)
(0.471614 0.13527 0)
(0.452002 0.143877 0)
(0.431197 0.152901 0)
(0.409118 0.162327 0)
(0.385679 0.172119 0)
(0.360788 0.182226 0)
(0.334353 0.192565 0)
(0.30628 0.203032 0)
(0.276485 0.213471 0)
(0.244895 0.223695 0)
(0.211466 0.233458 0)
(0.176241 0.242458 0)
(0.139147 0.250373 0)
(0.101063 0.256797 0)
(0.0595998 0.261561 0)
(0.0235631 0.263939 0)
(2.59718 0.000153991 0)
(1.63561 0.00199099 0)
(0.506822 0.00836941 0)
(0.554181 0.00992196 0)
(0.656339 0.0113524 0)
(0.722835 0.0131719 0)
(0.736317 0.015276 0)
(0.729879 0.0174573 0)
(0.720495 0.0197988 0)
(0.713478 0.0222929 0)
(0.709609 0.0249231 0)
(0.706591 0.0276825 0)
(0.703062 0.0305727 0)
(0.698799 0.0335988 0)
(0.693965 0.0367669 0)
(0.688683 0.0400835 0)
(0.682971 0.0435563 0)
(0.676802 0.0471949 0)
(0.670147 0.0510102 0)
(0.662989 0.0550149 0)
(0.655308 0.059223 0)
(0.647088 0.0636501 0)
(0.638309 0.0683132 0)
(0.628948 0.0732306 0)
(0.61898 0.0784219 0)
(0.608379 0.0839078 0)
(0.597114 0.0897106 0)
(0.585154 0.0958528 0)
(0.572462 0.102358 0)
(0.559 0.109251 0)
(0.544724 0.116555 0)
(0.529585 0.124294 0)
(0.51353 0.132488 0)
(0.496499 0.141159 0)
(0.478427 0.150319 0)
(0.459238 0.15998 0)
(0.438852 0.17014 0)
(0.417174 0.180791 0)
(0.394106 0.191901 0)
(0.369534 0.203426 0)
(0.343341 0.215285 0)
(0.315398 0.227369 0)
(0.285586 0.239516 0)
(0.253782 0.251512 0)
(0.21989 0.263079 0)
(0.183895 0.273866 0)
(0.14567 0.283446 0)
(0.106123 0.291295 0)
(0.0628096 0.297107 0)
(0.0247757 0.299971 0)
(2.5983 0.000160478 0)
(1.6384 0.0021626 0)
(0.508907 0.00905563 0)
(0.554424 0.0107704 0)
(0.656672 0.0123518 0)
(0.723454 0.014324 0)
(0.737103 0.0166471 0)
(0.730783 0.0190574 0)
(0.721552 0.0216522 0)
(0.714675 0.0244169 0)
(0.71093 0.0273283 0)
(0.708034 0.0303792 0)
(0.704631 0.0335725 0)
(0.7005 0.0369138 0)
(0.695804 0.0404095 0)
(0.690667 0.0440665 0)
(0.685109 0.0478933 0)
(0.679104 0.0519003 0)
(0.672625 0.0561 0)
(0.665655 0.0605062 0)
(0.658178 0.0651349 0)
(0.650178 0.0700031 0)
(0.641636 0.0751303 0)
(0.63253 0.0805365 0)
(0.622838 0.0862442 0)
(0.612534 0.0922768 0)
(0.601589 0.0986596 0)
(0.589972 0.105419 0)
(0.577649 0.112582 0)
(0.564579 0.120177 0)
(0.55072 0.128233 0)
(0.536024 0.13678 0)
(0.520435 0.145844 0)
(0.503891 0.155452 0)
(0.486323 0.165627 0)
(0.467649 0.176388 0)
(0.447781 0.187743 0)
(0.426613 0.199692 0)
(0.404029 0.212218 0)
(0.379894 0.225283 0)
(0.354059 0.238818 0)
(0.326361 0.252716 0)
(0.296623 0.266814 0)
(0.264672 0.280886 0)
(0.230333 0.294613 0)
(0.193519 0.307578 0)
(0.154007 0.319262 0)
(0.112655 0.328984 0)
(0.0669577 0.336245 0)
(0.0263408 0.339818 0)
(2.59955 0.000166954 0)
(1.64152 0.00232189 0)
(0.511218 0.00970332 0)
(0.554707 0.0115706 0)
(0.657045 0.0132948 0)
(0.724146 0.0154282 0)
(0.738007 0.0179751 0)
(0.731823 0.020621 0)
(0.722774 0.0234797 0)
(0.716055 0.0265255 0)
(0.712451 0.0297283 0)
(0.709691 0.0330802 0)
(0.70643 0.0365852 0)
(0.702447 0.0402496 0)
(0.697907 0.0440801 0)
(0.692933 0.0480838 0)
(0.687547 0.0522702 0)
(0.681727 0.0566507 0)
(0.675447 0.0612391 0)
(0.66869 0.0660508 0)
(0.661443 0.0711036 0)
(0.653691 0.0764164 0)
(0.645417 0.0820106 0)
(0.636602 0.0879089 0)
(0.627223 0.0941362 0)
(0.617257 0.100719 0)
(0.606677 0.107686 0)
(0.595453 0.115067 0)
(0.583552 0.122893 0)
(0.570935 0.131198 0)
(0.557561 0.140017 0)
(0.54338 0.149384 0)
(0.528338 0.159335 0)
(0.512371 0.169905 0)
(0.495406 0.181126 0)
(0.477358 0.193029 0)
(0.458129 0.205634 0)
(0.437604 0.218958 0)
(0.415648 0.232998 0)
(0.392106 0.247734 0)
(0.366795 0.263115 0)
(0.339507 0.27905 0)
(0.310007 0.295387 0)
(0.278036 0.311896 0)
(0.243327 0.328246 0)
(0.205661 0.343954 0)
(0.164688 0.358374 0)
(0.121196 0.370622 0)
(0.0725265 0.379916 0)
(0.0285396 0.384554 0)
(2.60094 0.000178099 0)
(1.64498 0.00245943 0)
(0.513779 0.0103108 0)
(0.555029 0.012304 0)
(0.657472 0.0141487 0)
(0.724944 0.0164654 0)
(0.739053 0.0192337 0)
(0.733034 0.0221254 0)
(0.724195 0.0252648 0)
(0.717653 0.0286044 0)
(0.714202 0.0321094 0)
(0.711593 0.0357723 0)
(0.708488 0.0395983 0)
(0.704669 0.0435943 0)
(0.7003 0.0477669 0)
(0.695507 0.0521237 0)
(0.690313 0.0566751 0)
(0.684698 0.0614335 0)
(0.678638 0.0664141 0)
(0.672119 0.0716342 0)
(0.665129 0.0771128 0)
(0.657655 0.0828713 0)
(0.649683 0.088933 0)
(0.641194 0.0953234 0)
(0.632169 0.10207 0)
(0.622586 0.109202 0)
(0.61242 0.116752 0)
(0.601642 0.124754 0)
(0.590223 0.133244 0)
(0.578125 0.142261 0)
(0.565308 0.151846 0)
(0.551724 0.16204 0)
(0.537321 0.172889 0)
(0.522032 0.184436 0)
(0.505785 0.196727 0)
(0.488492 0.209805 0)
(0.470048 0.223711 0)
(0.450329 0.238478 0)
(0.429186 0.25413 0)
(0.406439 0.270671 0)
(0.381874 0.288082 0)
(0.355236 0.306301 0)
(0.326218 0.325208 0)
(0.294475 0.344593 0)
(0.259596 0.364129 0)
(0.221196 0.383297 0)
(0.178681 0.401332 0)
(0.132631 0.417127 0)
(0.0801102 0.429454 0)
(0.0315708 0.435831 0)
(2.60246 0.000187115 0)
(1.64877 0.00257592 0)
(0.516605 0.010836 0)
(0.5554 0.0129392 0)
(0.657974 0.0148963 0)
(0.725881 0.0173987 0)
(0.740274 0.0204014 0)
(0.73446 0.0235518 0)
(0.725863 0.0269861 0)
(0.719514 0.0306335 0)
(0.716229 0.0344523 0)
(0.713783 0.0384355 0)
(0.71085 0.0425898 0)
(0.70721 0.0469228 0)
(0.703028 0.0514416 0)
(0.698432 0.0561545 0)
(0.693448 0.0610726 0)
(0.688057 0.0662098 0)
(0.682239 0.071583 0)
(0.675982 0.0772109 0)
(0.669276 0.0831147 0)
(0.66211 0.0893176 0)
(0.654472 0.0958452 0)
(0.646347 0.102725 0)
(0.637716 0.109988 0)
(0.628561 0.117667 0)
(0.618859 0.125797 0)
(0.608585 0.134416 0)
(0.597711 0.143567 0)
(0.586202 0.153292 0)
(0.574022 0.16364 0)
(0.561126 0.174662 0)
(0.547461 0.18641 0)
(0.532966 0.198942 0)
(0.517568 0.212317 0)
(0.501179 0.226595 0)
(0.483692 0.241838 0)
(0.464978 0.258106 0)
(0.444876 0.275453 0)
(0.423189 0.293924 0)
(0.399673 0.313542 0)
(0.374024 0.334306 0)
(0.345864 0.356149 0)
(0.314734 0.378919 0)
(0.280062 0.402383 0)
(0.241195 0.426001 0)
(0.197242 0.44889 0)
(0.148363 0.46977 0)
(0.0910295 0.486769 0)
(0.0361995 0.496211 0)
(2.60409 0.000192322 0)
(1.65288 0.00266455 0)
(0.519672 0.011236 0)
(0.555821 0.013438 0)
(0.658563 0.0155051 0)
(0.726979 0.018192 0)
(0.741707 0.0214512 0)
(0.736133 0.0248769 0)
(0.727814 0.0286241 0)
(0.721675 0.0326004 0)
(0.718567 0.0367528 0)
(0.716297 0.041073 0)
(0.713547 0.0455695 0)
(0.710101 0.050251 0)
(0.706121 0.0551251 0)
(0.701739 0.0602004 0)
(0.696982 0.0654892 0)
(0.691836 0.0710065 0)
(0.686284 0.0767711 0)
(0.680314 0.0828033 0)
(0.67392 0.0891267 0)
(0.667094 0.0957664 0)
(0.659825 0.102751 0)
(0.652101 0.11011 0)
(0.643907 0.117878 0)
(0.635227 0.12609 0)
(0.626042 0.134786 0)
(0.616331 0.144009 0)
(0.606067 0.153805 0)
(0.595223 0.164224 0)
(0.583765 0.175322 0)
(0.571651 0.187157 0)
(0.558836 0.199794 0)
(0.545262 0.213303 0)
(0.53086 0.227758 0)
(0.515545 0.243242 0)
(0.499215 0.259841 0)
(0.481739 0.277645 0)
(0.462957 0.296751 0)
(0.44266 0.317257 0)
(0.420587 0.339235 0)
(0.396396 0.362798 0)
(0.369633 0.387973 0)
(0.339777 0.414635 0)
(0.306042 0.44283 0)
(0.267379 0.472146 0)
(0.222476 0.501746 0)
(0.170729 0.530179 0)
(0.107386 0.554965 0)
(0.0435286 0.570182 0)
(2.60584 0.000194929 0)
(1.65727 0.00271342 0)
(0.522963 0.0114633 0)
(0.556312 0.0137498 0)
(0.659265 0.015923 0)
(0.728282 0.0188003 0)
(0.743404 0.0223309 0)
(0.738112 0.0260495 0)
(0.730112 0.0301282 0)
(0.724203 0.0344468 0)
(0.721283 0.0389398 0)
(0.719197 0.0435994 0)
(0.716643 0.0484381 0)
(0.713401 0.0534671 0)
(0.709637 0.058695 0)
(0.705482 0.0641313 0)
(0.700968 0.0697893 0)
(0.696084 0.0756856 0)
(0.690816 0.0818402 0)
(0.685156 0.0882756 0)
(0.6791 0.0950166 0)
(0.672643 0.10209 0)
(0.665776 0.109527 0)
(0.658492 0.11736 0)
(0.650777 0.125625 0)
(0.642621 0.13436 0)
(0.634007 0.14361 0)
(0.624918 0.153421 0)
(0.615335 0.163845 0)
(0.605232 0.174938 0)
(0.594584 0.186762 0)
(0.583356 0.199387 0)
(0.571509 0.212887 0)
(0.558992 0.227347 0)
(0.545746 0.24286 0)
(0.531697 0.259529 0)
(0.51675 0.277469 0)
(0.500789 0.296811 0)
(0.48366 0.317688 0)
(0.465149 0.340311 0)
(0.445026 0.364746 0)
(0.422945 0.391191 0)
(0.398293 0.420027 0)
(0.370623 0.451312 0)
(0.339046 0.485182 0)
(0.301989 0.521643 0)
(0.25752 0.560366 0)
(0.203892 0.600133 0)
(0.133844 0.638387 0)
(0.0566097 0.666471 0)
(2.60766 0.000178013 0)
(1.66188 0.00273281 0)
(0.526434 0.0114416 0)
(0.556894 0.0137929 0)
(0.660113 0.0160887 0)
(0.729831 0.0191882 0)
(0.745417 0.0230418 0)
(0.740451 0.0271121 0)
(0.732806 0.0315871 0)
(0.727134 0.0363009 0)
(0.7244 0.0411749 0)
(0.722503 0.0462046 0)
(0.720153 0.0514081 0)
(0.71713 0.0567991 0)
(0.713596 0.0623873 0)
(0.709684 0.0681834 0)
(0.705432 0.0742026 0)
(0.700832 0.0804643 0)
(0.695872 0.086991 0)
(0.690548 0.0938078 0)
(0.684859 0.100942 0)
(0.678802 0.108424 0)
(0.672372 0.116286 0)
(0.665565 0.124564 0)
(0.658373 0.133296 0)
(0.650787 0.142525 0)
(0.642797 0.152298 0)
(0.634391 0.162665 0)
(0.625556 0.173683 0)
(0.616275 0.185414 0)
(0.606527 0.197928 0)
(0.596288 0.211302 0)
(0.585529 0.225622 0)
(0.574214 0.240987 0)
(0.562294 0.257509 0)
(0.549713 0.275312 0)
(0.536398 0.29453 0)
(0.522245 0.315383 0)
(0.507177 0.337962 0)
(0.490919 0.362513 0)
(0.473217 0.389468 0)
(0.454064 0.419052 0)
(0.432841 0.45175 0)
(0.408742 0.488062 0)
(0.380959 0.528439 0)
(0.347947 0.573606 0)
(0.307063 0.624385 0)
(0.255055 0.681108 0)
(0.180421 0.743122 0)
(0.0832858 0.803332 0)
(2.60956 0.000117902 0)
(1.66663 0.0027338 0)
(0.529868 0.0110919 0)
(0.557508 0.0134385 0)
(0.661112 0.0158338 0)
(0.731678 0.0191346 0)
(0.747833 0.0233121 0)
(0.743263 0.0277372 0)
(0.736023 0.0326125 0)
(0.730592 0.0377161 0)
(0.728038 0.0429594 0)
(0.726326 0.0483495 0)
(0.724182 0.0539159 0)
(0.721379 0.0596737 0)
(0.718077 0.0656331 0)
(0.714413 0.0718028 0)
(0.710429 0.078199 0)
(0.706123 0.0848416 0)
(0.701487 0.0917546 0)
(0.696519 0.0989642 0)
(0.69122 0.106499 0)
(0.685591 0.114391 0)
(0.679633 0.122674 0)
(0.673342 0.131385 0)
(0.666715 0.140567 0)
(0.659749 0.150263 0)
(0.652439 0.160525 0)
(0.64478 0.171406 0)
(0.636764 0.182969 0)
(0.628383 0.195281 0)
(0.619628 0.208418 0)
(0.610485 0.222466 0)
(0.600939 0.237523 0)
(0.590972 0.253696 0)
(0.580556 0.271125 0)
(0.569638 0.28999 0)
(0.558238 0.31031 0)
(0.546195 0.332362 0)
(0.533398 0.356533 0)
(0.520023 0.38303 0)
(0.505793 0.412371 0)
(0.490412 0.444993 0)
(0.473625 0.481384 0)
(0.454941 0.522529 0)
(0.433713 0.569604 0)
(0.408772 0.624427 0)
(0.37773 0.689896 0)
(0.336659 0.771082 0)
(0.270985 0.878314 0)
(0.146511 1.04359 0)
(2.61192 7.28216e-05 0)
(1.67236 0.0025835 0)
(0.533498 0.0102805 0)
(0.557984 0.0127175 0)
(0.66222 0.0153427 0)
(0.733989 0.0190999 0)
(0.750966 0.0238982 0)
(0.746944 0.028958 0)
(0.74024 0.0344762 0)
(0.735102 0.0401472 0)
(0.732782 0.0458809 0)
(0.731344 0.051712 0)
(0.729517 0.057691 0)
(0.727059 0.0638447 0)
(0.724121 0.070187 0)
(0.720844 0.0767322 0)
(0.71728 0.0835014 0)
(0.713431 0.09052 0)
(0.709293 0.0978164 0)
(0.70487 0.10542 0)
(0.700167 0.113364 0)
(0.695189 0.121681 0)
(0.689941 0.130408 0)
(0.684428 0.139585 0)
(0.678653 0.149255 0)
(0.672619 0.159465 0)
(0.666333 0.170267 0)
(0.659797 0.181719 0)
(0.653018 0.193885 0)
(0.646001 0.206838 0)
(0.638753 0.220658 0)
(0.631281 0.235435 0)
(0.623588 0.251297 0)
(0.615699 0.268331 0)
(0.607681 0.286625 0)
(0.599303 0.306429 0)
(0.59061 0.327972 0)
(0.582084 0.351437 0)
(0.573591 0.377251 0)
(0.564902 0.405778 0)
(0.556134 0.437368 0)
(0.547373 0.472726 0)
(0.538813 0.512691 0)
(0.530679 0.558547 0)
(0.523512 0.612081 0)
(0.518487 0.676053 0)
(0.51833 0.754929 0)
(0.531243 0.856142 0)
(0.587207 0.990858 0)
(0.657317 1.18558 0)
(2.61441 5.77725e-05 0)
(1.67845 0.00191896 0)
(0.537988 0.00767891 0)
(0.55963 0.00983632 0)
(0.66487 0.0124159 0)
(0.73838 0.0165877 0)
(0.75643 0.0221153 0)
(0.753007 0.0279533 0)
(0.746763 0.0342845 0)
(0.741694 0.0406754 0)
(0.739389 0.0470569 0)
(0.738049 0.0535041 0)
(0.736401 0.0600808 0)
(0.734165 0.0668148 0)
(0.731479 0.0737157 0)
(0.728492 0.0807994 0)
(0.725262 0.0880883 0)
(0.721799 0.0956112 0)
(0.718103 0.103398 0)
(0.714178 0.111481 0)
(0.710032 0.119893 0)
(0.705676 0.12867 0)
(0.701119 0.137852 0)
(0.696369 0.147479 0)
(0.691437 0.157599 0)
(0.686333 0.168259 0)
(0.681073 0.179517 0)
(0.67567 0.191431 0)
(0.670143 0.204068 0)
(0.664511 0.217506 0)
(0.658795 0.231851 0)
(0.653058 0.24712 0)
(0.647283 0.26343 0)
(0.641391 0.280996 0)
(0.635617 0.299951 0)
(0.630181 0.320428 0)
(0.624975 0.342774 0)
(0.620063 0.367187 0)
(0.615675 0.393857 0)
(0.611969 0.423234 0)
(0.609216 0.455842 0)
(0.607891 0.492332 0)
(0.608666 0.533622 0)
(0.612633 0.580865 0)
(0.621615 0.635719 0)
(0.638931 0.700346 0)
(0.670596 0.777663 0)
(0.725628 0.871108 0)
(0.836831 0.980705 0)
(0.984753 1.09532 0)
(2.61584 6.89039e-05 0)
(1.68195 0.0012834 0)
(0.540811 0.00538473 0)
(0.561385 0.0078247 0)
(0.668225 0.0110076 0)
(0.744144 0.0163608 0)
(0.763639 0.0231531 0)
(0.760947 0.0300851 0)
(0.755174 0.0371473 0)
(0.750099 0.0439571 0)
(0.747804 0.0506363 0)
(0.746598 0.0573617 0)
(0.745154 0.0642131 0)
(0.74314 0.0712114 0)
(0.74069 0.0783631 0)
(0.737964 0.0856913 0)
(0.735034 0.0932289 0)
(0.731916 0.101011 0)
(0.728613 0.10907 0)
(0.725132 0.11744 0)
(0.721487 0.126154 0)
(0.717693 0.135249 0)
(0.713765 0.144761 0)
(0.709718 0.15473 0)
(0.705571 0.165201 0)
(0.701343 0.17622 0)
(0.697058 0.187839 0)
(0.692739 0.200125 0)
(0.688423 0.213133 0)
(0.684182 0.226889 0)
(0.679924 0.241508 0)
(0.675682 0.257136 0)
(0.671784 0.273835 0)
(0.668276 0.291764 0)
(0.665076 0.311125 0)
(0.662338 0.331997 0)
(0.660236 0.354553 0)
(0.658946 0.379057 0)
(0.658748 0.4058 0)
(0.660011 0.435126 0)
(0.6632 0.467489 0)
(0.669061 0.503412 0)
(0.678667 0.543552 0)
(0.693489 0.588676 0)
(0.715909 0.639639 0)
(0.749395 0.697287 0)
(0.799536 0.761891 0)
(0.871939 0.832499 0)
(0.984936 0.904152 0)
(1.12068 0.957017 0)
(2.61703 5.18833e-05 0)
(1.68498 -0.00156292 0)
(0.546151 -0.00489153 0)
(0.567357 -0.00310541 0)
(0.675995 0.000908759 0)
(0.754284 0.00893861 0)
(0.774663 0.0184607 0)
(0.771752 0.0277389 0)
(0.765384 0.0363283 0)
(0.759717 0.0441347 0)
(0.75724 0.0516318 0)
(0.756116 0.0591154 0)
(0.754836 0.0666637 0)
(0.753006 0.0742958 0)
(0.750766 0.0820075 0)
(0.748306 0.0898345 0)
(0.745706 0.0978217 0)
(0.742976 0.106011 0)
(0.740114 0.114438 0)
(0.737127 0.123143 0)
(0.734029 0.132162 0)
(0.730836 0.141536 0)
(0.727567 0.151305 0)
(0.724243 0.161508 0)
(0.720886 0.172193 0)
(0.717524 0.18342 0)
(0.714204 0.195211 0)
(0.710949 0.207607 0)
(0.707714 0.22071 0)
(0.704622 0.2346 0)
(0.701891 0.249327 0)
(0.699492 0.265055 0)
(0.697431 0.281876 0)
(0.695877 0.299809 0)
(0.694936 0.319003 0)
(0.694769 0.339619 0)
(0.695598 0.361822 0)
(0.697676 0.385813 0)
(0.701361 0.411818 0)
(0.707084 0.440093 0)
(0.715451 0.470917 0)
(0.727274 0.504623 0)
(0.74369 0.54149 0)
(0.766193 0.581796 0)
(0.796838 0.625626 0)
(0.838321 0.672699 0)
(0.894284 0.72196 0)
(0.967423 0.770819 0)
(1.06868 0.815052 0)
(1.1818 0.840638 0)
(2.61265 0.00230728 0)
(1.67489 -0.00681984 0)
(0.550872 -0.0138971 0)
(0.583275 -0.00810282 0)
(0.696323 -0.000484736 0)
(0.778185 0.00976866 0)
(0.798853 0.0199527 0)
(0.794463 0.0295957 0)
(0.786149 0.0381141 0)
(0.779098 0.0459794 0)
(0.77597 0.0536638 0)
(0.774481 0.0613246 0)
(0.772889 0.0689972 0)
(0.770743 0.0767138 0)
(0.768202 0.0845268 0)
(0.765506 0.0924888 0)
(0.762739 0.100644 0)
(0.759905 0.109031 0)
(0.757003 0.117681 0)
(0.754047 0.126629 0)
(0.751053 0.135906 0)
(0.748042 0.145546 0)
(0.745034 0.155582 0)
(0.742055 0.166046 0)
(0.739158 0.176949 0)
(0.736328 0.188348 0)
(0.733559 0.200326 0)
(0.731008 0.2129 0)
(0.728776 0.226134 0)
(0.726847 0.240138 0)
(0.725281 0.254944 0)
(0.724184 0.270575 0)
(0.723644 0.287144 0)
(0.723805 0.304745 0)
(0.724834 0.32348 0)
(0.72691 0.343483 0)
(0.730278 0.364871 0)
(0.735225 0.387798 0)
(0.742124 0.412397 0)
(0.751442 0.438818 0)
(0.763777 0.467191 0)
(0.779902 0.49762 0)
(0.800792 0.530125 0)
(0.827698 0.56459 0)
(0.862145 0.60067 0)
(0.905965 0.637607 0)
(0.961451 0.67406 0)
(1.03021 0.7077 0)
(1.11664 0.735588 0)
(1.20957 0.749351 0)
(2.60432 0.00797732 0)
(1.6445 -0.0736126 0)
(0.586172 -0.0728095 0)
(0.624271 -0.0458553 0)
(0.731633 -0.00591526 0)
(0.809326 0.0163487 0)
(0.827396 0.0264689 0)
(0.821477 0.0351528 0)
(0.811983 0.0425318 0)
(0.804611 0.0506565 0)
(0.801223 0.0591947 0)
(0.799355 0.0676342 0)
(0.797366 0.0758514 0)
(0.794917 0.083927 0)
(0.792184 0.0919971 0)
(0.789344 0.100141 0)
(0.786454 0.108407 0)
(0.783515 0.116837 0)
(0.780528 0.125472 0)
(0.777504 0.134361 0)
(0.774466 0.143551 0)
(0.771438 0.15307 0)
(0.768447 0.162931 0)
(0.765482 0.173187 0)
(0.762614 0.183905 0)
(0.759996 0.195095 0)
(0.757613 0.20681 0)
(0.755459 0.219112 0)
(0.753655 0.232021 0)
(0.752275 0.24559 0)
(0.751395 0.259893 0)
(0.751126 0.274993 0)
(0.751594 0.29095 0)
(0.752953 0.307847 0)
(0.75538 0.325741 0)
(0.759073 0.34472 0)
(0.764281 0.364853 0)
(0.771307 0.386223 0)