/*--------------------------------*- C++ -*----------------------------------*\
| =========                 |                                                 |
| \\      /  F ield         | OpenFOAM: The Open Source CFD Toolbox           |
|  \\    /   O peration     | Version:  2412                                  |
|   \\  /    A nd           | Website:  www.openfoam.com                      |
|    \\/     M anipulation  |                                                 |
\*---------------------------------------------------------------------------*/
FoamFile
{
    version     2.0;
    format      ascii;
    arch        "LSB;label=32;scalar=64";
    class       volScalarField;
    location    "15";
    object      Ma;
}
// * * * * * * * * * * * * * * * * * * * * * * * * * * * * * * * * * * * * * //

dimensions      [0 0 0 0 0 0 0];

internalField   nonuniform List<scalar> 
7000
(
2.25769
0.997123
0.302449
0.338381
0.40106
0.442567
0.45082
0.446349
0.439955
0.435029
0.432155
0.429886
0.427277
0.424187
0.420715
0.416929
0.412872
0.408479
0.403782
0.398712
0.393302
0.387498
0.381324
0.37473
0.36772
0.360277
0.35236
0.343987
0.335102
0.325707
0.315774
0.305284
0.294202
0.282543
0.270239
0.257312
0.243742
0.229473
0.214581
0.198973
0.182715
0.165815
0.148256
0.130119
0.111451
0.0922576
0.0726342
0.0529772
0.0320898
0.0155845
2.25774
0.997183
0.302243
0.338213
0.400902
0.442416
0.45067
0.446202
0.439814
0.434894
0.432025
0.42976
0.427154
0.424068
0.420601
0.416819
0.412768
0.408382
0.40369
0.398626
0.393226
0.387429
0.381264
0.37468
0.36768
0.36025
0.352346
0.343986
0.335118
0.325739
0.315824
0.305355
0.294295
0.282661
0.270384
0.257485
0.243948
0.229715
0.214863
0.199299
0.183092
0.166252
0.148766
0.130722
0.11218
0.0931727
0.0738463
0.0547532
0.0352727
0.0221044
2.25787
0.997379
0.302374
0.338248
0.400932
0.442448
0.450703
0.446242
0.439872
0.434963
0.432108
0.429846
0.427251
0.424171
0.420719
0.416944
0.412909
0.408532
0.403858
0.398806
0.393426
0.387644
0.381502
0.374938
0.367966
0.36056
0.35269
0.34436
0.335531
0.326192
0.316322
0.305905
0.2949
0.283328
0.27112
0.258299
0.244849
0.230714
0.215974
0.20054
0.184484
0.167827
0.150562
0.132802
0.114635
0.0961604
0.0776457
0.0599081
0.0431183
0.0336254
2.25804
0.997682
0.302644
0.338327
0.401014
0.442549
0.450807
0.446362
0.440001
0.435124
0.432275
0.430038
0.427446
0.424392
0.420946
0.417201
0.413175
0.408831
0.404169
0.399153
0.393791
0.38805
0.38193
0.375417
0.368472
0.361123
0.353292
0.345026
0.336249
0.326985
0.317181
0.306853
0.295935
0.284465
0.272372
0.259674
0.246369
0.232392
0.217835
0.202609
0.1868
0.170429
0.153522
0.136201
0.118615
0.10093
0.0835489
0.0675043
0.0533597
0.0462372
2.25828
0.998109
0.302992
0.338396
0.401099
0.442669
0.450938
0.446504
0.440172
0.435322
0.432498
0.43028
0.42771
0.424676
0.421258
0.417539
0.413543
0.40923
0.404604
0.399623
0.394306
0.388604
0.382542
0.376073
0.369198
0.361902
0.354157
0.345955
0.337281
0.328099
0.318416
0.308193
0.297417
0.286083
0.27416
0.261636
0.248538
0.234784
0.220487
0.205555
0.190088
0.174119
0.157693
0.140969
0.124126
0.107433
0.0913656
0.0770615
0.0651521
0.0595509
2.25861
0.998677
0.303432
0.338469
0.401196
0.442817
0.451106
0.446687
0.440389
0.435569
0.432784
0.430582
0.428054
0.425034
0.421667
0.417966
0.414027
0.409738
0.405176
0.400226
0.394979
0.389325
0.383334
0.376935
0.370138
0.36293
0.355281
0.347185
0.338624
0.329578
0.320026
0.309975
0.299357
0.288231
0.27651
0.264235
0.251394
0.237952
0.223979
0.209449
0.194408
0.178966
0.163141
0.147154
0.131214
0.115631
0.100969
0.0883242
0.0782229
0.0736723
2.25902
0.999398
0.303972
0.338546
0.401304
0.442995
0.451312
0.446914
0.440663
0.435871
0.433137
0.430959
0.428471
0.425492
0.422158
0.418517
0.414608
0.410391
0.405866
0.400999
0.395801
0.390242
0.384314
0.378022
0.371311
0.364223
0.356685
0.348731
0.340309
0.331435
0.322051
0.31221
0.301803
0.290926
0.279475
0.2675
0.255001
0.241927
0.228391
0.214323
0.199846
0.185014
0.169936
0.154788
0.139868
0.125495
0.11222
0.101091
0.0924743
0.0886723
2.25953
1.00028
0.30462
0.338629
0.401426
0.443206
0.45156
0.447196
0.440982
0.436253
0.433546
0.431432
0.428966
0.426054
0.422756
0.41918
0.415329
0.411172
0.406727
0.401923
0.396823
0.39134
0.385528
0.379331
0.372757
0.365788
0.358414
0.350606
0.342381
0.333687
0.324543
0.314923
0.304808
0.294206
0.28311
0.271479
0.25941
0.246777
0.233763
0.220265
0.206439
0.192345
0.178096
0.163931
0.150087
0.136965
0.125062
0.115284
0.107866
0.104663
2.26014
1.00134
0.305385
0.33872
0.401564
0.443453
0.451857
0.44753
0.441365
0.436704
0.434042
0.431985
0.429567
0.426714
0.423484
0.419964
0.416195
0.412104
0.407753
0.403032
0.398037
0.392661
0.386971
0.380905
0.374479
0.367668
0.360471
0.352861
0.344843
0.336399
0.327501
0.31819
0.308377
0.298149
0.287428
0.276258
0.264646
0.252587
0.24014
0.227351
0.214245
0.201017
0.187708
0.174574
0.161927
0.150036
0.139429
0.130897
0.124513
0.121749
2.26085
1.00259
0.306276
0.338822
0.401721
0.443742
0.452207
0.447927
0.441825
0.437232
0.434633
0.432633
0.430286
0.427491
0.424339
0.420895
0.417208
0.413214
0.408949
0.404352
0.399454
0.39423
0.388657
0.382769
0.376494
0.369888
0.362884
0.355515
0.34774
0.339582
0.330988
0.322016
0.312586
0.302763
0.29252
0.281838
0.270819
0.259362
0.247638
0.235593
0.223379
0.211057
0.19882
0.186819
0.175365
0.16479
0.155424
0.148
0.142504
0.140172
2.26168
1.00404
0.307302
0.338939
0.401901
0.444077
0.452617
0.448393
0.442373
0.437844
0.435335
0.43338
0.431135
0.42839
0.425344
0.421973
0.418395
0.414498
0.410352
0.405876
0.401117
0.396038
0.390634
0.384919
0.37885
0.372451
0.365699
0.358581
0.35111
0.343263
0.335034
0.326448
0.317457
0.308115
0.298399
0.288314
0.277934
0.267208
0.256265
0.245114
0.233834
0.222606
0.211474
0.200715
0.19055
0.18123
0.173143
0.166813
0.162147
0.160119
2.26263
1.00569
0.308469
0.339071
0.402105
0.444457
0.453091
0.448938
0.443008
0.438562
0.436138
0.434261
0.4321
0.429449
0.426492
0.423233
0.419757
0.415986
0.411965
0.407634
0.403029
0.398119
0.392904
0.387389
0.381553
0.375395
0.368922
0.362109
0.35496
0.347499
0.339653
0.331537
0.323024
0.314236
0.305129
0.295702
0.286072
0.276152
0.266111
0.255937
0.245747
0.235654
0.225811
0.216347
0.207551
0.199619
0.19275
0.187496
0.183639
0.18204
2.26369
1.00755
0.309781
0.3392
0.402356
0.444883
0.453641
0.449559
0.443749
0.439391
0.437062
0.435277
0.433203
0.430668
0.427804
0.424676
0.421313
0.417686
0.413806
0.40964
0.405206
0.400491
0.395488
0.390203
0.384623
0.378748
0.372578
0.366112
0.359337
0.352287
0.344911
0.337281
0.329351
0.321156
0.312745
0.304063
0.295265
0.286256
0.277221
0.268146
0.259147
0.250366
0.241869
0.233879
0.226546
0.220065
0.214626
0.210551
0.207576
0.206275
2.26488
1.00964
0.311249
0.33935
0.402646
0.445371
0.454276
0.450288
0.444601
0.440359
0.438121
0.436452
0.434466
0.432063
0.429302
0.426318
0.423083
0.419616
0.415893
0.411912
0.40767
0.403175
0.398402
0.393384
0.388082
0.382526
0.376699
0.370614
0.364256
0.35767
0.350805
0.34374
0.336431
0.328928
0.321275
0.31343
0.305557
0.297569
0.289642
0.281803
0.274124
0.266783
0.259844
0.253437
0.247797
0.242943
0.239005
0.236293
0.234379
0.23372
2.26619
1.01196
0.31288
0.339535
0.402967
0.445941
0.45501
0.451142
0.445588
0.441482
0.439342
0.437795
0.435917
0.43365
0.431017
0.428172
0.425101
0.421786
0.418257
0.414465
0.410444
0.406184
0.401677
0.396935
0.391964
0.38674
0.381308
0.375635
0.369747
0.363672
0.357368
0.350926
0.344313
0.337555
0.330759
0.32383
0.316978
0.310129
0.303426
0.296956
0.290762
0.285015
0.279803
0.275258
0.271506
0.268681
0.266682
0.265729
0.265193
0.26516
2.26763
1.01451
0.314669
0.339742
0.403338
0.446601
0.455862
0.452132
0.446741
0.442769
0.440751
0.439325
0.437583
0.435434
0.432981
0.430253
0.42738
0.424226
0.420909
0.417322
0.413552
0.409533
0.40533
0.400888
0.396269
0.391423
0.386406
0.381203
0.375814
0.370302
0.364622
0.35885
0.352998
0.347074
0.341182
0.335295
0.329544
0.323951
0.318617
0.313648
0.309124
0.305195
0.301968
0.29954
0.298098
0.297606
0.298063
0.299512
0.301179
0.302679
2.26919
1.01727
0.316608
0.339979
0.403767
0.447368
0.456855
0.453284
0.448083
0.444253
0.442373
0.44106
0.439487
0.437458
0.435174
0.432616
0.429922
0.426962
0.423869
0.420506
0.416997
0.413269
0.409361
0.405276
0.401015
0.396601
0.392019
0.38733
0.382486
0.377583
0.372573
0.367543
0.362502
0.357481
0.352592
0.347794
0.343278
0.339031
0.335201
0.331909
0.329226
0.327361
0.326435
0.32655
0.32794
0.330675
0.334534
0.339622
0.344747
0.348735
2.27084
1.02022
0.318688
0.340261
0.404274
0.448269
0.458023
0.454636
0.449656
0.445979
0.444244
0.443059
0.441636
0.43977
0.437649
0.435268
0.432761
0.430029
0.427134
0.424061
0.420791
0.417396
0.413799
0.410093
0.406228
0.402256
0.39816
0.394006
0.389744
0.385501
0.3812
0.376964
0.372814
0.368744
0.364945
0.361338
0.358139
0.355385
0.353176
0.351743
0.351113
0.351554
0.353241
0.356433
0.361363
0.368098
0.376906
0.387662
0.399399
0.409993
2.27258
1.02331
0.320868
0.340601
0.404877
0.449324
0.459387
0.456212
0.451476
0.447958
0.446369
0.445323
0.444051
0.442359
0.440406
0.438242
0.435905
0.433436
0.430756
0.427973
0.424994
0.421914
0.418691
0.415358
0.411937
0.40843
0.404857
0.401273
0.397647
0.394073
0.390566
0.387127
0.383929
0.380881
0.378205
0.375888
0.374063
0.372914
0.372489
0.37299
0.374645
0.377756
0.382674
0.389538
0.398953
0.411294
0.426965
0.447128
0.471049
0.498638
2.27429
1.02637
0.322951
0.340836
0.405477
0.450465
0.460904
0.457972
0.453521
0.45016
0.448708
0.447807
0.446693
0.445172
0.443403
0.441441
0.439323
0.437086
0.434691
0.432164
0.429538
0.42677
0.423952
0.421026
0.418055
0.415064
0.412023
0.409051
0.406089
0.403235
0.400533
0.397985
0.395735
0.393795
0.39227
0.391308
0.390944
0.391375
0.392759
0.39544
0.399642
0.405734
0.413941
0.425099
0.43967
0.45922
0.485123
0.520641
0.572019
0.664973
2.27632
1.03001
0.3254
0.341119
0.406283
0.45205
0.463032
0.460462
0.456357
0.453217
0.451924
0.451236
0.450329
0.449086
0.447555
0.445896
0.444084
0.442182
0.440164
0.438048
0.435857
0.433605
0.43129
0.428989
0.42663
0.424363
0.422086
0.41996
0.417917
0.416087
0.414486
0.413182
0.412267
0.411827
0.411971
0.412749
0.414309
0.417069
0.421258
0.426954
0.434652
0.444621
0.457892
0.474883
0.497646
0.527696
0.569661
0.631229
0.729987
0.881701
2.27848
1.03392
0.328381
0.342102
0.408039
0.454943
0.466644
0.464455
0.460668
0.45759
0.456329
0.455738
0.454982
0.453912
0.4526
0.451154
0.44963
0.448008
0.446349
0.444606
0.442852
0.441064
0.439287
0.43754
0.435841
0.434233
0.432748
0.431414
0.430309
0.429445
0.428944
0.428818
0.429193
0.430083
0.431718
0.434308
0.438031
0.442954
0.449522
0.457854
0.468646
0.482384
0.49987
0.522715
0.551879
0.591453
0.644043
0.718165
0.829201
0.967512
2.27972
1.03617
0.33022
0.343182
0.41022
0.458707
0.471389
0.469702
0.466245
0.463193
0.461966
0.46149
0.460903
0.460006
0.458885
0.457641
0.456348
0.454994
0.453623
0.452221
0.450831
0.449463
0.448146
0.446911
0.445784
0.444804
0.444012
0.443452
0.443185
0.443274
0.443741
0.444655
0.44624
0.44865
0.451877
0.456182
0.46162
0.468631
0.477249
0.48823
0.501564
0.51857
0.539297
0.565841
0.599173
0.641812
0.69755
0.767962
0.864438
0.967939
2.28084
1.03823
0.333509
0.346884
0.415094
0.465139
0.478426
0.47662
0.472819
0.469421
0.468121
0.467746
0.467323
0.4666
0.465685
0.464673
0.463661
0.46262
0.461601
0.460578
0.459607
0.458679
0.45785
0.45712
0.456551
0.456154
0.456008
0.45612
0.456541
0.457339
0.458713
0.460701
0.463355
0.466847
0.471247
0.476859
0.483711
0.492293
0.502688
0.515444
0.530984
0.549783
0.572962
0.600804
0.635451
0.677268
0.729078
0.791241
0.86914
0.950435
2.27734
1.03191
0.335819
0.356969
0.427657
0.480131
0.493702
0.490932
0.485935
0.481662
0.479979
0.479405
0.47881
0.47792
0.476843
0.475729
0.474644
0.473596
0.472598
0.471664
0.470816
0.470086
0.469489
0.469071
0.468857
0.468883
0.469146
0.469797
0.470863
0.47246
0.474551
0.477338
0.480787
0.485182
0.490501
0.497088
0.505024
0.514584
0.52614
0.539854
0.556423
0.576027
0.59957
0.627542
0.660713
0.70029
0.746528
0.801008
0.864542
0.929205
2.28319
1.02455
0.360319
0.382692
0.448765
0.498723
0.510717
0.507009
0.501285
0.496876
0.495152
0.494448
0.493737
0.492776
0.491698
0.490607
0.489559
0.488545
0.487589
0.486688
0.485891
0.485194
0.484664
0.484258
0.484098
0.484224
0.484752
0.485595
0.486964
0.488792
0.491331
0.49446
0.498539
0.503394
0.509505
0.516632
0.52539
0.535526
0.547742
0.561918
0.578699
0.598299
0.621156
0.647949
0.678816
0.714804
0.755835
0.802732
0.856045
0.90964
1.87669
0.772824
0.274559
0.344234
0.417327
0.441067
0.44114
0.437157
0.433468
0.433319
0.435456
0.438317
0.441303
0.444334
0.447471
0.450717
0.454043
0.457392
0.460744
0.464068
0.467369
0.470566
0.473726
0.476875
0.480087
0.483286
0.486592
0.489932
0.493556
0.497386
0.501679
0.506398
0.511809
0.517942
0.525036
0.533215
0.542634
0.553617
0.566131
0.580812
0.59738
0.616799
0.638583
0.663932
0.692247
0.724746
0.760786
0.80131
0.846185
0.891027
1.86918
0.772083
0.28332
0.355534
0.428029
0.447648
0.443349
0.436074
0.430351
0.428383
0.428247
0.428616
0.429185
0.430058
0.431375
0.433128
0.435366
0.437955
0.441005
0.444418
0.448301
0.452378
0.456848
0.461515
0.466545
0.471737
0.477268
0.483043
0.489128
0.495509
0.502233
0.509365
0.516921
0.525112
0.533904
0.543699
0.5543
0.56636
0.579558
0.594659
0.611322
0.630328
0.651393
0.675179
0.701546
0.730896
0.763244
0.798432
0.836887
0.874647
1.86823
0.770795
0.285449
0.365292
0.443401
0.463651
0.457644
0.448367
0.441302
0.438503
0.437563
0.436941
0.43633
0.435901
0.435785
0.43603
0.436632
0.437596
0.439082
0.441057
0.443495
0.446423
0.449875
0.453908
0.458478
0.463664
0.469345
0.475648
0.482408
0.489832
0.49769
0.506329
0.515411
0.525419
0.535848
0.547342
0.559419
0.572732
0.586926
0.602636
0.619593
0.638358
0.658805
0.681343
0.705907
0.732766
0.761841
0.793105
0.826768
0.85937
1.86969
0.774022
0.291184
0.36751
0.4435
0.464254
0.459199
0.450776
0.444148
0.441724
0.441212
0.441015
0.440779
0.440651
0.44072
0.44101
0.441568
0.44245
0.443615
0.445083
0.446859
0.449072
0.451687
0.454875
0.458538
0.4629
0.467796
0.473506
0.479772
0.486969
0.494716
0.50349
0.512805
0.523199
0.53423
0.546388
0.559327
0.573458
0.58849
0.604783
0.622181
0.640964
0.661082
0.68278
0.705998
0.730894
0.757386
0.785534
0.815383
0.844088
1.87273
0.7806
0.298773
0.361413
0.428817
0.450177
0.448051
0.44207
0.436417
0.434492
0.434491
0.435003
0.435573
0.436273
0.437154
0.438303
0.439742
0.441413
0.443272
0.445365
0.447697
0.450346
0.453291
0.456648
0.460373
0.464638
0.469345
0.474744
0.480665
0.487434
0.494811
0.503142
0.512186
0.522246
0.53313
0.545066
0.557911
0.571862
0.586824
0.602967
0.620221
0.638752
0.658433
0.679425
0.701592
0.725116
0.749778
0.775556
0.802634
0.828528
1.88132
0.78719
0.301035
0.349143
0.411895
0.441133
0.444242
0.439599
0.434442
0.43211
0.431834
0.432338
0.43303
0.433927
0.435008
0.43632
0.437896
0.439731
0.441826
0.444204
0.446862
0.449853
0.453149
0.456836
0.460864
0.465371
0.470271
0.475767
0.481722
0.488398
0.495642
0.503708
0.512479
0.522152
0.532648
0.54414
0.556535
0.569987
0.584407
0.599937
0.616484
0.634175
0.652913
0.67281
0.693756
0.71579
0.738767
0.762647
0.787526
0.811234
2.26406
1.10788
0.408627
0.399607
0.459683
0.508488
0.519874
0.515025
0.508121
0.502053
0.498523
0.496046
0.493923
0.491894
0.489854
0.487865
0.486118
0.484603
0.483424
0.482544
0.482077
0.48199
0.482397
0.48329
0.484725
0.486746
0.489387
0.492708
0.496709
0.501488
0.507009
0.513406
0.520619
0.528806
0.537882
0.54801
0.559097
0.571278
0.584463
0.598769
0.614087
0.630511
0.647925
0.666372
0.685771
0.706105
0.727282
0.749213
0.771984
0.793647
2.27352
1.12988
0.393035
0.377432
0.450263
0.51112
0.529627
0.528789
0.524572
0.520765
0.519321
0.518946
0.518929
0.518889
0.518475
0.517846
0.517172
0.516539
0.515964
0.51548
0.515101
0.51489
0.514869
0.515116
0.515671
0.516611
0.517972
0.519867
0.522291
0.525404
0.529155
0.53373
0.539059
0.545307
0.552428
0.560533
0.569616
0.579749
0.590946
0.60321
0.616586
0.63102
0.646533
0.663036
0.680494
0.698841
0.717982
0.737822
0.758427
0.778041
2.2983
1.17852
0.435571
0.384287
0.447315
0.503698
0.522259
0.523321
0.521503
0.520319
0.520739
0.52197
0.523764
0.525563
0.526971
0.52817
0.529296
0.530444
0.531594
0.532776
0.533964
0.535209
0.536502
0.537902
0.539412
0.541102
0.54299
0.545149
0.547626
0.550485
0.553798
0.557612
0.562028
0.56708
0.572879
0.579451
0.586896
0.595227
0.604512
0.614762
0.625987
0.638184
0.651358
0.665517
0.680612
0.69663
0.713473
0.73098
0.749235
0.766656
1.901
0.8054
0.306486
0.31684
0.373902
0.414783
0.429086
0.432926
0.435748
0.439393
0.444314
0.45005
0.456478
0.46296
0.469128
0.475115
0.481078
0.487038
0.492988
0.498879
0.504717
0.510469
0.516165
0.521772
0.527336
0.532822
0.538307
0.543751
0.549255
0.554803
0.560467
0.566294
0.572343
0.578689
0.585374
0.592507
0.600109
0.608304
0.617082
0.626573
0.636744
0.64772
0.659434
0.671965
0.68523
0.699216
0.713873
0.729217
0.745267
0.760605
2.30679
1.19558
0.450874
0.386946
0.440882
0.492546
0.509623
0.509734
0.506597
0.504129
0.502875
0.50269
0.50314
0.503521
0.503827
0.504303
0.505098
0.506337
0.507996
0.510114
0.51265
0.51565
0.519078
0.52297
0.527256
0.53199
0.537058
0.542548
0.548303
0.554437
0.560825
0.567572
0.574562
0.581913
0.589522
0.597516
0.605825
0.614564
0.623689
0.633298
0.643376
0.65399
0.665143
0.676849
0.689133
0.701965
0.715365
0.729232
0.743665
0.757413
2.31203
1.20553
0.434091
0.369954
0.438577
0.500953
0.522493
0.523937
0.52172
0.520251
0.520381
0.521516
0.523255
0.524758
0.525786
0.526627
0.52746
0.528397
0.529463
0.530732
0.532223
0.534012
0.536095
0.53855
0.541369
0.544613
0.548277
0.5524
0.556986
0.562043
0.567579
0.573574
0.580044
0.586951
0.594341
0.602143
0.610419
0.619082
0.628221
0.637733
0.647727
0.658088
0.668942
0.680166
0.691877
0.703955
0.71649
0.729352
0.74266
0.755292
2.31473
1.21132
0.438246
0.372002
0.441704
0.505664
0.528123
0.529836
0.527672
0.526321
0.526791
0.528309
0.530582
0.532773
0.53449
0.536014
0.537539
0.539165
0.540892
0.542747
0.544728
0.546866
0.549178
0.551694
0.554449
0.557466
0.56079
0.564432
0.568448
0.572835
0.577656
0.58289
0.588603
0.594758
0.601414
0.608527
0.616146
0.624222
0.632791
0.641811
0.651295
0.661219
0.671573
0.682344
0.693496
0.705035
0.716899
0.729098
0.74163
0.753543
2.31762
1.21886
0.464608
0.388176
0.447316
0.506487
0.529125
0.532397
0.531525
0.531158
0.532047
0.53398
0.536516
0.53881
0.540828
0.542727
0.544677
0.546713
0.548883
0.551158
0.553582
0.556126
0.558845
0.56171
0.564782
0.568032
0.571529
0.575244
0.57925
0.583522
0.588132
0.593062
0.598374
0.604056
0.610154
0.616658
0.623597
0.630979
0.638806
0.647092
0.655811
0.664988
0.674579
0.684604
0.695004
0.705795
0.716906
0.728333
0.740099
0.751295
1.90576
0.813827
0.325226
0.323716
0.376488
0.414379
0.427267
0.430297
0.432571
0.435892
0.44064
0.446536
0.453243
0.460036
0.46672
0.473361
0.480075
0.486855
0.493708
0.500578
0.507472
0.51435
0.521232
0.528087
0.534944
0.541784
0.54864
0.555502
0.562403
0.569341
0.576347
0.583436
0.590634
0.597969
0.605457
0.613143
0.621028
0.629165
0.637543
0.646208
0.655147
0.66439
0.673919
0.683761
0.69389
0.704315
0.71501
0.725968
0.737237
0.747935
2.31266
1.21004
0.466018
0.403861
0.466507
0.527775
0.549789
0.550772
0.546653
0.542843
0.540652
0.539291
0.538708
0.538317
0.537582
0.536851
0.536271
0.536095
0.536257
0.536906
0.537987
0.539552
0.541597
0.544134
0.547155
0.550664
0.554641
0.559093
0.563983
0.569317
0.575053
0.581193
0.587684
0.59454
0.601716
0.609223
0.617026
0.625134
0.63352
0.642194
0.651141
0.660368
0.66986
0.679626
0.689638
0.699896
0.710378
0.721064
0.732014
0.7424
2.2946
1.17072
0.460983
0.423089
0.486104
0.546546
0.566494
0.566551
0.562829
0.559593
0.558837
0.559243
0.560339
0.561615
0.562498
0.563148
0.563748
0.564417
0.565161
0.565994
0.566919
0.567987
0.569234
0.570713
0.572447
0.57449
0.576853
0.579575
0.582666
0.586156
0.590042
0.594353
0.599086
0.604259
0.60986
0.615897
0.622351
0.629225
0.636495
0.644156
0.652182
0.660561
0.669267
0.678283
0.687606
0.6972
0.707065
0.717165
0.72755
0.737419
1.88795
0.805257
0.341275
0.355502
0.406435
0.44321
0.452928
0.45273
0.451777
0.4526
0.455885
0.46048
0.465995
0.47204
0.478108
0.484211
0.490411
0.496722
0.503089
0.509478
0.515841
0.522175
0.52846
0.534706
0.540897
0.547052
0.55317
0.559282
0.565401
0.571563
0.577791
0.584106
0.590539
0.597112
0.603852
0.610775
0.617906
0.625256
0.632841
0.640666
0.648746
0.657082
0.665679
0.674529
0.68362
0.69295
0.702499
0.712255
0.722261
0.731772
1.87403
0.796412
0.339903
0.356796
0.398388
0.427009
0.434946
0.434937
0.433949
0.433451
0.434181
0.435801
0.438346
0.441531
0.444998
0.448794
0.453011
0.457685
0.462802
0.468337
0.474257
0.480536
0.487135
0.494028
0.501175
0.508549
0.51611
0.523839
0.5317
0.539681
0.547749
0.555924
0.564166
0.572507
0.580914
0.589424
0.598012
0.606716
0.615524
0.624451
0.633487
0.642648
0.651942
0.661372
0.670945
0.680661
0.690523
0.700525
0.710705
0.720344
1.88896
0.80622
0.345485
0.373858
0.431063
0.467098
0.473874
0.469823
0.464743
0.461643
0.4607
0.460678
0.461281
0.462256
0.463298
0.464469
0.465891
0.467638
0.469743
0.47222
0.475088
0.478362
0.482066
0.486203
0.490783
0.495799
0.501255
0.507128
0.513417
0.520088
0.527145
0.53454
0.542277
0.550305
0.558625
0.567183
0.575986
0.58498
0.594168
0.603524
0.613057
0.622734
0.63256
0.642503
0.652573
0.662743
0.673024
0.68339
0.69391
0.703836
2.34116
1.12506
0.46973
0.447926
0.51345
0.575265
0.595975
0.59541
0.590127
0.584837
0.58184
0.579945
0.578406
0.577062
0.575533
0.573824
0.572071
0.570382
0.568787
0.567332
0.566018
0.564902
0.56399
0.563346
0.562983
0.562965
0.563296
0.564046
0.565202
0.566805
0.568882
0.571447
0.574519
0.57809
0.582175
0.58676
0.591845
0.597414
0.603457
0.609951
0.616873
0.624201
0.631898
0.639967
0.648364
0.657071
0.666049
0.675284
0.684785
0.693849
1.88945
0.807392
0.346536
0.363622
0.415926
0.456188
0.468665
0.469664
0.469102
0.46907
0.471337
0.474837
0.479032
0.483763
0.488572
0.493376
0.498206
0.503135
0.508108
0.513125
0.51812
0.523108
0.528043
0.532958
0.537816
0.542659
0.547456
0.552254
0.557049
0.561878
0.566737
0.571671
0.57667
0.581789
0.587025
0.59243
0.597997
0.603775
0.609754
0.615979
0.622436
0.629158
0.636136
0.643369
0.650853
0.658594
0.666579
0.674799
0.683278
0.691379
1.88918
0.807533
0.347823
0.364679
0.416215
0.454733
0.4652
0.464155
0.461301
0.458755
0.458287
0.459123
0.460708
0.462914
0.46532
0.467893
0.470742
0.473948
0.477517
0.481433
0.485671
0.490214
0.495042
0.500135
0.505477
0.511038
0.516803
0.522746
0.528848
0.535109
0.541505
0.548034
0.554682
0.561447
0.568315
0.575289
0.582364
0.589545
0.596833
0.60423
0.611743
0.61937
0.627122
0.634993
0.643002
0.651136
0.659414
0.667815
0.676393
0.684535
2.34309
1.1286
0.473278
0.449934
0.516654
0.58095
0.603481
0.603628
0.59857
0.593522
0.590753
0.589209
0.588106
0.587282
0.586301
0.585154
0.583947
0.582842
0.581822
0.58098
0.580255
0.579756
0.57942
0.579366
0.579526
0.580007
0.580766
0.581848
0.583262
0.585025
0.587135
0.589603
0.592417
0.595588
0.599106
0.602976
0.607188
0.611739
0.616616
0.621815
0.627319
0.633124
0.639209
0.645572
0.652192
0.659063
0.666165
0.673491
0.681046
0.688275
1.88984
0.8089
0.353783
0.381578
0.439774
0.479764
0.489742
0.488056
0.485007
0.483612
0.485021
0.48768
0.491025
0.49486
0.498749
0.502689
0.506741
0.510963
0.515318
0.519798
0.524355
0.528989
0.533672
0.538407
0.543181
0.547994
0.552842
0.557732
0.562668
0.567657
0.572701
0.577822
0.583016
0.588306
0.593689
0.599188
0.604797
0.610538
0.616406
0.622416
0.628569
0.634878
0.641344
0.647971
0.654758
0.661712
0.668827
0.676098
0.683549
0.690647
1.87521
0.799804
0.351438
0.378242
0.4276
0.459556
0.467243
0.466134
0.464475
0.463775
0.464302
0.4655
0.467406
0.469698
0.472047
0.474522
0.477218
0.480188
0.483438
0.486969
0.49077
0.494835
0.499154
0.503721
0.508524
0.513557
0.518804
0.524257
0.529898
0.53572
0.541706
0.547843
0.554131
0.560555
0.567116
0.573799
0.580611
0.587537
0.594588
0.601746
0.609024
0.6164
0.623891
0.631478
0.639178
0.646971
0.654878
0.662878
0.671023
0.678734
1.8742
0.799423
0.351933
0.37548
0.422505
0.454213
0.462472
0.462032
0.460927
0.460321
0.460599
0.461441
0.462938
0.464786
0.466637
0.468546
0.4706
0.472857
0.475323
0.478013
0.480919
0.484061
0.48743
0.491045
0.494897
0.499002
0.503347
0.507944
0.512779
0.51786
0.523176
0.528732
0.534516
0.540527
0.546752
0.553186
0.559816
0.566637
0.573636
0.580814
0.588157
0.595666
0.603327
0.61114
0.619083
0.627158
0.635359
0.643693
0.652181
0.660248
1.88909
0.809219
0.355133
0.36278
0.413408
0.452234
0.463202
0.462805
0.461027
0.459801
0.459848
0.460666
0.462221
0.464142
0.465975
0.467793
0.46971
0.47181
0.474093
0.476573
0.479233
0.482094
0.48514
0.488393
0.491841
0.4955
0.499359
0.503435
0.507714
0.512213
0.51692
0.52185
0.526989
0.532352
0.537922
0.543714
0.549708
0.555921
0.562329
0.568951
0.575759
0.582768
0.589951
0.597321
0.604864
0.612584
0.620465
0.6285
0.636712
0.644521
2.31255
1.20515
0.485822
0.431657
0.492737
0.557016
0.583068
0.5866
0.583954
0.581247
0.579971
0.579664
0.580174
0.581029
0.581583
0.58189
0.582134
0.582433
0.582821
0.583308
0.583886
0.584569
0.585359
0.586274
0.587317
0.588506
0.589841
0.591344
0.593007
0.594858
0.596886
0.599118
0.601541
0.604184
0.607031
0.610111
0.613403
0.616938
0.620695
0.624698
0.628932
0.63341
0.638124
0.643077
0.648267
0.653689
0.659337
0.665193
0.671286
0.677142
2.32278
1.22929
0.466493
0.405513
0.48158
0.557692
0.588905
0.593606
0.59098
0.588126
0.587142
0.58759
0.588892
0.590722
0.592408
0.593809
0.595142
0.596563
0.59812
0.599811
0.601618
0.603542
0.605577
0.607732
0.610002
0.612397
0.614909
0.617553
0.620316
0.623215
0.626238
0.6294
0.632691
0.636126
0.639697
0.643416
0.647278
0.651293
0.655457
0.659778
0.664256
0.668892
0.673692
0.678656
0.683785
0.689077
0.694531
0.700139
0.705919
0.711443
2.31292
1.20662
0.487023
0.4327
0.494475
0.559961
0.587063
0.591239
0.589199
0.587102
0.586541
0.587194
0.588719
0.590725
0.592527
0.594121
0.595696
0.597383
0.599213
0.601193
0.603304
0.605555
0.607934
0.610459
0.613117
0.615926
0.618872
0.621972
0.625212
0.628606
0.632143
0.635834
0.639668
0.643656
0.647788
0.652075
0.656506
0.661091
0.665821
0.670705
0.675733
0.680913
0.686236
0.691711
0.697325
0.703091
0.708991
0.715041
0.721244
0.72718
1.8889
0.809214
0.356289
0.3644
0.416478
0.45713
0.469258
0.469283
0.467693
0.466689
0.467334
0.468957
0.471455
0.474416
0.477354
0.48031
0.483413
0.486727
0.490263
0.494009
0.497952
0.502086
0.506405
0.510907
0.515586
0.520442
0.525466
0.530658
0.536007
0.541516
0.547172
0.552981
0.558929
0.565023
0.571249
0.577613
0.584102
0.590722
0.59746
0.604323
0.611299
0.618396
0.6256
0.63292
0.640339
0.647871
0.655498
0.663241
0.671114
0.678614
1.87408
0.800014
0.35552
0.380594
0.428652
0.460237
0.467794
0.466646
0.464925
0.46406
0.464287
0.465139
0.466712
0.468605
0.470464
0.472311
0.474292
0.476419
0.478745
0.48123
0.483909
0.486751
0.489787
0.492994
0.496399
0.499984
0.50377
0.507744
0.511917
0.516281
0.520839
0.525589
0.530533
0.53567
0.540997
0.546517
0.552219
0.558109
0.564174
0.570422
0.576841
0.583438
0.590196
0.597129
0.604209
0.611457
0.618841
0.626383
0.63408
0.641424
1.87701
0.80317
0.35961
0.395266
0.451625
0.484668
0.490631
0.487122
0.482962
0.481029
0.481024
0.481815
0.483257
0.484924
0.486552
0.488168
0.489936
0.491838
0.493932
0.496159
0.498571
0.501117
0.503849
0.506722
0.50978
0.51299
0.51638
0.519935
0.523669
0.527573
0.531655
0.53591
0.54034
0.544947
0.549726
0.554686
0.559816
0.565126
0.570604
0.57626
0.582078
0.588075
0.594228
0.600558
0.607038
0.613691
0.620485
0.627443
0.634545
0.641332
1.19225
1.05176
0.500065
0.190913
0.00774809
0.108494
0.158982
0.207672
0.229483
0.234005
0.222499
0.211199
0.20089
0.191288
0.179175
0.164651
0.147253
0.12727
0.105398
0.0822216
0.0583499
0.0346494
0.0155137
0.0239965
0.0478522
0.0722538
0.096455
0.120233
0.143622
0.166622
0.189174
0.21134
0.233037
0.254257
0.274326
0.293482
0.313113
0.333569
0.353629
0.372867
0.391478
0.409555
0.427185
0.444336
0.461036
0.477252
0.493008
0.508269
0.523069
0.537358
0.551175
0.564462
0.577259
0.589497
0.601217
0.612338
0.622901
0.632816
0.642121
0.650718
0.658645
0.665799
0.672221
0.677802
0.682592
0.686487
0.689549
0.691701
0.693035
0.693538
0.693613
0.69342
0.692674
0.690864
0.687974
0.684462
0.680858
0.677166
0.6735
0.669857
0.666408
0.663163
0.660287
0.657734
0.655654
0.653934
0.652716
0.651835
0.651432
0.651338
0.651525
0.651826
0.652354
0.653257
0.654577
0.656124
0.657719
0.659372
0.660983
0.665628
1.12275
1.03784
0.80856
0.551652
0.504255
0.432896
0.382456
0.341417
0.310855
0.292249
0.261189
0.231084
0.211639
0.210033
0.217174
0.227761
0.240273
0.254253
0.269441
0.285371
0.301822
0.318368
0.334785
0.351078
0.367929
0.385015
0.402287
0.419484
0.436673
0.453709
0.470626
0.487359
0.503918
0.520253
0.535968
0.550961
0.566025
0.581835
0.597775
0.613086
0.627871
0.642351
0.656503
0.670407
0.683964
0.697227
0.710138
0.722717
0.734936
0.746802
0.75828
0.769389
0.780079
0.790376
0.800211
0.80962
0.818511
0.826935
0.834784
0.842108
0.848803
0.854898
0.860318
0.865054
0.869076
0.872345
0.874874
0.876616
0.877626
0.877924
0.877857
0.877511
0.876667
0.874902
0.872193
0.868872
0.865413
0.861886
0.858394
0.854977
0.851737
0.848741
0.846069
0.843768
0.84187
0.840388
0.839322
0.838668
0.838416
0.838476
0.838752
0.839168
0.839728
0.840659
0.841877
0.843354
0.844801
0.84635
0.847595
0.851428
1.07532
1.07699
1.00967
0.90202
0.83276
0.783007
0.74701
0.716917
0.69206
0.674024
0.659146
0.644951
0.634868
0.629814
0.628294
0.628586
0.630179
0.632715
0.636187
0.640589
0.645791
0.651675
0.658115
0.665037
0.672659
0.680887
0.689708
0.698913
0.708517
0.718366
0.728496
0.738795
0.749293
0.759892
0.770269
0.780269
0.790336
0.801196
0.812567
0.823736
0.83455
0.845252
0.855789
0.866286
0.876596
0.886818
0.896811
0.906675
0.916282
0.925726
0.934886
0.94384
0.952482
0.96087
0.968913
0.976644
0.983994
0.990969
0.997518
1.00362
1.00925
1.01435
1.01894
1.02292
1.02633
1.02908
1.0312
1.03263
1.0334
1.03358
1.03345
1.03304
1.03215
1.03049
1.02799
1.02497
1.02175
1.01842
1.01515
1.01194
1.00894
1.00615
1.0037
1.00156