/*--------------------------------*- C++ -*----------------------------------*\
| =========                 |                                                 |
| \\      /  F ield         | OpenFOAM: The Open Source CFD Toolbox           |
|  \\    /   O peration     | Version:  2412                                  |
|   \\  /    A nd           | Website:  www.openfoam.com                      |
|    \\/     M anipulation  |                                                 |
\*---------------------------------------------------------------------------*/
FoamFile
{
    version     2.0;
    format      ascii;
    arch        "LSB;label=32;scalar=64";
    class       volScalarField;
    location    "15";
    object      p;
}
// * * * * * * * * * * * * * * * * * * * * * * * * * * * * * * * * * * * * * //

dimensions      [1 -1 -2 0 0 0 0];

internalField   nonuniform List<scalar> 
7000
(
1.63792
3.74344
11.4249
11.5212
11.0919
10.6813
10.5621
10.5768
10.6181
10.6583
10.6804
10.6944
10.7091
10.727
10.7476
10.77
10.794
10.8197
10.8471
10.8762
10.9073
10.9401
10.9748
11.0114
11.0498
11.09
11.1321
11.1759
11.2215
11.2687
11.3175
11.3678
11.4194
11.4722
11.5259
11.5802
11.635
11.6897
11.7442
11.7977
11.8498
11.9
11.9475
11.9918
12.0321
12.0678
12.0982
12.1228
12.1404
12.1535
1.63823
3.74215
11.4245
11.5206
11.0914
10.6809
10.5618
10.5765
10.6178
10.6579
10.6799
10.6939
10.7086
10.7265
10.747
10.7694
10.7934
10.819
10.8464
10.8756
10.9066
10.9394
10.9741
11.0106
11.0489
11.0891
11.1312
11.175
11.2205
11.2677
11.3165
11.3667
11.4183
11.471
11.5247
11.5791
11.6338
11.6886
11.743
11.7965
11.8487
11.899
11.9466
11.991
12.0314
12.0672
12.0977
12.1225
12.1401
12.1532
1.63812
3.74123
11.4226
11.5197
11.0907
10.6802
10.5611
10.5758
10.617
10.6569
10.6789
10.6929
10.7075
10.7254
10.7459
10.7682
10.7921
10.8177
10.845
10.8741
10.905
10.9377
10.9723
11.0087
11.047
11.0871
11.1289
11.1726
11.218
11.2651
11.3137
11.3638
11.4153
11.4679
11.5214
11.5756
11.6302
11.6848
11.7392
11.7926
11.8447
11.8949
11.9424
11.9868
12.0273
12.0631
12.0936
12.1184
12.1359
12.1489
1.63799
3.73996
11.4193
11.5187
11.0898
10.679
10.5599
10.5746
10.6157
10.6555
10.6774
10.6912
10.7058
10.7236
10.744
10.7662
10.79
10.8155
10.8427
10.8716
10.9024
10.935
10.9695
11.0057
11.0438
11.0837
11.1254
11.1689
11.2141
11.2609
11.3094
11.3592
11.4104
11.4628
11.516
11.57
11.6244
11.6788
11.7329
11.7861
11.8381
11.8881
11.9356
11.9799
12.0203
12.0561
12.0866
12.1113
12.1287
12.1417
1.63782
3.73811
11.4146
11.5173
11.0885
10.6774
10.5582
10.5728
10.6138
10.6535
10.6752
10.6889
10.7034
10.7211
10.7413
10.7634
10.7871
10.8124
10.8394
10.8682
10.8988
10.9312
10.9654
11.0015
11.0393
11.079
11.1204
11.1636
11.2085
11.255
11.3031
11.3526
11.4034
11.4554
11.5083
11.5619
11.616
11.67
11.7238
11.7767
11.8284
11.8782
11.9255
11.9697
12.0101
12.0458
12.0763
12.101
12.1184
12.1314
1.63761
3.73562
11.4084
11.5155
11.0868
10.6753
10.5559
10.5705
10.6113
10.6508
10.6723
10.6859
10.7002
10.7177
10.7378
10.7598
10.7832
10.8083
10.8351
10.8637
10.894
10.9262
10.9601
10.9958
11.0334
11.0727
11.1138
11.1566
11.201
11.2471
11.2947
11.3438
11.3941
11.4456
11.498
11.5511
11.6046
11.6582
11.7115
11.764
11.8153
11.8648
11.9118
11.9558
11.996
12.0317
12.0622
12.0869
12.1043
12.1174
1.63734
3.73243
11.4005
11.5132
11.0848
10.6727
10.5531
10.5675
10.6082
10.6474
10.6687
10.6821
10.6962
10.7135
10.7334
10.7551
10.7783
10.8031
10.8297
10.8579
10.888
10.9198
10.9534
10.9887
11.0258
11.0647
11.1053
11.1476
11.1915
11.2371
11.2841
11.3326
11.3822
11.4331
11.4848
11.5372
11.5901
11.643
11.6957
11.7476
11.7984
11.8474
11.894
11.9377
11.9777
12.0132
12.0436
12.0684
12.0858
12.0991
1.63703
3.72849
11.391
11.5105
11.0823
10.6695
10.5495
10.5639
10.6043
10.6432
10.6642
10.6773
10.6912
10.7083
10.7279
10.7493
10.7723
10.7968
10.823
10.8509
10.8805
10.9119
10.945
10.9799
11.0165
11.0548
11.0949
11.1365
11.1798
11.2247
11.271
11.3186
11.3675
11.4175
11.4684
11.52
11.572
11.624
11.6759
11.727
11.777
11.8254
11.8715
11.9147
11.9544
11.9897
12.0199
12.0448
12.0622
12.0757
1.63667
3.72374
11.3795
11.5072
11.0793
10.6657
10.5452
10.5594
10.5995
10.6381
10.6588
10.6717
10.6853
10.702
10.7213
10.7424
10.765
10.7891
10.8149
10.8423
10.8715
10.9024
10.935
10.9693
11.0053
11.043
11.0823
11.1232
11.1657
11.2097
11.2551
11.3018
11.3497
11.3987
11.4485
11.499
11.5499
11.6009
11.6516
11.7017
11.7508
11.7983
11.8436
11.8861
11.9253
11.9602
11.9903
12.0151
12.0325
12.0464
1.63625
3.71815
11.3661
11.5033
11.0758
10.6612
10.5401
10.5541
10.5939
10.6321
10.6524
10.6649
10.6782
10.6946
10.7135
10.7341
10.7563
10.78
10.8053
10.8322
10.8609
10.8912
10.9231
10.9567
10.992
11.0289
11.0673
11.1073
11.1489
11.1918
11.2361
11.2817
11.3285
11.3762
11.4247
11.4738
11.5234
11.573
11.6224
11.6712
11.7189
11.7652
11.8094
11.8511
11.8895
11.9238
11.9536
11.9783
11.9957
12.0099
1.63577
3.71166
11.3505
11.4988
11.0717
10.6559
10.5341
10.5479
10.5873
10.625
10.6449
10.657
10.6699
10.6858
10.7043
10.7245
10.7461
10.7693
10.794
10.8204
10.8484
10.878
10.9092
10.942
10.9764
11.0124
11.0498
11.0888
11.1292
11.1709
11.214
11.2582
11.3035
11.3497
11.3966
11.4441
11.492
11.5399
11.5876
11.6346
11.6807
11.7254
11.7681
11.8084
11.8457
11.8792
11.9083
11.9327
11.9501
11.9648
1.63523
3.70422
11.3327
11.4936
11.0669
10.65
10.5272
10.5407
10.5795
10.6167
10.6361
10.6478
10.6602
10.6757
10.6936
10.7133
10.7344
10.7569
10.7811
10.8067
10.834
10.8628
10.8931
10.925
10.9584
10.9933
11.0296
11.0673
11.1064
11.1467
11.1882
11.2308
11.2744
11.3188
11.3639
11.4094
11.4552
11.5009
11.5464
11.5913
11.6352
11.6777
11.7184
11.7568
11.7924
11.8246
11.8527
11.8766
11.8937
11.9087
1.63464
3.69576
11.3128
11.4876
11.0614
10.6432
10.5192
10.5325
10.5706
10.6072
10.6261
10.6372
10.6491
10.664
10.6814
10.7005
10.7209
10.7428
10.7661
10.791
10.8174
10.8453
10.8747
10.9055
10.9378
10.9714
11.0064
11.0427
11.0802
11.1189
11.1586
11.1994
11.2409
11.2832
11.326
11.3691
11.4124
11.4555
11.4983
11.5404
11.5814
11.6211
11.659
11.6947
11.7278
11.7578
11.7842
11.807
11.8235
11.8392
1.63399
3.68629
11.2905
11.4807
11.0552
10.6355
10.5102
10.523
10.5604
10.5963
10.6146
10.6251
10.6364
10.6507
10.6675
10.6858
10.7055
10.7266
10.7492
10.7732
10.7986
10.8255
10.8537
10.8834
10.9143
10.9465
10.98
11.0146
11.0504
11.0872
11.1249
11.1634
11.2026
11.2424
11.2825
11.3228
11.363
11.4029
11.4423
11.4809
11.5182
11.5541
11.5881
11.62
11.6495
11.6761
11.6996
11.7204
11.7356
11.7515
1.63327
3.67586
11.2657
11.4732
11.0483
10.6269
10.5
10.5123
10.5488
10.5839
10.6015
10.6114
10.622
10.6356
10.6517
10.6693
10.6882
10.7084
10.73
10.753
10.7774
10.8031
10.8301
10.8584
10.8878
10.9185
10.9502
10.983
11.0168
11.0514
11.0868
11.1228
11.1593
11.1961
11.233
11.2699
11.3065
11.3425
11.3777
11.4117
11.4443
11.4751
11.5039
11.5303
11.5542
11.5755
11.5941
11.611
11.6237
11.6399
1.63249
3.66444
11.2385
11.4649
11.0407
10.6172
10.4884
10.5002
10.5355
10.5698
10.5867
10.5959
10.6058
10.6186
10.6338
10.6506
10.6686
10.6879
10.7085
10.7304
10.7536
10.778
10.8036
10.8304
10.8582
10.8871
10.9169
10.9476
10.9791
11.0112
11.0439
11.077
11.1104
11.1438
11.1771
11.2099
11.2422
11.2734
11.3034
11.3319
11.3583
11.3825
11.404
11.4227
11.4384
11.4514
11.4618
11.4714
11.4787
11.4935
1.63166
3.65211
11.2092
11.4559
11.0323
10.6064
10.4754
10.4865
10.5205
10.5538
10.57
10.5784
10.5876
10.5995
10.6139
10.6297
10.6468
10.6651
10.6845
10.7052
10.7271
10.7501
10.7742
10.7992
10.8252
10.8521
10.8798
10.9081
10.9371
10.9665
10.9962
11.026
11.0558
11.0853
11.1143
11.1425
11.1695
11.1951
11.2188
11.2403
11.2589
11.2743
11.2861
11.2938
11.2971
11.2965
11.2931
11.2889
11.285
11.2956
1.63077
3.63898
11.1778
11.4461
11.0231
10.5944
10.4608
10.4711
10.5036
10.5358
10.5511
10.5588
10.567
10.5781
10.5916
10.6064
10.6225
10.6396
10.6578
10.6772
10.6977
10.7191
10.7415
10.7647
10.7887
10.8134
10.8387
10.8645
10.8906
10.9169
10.9433
10.9694
10.9952
11.0202
11.0443
11.0671
11.0881
11.107
11.1231
11.1359
11.1448
11.1488
11.1473
11.1405
11.1256
11.1038
11.076
11.0453
11.0152
11.0114
1.62986
3.62525
11.1451
11.4355
11.0131
10.5811
10.4444
10.4537
10.4845
10.5156
10.5301
10.5369
10.5443
10.5545
10.5669
10.5807
10.5956
10.6115
10.6285
10.6464
10.6653
10.685
10.7056
10.7268
10.7486
10.7709
10.7936
10.8166
10.8396
10.8625
10.8851
10.9072
10.9284
10.9485
10.9671
10.9836
10.9978
11.0087
11.016
11.0181
11.0153
11.0059
10.9867
10.9577
10.917
10.8628
10.7936
10.7117
10.6213
10.5656
1.62917
3.6104
11.1119
11.4245
11.002
10.5661
10.4256
10.4338
10.4626
10.4924
10.5061
10.5122
10.5187
10.5279
10.5393
10.552
10.5657
10.5804
10.596
10.6124
10.6296
10.6476
10.6661
10.6852
10.7046
10.7243
10.7442
10.7641
10.7837
10.8029
10.8214
10.839
10.8552
10.8698
10.8821
10.8918
10.8981
10.8998
10.8971
10.8883
10.87
10.8418
10.8012
10.7449
10.6681
10.5652
10.4272
10.2463
10.0126
9.7578
1.62843
3.5924
11.0723
11.4113
10.9881
10.5467
10.4008
10.4074
10.4334
10.4619
10.4748
10.48
10.4853
10.4932
10.5033
10.5146
10.5269
10.5399
10.5537
10.5682
10.5833
10.5989
10.6149
10.6312
10.6477
10.6641
10.6804
10.6964
10.7117
10.7262
10.7395
10.7513
10.7612
10.7687
10.773
10.7731
10.7704
10.7617
10.7439
10.7173
10.6796
10.6276
10.557
10.461
10.3301
10.1477
9.88472
9.47942
8.78086
7.25797
1.62767
3.57329
11.0299
11.3941
10.969
10.5184
10.3646
10.3693
10.3919
10.4197
10.4324
10.437
10.4414
10.4482
10.457
10.4669
10.4775
10.4888
10.5006
10.5128
10.5255
10.5383
10.5514
10.5644
10.5773
10.5898
10.6018
10.613
10.6232
10.632
10.6392
10.6442
10.6462
10.6453
10.6413
10.6316
10.6148
10.5905
10.5569
10.5114
10.4509
10.3708
10.2644
10.1222
9.92913
9.66154
9.27759
8.70842
7.8657
6.47852
1.62723
3.56238
11.0058
11.3826
10.9536
10.4901
10.3255
10.3277
10.3466
10.3741
10.3868
10.3908
10.394
10.3995
10.4069
10.4153
10.4243
10.4336
10.4433
10.4533
10.4634
10.4734
10.4834
10.4931
10.5022
10.5107
10.5183
10.5247
10.5296
10.5326
10.533
10.5316
10.527
10.517
10.5017
10.4805
10.4517
10.4137
10.3642
10.3003
10.218
10.1123
9.97504
9.79636
9.56104
9.2478
8.82742
8.25959
7.52731
6.55361
1.62661
3.55345
10.983
11.3615
10.9259
10.4449
10.2706
10.2728
10.2932
10.324
10.3383
10.342
10.3443
10.3488
10.3552
10.3623
10.3698
10.3774
10.385
10.3926
10.4001
10.4074
10.4142
10.4205
10.4259
10.4304
10.4336
10.4352
10.4348
10.4329
10.428
10.4186
10.4053
10.3872
10.3632
10.3321
10.2923
10.242
10.1788
10.0995
10.0002
9.8757
9.71928
9.52209
9.273
8.95815
8.5629
8.07152
7.49062
6.76085
1.62705
3.58877
11.0443
11.3588
10.8991
10.3797
10.1938
10.199
10.2271
10.2651
10.2818
10.2856
10.2874
10.2913
10.297
10.3033
10.3096
10.3156
10.3215
10.3271
10.3323
10.337
10.3411
10.3443
10.3464
10.347
10.3464
10.3443
10.3394
10.3314
10.3201
10.305
10.2853
10.2603
10.2286
10.189
10.1401
10.08
10.0062
9.91607
9.80593
9.67144
9.50729
9.30715
9.06374
8.76928
8.41651
7.99826
7.51694
6.96518
1.5892
3.70032
11.0502
11.267
10.8179
10.2984
10.1248
10.1346
10.171
10.2111
10.2278
10.2318
10.234
10.2378
10.2428
10.2479
10.2525
10.2567
10.2605
10.2637
10.2663
10.2682
10.2692
10.2691
10.2682
10.2656
10.2604
10.2533
10.2437
10.2309
10.2146
10.1941
10.1688
10.1375
10.0994
10.0531
9.99719
9.92992
9.84924
9.75264
9.63723
9.49957
9.33582
9.1416
8.9125
8.64403
8.33284
7.9762
7.57624
7.12801
1.55273
4.81083
11.2046
10.9419
10.3082
10.0498
10.0435
10.0698
10.1173
10.1441
10.1541
10.1585
10.1629
10.1681
10.1734
10.1781
10.1821
10.1854
10.188
10.1897
10.1904
10.1903
10.1895
10.1872
10.1829
10.177
10.1694
10.1595
10.1466
10.1303
10.11
10.0852
10.0551
10.019
9.97598
9.92474
9.86409
9.79243
9.70799
9.60872
9.49232
9.35622
9.19769
9.01382
8.80191
8.55949
8.28513
7.97879
7.64175
7.26676
1.55373
4.81828
11.1554
10.8726
10.2347
9.99442
10.0037
10.045
10.0937
10.1159
10.1222
10.1249
10.1281
10.1315
10.1342
10.1359
10.1368
10.1368
10.1362
10.1347
10.1317
10.1278
10.1231
10.1169
10.1091
10.0994
10.0873
10.0727
10.0554
10.0347
10.0105
9.98199
9.94843
9.90874
9.86196
9.80723
9.74337
9.66911
9.58306
9.48357
9.3689
9.23715
9.08639
8.91468
8.72039
8.5021
8.25909
7.99085
7.70365
7.38719
1.56399
4.83743
11.2186
10.893
10.1786
9.91701
9.93125
9.98469
10.0422
10.0672
10.0738
10.0767
10.0802
10.0837
10.0862
10.0873
10.0873
10.0865
10.0843
10.0803
10.0752
10.0691
10.0615
10.0523
10.0413
10.0282
10.0128
9.9948
9.97397
9.94985
9.92181
9.88919
9.85139
9.80801
9.75836
9.70138
9.63615
9.56123
9.47541
9.37742
9.26611
9.13998
8.99786
8.83842
8.66066
8.46391
8.24846
8.01415
7.76479
7.494
1.55439
4.81592
11.1434
10.8414
10.1544
9.8922
9.90347
9.95152
10.0079
10.0326
10.0385
10.0401
10.0422
10.0442
10.0451
10.0447
10.0433
10.0401
10.0354
10.0296
10.0226
10.0143
10.0044
9.99268
9.97899
9.96314
9.94483
9.92389
9.89989
9.87256
9.84132
9.80579
9.76544
9.71961
9.66766
9.60866
9.54189
9.46654
9.3818
9.28658
9.17996
9.06069
8.92774
8.78031
8.61809
8.44102
8.2493
8.04227
7.82362
7.58858
1.52519
4.7587
10.9362
10.7166
10.1454
9.89676
9.89695
9.92529
9.97401
9.99767
10.0037
10.0046
10.0054
10.0057
10.0053
10.0038
10.0003
9.99536
9.98924
9.98196
9.97327
9.96302
9.95102
9.93716
9.92119
9.90304
9.88235
9.85899
9.8325
9.80268
9.7691
9.73134
9.68893
9.64131
9.58796
9.52823
9.46146
9.38694
9.30395
9.21166
9.10926
8.99619
8.87193
8.73601
8.58795
8.42742
8.25454
8.07142
7.87851
7.67226
1.50916
4.71331
10.8533
10.7222
10.229
9.93555
9.88245
9.90052
9.93971
9.96409
9.9711
9.9709
9.96987
9.96774
9.96492
9.9612
9.95624
9.95
9.94247
9.93362
9.92326
9.91131
9.89756
9.88196
9.86425
9.84432
9.82181
9.79663
9.76837
9.73678
9.70156
9.66227
9.61862
9.57008
9.51617
9.45637
9.39022
9.31713
9.23654
9.14782
9.05042
8.94386
8.82774
8.70173
8.56571
8.41977
8.26423
8.09977
7.92762
7.7448
1.66721
3.28643
10.4885
11.0063
10.5921
10.0715
9.88236
9.8861
9.91107
9.94429
9.95522
9.95412
9.95028
9.94405
9.9383
9.93247
9.92568
9.91755
9.90803
9.89708
9.88465
9.87058
9.85469
9.83701
9.81726
9.79526
9.77072
9.74353
9.71333
9.67996
9.64304
9.60227
9.55728
9.5077
9.45314
9.39324
9.32765
9.25594
9.17766
9.0924
8.99966
8.89912
8.79052
8.67362
8.54841
8.41502
8.27375
8.1251
7.97023
7.80666
1.67514
3.16267
10.4225
11.1592
10.7116
10.1067
9.86088
9.84755
9.86524
9.89746
9.908
9.90616
9.90023
9.89097
9.88341
9.87696
9.87011
9.86201
9.85246
9.84143
9.82886
9.81465
9.79862
9.78061
9.76047
9.73802
9.713
9.68527
9.65451
9.62058
9.58315
9.54203
9.49697
9.44767
9.39388
9.33521
9.27125
9.20164
9.12608
9.04416
8.95558
8.86023
8.75808
8.64926
8.53361
8.41119
8.2822
8.14706
8.00675
7.85915
1.6406
3.04815
9.89417
11.0023
10.6437
10.1042
9.88034
9.85908
9.87
9.88831
9.88999
9.88606
9.87594
9.86264
9.85153
9.84189
9.83217
9.8215
9.80962
9.79648
9.78202
9.7661
9.74853
9.72917
9.70781
9.6843
9.65843
9.62995
9.59861
9.56421
9.52658
9.48548
9.44066
9.39186
9.3388
9.28119
9.21875
9.1512
9.07831
8.99996
8.91609
8.82645
8.73085
8.62914
8.52121
8.40737
8.28848
8.16492
8.03714
7.90317
1.43408
4.54594
10.3223
10.5044
10.2128
9.91869
9.81073
9.80795
9.81618
9.82664
9.82654
9.823
9.81395
9.80202
9.79182
9.78274
9.77331
9.76276
9.75093
9.73782
9.72336
9.7074
9.68979
9.67034
9.64894
9.62537
9.59952
9.57109
9.53992
9.50593
9.46886
9.42846
9.38452
9.33683
9.28517
9.22931
9.16903
9.10413
9.03446
8.95988
8.88026
8.79549
8.70549
8.61026
8.51018
8.40543
8.29586
8.18166
8.06385
7.94096
1.63293
2.99712
9.70997
10.8901
10.5766
10.076
9.8558
9.82111
9.82641
9.83284
9.83008
9.82091
9.80424
9.78846
9.7749
9.76239
9.74964
9.73588
9.72093
9.70491
9.68781
9.66942
9.64954
9.62802
9.60468
9.5794
9.55201
9.52245
9.49058
9.45607
9.41872
9.37832
9.33471
9.28774
9.2372
9.18286
9.12453
9.06205
8.99529
8.92411
8.84842
8.7682
8.68345
8.59419
8.50058
8.40276
8.30085
8.19525
8.08654
7.97348
1.64182
2.92919
9.71194
11.016
10.6357
10.0438
9.78572
9.7518
9.76192
9.77756
9.77647
9.76932
9.75335
9.73626
9.72244
9.71036
9.69816
9.68512
9.67107
9.65578
9.63909
9.62097
9.60131
9.57998
9.55688
9.53185
9.50472
9.47538
9.44366
9.40941
9.37245
9.33268
9.2899
9.24391
9.19454
9.1417
9.08526
9.02509
8.9611
8.8932
8.82132
8.74542
8.66548
8.58156
8.49375
8.40218
8.30704
8.20881
8.10789
8.00304
1.64015
2.91005
9.65782
10.9945
10.6106
10.0038
9.73645
9.7009
9.71199
9.7303
9.72978
9.72352
9.7085
9.6909
9.67679
9.66475
9.6527
9.63968
9.62546
9.60998
9.59317
9.57494
9.55522
9.53386
9.51075
9.48576
9.45876
9.42961
9.39819
9.36437
9.32801
9.28897
9.24712
9.2023
9.15439
9.10327
9.04886
8.99108
8.92985
8.8651
8.79678
8.72484
8.64932
8.57026
8.48778
8.40202
8.31307
8.22126
8.12705
8.0293
1.62581
2.91921
9.49112
10.8529
10.5445
9.99341
9.73716
9.68875
9.69336
9.70154
9.6992
9.69061
9.67332
9.6566
9.64231
9.62924
9.61605
9.60203
9.58697
9.57077
9.55338
9.53467
9.51454
9.49286
9.46952
9.44439
9.41734
9.38828
9.35708
9.32361
9.28775
9.24936
9.20834
9.16461
9.11807
9.06866
9.01625
8.96075
8.90208
8.84024
8.77518
8.7069
8.63539
8.56073
8.48301
8.40236
8.31898
8.23299
8.14471
8.05309
1.3927
4.47945
10.0246
10.2978
10.0179
9.73033
9.62237
9.61311
9.61847
9.62496
9.62386
9.61858
9.60716
9.59445
9.58301
9.57216
9.56082
9.54839
9.53469
9.51967
9.50331
9.48553
9.46625
9.4454
9.42287
9.39856
9.37235
9.34415
9.31387
9.28143
9.24671
9.20961
9.17004
9.12793
9.08318
9.03573
8.98548
8.93236
8.87636
8.81742
8.75559
8.69087
8.62324
8.55273
8.4794
8.40334
8.32476
8.24371
8.16058
8.07437
1.6311
2.9432
9.57966
10.8371
10.4941
9.90485
9.63076
9.58791
9.59811
9.61846
9.61999
9.6153
9.60287
9.58551
9.57057
9.55746
9.54426
9.53003
9.51451
9.49764
9.47957
9.46009
9.43925
9.41703
9.39338
9.36817
9.34124
9.3125
9.28182
9.24913
9.21438
9.17755
9.13857
9.09733
9.05375
9.00773
8.95921
8.90815
8.85447
8.79812
8.73907
8.67732
8.61289
8.54584
8.47628
8.40431
8.33006
8.2536
8.17516
8.09382
1.6413
3.07376
9.85503
10.7691
10.3875
9.7752
9.51263
9.49211
9.50938
9.54214
9.55156
9.54887
9.54047
9.52618
9.51365
9.50277
9.4917
9.47942
9.46567
9.45056
9.43422
9.41662
9.39754
9.37684
9.35443
9.33028
9.30438
9.27667
9.24711
9.21566
9.18224
9.14677
9.10916
9.06934
9.02726
8.98285
8.93607
8.88689
8.83528
8.7812
8.72469
8.66576
8.60447
8.54076
8.47471
8.40637
8.33586
8.26328
8.18885
8.11168
1.40309
4.54375
10.0952
10.1532
9.84808
9.54066
9.44106
9.44633
9.46562
9.48552
9.49118
9.48964
9.48454
9.47502
9.46563
9.45654
9.44674
9.43563
9.42304
9.40901
9.39357
9.37667
9.35823
9.33818
9.31647
9.29309
9.26801
9.24117
9.21251
9.18196
9.14953
9.11517
9.07881
9.04039
8.99987
8.95718
8.9123
8.86518
8.81581
8.76418
8.71026
8.65406
8.59561
8.535
8.47224
8.40738
8.34052
8.27169
8.20105
8.12781
1.38708
4.55374
9.99229
10.0192
9.77801
9.54628
9.46394
9.46101
9.46706
9.47631
9.4779
9.4758
9.4698
9.4597
9.44935
9.4389
9.42767
9.41526
9.40156
9.38658
9.37031
9.35272
9.33378
9.3134
9.29154
9.26814
9.24315
9.21653
9.18825
9.15826
9.12645
9.09279
9.05721
9.01966
8.98011
8.93852
8.89485
8.84904
8.80116
8.75129
8.69942
8.64548
8.58944
8.53135
8.47122
8.40911
8.34504
8.27917
8.21164
8.14171
1.42043
4.56718
10.205
10.1761
9.79371
9.45779
9.36422
9.37616
9.40736
9.43184
9.43871
9.43731
9.43263
9.42394
9.41491
9.40574
9.39575
9.38443
9.37166
9.35744
9.3418
9.32469
9.30612
9.28607
9.26453
9.24145
9.2168
9.19056
9.1627
9.13318
9.10195
9.06896
9.03415
8.99753
8.9591
8.91882
8.87669
8.83273
8.78684
8.73894
8.68903
8.63716
8.58337
8.52767
8.47009
8.41066
8.34944
8.28648
8.22187
8.15481
1.5319
3.34953
9.88041
10.7024
10.3155
9.67283
9.38806
9.36172
9.37931
9.4151
9.42923
9.42818
9.42347
9.41358
9.40302
9.39297
9.38248
9.3708
9.35767
9.34311
9.32718
9.30989
9.29121
9.2711
9.2495
9.2264
9.20168
9.17533
9.14748
9.11801
9.08686
9.054
9.01947
8.98324
8.94529
8.9056
8.86417
8.82098
8.776
8.72921
8.68064
8.63033
8.57821
8.52425
8.46858
8.41126
8.35233
8.29183
8.22987
8.16575
1.39573
4.53266
10.0593
10.0904
9.7875
9.46243
9.34031
9.33855
9.34987
9.37116
9.37985
9.37911
9.37549
9.36767
9.35862
9.3498
9.34053
9.33011
9.31824
9.30493
9.29022
9.27411
9.25658
9.23759
9.2171
9.19508
9.17151
9.14636
9.11968
9.09143
9.06158
9.03016
8.99712
8.9624
8.92594
8.88776
8.84784
8.80619
8.7628
8.71766
8.67078
8.62214
8.57185
8.51996
8.46645
8.41135
8.35469
8.29654
8.23703
8.17561
1.39316
4.52984
10.0422
10.0775
9.77116
9.44319
9.32287
9.32308
9.33546
9.35805
9.36732
9.36639
9.36224
9.35348
9.34372
9.33415
9.32411
9.31292
9.30033
9.28637
9.2711
9.25454
9.23667
9.21747
9.19692
9.17497
9.15165
9.12693
9.10072
9.07294
9.04359
9.01263
8.98009
8.94598
8.9103
8.87304
8.83416
8.79366
8.75152
8.70774
8.66233
8.61531
8.5667
8.51652
8.46479
8.41153
8.35677
8.30055
8.24297
8.18354
1.53016
3.33805
9.8426
10.6841
10.2984
9.63366
9.3291
9.29284
9.30929
9.34391
9.35901
9.35809
9.35341
9.34337
9.33242
9.32235
9.31219
9.30104
9.28852
9.27466
9.25947
9.243
9.2252
9.20607
9.18555
9.16357
9.14027
9.11553
9.08932
9.0616
9.03237
9.00162
8.96938
8.93565
8.90041
8.86364
8.82534
8.7855
8.74411
8.70119
8.65673
8.61076
8.56328
8.51432
8.46389
8.41203
8.35879
8.3042
8.24836
8.19086
1.40731
4.54655
10.1131
10.0876
9.70331
9.35013
9.23957
9.24872
9.27782
9.30665
9.31611
9.31514
9.31111
9.30282
9.29402
9.28542
9.27626
9.26593
9.25423
9.2412
9.22687
9.21126
9.19437
9.17616
9.1566
9.13568
9.11339
9.08971
9.0646
9.03805
9.01003
8.98058
8.94967
8.91728
8.88341
8.84803
8.81115
8.77276
8.73289
8.69151
8.64861
8.60418
8.55826
8.51087
8.46203
8.41178
8.36012
8.30713
8.25291
8.19704
1.39226
4.55453
10.0026
9.97735
9.66538
9.3849
9.29603
9.29892
9.31085
9.32147
9.32186
9.3193
9.31253
9.30224
9.29204
9.28197
9.27132
9.25963
9.2468
9.23281
9.21766
9.20136
9.18389
9.16524
9.14536
9.12423
9.10183
9.07814
9.05314
9.02682
8.99917
8.97013
8.93967
8.90777
8.87442
8.83962
8.80334
8.76559
8.72639
8.68573
8.64366
8.60017
8.55527
8.50895
8.46124
8.41216
8.36174
8.30996
8.2569
8.20208
1.38435
4.5469
9.95423
9.94336
9.65553
9.38372
9.29113
9.2902
9.29628
9.30379
9.30374
9.30134
9.29497
9.28489
9.2748
9.26483
9.25432
9.24286
9.23031
9.21668
9.20196
9.1861
9.16907
9.15086
9.13143
9.11075
9.08882
9.0656
9.04108
9.01524
8.98806
8.95952
8.92959
8.89827
8.86556
8.83145
8.79595
8.75905
8.72073
8.681
8.63984
8.59727
8.5533
8.50793
8.46122
8.41321
8.36389
8.31321
8.26119
8.20738
1.37648
4.50828
9.91467
10.0279
9.72786
9.39989
9.27846
9.27426
9.28278
9.29494
9.29683
9.2944
9.28752
9.27624
9.26533
9.25501
9.24435
9.23277
9.22007
9.20626
9.19135
9.17532
9.15817
9.13985
9.12037
9.09968
9.07778
9.05464
9.03025
9.00459
8.97763
8.94937
8.91979
8.88886
8.8566
8.82297
8.78798
8.75163
8.7139
8.6748
8.63433
8.59251
8.54936
8.50491
8.45913
8.41198
8.36353
8.31381
8.26287
8.21034
1.62598
2.96736
9.51663
10.6148
10.2707
9.64472
9.33477
9.2685
9.27596
9.29395
9.3012
9.29887
9.29115
9.27651
9.26309
9.25158
9.24053
9.2288
9.21597
9.202
9.18696
9.17085
9.15366
9.13535
9.1159
9.09528
9.07346
9.05043
9.02616
9.00064
8.97385
8.94576
8.91637
8.88567
8.85363
8.82026
8.78555
8.7495
8.7121
8.67336
8.63328
8.59188
8.54917
8.50515
8.45985
8.41327
8.36549
8.31656
8.26656
8.2152
1.63529
2.85203
9.47884
10.8188
10.4127
9.67409
9.30649
9.22817
9.23864
9.26443
9.27887
9.27759
9.27128
9.25758
9.24324
9.23148
9.22084
9.20971
9.19743
9.18392
9.16929
9.15358
9.13681
9.11893
9.09992
9.07976
9.05842
9.03588
9.01212
8.98713
8.96089
8.93338
8.90459
8.87451
8.84312
8.81041
8.77639
8.74104
8.70437
8.66638
8.62706
8.58643
8.5445
8.50127
8.45674
8.41097
8.36398
8.31583
8.2666
8.21603
1.62635
2.96062
9.50171
10.6055
10.2614
9.62889
9.31101
9.24299
9.25126
9.27164
9.28155
9.27959
9.27235
9.2576
9.24352
9.2316
9.22044
9.20871
9.19592
9.18201
9.16705
9.15108
9.13409
9.11605
9.09692
9.07667
9.05529
9.03275
9.00904
8.98412
8.95798
8.93061
8.90199
8.8721
8.84093
8.80848
8.77473
8.73967
8.70332
8.66565
8.62669
8.58643
8.54488
8.50206
8.45797
8.41263
8.36607
8.3183
8.26939
8.21894
1.37345
4.50523
9.89583
10.0088
9.70458
9.36243
9.23352
9.22888
9.23833
9.25271
9.25566
9.25335
9.24667
9.23545
9.22461
9.21445
9.20404
9.19276
9.18041
9.167
9.15256
9.13711
9.12062
9.10307
9.08443
9.06469
9.04382
9.02179
8.9986
8.97421
8.94861
8.92179
8.89372
8.8644
8.83381
8.80194
8.76878
8.73432
8.69856
8.66151
8.62315
8.5835
8.54254
8.50031
8.4568
8.41205
8.36604
8.31877
8.27025
8.21998
1.37916
4.54055
9.9204
9.90345
9.60448
9.32737
9.23923
9.24147
9.25201
9.26178
9.26183
9.25915
9.25201
9.24091
9.23005
9.21955
9.20862
9.19679
9.18396
9.17013
9.15532
9.13951
9.1227
9.10484
9.08593
9.06593
9.04482
9.02259
8.99921
8.97466
8.94893
8.922
8.89384
8.86445
8.83381
8.80192
8.76875
8.73431
8.69859
8.66159
8.62331
8.58375
8.54293
8.50084
8.4575
8.41292
8.36712
8.32012
8.27192
8.22222
1.40348
4.56165
10.051
9.98412
9.58961
9.27342
9.19029
9.20179
9.23131
9.25158
9.25399
9.25125
9.24404
9.23341
9.22322
9.2133
9.20281
9.1913
9.17873
9.16513
9.15054
9.13495
9.11833
9.10067
9.08195
9.06214
9.04123
9.01918
8.996
8.97164
8.9461
8.91936
8.89139
8.8622
8.83175
8.80005
8.76708
8.73283
8.6973
8.6605
8.62241
8.58304
8.54241
8.50051
8.45736
8.41298
8.36739
8.32061
8.2727
8.22343
3.04109
2.45167
2.9906
4.17221
4.11856
4.10359
4.04261
4.00472
3.99157
3.99404
4.0213
4.06448
4.1015
4.13244
4.16672
4.20971
4.26159
4.31986
4.38168
4.44476
4.5074
4.56834
4.62719
4.68432
4.7355
4.78104
4.82094
4.85553
4.88484
4.90896
4.92807
4.94219
4.95156
4.95631
4.9567
4.95505
4.94965
4.93821
4.92261
4.90468
4.88446
4.86192
4.83715
4.81044
4.78204
4.75224
4.72127
4.68939
4.65681
4.62377
4.59046
4.5571
4.52389
4.49103
4.45871
4.42712
4.39646
4.36693
4.33872
4.31202
4.28702
4.26393
4.24292
4.22418
4.20788
4.19416
4.18316
4.17494
4.16952
4.16684
4.16672
4.16722
4.16908
4.1737
4.18331
4.19639
4.21021
4.22423
4.23835
4.25238
4.26599
4.27881
4.29052
4.30088
4.30973
4.31698
4.32261
4.32662
4.32915
4.33035
4.33038
4.3302
4.32954
4.3279
4.32448
4.31981
4.31492
4.30996
4.30477
4.30034
4.09278
3.54628
3.74759
4.22599
4.14583
4.08889
4.02972
3.9895
3.97752
3.98947
4.03002
4.07997
4.1117
4.13407
4.16349
4.20464
4.25608
4.31426
4.37595
4.43893
4.50146
4.56256
4.62168
4.67855
4.7298
4.77537
4.81537
4.8501
4.87954
4.90382
4.92301
4.93725
4.94668
4.95146
4.95166
4.95046
4.94614
4.93602
4.91886
4.90028
4.88025
4.85804
4.83353
4.80697
4.7787
4.749
4.71815
4.68638
4.65391
4.62097
4.58776
4.55449
4.52137
4.48858
4.45632
4.42479
4.39419
4.3647
4.33652
4.30985
4.28489
4.26181
4.24083
4.22211
4.20583
4.19214
4.18119
4.17305
4.16778
4.16543
4.1655
4.16614
4.16812
4.17276
4.18231
4.19545
4.20957
4.22393
4.23833
4.25256
4.26632
4.27926
4.29108
4.30151
4.31041
4.31768
4.32329
4.32729
4.3298
4.33091
4.33088
4.33064
4.32993
4.32825
4.3248
4.32008
4.31512
4.31018
4.30516
4.30239
5.22152
4.45867
4.22768
4.25976
4.24112
4.18945
4.10803
4.0553
4.0348
4.03707
4.04911
4.07772
4.11318
4.14462
4.17812
4.21912
4.26828
4.32402
4.38358
4.44469
4.50566
4.56533
4.62288
4.67763
4.72803
4.77309
4.81265
4.84689
4.87588
4.89974
4.91855
4.93243
4.94149
4.94583
4.94574
4.94462
4.94091
4.93217
4.91467
4.89514
4.87451
4.8522
4.82782
4.80143
4.7733
4.74372
4.71298
4.68132
4.64897
4.61614
4.58306
4.5499
4.51689
4.4842
4.45205
4.42062
4.39011
4.36072
4.33263
4.30604
4.28116
4.25817
4.23727
4.21863
4.20244
4.18887
4.17805
4.17011
4.16512
4.16339
4.16359
4.16444
4.16669
4.1716
4.18144
4.19432
4.20863
4.22348
4.23837
4.25301
4.26707
4.28024
4.29222
4.30277
4.31172
4.31899
4.32456
4.3285
4.33095
4.33184
4.33176
4.33141
4.33052
4.3286
4.32489
4.32027
4.31529
4.31039
4.30543
4.30433
5.82497
5.09067
4.65578
4.45917
4.42062
4.35584
4.26428
4.18403
4.13184
4.11093
4.11308
4.12378
4.14936
4.1866
4.22047
4.25567
4.29674
4.34462
4.39781
4.45404
4.51126
4.56799
4.62302
4.67556
4.72418
4.76812
4.80689
4.84039
4.86867
4.89191
4.91018
4.92354
4.93213
4.93591
4.93573
4.93458
4.93116
4.92328
4.9072
4.88696
4.86546
4.84272
4.81834
4.79216
4.7643
4.73499
4.70452
4.67312
4.64104
4.60848
4.57565
4.54275
4.50997
4.47753
4.44561
4.4144
4.38411
4.35493
4.32705
4.30067
4.27598
4.25319
4.23247
4.21403
4.19804
4.18468
4.17411
4.16647
4.16189
4.16094
4.16124
4.16231
4.16493
4.17044
4.18041
4.19311
4.20755
4.22285
4.23834
4.2535
4.26797
4.28141
4.29357
4.30422
4.31322
4.32048
4.32604
4.32993
4.33221
4.3327
4.33257
4.3321
4.33098
4.32866
4.32482
4.32022
4.31524
4.3104
4.30556
4.3056
6.2282
5.59234
5.11622
4.82644
4.67753
4.5652
4.45439
4.35311
4.2755
4.22765
4.20742
4.20829
4.2144
4.23055
4.26296
4.29613
4.3327
4.3742
4.42048
4.47039
4.52237
4.57487
4.62643
4.6759
4.72223
4.76444
4.80194
4.83431
4.86158
4.88399
4.90147
4.9141
4.92205
4.92506
4.92479
4.92353
4.92012
4.91258
4.89736
4.87747
4.85553
4.83224
4.80757
4.78141
4.75375
4.72474
4.69459
4.66352
4.63175
4.5995
4.56698
4.53439
4.50193
4.46979
4.43817
4.40728
4.37729
4.34842
4.32085
4.29478
4.2704
4.24792
4.22752
4.2094
4.19373
4.1807
4.1705
4.16329
4.15927
4.15901
4.1594
4.1607
4.16375
4.17004
4.18015
4.19276
4.20721
4.22277
4.23867
4.25428
4.26912
4.28281
4.29509
4.30577
4.31477
4.32204
4.32753
4.33126
4.33329
4.33334
4.33316
4.33257
4.3312
4.32843
4.32442
4.3198
4.31483
4.31007
4.30557
4.30582
6.53535
5.99955
5.54397
5.19932
4.96602
4.79984
4.6632
4.54428
4.44628
4.37401
4.32841
4.30629
4.30566
4.30884
4.31952
4.34272
4.37528
4.41149
4.45045
4.49251
4.53733
4.58377
4.63037
4.67586
4.71906
4.75896
4.79471
4.82581
4.85205
4.87351
4.89008
4.90194
4.90923
4.91146
4.91112
4.90975
4.90626
4.89877
4.88404
4.86499
4.84318
4.81958
4.79459
4.76833
4.74083
4.71214
4.68238
4.65173
4.62039
4.58858
4.55648
4.52431
4.49227
4.46057
4.42938
4.39893
4.3694
4.34098
4.31386
4.28826
4.26435
4.24233
4.2224
4.20475
4.18955
4.177
4.16732
4.16066
4.15737
4.15744
4.15801
4.15963
4.16321
4.17044
4.18063
4.19314
4.20746
4.22299
4.23902
4.25484
4.26987
4.28372
4.29611
4.30686
4.31583
4.32299
4.32832
4.33185
4.33356
4.3335
4.3332
4.33241
4.33071
4.32756
4.32346
4.31881
4.31387
4.3092
4.30502
4.30538
6.77957
6.32832
5.91011
5.55042
5.26943
5.05758
4.89006
4.75038
4.63345
4.53993
4.47106
4.42609
4.40246
4.39628
4.39788
4.40453
4.42026
4.44892
4.48091
4.51637
4.55457
4.59461
4.6355
4.67625
4.71574
4.75282
4.7865
4.81608
4.84117
4.86163
4.8774
4.88855
4.8951
4.89656
4.89616
4.89467
4.89102
4.88332
4.86909
4.85074
4.82933
4.80575
4.78063
4.7543
4.7269
4.69849
4.66913
4.63896
4.60811
4.5768
4.5452
4.51355
4.48203
4.45085
4.42021
4.39031
4.36134
4.3335
4.30697
4.28197
4.25866
4.23726
4.21795
4.20092
4.18636
4.17445
4.16539
4.15932
4.15687
4.15704
4.15783
4.15983
4.16409
4.17202
4.18235
4.19474
4.20887
4.22416
4.23997
4.25566
4.27062
4.28441
4.29673
4.30738
4.31623
4.32325
4.32843
4.3318
4.33323