/*--------------------------------*- C++ -*----------------------------------*\
| =========                 |                                                 |
| \\      /  F ield         | OpenFOAM: The Open Source CFD Toolbox           |
|  \\    /   O peration     | Version:  2412                                  |
|   \\  /    A nd           | Website:  www.openfoam.com                      |
|    \\/     M anipulation  |                                                 |
\*---------------------------------------------------------------------------*/
FoamFile
{
    version     2.0;
    format      ascii;
    arch        "LSB;label=32;scalar=64";
    class       surfaceScalarField;
    location    "15";
    object      phi;
}
// * * * * * * * * * * * * * * * * * * * * * * * * * * * * * * * * * * * * * //

dimensions      [1 0 -1 0 0 0 0];

oriented        oriented;

internalField   nonuniform List<scalar> 
13790
(
0.00292392
-1.98986e-07
0.00274439
9.27161e-07
0.00280365
3.18884e-06
0.0028048
5.52463e-06
0.00279877
6.41235e-06
0.00279161
7.09823e-06
0.00278363
7.88331e-06
0.00277469
8.82672e-06
0.0027647
9.90655e-06
0.00275347
1.11449e-05
0.00274089
1.24699e-05
0.00272699
1.38463e-05
0.0027116
1.52735e-05
0.00269478
1.67698e-05
0.00267632
1.83472e-05
0.00265625
2.00109e-05
0.00263439
2.17668e-05
0.0026107
2.3615e-05
0.00258507
2.55675e-05
0.00255737
2.76258e-05
0.0025275
2.98031e-05
0.00249533
3.21043e-05
0.00246074
3.45425e-05
0.00242352
3.7123e-05
0.00238364
3.98612e-05
0.00234079
4.27655e-05
0.00229489
4.58433e-05
0.00224574
4.91162e-05
0.00219307
5.25805e-05
0.00213675
5.62584e-05
0.00207656
6.01525e-05
0.00201217
6.42706e-05
0.00194351
6.86151e-05
0.00187024
7.31968e-05
0.0017921
7.79914e-05
0.00170908
8.30115e-05
0.00162067
8.82304e-05
0.00152699
9.36002e-05
0.00142778
9.91387e-05
0.00132287
0.000104717
0.00121252
0.000110344
0.00109649
0.000115904
0.000975093
0.000121285
0.000848653
0.000126438
0.000717323
0.000131206
0.000581742
0.000135472
0.000442428
0.000139337
0.0002998
0.000142589
0.00015277
0.000146821
0.000152679
0.00303235
1.9427e-08
0.00284605
8.29239e-07
0.0029061
8.49936e-06
0.0029073
1.1166e-05
0.00290143
1.26832e-05
0.00289423
1.4239e-05
0.00288602
1.59981e-05
0.00287674
1.79853e-05
0.00286635
2.02096e-05
0.00285469
2.2713e-05
0.00284167
2.53912e-05
0.00282726
2.81862e-05
0.00281132
3.10934e-05
0.0027939
3.41436e-05
0.00277477
3.73574e-05
0.00275397
4.07455e-05
0.00273133
4.43209e-05
0.00270678
4.80847e-05
0.00268022
5.20603e-05
0.00265152
5.62513e-05
0.00262057
6.06858e-05
0.00258723
6.53707e-05
0.0025514
7.0336e-05
0.00251282
7.55917e-05
0.00247149
8.11662e-05
0.0024271
8.70818e-05
0.00237952
9.33508e-05
0.00232859
0.000100015
0.00227401
0.000107074
0.00221564
0.000114564
0.00215325
0.000122499
0.00208651
0.000130891
0.00201533
0.000139745
0.00193936
0.000149086
0.00185834
0.000158864
0.00177223
0.000169104
0.00168052
0.000179756
0.00158332
0.000190722
0.00148035
0.000202038
0.00137142
0.000213445
0.0012568
0.00022496
0.00113622
0.000236351
0.00101
0.000247392
0.000878453
0.000257981
0.00074174
0.000267791
0.000600483
0.000276616
0.000455308
0.000284534
0.000306555
0.000291301
0.000154448
0.000298708
0.000307033
0.00314506
9.11962e-08
0.00295156
1.19259e-06
0.00301403
1.37152e-05
0.00301519
1.70918e-05
0.0030092
1.91004e-05
0.00300186
2.15108e-05
0.00299342
2.43403e-05
0.00298384
2.74459e-05
0.00297308
3.08776e-05
0.002961
3.46911e-05
0.00294753
3.87616e-05
0.00293263
4.30169e-05
0.00291614
4.74588e-05
0.00289812
5.21175e-05
0.00287832
5.70304e-05
0.0028568
6.22011e-05
0.00283336
6.76637e-05
0.00280796
7.34066e-05
0.00278046
7.94805e-05
0.00275077
8.58744e-05
0.00271874
9.265e-05
0.00268423
9.97961e-05
0.00264715
0.000107382
0.00260723
0.0001154
0.00256445
0.000123916
0.00251851
0.000132941
0.00246927
0.00014252
0.00241656
0.000152688
0.00236007
0.000163476
0.00229965
0.000174912
0.00223507
0.000187037
0.00216598
0.00019986
0.00209228
0.000213393
0.00201361
0.000227677
0.00192969
0.00024263
0.00184047
0.000258307
0.00174543
0.00027461
0.00164464
0.000291421
0.00153784
0.000308762
0.0014248
0.000326285
0.00130579
0.00034396
0.00118049
0.00036151
0.00104928
0.000378493
0.000912381
0.000394875
0.000770009
0.00041003
0.000622816
0.000423695
0.000471434
0.000435938
0.000316471
0.000446216
0.000158708
0.000456248
0.000465645
0.003262
1.14806e-07
0.0030613
1.6434e-06
0.00312634
1.88547e-05
0.00312754
2.32186e-05
0.00312136
2.57212e-05
0.00311386
2.89533e-05
0.00310522
3.28761e-05
0.00309534
3.71962e-05
0.00308423
4.18962e-05
0.00307175
4.70665e-05
0.00305784
5.25637e-05
0.00304246
5.83304e-05
0.00302543
6.43524e-05
0.00300682
7.06843e-05
0.00298637
7.73472e-05
0.00296413
8.43719e-05
0.00293992
9.17751e-05
0.00291367
9.95757e-05
0.00288527
0.000107806
0.00285458
0.00011649
0.00282149
0.000125669
0.00278582
0.000135375
0.00274752
0.000145649
0.00270627
0.000156542
0.00266208
0.000168074
0.0026146
0.000180337
0.00256374
0.00019331
0.00250926
0.000207127
0.0024509
0.000221742
0.00238846
0.000237287
0.00232172
0.000253721
0.00225031
0.000271157
0.00217411
0.000289522
0.00209278
0.000308944
0.00200596
0.000329278
0.00191365
0.000350598
0.00181526
0.000372812
0.00171088
0.000395706
0.00160018
0.000419388
0.00148296
0.000443288
0.0013594
0.00046752
0.00122927
0.00049149
0.00109276
0.000514883
0.00095034
0.000537291
0.000801946
0.000558286
0.000648463
0.000577054
0.00049062
0.000593803
0.000328924
0.000607866
0.000164786
0.000620155
0.000630331
0.00338324
1.37847e-07
0.00317512
2.12559e-06
0.00324274
2.40179e-05
0.00324406
2.94739e-05
0.00323773
3.25198e-05
0.00323005
3.65705e-05
0.0032212
4.16249e-05
0.00321106
4.71897e-05
0.00319964
5.32296e-05
0.00318679
5.98083e-05
0.00317246
6.67812e-05
0.00315662
7.41019e-05
0.00313908
8.17607e-05
0.00311989
8.98158e-05
0.00309882
9.82945e-05
0.00307588
0.000107227
0.00305092
0.000116641
0.00302385
0.000126557
0.00299455
0.000137021
0.00296292
0.000148057
0.00292878
0.000159728
0.00289201
0.000172058
0.0028525
0.000185124
0.00280997
0.000198957
0.00276437
0.000213627
0.00271545
0.000229195
0.00266296
0.000245709
0.0026068
0.000263245
0.0025466
0.000281862
0.0024822
0.000301595
0.00241334
0.000322542
0.00233968
0.000344692
0.00226101
0.000368119
0.00217707
0.000392819
0.00208738
0.000418788
0.00199202
0.000445949
0.00189028
0.000474357
0.00178228
0.000503601
0.00166765
0.000533935
0.00154615
0.000564584
0.00141795
0.000595688
0.00128275
0.000626567
0.00114081
0.000656697
0.000992336
0.000685751
0.000837749
0.000712738
0.000677399
0.000737281
0.000512437
0.000758782
0.000343657
0.000776598
0.000172025
0.000791556
0.000802253
0.003509
1.61109e-07
0.00329319
2.6139e-06
0.00336348
2.92201e-05
0.00336496
3.58274e-05
0.00335851
3.9469e-05
0.00335066
4.4349e-05
0.00334162
5.05651e-05
0.00333124
5.74108e-05
0.00331953
6.48439e-05
0.00330636
7.28868e-05
0.00329161
8.13892e-05
0.00327537
9.03088e-05
0.00325731
9.96613e-05
0.00323758
0.000109489
0.0032159
0.000119849
0.0031923
0.000130739
0.00316661
0.000142237
0.00313876
0.00015432
0.00310859
0.000167097
0.00307602
0.000180541
0.00304091
0.000194789
0.00300303
0.000209811
0.00296239
0.00022575
0.00291861
0.000242613
0.00287169
0.0002605
0.00282134
0.000279485
0.00276733
0.000299623
0.00270951
0.000321014
0.00264758
0.00034372
0.00258125
0.00036782
0.0025104
0.00039336
0.00243452
0.000420461
0.00235351
0.000449034
0.00226698
0.000479303
0.00217454
0.000511028
0.0020761
0.000544368
0.00197113
0.000579151
0.00185943
0.000615159
0.00174094
0.000652373
0.001615
0.000690297
0.0014821
0.000728562
0.00134157
0.000766953
0.00119391
0.000804229
0.00103922
0.000840443
0.000877588
0.000874236
0.000710134
0.000904599
0.00053735
0.000931586
0.000360235
0.000953652
0.000180568
0.00097098
0.000982715
0.00363945
1.84716e-07
0.00341563
3.10352e-06
0.00348873
3.44566e-05
0.00349041
4.22534e-05
0.00348388
4.65283e-05
0.00347589
5.22649e-05
0.00346667
5.96754e-05
0.00345613
6.78284e-05
0.00344413
7.6705e-05
0.00343065
8.62675e-05
0.00341556
9.63543e-05
0.00339886
0.000106924
0.00338039
0.00011802
0.0033601
0.000129683
0.00333788
0.00014197
0.00331362
0.000154895
0.00328724
0.000168516
0.00325863
0.000182851
0.00322765
0.000197978
0.00319418
0.000213925
0.00315813
0.000230786
0.00311921
0.000248603
0.00307748
0.000267463
0.00303252
0.000287459
0.00298433
0.000308627
0.00293262
0.000331135
0.00287717
0.000354979
0.00281778
0.000380341
0.00275421
0.000407242
0.00268606
0.000435834
0.00261329
0.000466111
0.00253532
0.000498302
0.00245203
0.000532219
0.00236307
0.000568216
0.00226792
0.000605971
0.0021666
0.000645674
0.00205835
0.000687224
0.00194318
0.000730188
0.00182063
0.000774873
0.00169042
0.000820235
0.0015525
0.000866489
0.00140672
0.000912589
0.00125281
0.000957984
0.00109153
0.00100171
0.000922635
0.00104299
0.00074685
0.00108024
0.000565624
0.00111283
0.00037963
0.00113961
0.000190097
0.00116027
0.0011727
0.00377475
2.08438e-07
0.00354262
3.59174e-06
0.00361867
3.97078e-05
0.00362058
4.87221e-05
0.00361401
5.3657e-05
0.00360592
6.02812e-05
0.00359658
6.89006e-05
0.00358587
7.84152e-05
0.00357368
8.87787e-05
0.0035599
9.99195e-05
0.00354451
0.000111631
0.00352742
0.000123916
0.00350851
0.000136794
0.00348778
0.000150358
0.00346498
0.000164622
0.00344017
0.000179636
0.0034131
0.000195446
0.00338382
0.000212079
0.00335204
0.000229638
0.00331776
0.000248122
0.0032808
0.000267694
0.00324093
0.000288334
0.00319815
0.000310224
0.00315211
0.000333383
0.00310271
0.000357954
0.00304977
0.000384022
0.00299294
0.000411708
0.00293213
0.000441089
0.00286697
0.000472341
0.0027972
0.000505485
0.00272258
0.000540697
0.00264272
0.000578049
0.00255725
0.000617565
0.00246605
0.000659391
0.00236829
0.000703493
0.00226423
0.000749742
0.00215283
0.000798415
0.00203421
0.000848689
0.00190778
0.000901205
0.00177318
0.000954638
0.00163036
0.00100924
0.00147882
0.00106398
0.00131886
0.00111783
0.00115016
0.00117037
0.000973455
0.00121959
0.000789095
0.00126446
0.00059791
0.00130403
0.000401396
0.00133608
0.000201489
0.00135994
0.00137408
0.00391509
2.32141e-07
0.00367432
4.07506e-06
0.00375349
4.49394e-05
0.00375567
5.5194e-05
0.00374911
6.08204e-05
0.00374097
6.83494e-05
0.00373155
7.82067e-05
0.00372068
8.91106e-05
0.00370837
0.000101012
0.00369437
0.000113786
0.00367869
0.000127178
0.00366128
0.000141226
0.00364197
0.000155949
0.00362086
0.000171457
0.00359754
0.000187762
0.00357222
0.000204912
0.00354454
0.000222972
0.0035146
0.000241953
0.00348213
0.000261998
0.00344707
0.000283083
0.00340931
0.000305409
0.00336855
0.000328952
0.00332483
0.000353909
0.00327779
0.000380323
0.00322732
0.000408337
0.00317323
0.000438066
0.0031152
0.00046964
0.00305304
0.000503167
0.00298654
0.000538809
0.00291519
0.000576685
0.002839
0.00061686
0.00275732
0.000659619
0.00266997
0.000704774
0.00257659
0.000752751
0.0024766
0.000803274
0.00236978
0.000856509
0.00225562
0.000912419
0.00213351
0.00097063
0.00200348
0.00103117
0.00186439
0.00109348
0.00171674
0.00115684
0.00155952
0.00122111
0.00139272
0.00128444
0.00121687
0.00134622
0.00103111
0.00140524
0.000836969
0.00145842
0.000635457
0.00150551
0.000427232
0.00154425
0.000214175
0.00157275
0.00158814
0.00406066
2.55188e-07
0.00381091
4.54944e-06
0.00389339
5.00937e-05
0.00389591
6.16207e-05
0.00388939
6.79754e-05
0.00388125
7.6413e-05
0.00387182
8.75302e-05
0.00386088
9.98578e-05
0.00384846
0.000113347
0.00383433
0.000127805
0.00381842
0.000142943
0.00380078
0.000158797
0.00378112
0.000175429
0.00375962
0.000192922
0.00373591
0.000211328
0.00371007
0.000230662
0.0036819
0.00025102
0.00365134
0.000272408
0.00361828
0.000294974
0.0035825
0.00031873
0.00354405
0.000343836
0.00350249
0.00037036
0.00345796
0.000398405
0.00341003
0.000428161
0.00335862
0.000459641
0.00330353
0.000493121
0.00324444
0.000528622
0.00318115
0.000566381
0.00311343
0.000606493
0.0030408
0.000649173
0.00296315
0.000694455
0.00288
0.000742685
0.00279089
0.000793708
0.00269573
0.000847913
0.00259356
0.000905207
0.00248451
0.000965511
0.00236757
0.00102924
0.00224252
0.00109546
0.00210875
0.0011649
0.00196576
0.00123625
0.00181288
0.00130962
0.0016501
0.00138376
0.00147651
0.0014579
0.00129233
0.00153032
0.00109787
0.00159961
0.000892598
0.00166354
0.000678462
0.00171966
0.000456838
0.00176583
0.000229812
0.00179953
0.00181783
0.00421167
2.74454e-07
0.00395257
5.01432e-06
0.0040386
5.50772e-05
0.0040415
6.7954e-05
0.00403508
7.50864e-05
0.00402703
8.43822e-05
0.00401764
9.68011e-05
0.00400676
0.000110581
0.00399424
0.000125714
0.00398008
0.000141908
0.00396397
0.000158854
0.00394617
0.000176563
0.00392626
0.000195164
0.00390441
0.000214684
0.00388038
0.000235249
0.0038541
0.000256805
0.00382552
0.000279518
0.00379445
0.000303346
0.00376088
0.000328489
0.00372452
0.000354939
0.00368545
0.000382889
0.00364326
0.000412403
0.003598
0.000443616
0.00354938
0.000476705
0.00349715
0.000511748
0.00344126
0.000548968
0.00338127
0.000588499
0.00331707
0.000630495
0.00324835
0.000675175
0.00317467
0.000722706
0.0030959
0.000773185
0.00301149
0.000827002
0.00292105
0.000883987
0.00282433
0.000944632
0.00272048
0.00100882
0.00260937
0.00107657
0.00249019
0.00114826
0.00236232
0.00122313
0.00222545
0.00130173
0.00207832
0.00138311
0.00192108
0.0014668
0.00175228
0.00155249
0.00157192
0.00163802
0.00137944
0.00172281
0.00117436
0.00180456
0.000957826
0.0018799
0.000730026
0.00194745
0.000492463
0.00200337
0.00024746
0.0020443
0.00206516
0.00436831
2.84695e-07
0.00409947
5.4804e-06
0.0041893
5.97836e-05
0.00419265
7.41437e-05
0.00418636
8.20928e-05
0.00417854
9.21355e-05
0.00416932
0.000105907
0.00415857
0.000121213
0.00414605
0.00013803
0.00413189
0.000156021
0.00411572
0.000174827
0.00409778
0.000194456
0.00407773
0.000215061
0.00405562
0.00023668
0.00403135
0.000259426
0.00400476
0.000283272
0.00397582
0.000308356
0.00394437
0.000334679
0.00391035
0.00036242
0.00387356
0.000391603
0.00383398
0.00042242
0.0037913
0.000454954
0.00374547
0.000489359
0.0036963
0.000525806
0.00364349
0.000564434
0.00358698
0.000605427
0.00352643
0.000648996
0.00346148
0.000695293
0.00339215
0.000744531
0.00331765
0.000797019
0.00323809
0.000852692
0.00315281
0.00091222
0.00306133
0.000975237
0.00296357
0.00104244
0.00285838
0.00111374
0.00274581
0.00118908
0.00262479
0.00126917
0.00249471
0.00135295
0.00235503
0.0014414
0.0022046
0.00153329
0.00204271
0.00162856
0.00186876
0.00172633
0.00168125
0.00182535
0.00148024
0.00192374
0.00126479
0.00201993
0.00103425
0.00211025
0.000790621
0.00219106
0.000534868
0.0022591
0.000270081
0.00230885
0.00233511
0.0045308
3.03798e-07
0.00425183
5.89435e-06
0.00434551
6.43757e-05
0.00434945
7.99722e-05
0.00434368
8.87065e-05
0.00433612
9.96364e-05
0.00432711
0.00011478
0.00431658
0.000131616
0.00430424
0.000150191
0.00429011
0.000170046
0.00427402
0.000190771
0.00425598
0.000212381
0.0042359
0.000235034
0.00421365
0.000258811
0.00418919
0.000283766
0.00416243
0.000309949
0.00413322
0.000337428
0.00410152
0.00036628
0.0040672
0.000396637
0.00403009
0.000428579
0.00399017
0.000462272
0.00394716
0.000497847
0.00390098
0.000535441
0.00385146
0.000575271
0.00379831
0.000617465
0.0037414
0.000662258
0.0036805
0.000709841
0.00361521
0.000760453
0.00354545
0.000814264
0.00347067
0.000871667
0.00339062
0.000932651
0.003305
0.000997802
0.00321298
0.00106705
0.00311461
0.00114079
0.00300874
0.0012194
0.00289523
0.00130251
0.00277306
0.00139122
0.00264143
0.00148434
0.00249971
0.00158308
0.00234644
0.0016863
0.00218104
0.00179386
0.00200183
0.00190548
0.00180797
0.002019
0.00159805
0.00213363
0.00137124
0.00224666
0.00112716
0.00235404
0.000865426
0.00245274
0.000587651
0.00253685
0.000296606
0.00259971
0.00263158
0.00469935
3.27588e-07
0.00440984
6.257e-06
0.00450766
6.8702e-05
0.00451239
8.53327e-05
0.00450725
9.4747e-05
0.00450008
0.00010675
0.00449146
0.000123262
0.00448126
0.000141684
0.0044692
0.000162098
0.00445521
0.000183886
0.00443929
0.000206583
0.00442128
0.000230238
0.00440122
0.000254991
0.00437894
0.00028097
0.00435439
0.000308171
0.00432756
0.000336716
0.0042982
0.000366621
0.00426639
0.00039801
0.00423191
0.000431002
0.00419466
0.000465701
0.00415461
0.000502271
0.00411144
0.000540882
0.00406516
0.000581652
0.00401552
0.000624847
0.00396227
0.000670591
0.0039053
0.000719146
0.00384434
0.000770738
0.00377903
0.000825608
0.00370928
0.000883975
0.00363455
0.000946274
0.0035546
0.0010125
0.00346905
0.00108332
0.00337717
0.00115871
0.00327887
0.0012391
0.003173
0.00132504
0.00305934
0.00141606
0.00293689
0.00151356
0.00280456
0.00161642
0.00266181
0.00172578
0.00250675
0.00184112
0.00233859
0.00196188
0.00215565
0.00208836
0.00195568
0.00221872
0.00173777
0.00235146
0.00149924
0.00248514
0.00123879
0.00261435
0.00095681
0.00273467
0.000653537
0.00284011
0.000332505
0.00292052
0.00296393
0.00487418
3.43161e-07
0.00457373
6.58219e-06
0.00467619
7.24208e-05
0.00468182
9.01009e-05
0.00467735
0.000100196
0.00467082
0.000113225
0.00466276
0.000131189
0.00465298
0.000151287
0.00464135
0.000173602
0.00462769
0.000197414
0.00461197
0.000222161
0.00459414
0.000247933
0.0045742
0.000274812
0.00455206
0.00030303
0.00452747
0.000332543
0.00450074
0.000363438
0.00447137
0.000395817
0.00443955
0.000429716
0.00440513
0.000465365
0.00436786
0.000502783
0.00432787
0.000542236
0.00428482
0.000583821
0.00423858
0.000627768
0.00418914
0.000674239
0.00413609
0.000723527
0.00407938
0.000775745
0.00401877
0.000831307
0.00395384
0.000890352
0.00388463
0.000953205
0.00381043
0.00102031
0.00373109
0.0010917
0.00364635
0.00116809
0.00355517
0.0012496
0.00345778
0.00133653
0.00335283
0.00142978
0.00323993
0.0015288
0.00311835
0.0016351
0.00298652
0.00174797
0.00284397
0.0018683
0.00268866
0.00199623
0.0025191
0.00213126
0.00233354
0.00227379
0.00212944
0.00242266
0.00190425
0.00257658
0.00165565
0.00273365
0.00137969
0.00289013
0.00107464
0.00303964
0.000739726
0.00317501
0.000377734
0.00328233
0.0033415
0.00505551
3.54651e-07
0.00474373
6.83498e-06
0.00485116
7.5373e-05
0.00485799
9.39886e-05
0.00485447
0.000104785
0.00484877
0.000118866
0.00484145
0.000138377
0.00483233
0.000160237
0.00482122
0.00018456
0.004808
0.000210488
0.00479266
0.00023738
0.00477517
0.000265307
0.00475533
0.000294415
0.00473355
0.000324882
0.00470909
0.000356748
0.00468246
0.000389994
0.00465336
0.000424856
0.00462163
0.000461239
0.00458743
0.000499537
0.00455042
0.000539632
0.00451063
0.000581936
0.0044679
0.00062644
0.00442208
0.000673493
0.00437304
0.000723188
0.00432058
0.000775891
0.00426446
0.000831733
0.00420467
0.000891088
0.00414059
0.000954253
0.00407232
0.00102141
0.00399936
0.0010932
0.00392125
0.00116962
0.00383795
0.00125141
0.0037485
0.00133884
0.00365275
0.00143223
0.00354988
0.00153252
0.00343902
0.0016395
0.00331955
0.00175449
0.00318997
0.00187732
0.00304929
0.00200886
0.0028957
0.00214962
0.00272724
0.00229954
0.00254158
0.0024594
0.00233536
0.00262869
0.00210548
0.00280635
0.00184692
0.00299211
0.00155546
0.00318143
0.00122646
0.00336851
0.000856183
0.00354524
0.00044407
0.00369431
0.0037854
0.00524359
3.61552e-07
0.00492006
6.99274e-06
0.00503293
7.72812e-05
0.00504129
9.66506e-05
0.00503905
0.000108186
0.00503447
0.000123412
0.0050281
0.000144594
0.00501987
0.00016833
0.00500943
0.00019481
0.00499683
0.000222979
0.00498187
0.000252123
0.00496491
0.000282272
0.00494546
0.000313675
0.00492379
0.000346406
0.00489982
0.00038063
0.00487347
0.000416236
0.00484465
0.00045355
0.00481334
0.000492426
0.0047795
0.000533288
0.00474285
0.000576061
0.00470371
0.000621095
0.00466149
0.000668509
0.00461638
0.000718497
0.0045681
0.000771377
0.00451661
0.000827316
0.00446154
0.000886678
0.00440295
0.000949638
0.00434036
0.00101675
0.00427366
0.001088
0.00420255
0.00116428
0.00412652
0.00124544
0.0040455
0.00133242
0.00395859
0.00142549
0.00386577
0.00152499
0.00376596
0.00163218
0.00365859
0.00174663
0.00354287
0.00187019
0.00341726
0.00200266
0.00328086
0.00214516
0.00313146
0.0022989
0.00296702
0.00246367
0.00278482
0.00264155
0.00258085
0.00283248
0.00235132
0.00303573
0.00208973
0.00325358
0.001787
0.003484
0.00143354
0.00372193
0.00101993
0.00395882
0.000538268
0.00417576
0.0043235
0.00543867
3.4998e-07
0.00510298
7.03324e-06
0.00522193
7.76874e-05
0.00523227
9.76398e-05
0.00523172
0.000110004
0.00522859
0.000126512
0.00522351
0.000149529
0.00521637
0.000175337
0.00520681
0.000204168
0.00519497
0.000234747
0.00518058
0.000266265
0.00516405
0.000298725
0.00514521
0.000332447
0.005124
0.00036747
0.00510042
0.000404043
0.00507447
0.000442048
0.00504625
0.000481727
0.00501533
0.000523123
0.00498218
0.000566417
0.0049462
0.00061185
0.00490776
0.00065947
0.00486649
0.00070969
0.0048223
0.000762512
0.00477525
0.000818388
0.004725
0.000877452
0.00467143
0.000940085
0.00461453
0.0010065
0.0045538
0.00107726
0.00448936
0.00115239
0.00442079
0.00123278
0.00434757
0.00131844
0.00427
0.00141009
0.00418674
0.00150849
0.00409809
0.00161358
0.0040031
0.00172711
0.00390088
0.00184863
0.00379115
0.00197992
0.00367189
0.00212164
0.00354251
0.00227436
0.00340056
0.00244071
0.00324443
0.00261962
0.00307225
0.00281358
0.00287745
0.00302713
0.00265257
0.00326045
0.00239207
0.003514
0.00208633
0.0037896
0.00171848
0.00408956
0.00126637
0.00441102
0.000701282
0.00474067
0.00502461
0.00564116
2.10842e-07
0.00529247
7.23808e-06
0.00541854
7.57875e-05
0.00543148
9.63318e-05
0.00543304
0.000109827
0.00543176
0.000127766
0.00542825
0.000152881
0.00542246
0.000181026
0.00541387
0.000212525
0.00540283
0.00024571
0.00538918
0.00027971
0.00537321
0.000314544
0.00535497
0.000350593
0.00533432
0.000387984
0.00531149
0.000426867
0.00528603
0.000467248
0.00525851
0.000509238
0.0052284
0.000553066
0.00519596
0.000598752
0.0051611
0.00064666
0.00512356
0.000696842
0.00508362
0.000749612
0.0050408
0.0008052
0.00499531
0.00086381
0.00494694
0.000925807
0.00489538
0.00099148
0.00484083
0.00106106
0.0047828
0.00113518
0.00472113
0.00121388
0.00465605
0.00129793
0.00458646
0.00138774
0.00451296
0.00148353
0.00443474
0.00158664
0.00435131
0.00169683
0.00426266
0.00181571
0.00416734
0.00194369
0.00406558
0.00208157
0.00395555
0.00223154
0.00383705
0.0023927
0.00371003
0.00256756
0.003568
0.00276147
0.00340701
0.0029744
0.00322681
0.00320718
0.00302182
0.00346529
0.00278185
0.00375384
0.00249069
0.00408071
0.00212869
0.0044514
0.00165483
0.00488485
0.000999306
0.00539602
0.00602376
0.00585156
1.51963e-07
0.00548853
7.00626e-06
0.00562188
7.24499e-05
0.00563798
9.23629e-05
0.00564252
0.000106765
0.00564389
0.000126375
0.00564244
0.000154172
0.00563819
0.000185158
0.00563083
0.000219706
0.00562062
0.000255753
0.00560784
0.000292343
0.00559263
0.00032962
0.00557505
0.000368038
0.00555506
0.000407756
0.00553299
0.000448939
0.00550835
0.000491619
0.00548162
0.000535882
0.00545267
0.000581978
0.00542119
0.000629999
0.00538762
0.000680188
0.00535148
0.000732801
0.00531301
0.000787952
0.00527213
0.000846047
0.00522846
0.000907235
0.00518248
0.000971818
0.00513349
0.00104029
0.00508181
0.00111264
0.00502728
0.00118976
0.00496936
0.00127154
0.00490856
0.00135883
0.00484401
0.00145206
0.00477586
0.00155158
0.00470403
0.00165845
0.00462761
0.00177303
0.00454691
0.00189627
0.00446067
0.0020298
0.0043699
0.00217218
0.00427503
0.00232623
0.00417075
0.00249681
0.00405475
0.00268337
0.00392984
0.0028862
0.00379392
0.00311014
0.00364222
0.00335873
0.00346962
0.00363774
0.00326942
0.00395392
0.00302927
0.00432077
0.00272203
0.00475852
0.00229892
0.00530793
0.00164609
0.00604869
0.00766964
0.00846137
1.32203e-07
0.00793341
6.08285e-06
0.00813272
6.33029e-05
0.00816164
8.12012e-05
0.00817403
9.65373e-05
0.00818084
0.000119551
0.00818292
0.000151883
0.00818018
0.000187717
0.00817246
0.000227171
0.00816044
0.000267577
0.00814474
0.000307902
0.00812546
0.000348594
0.00810314
0.000390229
0.00807752
0.00043314
0.0080489
0.000477343
0.00801734
0.000523003
0.00798277
0.000570191
0.00794555
0.000619136
0.00790524
0.000670047
0.00786212
0.00072309
0.00781625
0.000778569
0.00776718
0.000836667
0.00771557
0.000897628
0.00766065
0.000961861
0.00760291
0.00102941
0.00754212
0.00110094
0.00747812
0.00117643
0.00741115
0.00125664
0.00734068
0.00134168
0.00726734
0.00143222
0.00719043
0.00152877
0.0071101
0.00163175
0.00702631
0.00174217
0.00693906
0.0018601
0.00684928
0.0019859
0.00675741
0.00212151
0.00665867
0.00227074
0.0065528
0.00243189
0.00644378
0.00260562
0.00633258
0.00279436
0.00621568
0.00300287
0.00609429
0.00323129
0.00596703
0.00348576
0.00583528
0.00376928
0.00570159
0.00408736
0.00557337
0.00444888
0.00548326
0.00484837
0.00550729
0.00528382
0.00591421
0.00564168
0.00547693
0.00810672
0.0084631
1.03513e-07
0.00793295
3.73317e-06
0.00814724
4.10919e-05
0.00818705
5.93418e-05
0.00820874
7.70555e-05
0.00822253
0.000105771
0.00822869
0.000145528
0.00822819
0.000188038
0.00822144
0.000233737
0.0082102
0.000278575
0.00819565
0.000322321
0.0081779
0.000366128
0.00815714
0.000410761
0.00813363
0.000456507
0.00810728
0.000503414
0.00807861
0.000551585
0.00804729
0.000601243
0.00801374
0.000652526
0.00797784
0.000705786
0.00793957
0.000761104
0.0078992
0.000818857
0.0078564
0.00087918
0.00781153
0.000942393
0.00776441
0.00100876
0.00771506
0.00107856
0.00766371
0.00115213
0.00761009
0.00122982
0.00755459
0.00131195
0.00749699
0.00139905
0.00743764
0.00149142
0.00737634
0.00158991
0.00731412
0.00169381
0.00725175
0.00180437
0.00718785
0.00192385
0.00712066
0.00205292
0.0070511
0.00219091
0.00698346
0.00233818
0.00691771
0.00249743
0.00685365
0.00266945
0.00679196
0.00285582
0.00673726
0.00305735
0.0066899
0.00327842
0.00666005
0.00351536
0.00665116
0.00377798
0.00668321
0.0040551
0.00678032
0.00435167
0.00698702
0.00464147
0.00738671
0.00488394
0.00800405
0.00502421
0.00467553
0.00880532
0.00846373
1.61988e-07
0.00793271
6.39404e-07
0.00816248
4.33456e-06
0.00822073
1.91513e-05
0.0082576
4.24098e-05
0.00828111
8.22916e-05
0.00829238
0.000134085
0.00829285
0.000187366
0.00828705
0.000239396
0.00827728
0.000288139
0.00826432
0.000335119
0.00824821
0.000382064
0.00822911
0.000429657
0.00820738
0.000478083
0.00818314
0.000527414
0.0081568
0.000577797
0.0081283
0.000629546
0.00809782
0.000682821
0.0080655
0.000737968
0.00803128
0.000795107
0.00799543
0.000854582
0.00795785
0.000916551
0.00791877
0.000981333
0.00787823
0.00104914
0.00783633
0.00112029
0.00779326
0.00119503
0.00774913
0.00127377
0.00770411
0.00135679
0.00765856
0.00144443
0.00761341
0.00153641
0.00756938
0.00163379
0.00752421
0.00173883
0.00747788
0.00185056
0.00743289
0.0019687
0.00739157
0.0020941
0.00735345
0.00222888
0.00731943
0.00237206
0.00729016
0.00252652
0.00726893
0.0026905
0.0072569
0.00286763
0.00725875
0.00305528
0.00727992
0.00325701
0.00732629
0.00346875
0.00741434
0.0036897
0.0075528
0.00391642
0.00777212
0.00413216
0.00808551
0.00432792
0.00851147
0.00445781
0.0090317
0.0045038
0.00424731
0.00945979
0.00846223
1.36867e-06
0.00793921
-1.0121e-05
0.00821587
-7.92596e-05
0.00830385
-5.07599e-05
0.00834956
-1.02934e-06
0.00837015
6.1739e-05
0.00837448
0.000129592
0.00837025
0.000191429
0.00836253
0.000246959
0.0083531
0.000297401
0.00834113
0.000346921
0.00832628
0.00039675
0.00830887
0.000446897
0.0082893
0.0004975
0.00826787
0.000548664
0.00824476
0.000600741
0.00822003
0.000654106
0.00819374
0.000708938
0.00816599
0.000765548
0.00813681
0.000824094
0.00810634
0.000884892
0.00807461
0.000948104
0.00804175
0.00101402
0.00800789
0.00108282
0.00797318
0.00115479
0.0079378
0.00123022
0.00790229
0.00130906
0.00786732
0.00139155
0.00783292
0.00147861
0.00779774
0.00157139
0.0077624
0.00166892
0.00772987
0.00177116
0.00770101
0.00187922
0.00767554
0.00199397
0.00765466
0.00211479
0.00763981
0.00224357
0.00763253
0.00237916
0.00763556
0.00252337
0.00765017
0.00267571
0.00768155
0.00283611
0.00773115
0.0030055
0.00780772
0.00318028
0.00791425
0.00336199
0.00806191
0.00354183
0.00826016
0.00371794
0.00851556
0.00387657
0.00884001
0.00400325
0.00921758
0.00408007
0.00967142
0.00404977
0.00392716
0.00999141
0.0084516
1.00395e-05
0.00797958
-6.58589e-05
0.0083628
-0.000273074
0.00854457
-0.000214789
0.00858854
-4.27354e-05
0.00857952
7.07919e-05
0.00856308
0.000145884
0.00854743
0.000206925
0.0085348
0.000259451
0.00852176
0.000310303
0.00850561
0.000362932
0.00848655
0.000415668
0.00846539
0.000467896
0.00844289
0.000519847
0.00841908
0.00057231
0.00839407
0.000625596
0.00836802
0.00068
0.00834106
0.000735758
0.00831333
0.000793134
0.00828494
0.000852337
0.00825606
0.000913639
0.00822677
0.000977266
0.00819722
0.00104343
0.00816764
0.00111227
0.0081386
0.00118369
0.00811053
0.00125814
0.00808256
0.00133688
0.00805447
0.00141946
0.00802728
0.00150563
0.00800284
0.00159565
0.00798117
0.0016904
0.00796233
0.0017898
0.007947
0.00189434
0.00793681
0.00200395
0.0079321
0.00211928
0.00793574
0.00223973
0.00794793
0.00236673
0.00797283
0.00249828
0.0080116
0.00263672
0.00806896
0.00277858
0.00814847
0.00292579
0.0082544
0.00307419
0.00839371
0.00322249
0.00856866
0.00336671
0.00878802
0.00349837
0.0090506
0.0036138
0.00935874
0.00369489
0.00970417
0.00373443
0.0100504
0.00370332
0.0035939
0.0103835
0.00851952
1.59659e-05
0.00824814
-0.000395644
0.00879498
-0.000608875
0.00889248
-0.000292424
0.00887399
-2.13833e-05
0.00880707
0.00013782
0.00877525
0.000177573
0.00875529
0.000226729
0.00874566
0.000268942
0.00873118
0.000324632
0.00871225
0.000381721
0.0086912
0.000436572
0.00866917
0.000489789
0.00864618
0.000542701
0.00862218
0.000596164
0.0085971
0.000650536
0.00857092
0.000706048
0.00854372
0.000762828
0.00851561
0.000821122
0.00848677
0.00088106
0.00845725
0.000943044
0.00842736
0.00100704
0.00839763
0.00107306
0.00836848
0.0011413
0.00833897
0.00121309
0.00830963
0.00128736
0.00828234
0.00136405
0.00825809
0.0014436
0.00823655
0.00152705
0.00821849
0.00161358
0.00820423
0.00170453
0.00819503
0.00179886
0.00819113
0.00189809
0.00819412
0.0020008
0.0082045
0.00210873
0.00822396
0.00222009
0.00825406
0.00233639
0.00829629
0.00245588
0.00835407
0.00257871
0.00842837
0.00270408
0.00852474
0.00282919
0.00864399
0.00295475
0.00879262
0.00307367
0.00897144
0.0031877
0.0091846
0.00328503
0.00943181
0.0033664
0.00970996
0.00341656
0.0100148
0.00342938
0.0103182
0.0033997
0.00330149
0.0106104
0.00816178
3.11501e-06
0.00784825