/*--------------------------------*- C++ -*----------------------------------*\
| =========                 |                                                 |
| \\      /  F ield         | OpenFOAM: The Open Source CFD Toolbox           |
|  \\    /   O peration     | Version:  2412                                  |
|   \\  /    A nd           | Website:  www.openfoam.com                      |
|    \\/     M anipulation  |                                                 |
\*---------------------------------------------------------------------------*/
FoamFile
{
    version     2.0;
    format      ascii;
    arch        "LSB;label=32;scalar=64";
    class       volScalarField;
    location    "15";
    object      T;
}
// * * * * * * * * * * * * * * * * * * * * * * * * * * * * * * * * * * * * * //

dimensions      [0 0 0 1 0 0 0];

internalField   nonuniform List<scalar> 
7000
(
1.31895
2.65561
2.71853
2.67039
2.66478
2.64762
2.64421
2.6469
2.64909
2.65115
2.65256
2.65345
2.65466
2.65598
2.65745
2.65918
2.66075
2.66278
2.66458
2.66681
2.66889
2.67136
2.67368
2.67635
2.67904
2.68177
2.68487
2.68776
2.69102
2.69426
2.69762
2.70103
2.70473
2.70809
2.71198
2.7156
2.71911
2.72328
2.72633
2.73041
2.73365
2.73675
2.7402
2.7427
2.74509
2.7478
2.74934
2.75002
2.75239
2.7541
1.31902
2.65582
2.71878
2.67049
2.6649
2.64775
2.64433
2.64702
2.64921
2.65127
2.65268
2.65356
2.65477
2.6561
2.65755
2.65928
2.66086
2.66288
2.66467
2.66692
2.66897
2.67145
2.67377
2.67642
2.67913
2.68185
2.68493
2.68784
2.69107
2.69432
2.69768
2.70107
2.70477
2.70812
2.712
2.71562
2.71911
2.72327
2.72631
2.73038
2.7336
2.73668
2.74013
2.7426
2.74499
2.74766
2.74918
2.74982
2.75215
2.75366
1.31899
2.65573
2.71868
2.67047
2.66486
2.64769
2.64427
2.64698
2.64912
2.65122
2.65258
2.6535
2.65466
2.65603
2.65743
2.65921
2.66074
2.6628
2.66454
2.66683
2.66883
2.67135
2.67362
2.67631
2.67897
2.68172
2.68475
2.6877
2.69088
2.69414
2.69749
2.70087
2.70457
2.7079
2.71179
2.71541
2.7189
2.72306
2.72611
2.73016
2.73341
2.73646
2.73993
2.74237
2.74476
2.74744
2.7489
2.74958
2.75192
2.75344
1.31897
2.65556
2.7185
2.67046
2.66481
2.64758
2.64418
2.64681
2.64907
2.65104
2.65251
2.6533
2.65459
2.65582
2.65735
2.65898
2.66064
2.66255
2.66443
2.66657
2.6687
2.67106
2.6735
2.67599
2.67882
2.68139
2.68456
2.68735
2.69066
2.69376
2.69723
2.70047
2.70423
2.70753
2.71136
2.71501
2.71843
2.72261
2.72561
2.72971
2.73288
2.73603
2.7394
2.742
2.74423
2.747
2.74851
2.74906
2.75147
2.75281
1.31893
2.65533
2.71827
2.67048
2.66476
2.64746
2.64404
2.6467
2.64891
2.65089
2.65234
2.65313
2.65439
2.65565
2.65713
2.65879
2.66042
2.66232
2.66418
2.66635
2.66839
2.67084
2.67314
2.67574
2.67842
2.68114
2.68409
2.6871
2.69014
2.69347
2.69668
2.70011
2.70366
2.7071
2.71076
2.71452
2.71779
2.72204
2.72496
2.72903
2.73221
2.73529
2.73868
2.74115
2.74369
2.74612
2.74777
2.74848
2.75057
2.75223
1.31889
2.65504
2.71797
2.67052
2.66471
2.64732
2.64387
2.64655
2.64871
2.65073
2.65208
2.65299
2.65406
2.65552
2.65677
2.65863
2.66002
2.66215
2.66374
2.66612
2.66795
2.67052
2.67272
2.67533
2.67798
2.68068
2.6836
2.68657
2.68963
2.69281
2.69618
2.69933
2.70311
2.70626
2.71011
2.71364
2.71709
2.72104
2.72428
2.72792
2.73148
2.7342
2.73784
2.74017
2.74246
2.74538
2.74664
2.74726
2.74979
2.75093
1.31884
2.65468
2.71761
2.67057
2.66464
2.64712
2.64366
2.64636
2.6484
2.65056
2.65174
2.65277
2.65377
2.65517
2.65653
2.65819
2.6598
2.66165
2.66349
2.66559
2.66766
2.66994
2.67237
2.67472
2.67754
2.68004
2.68306
2.68587
2.68903
2.69202
2.69552
2.69845
2.70234
2.70535
2.70918
2.7127
2.71598
2.72009
2.72298
2.72698
2.73007
2.73322
2.73626
2.73916
2.74116
2.74381
2.74566
2.74619
2.74802
2.74994
1.31878
2.65425
2.71717
2.67064
2.66457
2.64687
2.64341
2.64604
2.64817
2.65016
2.65153
2.65229
2.65355
2.65469
2.65621
2.65774
2.65935
2.66124
2.66293
2.66517
2.66702
2.66948
2.67167
2.6742
2.67677
2.67945
2.6822
2.68522
2.68806
2.6913
2.69443
2.69766
2.70111
2.70448
2.7078
2.71172
2.71453
2.71891
2.72152
2.72557
2.72856
2.73162
2.73498
2.73716
2.73983
2.74219
2.74346
2.74437
2.74685
2.74778
1.31871
2.65373
2.71665
2.67072
2.66448
2.64659
2.6431
2.6457
2.64789
2.64973
2.65119
2.65185
2.65315
2.65425
2.65568
2.6573
2.65875
2.66075
2.66229
2.6646
2.66635
2.66882
2.67094
2.67345
2.67595
2.67862
2.68131
2.68424
2.68713
2.69012
2.69345
2.69632
2.70002
2.70299
2.70661
2.70999
2.71332
2.71692
2.72025
2.7234
2.72715
2.72949
2.73287
2.73566
2.73718
2.74044
2.74201
2.74208
2.74387
2.74622
1.31863
2.65312
2.71604
2.67081
2.66437
2.64626
2.64274
2.64531
2.6475
2.6493
2.65071
2.65139
2.65257
2.65376
2.65509
2.6567
2.65816
2.66004
2.66169
2.66376
2.66573
2.66785
2.67027
2.6724
2.67514
2.67751
2.68034
2.68303
2.68601
2.68882
2.69212
2.69494
2.69844
2.70154
2.70476
2.70849
2.7112
2.71525
2.71794
2.72163
2.72444
2.72773
2.73027
2.73307
2.73533
2.73708
2.73925
2.74014
2.7421
2.74282
1.31853
2.65241
2.71534
2.67092
2.66424
2.64587
2.64231
2.64487
2.64697
2.64888
2.65004
2.651
2.6518
2.65329
2.65432
2.65611
2.65738
2.65932
2.66087
2.66293
2.66482
2.66693
2.66922
2.67141
2.67395
2.67641
2.67901
2.68182
2.68453
2.68744
2.69051
2.69333
2.69667
2.69965
2.70285
2.70631
2.70912
2.71283
2.71567
2.71885
2.72224
2.72442
2.72778
2.73001
2.7319
2.73483
2.73581
2.73601
2.7377
2.74042
1.31843
2.65162
2.71452
2.67108
2.66407
2.64544
2.64182
2.64431
2.64639
2.64831
2.64939
2.65035
2.65111
2.65253
2.6536
2.65524
2.65657
2.65839
2.65996
2.66194
2.6638
2.66587
2.66806
2.67026
2.67263
2.67512
2.67757
2.68024
2.68303
2.68554
2.68888
2.69124
2.69475
2.6975
2.7005
2.70399
2.70647
2.71017
2.71278
2.71593
2.71884
2.72161
2.72396
2.7267
2.72826
2.73015
2.73261
2.73315
2.73485
2.73519
1.31832
2.65076
2.7135
2.67162
2.66356
2.64493
2.64122
2.64378
2.64566
2.64766
2.64865
2.64955
2.65038
2.65159
2.65281
2.65423
2.65565
2.65731
2.65891
2.66078
2.66263
2.66461
2.66674
2.66888
2.67117
2.67354
2.67598
2.67847
2.68119
2.68365
2.68666
2.68921
2.69217
2.69517
2.69776
2.70122
2.70349
2.70704
2.70942
2.7124
2.71523
2.71736
2.72025
2.72217
2.72402
2.72602
2.72668
2.72677
2.72818
2.7314
1.3182
2.64979
2.71237
2.67223
2.66293
2.64438
2.64055
2.64308
2.64491
2.64682
2.64788
2.64857
2.64958
2.65051
2.65191
2.65309
2.65462
2.65611
2.65773
2.65947
2.66131
2.66315
2.66527
2.66722
2.66952
2.67173
2.67411
2.67648
2.6791
2.68144
2.6843
2.68669
2.68953
2.69228
2.69472
2.698
2.70006
2.70331
2.70566
2.70814
2.71095
2.71277
2.71488
2.71721
2.71809
2.72033
2.72227
2.72232
2.72324
2.72314
1.31806
2.64868
2.71116
2.67267
2.6624
2.64373
2.63981
2.64225
2.64415
2.64583
2.64701
2.64753
2.64862
2.64937
2.65078
2.65195
2.65328
2.65489
2.65628
2.65806
2.65977
2.66155
2.66352
2.66553
2.66752
2.66982
2.6719
2.67428
2.67669
2.67886
2.68163
2.68386
2.68638
2.68918
2.69111
2.69432
2.69618
2.69894
2.7013
2.70327
2.70574
2.70755
2.70935
2.71087
2.71198
2.71215
2.71287
2.71239
2.71367
2.71672
1.31791
2.64746
2.70984
2.67316
2.66179
2.64299
2.63897
2.64133
2.6432
2.64483
2.64594
2.64642
2.64738
2.64832
2.64926
2.65083
2.65172
2.65352
2.65466
2.65649
2.65795
2.65989
2.66151
2.6636
2.66537
2.66758
2.66957
2.67167
2.67406
2.67604
2.67853
2.68074
2.68292
2.68546
2.6874
2.68992
2.69184
2.69401
2.69602
2.69774
2.69957
2.70088
2.70206
2.70339
2.70384
2.70507
2.70526
2.70468
2.70338
2.70284
1.31774
2.64612
2.70839
2.67369
2.66111
2.64217
2.63801
2.64034
2.64208
2.64372
2.64467
2.6453
2.64587
2.64709
2.64782
2.64931
2.65016
2.65191
2.65287
2.65476
2.65608
2.6578
2.65952
2.66127
2.66315
2.66495
2.66704
2.66877
2.67105
2.6728
2.67507
2.67701
2.67903
2.68129
2.68287
2.68529
2.6867
2.68865
2.69024
2.69137
2.69282
2.69353
2.69387
2.69407
2.6935
2.69176
2.69111
2.68907
2.68826
2.68975
1.31756
2.64467
2.70685
2.67424
2.66035
2.64126
2.63693
2.63922
2.64081
2.64246
2.64324
2.64394
2.64442
2.6455
2.6462
2.64762
2.64847
2.64991
2.65117
2.65248
2.65416
2.65539
2.65727
2.65872
2.66053
2.66219
2.66413
2.6657
2.6679
2.66931
2.67147
2.67313
2.67466
2.67685
2.67785
2.67987
2.68093
2.68207
2.68346
2.68379
2.6847
2.68466
2.68432
2.68359
2.68217
2.68064
2.67668
2.67263
2.66702
2.66249
1.31736
2.64314
2.70523
2.67478
2.65952
2.64025
2.63572
2.63799
2.63939
2.64107
2.64172
2.64241
2.64287
2.64381
2.64458
2.64562
2.64683
2.64773
2.64929
2.65024
2.65186
2.65309
2.65458
2.65611
2.65756
2.65912
2.66079
2.66216
2.664
2.66548
2.66691
2.66889
2.66981
2.67174
2.67261
2.67385
2.67497
2.67528
2.676
2.67587
2.67513
2.67442
2.67205
2.67003
2.66556
2.66006
2.65527
2.64533
2.63549
2.6244
1.31732
2.64229
2.70198
2.67515
2.65834
2.63889
2.6341
2.6364
2.63751
2.63925
2.63981
2.64041
2.64084
2.64176
2.64248
2.64344
2.64459
2.64551
2.64672
2.64799
2.64907
2.65063
2.65171
2.65323
2.65461
2.6558
2.65749
2.65851
2.66003
2.6613
2.66234
2.6638
2.66462
2.66563
2.66658
2.66691
2.66765
2.66755
2.66723
2.66642
2.66541
2.66285
2.66066
2.65546
2.65079
2.64071
2.62822
2.61123
2.58217
2.51259
1.31732
2.64147
2.69745
2.67557
2.65686
2.63709
2.63196
2.63409
2.63517
2.63666
2.63729
2.63762
2.6382
2.63868
2.63963
2.64028
2.64136
2.6422
2.64323
2.64432
2.64541
2.64649
2.64783
2.6487
2.65027
2.65102
2.65257
2.65331
2.65464
2.65546
2.6563
2.65709
2.65761
2.65793
2.65818
2.65785
2.65731
2.65645
2.65462
2.65262
2.64853
2.64503
2.63746
2.63144
2.61883
2.60619
2.58379
2.54769
2.48968
2.36472
1.3173
2.64047
2.69281
2.6757
2.65495
2.63471
2.62908
2.63117
2.63202
2.63348
2.63412
2.63437
2.63485
2.63533
2.63602
2.63679
2.63746
2.63844
2.6391
2.64016
2.64093
2.64192
2.64283
2.64372
2.64465
2.64552
2.6463
2.64716
2.64771
2.64846
2.64869
2.64921
2.64917
2.64899
2.6485
2.64794
2.64642
2.64518
2.64213
2.63973
2.63483
2.6287
2.62138
2.60776
2.59496
2.56859
2.54182
2.49203
2.41735
2.318
1.31728
2.6398
2.69043
2.67552
2.65337
2.63243
2.62617
2.62802
2.62878
2.63022
2.63083
2.63104
2.63137
2.63181
2.63236
2.63305
2.63363
2.63444
2.63507
2.6359
2.63662
2.6374
2.63816
2.63887
2.63958
2.64021
2.64076
2.64122
2.64151
2.64171
2.64156
2.64119
2.64066
2.63947
2.63827
2.63586
2.63386
2.62984
2.62678
2.62046
2.61593
2.60594
2.59855
2.58363
2.56659
2.54317
2.50642
2.46405
2.39218
2.31825
1.31716
2.63867
2.68964
2.67433
2.65145
2.62964
2.62292
2.62485
2.62569
2.62722
2.62775
2.62781
2.62791
2.62818
2.62842
2.6289
2.62916
2.6297
2.63
2.63056
2.63092
2.63147
2.63185
2.6324
2.63277
2.63328
2.63359
2.63406
2.63417
2.63432
2.63423
2.63394
2.63338
2.63214
2.6309
2.62813
2.6258
2.6211
2.61633
2.60949
2.60084
2.59128
2.57694
2.56325
2.54107
2.51815
2.48471
2.44371
2.3912
2.3285
1.31676
2.63915
2.70284
2.6712
2.65173
2.62831
2.62106
2.62379
2.62475
2.62659
2.62707
2.62702
2.62699
2.62703
2.62712
2.62723
2.62729
2.62732
2.6273
2.62726
2.62717
2.62699
2.62683
2.62648
2.62619
2.62571
2.62534
2.62452
2.62405
2.62297
2.62233
2.62088
2.62003
2.61805
2.61675
2.61413
2.61134
2.60781
2.60248
2.59692
2.58799
2.57838
2.5647
2.54825
2.52849
2.50208
2.47351
2.43444
2.392
2.34484
1.30164
2.58561
2.69741
2.67755
2.65924
2.63569
2.62877
2.63168
2.63272
2.63429
2.63417
2.63376
2.6331
2.63257
2.632
2.63148
2.63085
2.6303
2.62964
2.6291
2.62841
2.62788
2.62713
2.62664
2.62572
2.62519
2.62396
2.62305
2.62119
2.61988
2.6172
2.61544
2.61189
2.60968
2.6052
2.60245
2.59693
2.59315
2.58644
2.58049
2.57204
2.56229
2.55068
2.53506
2.51786
2.49441
2.46855
2.43575
2.39783
2.35789
1.72118
2.46735
2.72772
2.70546
2.68363
2.67319
2.67367
2.67523
2.67664
2.67698
2.67583
2.67442
2.67284
2.67113
2.66919
2.66707
2.66469
2.66217
2.65936
2.6565
2.65328
2.65014
2.64657
2.64319
2.63922
2.6353
2.63086
2.62764
2.62383
2.62111
2.61759
2.61463
2.61063
2.60666
2.6018
2.59639
2.59064
2.58333
2.57674
2.56711
2.55915
2.54674
2.53627
2.52024
2.5054
2.48442
2.46309
2.4355
2.40578
2.37285
1.73312
2.46055
2.72221
2.70085
2.67671
2.66759
2.67146
2.67308
2.67579
2.67665
2.67686
2.67673
2.67649
2.67621
2.67556
2.67497
2.67369
2.67275
2.67076
2.66948
2.66682
2.66507
2.66183
2.65942
2.65573
2.65291
2.64885
2.6445
2.63925
2.63352
2.62731
2.62076
2.61484
2.60849
2.60305
2.59577
2.58996
2.58104
2.57367
2.56277
2.5532
2.54009
2.52758
2.51194
2.49564
2.47677
2.45596
2.43297
2.4076
2.38141
1.72981
2.46614
2.72426
2.70118
2.67317
2.66355
2.66836
2.67071
2.67391
2.67504
2.67541
2.67555
2.67573
2.67572
2.67563
2.67539
2.67481
2.67442
2.67362
2.67273
2.6715
2.67002
2.66835
2.6661
2.66385
2.66068
2.65785
2.65374
2.65013
2.64482
2.64053
2.63373
2.62806
2.61882
2.61178
2.60146
2.5936
2.58322
2.57468
2.56344
2.55309
2.54026
2.52725
2.51203
2.496
2.47766
2.45795
2.43608
2.41262
2.38961
1.7325
2.4595
2.71971
2.69572
2.67007
2.66029
2.66483
2.667
2.6702
2.67146
2.6719
2.67217
2.67253
2.67282
2.6731
2.67315
2.67307
2.67281
2.67245
2.67171
2.6711
2.66979
2.66884
2.66685
2.66556
2.66288
2.66112
2.65745
2.65509
2.6502
2.64715
2.6409
2.63673
2.62921
2.62315
2.614
2.60548
2.59414
2.58331
2.5705
2.55794
2.54415
2.53028
2.51491
2.49887
2.48124
2.4631
2.44305
2.42199
2.4013
1.74174
2.44136
2.70809
2.68338
2.66628
2.65683
2.65968
2.66135
2.66452
2.66553
2.66625
2.66634
2.66656
2.66669
2.66683
2.66684
2.6668
2.66664
2.66646
2.66602
2.66568
2.66491
2.66435
2.66311
2.66219
2.66018
2.65881
2.65588
2.65396
2.64997
2.64713
2.64218
2.63814
2.63217
2.62654
2.61925
2.6119
2.60285
2.59326
2.58198
2.56992
2.55593
2.54133
2.52521
2.50887
2.4911
2.47285
2.45354
2.4335
2.41399
1.73663
2.43496
2.70471
2.67572
2.66842
2.65505
2.65514
2.65713
2.66011
2.66124
2.66232
2.66243
2.66271
2.66292
2.66308
2.66317
2.66316
2.66307
2.66292
2.66259
2.66231
2.66166
2.66117
2.66009
2.65933
2.65765
2.6565
2.65403
2.65235
2.64905
2.64641
2.64223
2.63831
2.63317
2.62807
2.62164
2.61509
2.60716
2.59893
2.58929
2.57912
2.56737
2.55486
2.5407
2.52561
2.50913
2.49187
2.4735
2.45435
2.4357
1.35674
2.46575
2.67867
2.66811
2.64615
2.62345
2.61631
2.62033
2.62226
2.62512
2.62654
2.62754
2.62831
2.62928
2.62997
2.63101
2.63164
2.63257
2.63305
2.63383
2.63412
2.63479
2.63494
2.63507
2.63506
2.63493
2.6347
2.63411
2.63355
2.63233
2.63128
2.62934
2.6275
2.62449
2.62143
2.6169
2.612
2.60565
2.59882
2.5906
2.58192
2.57186
2.56122
2.5494
2.53667
2.52278
2.50794
2.49207
2.47524
2.45876
1.36012
2.47523
2.68589
2.6768
2.65226
2.6232
2.61352
2.61431
2.6163
2.61826
2.61908
2.61917
2.61936
2.61939
2.61965
2.61997
2.62033
2.62064
2.62097
2.62118
2.62143
2.6215
2.62163
2.62153
2.62134
2.6209
2.62049
2.61957
2.61885
2.61733
2.61614
2.61393
2.61194
2.60904
2.60613
2.60262
2.59892
2.59456
2.5896
2.58407
2.57746
2.56996
2.56105
2.55117
2.54036
2.5287
2.51636
2.50316
2.48907
2.47526
1.34947
2.41126
2.66846
2.66921
2.64977
2.62334
2.61354
2.61359
2.61429
2.61487
2.61454
2.61369
2.61293
2.61191
2.61124
2.61056
2.61006
2.60942
2.60893
2.6083
2.60781
2.60718
2.60667
2.606
2.60542
2.60464
2.60391
2.60306
2.60215
2.60107
2.59967
2.59811
2.59608
2.59387
2.59108
2.58805
2.5844
2.58043
2.57583
2.57066
2.56493
2.55879
2.55216
2.54485
2.53688
2.52761
2.51713
2.50605
2.4943
2.48293
1.74207
2.39565
2.67366
2.66074
2.65159
2.63771
2.63257
2.63284
2.63261
2.63234
2.63157
2.63038
2.629
2.62738
2.62579
2.62425
2.62259
2.62092
2.61907
2.61726
2.61526
2.61334
2.61119
2.60917
2.60688
2.60479
2.60238
2.60031
2.59783
2.59541
2.59285
2.59021
2.58742
2.58436
2.5812
2.57755
2.57381
2.56941
2.56492
2.55964
2.55421
2.54793
2.54148
2.5342
2.52653
2.5185
2.51035
2.50138
2.49162
2.48209
1.34684
2.39425
2.65925
2.66541
2.6491
2.62367
2.61511
2.61366
2.61494
2.61519
2.61491
2.61455
2.61365
2.61275
2.61208
2.61125
2.6105
2.60946
2.6085
2.60718
2.60602
2.60466
2.60348
2.60198
2.60071
2.59887
2.59729
2.59479
2.59278
2.59007
2.58772
2.58464
2.58186
2.57832
2.57508
2.57118
2.56745
2.5631
2.55873
2.5538
2.54863
2.54289
2.53674
2.53013
2.52292
2.51535
2.50719
2.49878
2.48981
2.48119
1.34814
2.40515
2.66651
2.67093
2.65059
2.62178
2.61048
2.61027
2.61124
2.61195
2.61182
2.61114
2.61034
2.60938
2.60875
2.60805
2.60742
2.60657
2.60572
2.60463
2.60349
2.60186
2.60018
2.59804
2.59586
2.59337
2.59083
2.58804
2.58511
2.58201
2.57868
2.57529
2.57168
2.56813
2.56414
2.56024
2.5558
2.55153
2.54664
2.54195
2.53659
2.53148
2.52561
2.51992
2.51347
2.50708
2.49992
2.49264
2.48483
2.47749
1.34756
2.40083
2.66374
2.66897
2.64799
2.6185
2.60645
2.60628
2.60709
2.608
2.60771
2.60686
2.60603
2.60493
2.60421
2.60347
2.60284
2.60204
2.60128
2.60035
2.59939
2.59824
2.59697
2.5955
2.5938
2.59191
2.5897
2.58734
2.58458
2.58172
2.57841
2.57503
2.57118
2.5673
2.56299
2.55861
2.55375
2.5488
2.54341
2.5379
2.53207
2.52604
2.51977
2.51324
2.50657
2.49957
2.49253
2.48505
2.47749
2.47013
1.34475
2.37794
2.64656
2.66114
2.64199
2.61412
2.60228
2.60081
2.60112
2.60135
2.60071
2.59991
2.59859
2.59748
2.59643
2.59555
2.59452
2.59359
2.59245
2.59142
2.59015
2.58903
2.58765
2.58642
2.58489
2.58349
2.58173
2.58005
2.57796
2.5759
2.57342
2.57086
2.56785
2.56465
2.561
2.55711
2.55288
2.54833
2.54346
2.53818
2.53268
2.52672
2.52058
2.51398
2.50723
2.50005
2.49279
2.48527
2.47763
2.47029
1.75169
2.37226
2.64455
2.64089
2.62743
2.61333
2.60849
2.60875
2.60875
2.60865
2.60811
2.60745
2.60626
2.60513
2.60388
2.60277
2.60142
2.60011
2.59855
2.59702
2.59524
2.59349
2.5915
2.58953
2.58734
2.58515
2.58275
2.58032
2.57767
2.57498
2.57215
2.56921
2.56614
2.56285
2.55941
2.55564
2.55172
2.5474
2.54288
2.53793
2.53272
2.52712
2.52134
2.5152
2.50889
2.50223
2.49536
2.48818
2.48068
2.47352
1.34688
2.38769
2.65178
2.65945
2.63887
2.60849
2.5971
2.59572
2.59734
2.59864
2.59849
2.59798
2.59739
2.59612
2.59545
2.59424
2.59351
2.59204
2.59107
2.58939
2.5878
2.58602
2.58414
2.58206
2.57992
2.5777
2.57556
2.57328
2.57107
2.56862
2.56607
2.56317
2.56021
2.55692
2.55357
2.54994
2.54621
2.54222
2.53812
2.5338
2.5293
2.52451
2.51946
2.51403
2.50833
2.50227
2.49595
2.48941
2.48258
2.47602
1.35056
2.41101
2.65431
2.64843
2.62653
2.59594
2.58512
2.58538
2.58715
2.58908
2.58941
2.58917
2.58869
2.58791
2.58739
2.58687
2.58641
2.58578
2.58513
2.58432
2.58345
2.58242
2.5813
2.57997
2.57851
2.57669
2.57464
2.57224
2.56965
2.56675
2.56376
2.56055
2.55723
2.55368
2.55001
2.54613
2.54211
2.53788
2.5335
2.52892
2.52419
2.51925
2.51421
2.50907
2.5037
2.49821
2.49245
2.4865
2.48025
2.47429
1.77152
2.37149
2.63744
2.61686
2.61046
2.59512
2.5924
2.59322
2.59429
2.59563
2.59537
2.59491
2.59458
2.59391
2.59336
2.59278
2.59221
2.59152
2.59082
2.58997
2.58911
2.58809
2.58703
2.58578
2.58447
2.58294
2.58131
2.57942
2.57737
2.575
2.57229
2.56929
2.56598
2.56241
2.55855
2.55446
2.55012
2.54557
2.5408
2.53586
2.53069
2.52531
2.51967
2.51382
2.50783
2.50166
2.49541
2.48907
2.48261
2.47646
1.79818
2.35439
2.6255
2.60514
2.60195
2.59201
2.58867
2.58888
2.58914
2.58973
2.58948
2.58891
2.58826
2.58727
2.58624
2.58514
2.58395
2.58263
2.58123
2.57969
2.5781
2.57638
2.57465
2.57285
2.57107
2.5692
2.56735
2.56541
2.56348
2.56146
2.55958
2.5575
2.55553
2.55331
2.55111
2.5486
2.54605
2.54313
2.53987
2.53621
2.53232
2.52818
2.52378
2.51911
2.51417
2.50898
2.50348
2.49767
2.49159
2.4857
1.76291
2.38095
2.64932
2.61863
2.61284
2.59866
2.59553
2.59766
2.59914
2.60001
2.59975
2.59928
2.59824
2.59705
2.59578
2.59447
2.59305
2.59153
2.58989
2.58818
2.58637
2.5845
2.58243
2.58021
2.57777
2.57521
2.57244
2.56959
2.56653
2.56343
2.56011
2.55683
2.55333
2.54981
2.54605
2.54231
2.53831
2.53437
2.53039
2.52647
2.52237
2.51819
2.51381
2.50938
2.50478
2.50012
2.49525
2.4903
2.48508
2.48018
1.28606
2.49385
2.64429
2.64165
2.61642
2.58365
2.57154
2.57194
2.57457
2.57695
2.57819
2.57841
2.57862
2.57859
2.57852
2.57844
2.57828
2.57794
2.57754
2.57683
2.57606
2.57497
2.57386
2.57247
2.57103
2.5693
2.56759
2.56544
2.56319
2.56078
2.55816
2.55536
2.55227
2.54903
2.54556
2.54193
2.53809
2.5341
2.52994
2.52565
2.52123
2.51668
2.51216
2.50741
2.50253
2.49743
2.49222
2.48681
2.48128
2.47599
1.77207
2.36663
2.63878
2.61642
2.61008
2.59463
2.58971
2.59063
2.59106
2.59266
2.59231
2.59171
2.5913
2.59048
2.58977
2.58888
2.58814
2.58714
2.58623
2.58505
2.58395
2.58259
2.58129
2.5797
2.57818
2.57635
2.57456
2.57246
2.57017
2.56755
2.56479
2.56169
2.55859
2.55526
2.55191
2.5483
2.54464
2.54069
2.53669
2.53239
2.52801
2.52334
2.51845
2.51337
2.50818
2.50281
2.49733
2.4917
2.48594
2.48044
1.77346
2.36485
2.63672
2.61453
2.60824
2.5929
2.58797
2.58907
2.59014
2.59124
2.59179
2.59129
2.59088
2.59008
2.58924
2.5883
2.58732
2.58618
2.58494
2.58355
2.58206
2.58047
2.57876
2.57697
2.57505
2.57308
2.57096
2.56882
2.56672
2.56453
2.56233
2.55998
2.55748
2.55476
2.55187
2.54878
2.54555
2.54215
2.53859
2.53486
2.53095
2.52691
2.52265
2.51827
2.51366
2.50895
2.50401
2.49898
2.4937
2.48861
1.28549
2.49038
2.64167
2.63904
2.61332
2.57863
2.56566
2.56513
2.56765
2.5697
2.57063
2.57056
2.57041
2.57
2.56969
2.56922
2.56892
2.56828
2.56783
2.56693
2.56627
2.56511
2.56422
2.56279
2.56167
2.56003
2.55841
2.55661
2.55471
2.55266
2.55053
2.54828
2.54596
2.54349
2.54095
2.53825
2.53543
2.53245
2.52934
2.52604
2.5226
2.51898
2.51522
2.51128
2.50721
2.50294
2.49856
2.49399
2.4893
2.48475
1.76703
2.37232
2.64004
2.60939
2.60298
2.587
2.58393
2.58611
2.58702
2.58915
2.58891
2.58837
2.58793
2.58707
2.5863
2.58539
2.58454
2.58348
2.58243
2.58118
2.57994
2.57851
2.57706
2.57547
2.5738
2.57201
2.57012
2.56811
2.56598
2.56372
2.56135
2.55872
2.55598
2.55301
2.54992
2.54661
2.5432
2.53959
2.53589
2.53205
2.52814
2.52409
2.51993
2.51563
2.51121
2.50666
2.50198
2.49717
2.49223
2.48747
1.795
2.35538
2.62347
2.5954
2.59144
2.57976
2.57646
2.57766
2.57796
2.57869
2.57851
2.57812
2.57767
2.57691
2.57619
2.57541
2.57462
2.57371
2.57273
2.57163
2.57045
2.56915
2.56778
2.56632
2.56477
2.56312
2.56138
2.55952
2.55759
2.55555
2.55343
2.55132
2.54912
2.5469
2.54457
2.54219
2.53966
2.53705
2.5342
2.53125
2.52803
2.52472
2.5212
2.51761
2.51379
2.50989
2.50577
2.50159
2.49715
2.49298
1.79956
2.35022
2.61849
2.5923
2.58867
2.57741
2.5736
2.57426
2.57444
2.57486
2.57472
2.57431
2.57383
2.57303
2.57227
2.57145
2.57063
2.56967
2.56866
2.56747
2.56626
2.56488
2.56348
2.56191
2.5603
2.55849
2.55663
2.55459
2.55249
2.55025
2.54793
2.54545
2.54289
2.54017
2.53737
2.53443
2.53142
2.52832
2.52518
2.52193
2.51864
2.51521
2.5117
2.50804
2.50431
2.50043
2.49648
2.49237
2.48816
2.48411
1.78002
2.35548
2.61601
2.60264
2.5932
2.57673
2.57172
2.5722
2.57283
2.57346
2.57344
2.57296
2.57245
2.57159
2.57082
2.56999
2.56918
2.56821
2.56723
2.56607
2.56492
2.56358
2.56223
2.5607
2.55914
2.5574
2.55561
2.55365
2.55164
2.54945
2.54721
2.54477
2.54227
2.53957
2.53681
2.53384
2.53085
2.52762
2.52437
2.5209
2.51738
2.51367
2.5099
2.50596
2.50196
2.4978
2.49355
2.48918
2.48467
2.48039
1.34472
2.37948
2.63761
2.63714
2.61494
2.58144
2.56721
2.56481
2.56611
2.56721
2.56716
2.56689
2.56619
2.56515
2.56425
2.56343
2.56261
2.5617
2.56071
2.55961
2.55843
2.55714
2.55577
2.55427
2.5527
2.55098
2.5492
2.54724
2.54524
2.54303
2.54079
2.53833
2.53584
2.53313
2.53038
2.5274
2.52439
2.52115
2.51786
2.51436
2.51078
2.50702
2.50314
2.49913
2.49498
2.49072
2.48631
2.48183
2.47717
2.47273
1.34596
2.38705
2.65252
2.65679
2.63075
2.59219
2.57465
2.57228
2.57391
2.5752
2.57562
2.57526
2.57442
2.57339
2.57232
2.57143
2.57055
2.56961
2.56859
2.56746
2.56626
2.56495
2.56359
2.56212
2.5606
2.55894
2.55724
2.55539
2.55349
2.55144
2.54934
2.54708
2.54476
2.54229
2.53975
2.53704
2.53426
2.53132
2.52828
2.5251
2.52179
2.51836
2.5148
2.51111
2.50728
2.50332
2.49923
2.49503
2.49067
2.48647
1.34507
2.37897
2.63602
2.63611
2.61322
2.57983
2.56467
2.56267
2.56401
2.56495
2.56531
2.56489
2.56414
2.56308
2.56213
2.5613
2.5605
2.5596
2.55865
2.55756
2.55644
2.5552
2.55394
2.55254
2.55113
2.54956
2.54797
2.54623
2.54444
2.54251
2.54052
2.53839
2.5362
2.53387
2.53148
2.52894
2.52634
2.52357
2.52073
2.51774
2.51467
2.51144
2.50814
2.50468
2.50115
2.49744
2.49368
2.48973
2.4857
2.48177
1.7814
2.35372
2.61357
2.59947
2.58974
2.57179
2.56671
2.56705
2.5677
2.56875
2.56859
2.56806
2.5675
2.56665
2.56583
2.56507
2.56425
2.56335
2.56236
2.56128
2.56014
2.5589
2.55761
2.55622
2.55477
2.55319
2.55153
2.54975
2.54791
2.54595
2.54392
2.54175
2.53952
2.53714
2.53468
2.53207
2.5294
2.52657
2.52368
2.52063
2.51752
2.51423
2.51089
2.50736
2.50378
2.50002
2.4962
2.4922
2.48813
2.48416
1.80178
2.34656
2.61416
2.58708
2.58357
2.57232
2.56875
2.56978
2.57008
2.57057
2.57043
2.57
2.56931
2.5685
2.5675
2.56673
2.56572
2.56485
2.56368
2.56258
2.56122
2.55993
2.55842
2.55697
2.55531
2.55366
2.55181
2.5499
2.54785
2.54572
2.54347
2.54115
2.5387
2.53612
2.53343
2.53059
2.52767
2.52459
2.52146
2.51816
2.51479
2.51123
2.50762
2.50379
2.49995
2.49589
2.49182
2.48755
2.48324
2.47901
1.78856
2.36034
2.62662
2.59505
2.58846
2.57439
2.57188
2.57389
2.57535
2.57629
2.57626
2.57585
2.57514
2.57446
2.57349
2.57281
2.57176
2.57096
2.56979
2.5688
2.56745
2.56625
2.56474
2.56335
2.5617
2.56011
2.55832
2.5565
2.55451
2.55246
2.55027
2.54799
2.54561
2.54311
2.54053
2.53778
2.53496
2.53197
2.52891
2.52567
2.52239
2.51891
2.51541
2.51167
2.50792
2.50394
2.49995
2.49572
2.49152
2.48733
2.17269
2.34336
2.76642
2.85964
2.91747
2.859
2.85448
2.85272
2.84471
2.84318
2.84524
2.84673
2.84738
2.8479
2.84884
2.84982
2.85116
2.85223
2.85305
2.85338
2.85331
2.85243
2.85076
2.84954
2.84622
2.84291
2.8384
2.83404
2.82912
2.82327
2.81755
2.81098
2.80439
2.79727
2.79014
2.7829
2.77531
2.76734
2.75875
2.75044
2.74182
2.73344
2.72478
2.71633
2.7077
2.69928
2.69077
2.68251
2.67416
2.66616
2.65808
2.65043
2.64274
2.63553
2.62831
2.62163
2.61499
2.60896
2.60302
2.59777
2.59268
2.58833
2.58418
2.58085
2.57776
2.57552
2.57358
2.57249
2.57172
2.57173
2.57188
2.57219
2.57287
2.57442
2.5763
2.57893
2.58133
2.58405
2.58649
2.58919
2.59147
2.59394
2.59583
2.59791
2.59926
2.60088
2.60167
2.60281
2.60312
2.60375
2.6038
2.6039
2.60382
2.60358
2.60308
2.60235
2.60163
2.60087
2.60012
2.59751
2.18052
2.25964
2.44994
2.62892
2.69677
2.74625
2.78113
2.81005
2.82768
2.84138
2.85017
2.86069
2.86684
2.86623
2.86189
2.85544
2.84649
2.83751
2.82694
2.81656
2.80483
2.79364
2.78149
2.77007
2.75764
2.74611
2.73357
2.72192
2.70968
2.69803
2.68623
2.67473
2.66317
2.65188
2.64078
2.63022
2.6196
2.60878
2.59771
2.58688
2.5765
2.56605
2.5561
2.54597
2.53627
2.52651
2.51705
2.50771
2.49863
2.48971
2.48113
2.47269
2.46464
2.45672
2.44927
2.44196
2.43522
2.42863
2.42268
2.41694
2.41186
2.40712
2.403
2.3994
2.39634
2.39393
2.39201
2.39083
2.39007
2.39002
2.39015
2.39053
2.39129
2.39288
2.3949
2.39763
2.40029
2.4031
2.40578
2.40843
2.41088
2.41314
2.41511
2.41676
2.41808
2.41905
2.41968
2.41997
2.4199
2.4197
2.41926
2.41858
2.41803
2.41695
2.41595
2.41441
2.41327
2.41166
2.41069
2.40742
2.22715
2.21186
2.27165
2.3566
2.41211
2.45914
2.49362
2.5219
2.54453
2.56127
2.57398
2.58331
2.59051
2.59272
2.5918
2.58974
2.58524
2.57985
2.57376
2.56683
2.55947
2.55176
2.54374
2.53578
2.5274
2.51915
2.51043
2.50201
2.49324
2.48479
2.47609
2.46764
2.45905
2.45066
2.44243
2.43453
2.42679
2.41854
2.41015
2.40161
2.39368
2.38556
2.37787
2.36994
2.36246
2.35478
2.34756
2.34016
2.33321
2.32614
2.31948
2.31278
2.30647
2.3002
2.2943
2.28851
2.28308
2.27787
2.273
2.26845
2.26423
2.26045
2.257
2.25408
2.25151
2.24954
2.24795
2.24699
2.24645
2.24647
2.24664
2.24704
2.24787
2.24923
2.25122
2.25368
2.25622
2.2589
2.26144
2.26403
2.26631
2.26857
2.2704
2.27214
2.27337
2.2745
2.27511
2.2756
2.27566
2.2756
2.27541
2.275
2.27463
2.2738
2.27311
2.27185
2.271
2.26968
2.26907
2.26635
2.2596
2.21975
2.21492
2.23971
2.27088
2.29334
2.30867
2.32044
2.33105
2.3403
2.348
2.35404
2.35867
2.36225
2.36384
2.364
2.36392
2.36372
2.36354
2.36316
2.36279
2.36207
2.3615
2.36027
2.35892
2.35723
2.35513
2.35278
2.35002
2.34708
2.34373
2.34025
2.33634
2.33235
2.32817
2.32421
2.32001
2.31534
2.31006
2.30457
2.29916
2.29369
2.28823
2.28261
2.27704
2.2713
2.26567
2.25992
2.25431
2.24862
2.24311
2.23757
2.23224
2.22696
2.22189
2.21695
2.21224
2.20775
2.2035
2.19954
2.19584
2.19252
2.18948
2.18688
2.18461
2.18284
2.18142
2.18056
2.18011
2.18012
2.18026
2.18061
2.18132
2.18259
2.18437
2.18657
2.18892
2.1914
2.19383
2.19621
2.19841
2.20045
2.20223
2.20378
2.20505
2.20602
2.20671
2.20713
2.2073
2.20727
2.20716
2.20693
2.20666
2.20605
2.20551
2.20458
2.20394
2.203
2.20273
2.20063
2.27466
2.2411
2.21876
2.21102
2.21805
2.22262
2.22472
2.22526
2.2262
2.22799
2.23071
2.23301
2.23496
2.23683
2.23947
2.24189
2.24402
2.24659
2.24917
2.25216
2.25496
2.2579
2.26042
2.26283
2.26466
2.26619
2.26702
2.26761
2.2673
2.26674
2.26559
2.26414
2.26205
2.25975
2.25715
2.25466
2.2518
2.24845
2.24433
2.23992
2.23537
2.23075
2.22607
2.22122
2.21638
2.21132
2.20636
2.20116
2.19618
2.19094
2.18599
2.1808
2.17596
2.17093
2.16629
2.16153
2.15718
2.1528
2.14885
2.14497
2.14154
2.13826
2.13547
2.13291
2.13088
2.12914
2.12797
2.12713
2.12693
2.127
2.12719
2.12763
2.12843
2.12981
2.13154
2.13372
2.13602
2.1385
2.14096
2.14333
2.1456
2.14761
2.14949
2.15099
2.15238
2.15334
2.15422
2.15466
2.15504
2.15509
2.1551
2.15504
2.15487
2.1544
2.15401
2.1532
2.15273
2.1519
2.15177
2.14976
2.29799
2.25427
2.23035
2.21034
2.20047
2.19358
2.18785
2.18175
2.17687
2.17304
2.17123
2.1707
2.17125
2.1716
2.17271
2.17492
2.17757
2.18074
2.18377
2.18737
2.19084
2.19468
2.19809
2.2016
2.20443
2.20713
2.20899
2.21061
2.21136
2.21189
2.21168
2.21105
2.20978
2.2083
2.20652
2.20475
2.20264
2.19995
2.19662
2.19279
2.18888
2.18468
2.18053
2.17611
2.17177
2.16714
2.16262
2.15783
2.15322
2.14835
2.14374
2.1389
2.13436
2.12964
2.12528
2.12078
2.1167
2.11254
2.10883
2.10512
2.10191
2.09875
2.09615
2.09367
2.09179
2.09009
2.08904
2.08825
2.08817
2.08824
2.08845
2.08889
2.0898
2.09113
2.09287
2.09485
2.09712
2.0994
2.10183
2.10401
2.10623
2.10806
2.10988
2.11124
2.11258
2.11343
2.11427
2.11461
2.11497
2.11498
2.11497
2.11489
2.1147
2.11422
2.11386
2.11313
2.11272
2.11204
2.11201
2.11021
2.32195
2.28146
2.24785
2.223
2.20272
2.18776
2.17538
2.16491
2.15541
2.14793
2.14203
2.1385
2.13637
2.13596
2.13601
2.13658
2.13844
2.14137
2.14458
2.14807
2.15168
2.15557
2.1593
2.16312
2.16648
2.16973
2.17225
2.17455
2.176
2.17724
2.17759
2.17778
2.17714
2.1762
2.17514
2.17392
2.17243
2.17027
2.16758
2.16432
2.16093
2.15718
2.15345
2.14943
2.14549
2.14125
2.13712
2.1327
2.12843
2.12391
2.1196
2.11508
2.11081
2.10638
2.10226
2.09804
2.09415
2.09024
2.08671
2.08321
2.08013
2.07715
2.07463
2.07229
2.07044
2.06885
2.0678
2.0671
2.06696
2.06699
2.06716
2.06757
2.06843
2.06966
2.0713
2.07308
2.07518
2.07727
2.07953
2.08159
2.08367
2.08539
2.0871
2.08835
2.0896
2.09036
2.09112