/*--------------------------------*- C++ -*----------------------------------*\
| =========                 |                                                 |
| \\      /  F ield         | OpenFOAM: The Open Source CFD Toolbox           |
|  \\    /   O peration     | Version:  2412                                  |
|   \\  /    A nd           | Website:  www.openfoam.com                      |
|    \\/     M anipulation  |                                                 |
\*---------------------------------------------------------------------------*/
FoamFile
{
    version     2.0;
    format      ascii;
    arch        "LSB;label=32;scalar=64";
    class       volVectorField;
    location    "15";
    object      U;
}
// * * * * * * * * * * * * * * * * * * * * * * * * * * * * * * * * * * * * * //

dimensions      [0 1 -1 0 0 0 0];

internalField   nonuniform List<vector> 
7000
(
(2.59284 -7.31196e-05 0)
(1.62491 0.000178274 0)
(0.498675 0.00020428 0)
(0.552958 0.000346153 0)
(0.654693 0.000441941 0)
(0.720121 0.000519539 0)
(0.733078 0.000586856 0)
(0.726177 0.000656671 0)
(0.716071 0.000734658 0)
(0.708327 0.000824613 0)
(0.703836 0.00092282 0)
(0.700257 0.00102563 0)
(0.696165 0.00113223 0)
(0.691303 0.00124353 0)
(0.685833 0.00136055 0)
(0.679881 0.0014839 0)
(0.673466 0.00161387 0)
(0.666554 0.00175078 0)
(0.65911 0.00189508 0)
(0.651107 0.00204732 0)
(0.642522 0.00220809 0)
(0.633332 0.00237813 0)
(0.623512 0.00255808 0)
(0.613034 0.00274873 0)
(0.601868 0.00295098 0)
(0.589985 0.0031656 0)
(0.577351 0.00339355 0)
(0.563934 0.00363587 0)
(0.549698 0.00389333 0)
(0.534605 0.0041671 0)
(0.51862 0.00445809 0)
(0.501705 0.00476704 0)
(0.483818 0.00509507 0)
(0.464927 0.00544256 0)
(0.444994 0.00581014 0)
(0.42398 0.0061981 0)
(0.401869 0.00660596 0)
(0.378618 0.00703349 0)
(0.354228 0.0074792 0)
(0.328685 0.00794112 0)
(0.301978 0.00841685 0)
(0.274164 0.00890214 0)
(0.245236 0.00939273 0)
(0.215264 0.009883 0)
(0.184364 0.010366 0)
(0.152546 0.010837 0)
(0.119904 0.0113008 0)
(0.0870645 0.0117424 0)
(0.0517879 0.0123411 0)
(0.0222097 0.0132528 0)
(2.59297 -4.88547e-05 0)
(1.62507 0.000345318 0)
(0.498358 0.000816343 0)
(0.552693 0.00112733 0)
(0.65445 0.00136167 0)
(0.719891 0.00158216 0)
(0.732848 0.00178861 0)
(0.725952 0.00200234 0)
(0.715854 0.00223837 0)
(0.70812 0.00250676 0)
(0.703635 0.0027983 0)
(0.70006 0.00310342 0)
(0.695972 0.00341989 0)
(0.691114 0.00374993 0)
(0.68565 0.00409616 0)
(0.679704 0.00446002 0)
(0.673295 0.00484227 0)
(0.666389 0.00524358 0)
(0.658951 0.00566512 0)
(0.650955 0.00610811 0)
(0.642377 0.00657406 0)
(0.633195 0.00706458 0)
(0.623383 0.00758132 0)
(0.612913 0.00812588 0)
(0.601756 0.00870043 0)
(0.589883 0.00930638 0)
(0.577259 0.0099459 0)
(0.563851 0.0106207 0)
(0.549625 0.0113324 0)
(0.534543 0.0120825 0)
(0.518567 0.0128725 0)
(0.501661 0.0137024 0)
(0.483782 0.0145735 0)
(0.464897 0.0154844 0)
(0.444967 0.0164338 0)
(0.423955 0.0174196 0)
(0.40184 0.0184362 0)
(0.378581 0.0194792 0)
(0.354175 0.0205392 0)
(0.328608 0.021606 0)
(0.301867 0.0226668 0)
(0.274005 0.0237046 0)
(0.245015 0.0247013 0)
(0.214963 0.0256371 0)
(0.183962 0.0264873 0)
(0.152023 0.0272373 0)
(0.119224 0.0278879 0)
(0.0862355 0.0284097 0)
(0.0507785 0.0290798 0)
(0.0212212 0.0299182 0)
(2.5931 4.72652e-05 0)
(1.62537 0.000387165 0)
(0.498563 0.00158764 0)
(0.552745 0.00196082 0)
(0.654492 0.00228269 0)
(0.719933 0.00264549 0)
(0.73289 0.00301234 0)
(0.726005 0.00338845 0)
(0.715929 0.00379607 0)
(0.708216 0.00425152 0)
(0.703745 0.00474396 0)
(0.70018 0.00526064 0)
(0.696101 0.00579846 0)
(0.691255 0.00636024 0)
(0.685803 0.00694988 0)
(0.679871 0.00756955 0)
(0.673476 0.0082208 0)
(0.666585 0.00890483 0)
(0.659162 0.00962386 0)
(0.651183 0.0103798 0)
(0.642623 0.0111757 0)
(0.63346 0.0120139 0)
(0.623668 0.0128977 0)
(0.61322 0.0138298 0)
(0.602086 0.0148141 0)
(0.590237 0.015853 0)
(0.577639 0.0169507 0)
(0.564259 0.0181101 0)
(0.550061 0.0193342 0)
(0.535008 0.020626 0)
(0.519063 0.021988 0)
(0.502187 0.0234214 0)
(0.484338 0.0249277 0)
(0.465481 0.0265059 0)
(0.445578 0.0281539 0)
(0.424588 0.0298688 0)
(0.402492 0.0316416 0)
(0.379243 0.0334658 0)
(0.354838 0.0353254 0)
(0.32926 0.0372047 0)
(0.302494 0.0390816 0)
(0.274589 0.0409289 0)
(0.245533 0.0427157 0)
(0.215391 0.0444094 0)
(0.184271 0.0459694 0)
(0.152189 0.0473669 0)
(0.119211 0.0485946 0)
(0.0860645 0.049609 0)
(0.0504627 0.0506935 0)
(0.0207484 0.051795 0)
(2.59327 5.35351e-05 0)
(1.62581 0.000528519 0)
(0.498989 0.00232676 0)
(0.55287 0.00278638 0)
(0.654615 0.0032053 0)
(0.720077 0.00372145 0)
(0.733039 0.00426331 0)
(0.726168 0.00481599 0)
(0.716122 0.0054055 0)
(0.708441 0.00605436 0)
(0.703993 0.00675272 0)
(0.700445 0.0074868 0)
(0.696383 0.00825257 0)
(0.691557 0.00905322 0)
(0.686127 0.00989312 0)
(0.680217 0.0107754 0)
(0.673846 0.0117022 0)
(0.66698 0.0126756 0)
(0.659585 0.0136984 0)
(0.651634 0.0147739 0)
(0.643104 0.0159056 0)
(0.633974 0.0170976 0)
(0.624217 0.0183541 0)
(0.613806 0.0196793 0)
(0.602712 0.0210784 0)
(0.590905 0.0225556 0)
(0.578351 0.0241158 0)
(0.565018 0.0257644 0)
(0.550869 0.0275049 0)
(0.535867 0.0293426 0)
(0.519974 0.0312803 0)
(0.503151 0.0333207 0)
(0.485356 0.0354659 0)
(0.466552 0.0377149 0)
(0.446699 0.0400655 0)
(0.425755 0.0425136 0)
(0.403698 0.0450481 0)
(0.38048 0.0476592 0)
(0.356094 0.0503269 0)
(0.330519 0.0530272 0)
(0.303736 0.0557334 0)
(0.275789 0.0584036 0)
(0.246665 0.0609991 0)
(0.21642 0.0634686 0)
(0.185163 0.0657604 0)
(0.152913 0.0678291 0)
(0.119727 0.0696497 0)
(0.0863872 0.0711633 0)
(0.0505886 0.0726284 0)
(0.020586 0.073901 0)
(2.59352 6.6971e-05 0)
(1.62643 0.00070691 0)
(0.499536 0.00307195 0)
(0.552981 0.00364313 0)
(0.654744 0.00417025 0)
(0.72025 0.00483922 0)
(0.733226 0.00555793 0)
(0.726374 0.00629256 0)
(0.716364 0.00707154 0)
(0.708725 0.00792005 0)
(0.704309 0.00882993 0)
(0.700788 0.00978785 0)
(0.696753 0.010789 0)
(0.691955 0.0118369 0)
(0.686557 0.012936 0)
(0.680682 0.0140904 0)
(0.674346 0.0153027 0)
(0.667518 0.0165762 0)
(0.660163 0.017914 0)
(0.652254 0.019321 0)
(0.64377 0.0208013 0)
(0.634688 0.0223607 0)
(0.624983 0.0240044 0)
(0.614628 0.0257383 0)
(0.603593 0.0275685 0)
(0.591849 0.0295015 0)
(0.579362 0.0315431 0)
(0.566099 0.0337007 0)
(0.552024 0.035979 0)
(0.537099 0.0383847 0)
(0.521284 0.0409223 0)
(0.504543 0.0435947 0)
(0.486829 0.0464062 0)
(0.468105 0.049354 0)
(0.44833 0.0524376 0)
(0.427458 0.05565 0)
(0.405465 0.0589793 0)
(0.382299 0.0624111 0)
(0.357948 0.0659218 0)
(0.332388 0.0694792 0)
(0.305593 0.0730495 0)
(0.277602 0.0765779 0)
(0.248396 0.0800135 0)
(0.218027 0.0832907 0)
(0.186598 0.0863333 0)
(0.154139 0.0890853 0)
(0.120689 0.0914959 0)
(0.0870851 0.0934766 0)
(0.0510038 0.0952584 0)
(0.0205959 0.0966231 0)
(2.59385 7.90461e-05 0)
(1.62727 0.000888706 0)
(0.500231 0.00381561 0)
(0.553098 0.00451195 0)
(0.654888 0.0051536 0)
(0.720461 0.00597561 0)
(0.733464 0.00687587 0)
(0.726637 0.00779827 0)
(0.716672 0.00877573 0)
(0.709083 0.00983267 0)
(0.70471 0.0109622 0)
(0.701225 0.0121518 0)
(0.697225 0.0133968 0)
(0.692467 0.0147005 0)
(0.68711 0.016068 0)
(0.68128 0.0175036 0)
(0.674991 0.019011 0)
(0.668212 0.0205939 0)
(0.66091 0.0222569 0)
(0.653057 0.0240055 0)
(0.644634 0.0258454 0)
(0.635617 0.0277833 0)
(0.62598 0.029826 0)
(0.6157 0.0319807 0)
(0.604744 0.0342555 0)
(0.593084 0.036658 0)
(0.580687 0.0391962 0)
(0.567518 0.0418787 0)
(0.553542 0.0447125 0)
(0.538722 0.0477054 0)
(0.523015 0.0508641 0)
(0.506385 0.0541922 0)
(0.488783 0.0576953 0)
(0.470171 0.0613715 0)
(0.450505 0.0652198 0)
(0.429735 0.0692334 0)
(0.407835 0.0733971 0)
(0.384748 0.0776959 0)
(0.360454 0.0820982 0)
(0.334926 0.0865693 0)
(0.308127 0.0910619 0)
(0.280089 0.0955146 0)
(0.250791 0.0998565 0)
(0.220269 0.104009 0)
(0.188629 0.107873 0)
(0.155901 0.111364 0)
(0.122115 0.114408 0)
(0.0881444 0.116886 0)
(0.051653 0.118985 0)
(0.0207428 0.120419 0)
(2.59428 9.14766e-05 0)
(1.62833 0.00107253 0)
(0.501081 0.00456634 0)
(0.553221 0.00539568 0)
(0.655048 0.00615819 0)
(0.720714 0.00713729 0)
(0.733756 0.00822507 0)
(0.726961 0.00934074 0)
(0.717051 0.0105244 0)
(0.709522 0.011798 0)
(0.705202 0.0131551 0)
(0.701763 0.0145838 0)
(0.697809 0.0160803 0)
(0.6931 0.017648 0)
(0.687797 0.0192924 0)
(0.682022 0.0210179 0)
(0.675793 0.0228294 0)
(0.669077 0.0247312 0)
(0.661841 0.0267291 0)
(0.65406 0.0288296 0)
(0.645713 0.0310396 0)
(0.636777 0.0333671 0)
(0.627229 0.0358206 0)
(0.617042 0.0384087 0)
(0.606187 0.0411411 0)
(0.594634 0.0440274 0)
(0.582351 0.0470771 0)
(0.569303 0.0503011 0)
(0.555456 0.053708 0)
(0.540769 0.0573077 0)
(0.525201 0.0611082 0)
(0.508714 0.0651156 0)
(0.491258 0.0693359 0)
(0.472792 0.0737698 0)
(0.453271 0.0784146 0)
(0.432639 0.0832662 0)
(0.410865 0.0883057 0)
(0.387887 0.0935175 0)
(0.363678 0.0988655 0)
(0.338202 0.104308 0)
(0.311415 0.109792 0)
(0.283333 0.11524 0)
(0.253932 0.12057 0)
(0.223232 0.12568 0)
(0.191334 0.130448 0)
(0.158271 0.134768 0)
(0.124052 0.13852 0)
(0.0896048 0.141547 0)
(0.0525565 0.144005 0)
(0.0209915 0.145538 0)
(2.5948 0.000104018 0)
(1.62964 0.00125667 0)
(0.502101 0.00532197 0)
(0.553354 0.00628829 0)
(0.655227 0.0071757 0)
(0.721012 0.00831616 0)
(0.734108 0.00959564 0)
(0.727355 0.0109098 0)
(0.717511 0.0123071 0)
(0.710053 0.0138057 0)
(0.705796 0.0153981 0)
(0.702414 0.0170737 0)
(0.698517 0.0188297 0)
(0.693869 0.0206701 0)
(0.688631 0.0226001 0)
(0.682925 0.0246248 0)
(0.676768 0.0267495 0)
(0.670129 0.0289798 0)
(0.662975 0.0313222 0)
(0.655281 0.0337846 0)
(0.647028 0.0363751 0)
(0.638194 0.0391031 0)
(0.628754 0.0419788 0)
(0.618683 0.0450123 0)
(0.607951 0.0482151 0)
(0.596531 0.0515988 0)
(0.584389 0.0551749 0)
(0.571491 0.0589563 0)
(0.557802 0.0629537 0)
(0.543281 0.0671792 0)
(0.527887 0.0716431 0)
(0.51158 0.0763535 0)
(0.494308 0.0813181 0)
(0.476027 0.0865397 0)
(0.45669 0.0920163 0)
(0.436235 0.0977446 0)
(0.414626 0.103706 0)
(0.391796 0.109882 0)
(0.367704 0.116236 0)
(0.342309 0.122718 0)
(0.315551 0.129269 0)
(0.287435 0.135799 0)
(0.257924 0.142209 0)
(0.227023 0.148381 0)
(0.194816 0.154158 0)
(0.161348 0.1594 0)
(0.126594 0.163959 0)
(0.0915161 0.167625 0)
(0.0537446 0.170503 0)
(0.0213828 0.172171 0)
(2.59543 0.000116604 0)
(1.63121 0.00144018 0)
(0.503305 0.00607932 0)
(0.5535 0.00718564 0)
(0.655429 0.00820171 0)
(0.721361 0.0095074 0)
(0.734528 0.0109827 0)
(0.727827 0.0125018 0)
(0.718063 0.0141205 0)
(0.710688 0.0158523 0)
(0.706504 0.0176881 0)
(0.70319 0.0196188 0)
(0.699363 0.0216428 0)
(0.694789 0.0237641 0)
(0.689628 0.025988 0)
(0.684005 0.0283206 0)
(0.677935 0.0307673 0)
(0.671388 0.033335 0)
(0.664332 0.0360311 0)
(0.656744 0.0388647 0)
(0.648603 0.0418456 0)
(0.63989 0.0449841 0)
(0.63058 0.0482926 0)
(0.620648 0.0517824 0)
(0.610067 0.0554678 0)
(0.598806 0.0593615 0)
(0.586836 0.063478 0)
(0.57412 0.0678316 0)
(0.560622 0.0724365 0)
(0.546305 0.0773061 0)
(0.531123 0.0824545 0)
(0.515036 0.0878912 0)
(0.497991 0.0936272 0)
(0.47994 0.0996674 0)
(0.460832 0.106012 0)
(0.440601 0.112659 0)
(0.419203 0.119592 0)
(0.396566 0.12679 0)
(0.372632 0.134216 0)
(0.347355 0.141816 0)
(0.320657 0.149523 0)
(0.292521 0.157238 0)
(0.262901 0.164845 0)
(0.231774 0.1722 0)
(0.19921 0.179122 0)
(0.165246 0.185426 0)
(0.129841 0.19091 0)
(0.0939863 0.195318 0)
(0.0552758 0.198706 0)
(0.0218953 0.200566 0)
(2.59617 0.000129102 0)
(1.63305 0.00162173 0)
(0.504707 0.00683211 0)
(0.553664 0.00808205 0)
(0.655658 0.00923076 0)
(0.721769 0.0107034 0)
(0.735024 0.0123786 0)
(0.728389 0.0141081 0)
(0.71872 0.0159556 0)
(0.711439 0.0179288 0)
(0.707341 0.0200165 0)
(0.704109 0.0222108 0)
(0.700364 0.0245111 0)
(0.695876 0.0269216 0)
(0.690807 0.0294479 0)
(0.68528 0.0320968 0)
(0.679313 0.0348741 0)
(0.672874 0.0377877 0)
(0.665934 0.0408464 0)
(0.65847 0.04406 0)
(0.650463 0.0474402 0)
(0.641893 0.0509987 0)
(0.632736 0.0547497 0)
(0.62297 0.0587065 0)
(0.612566 0.062885 0)
(0.601496 0.0673007 0)
(0.589728 0.07197 0)
(0.577229 0.0769101 0)
(0.563961 0.0821378 0)
(0.549887 0.0876694 0)
(0.534961 0.0935221 0)
(0.51914 0.0997085 0)
(0.502371 0.106243 0)
(0.4846 0.113133 0)
(0.465776 0.120383 0)
(0.445824 0.127994 0)
(0.424693 0.135949 0)
(0.402303 0.144233 0)
(0.378583 0.152806 0)
(0.353471 0.161613 0)
(0.326873 0.170582 0)
(0.298746 0.179602 0)
(0.269028 0.188545 0)
(0.237663 0.197241 0)
(0.204692 0.205474 0)
(0.17015 0.213016 0)
(0.133943 0.219613 0)
(0.0971032 0.224924 0)
(0.0572319 0.228931 0)
(0.0226079 0.231041 0)
(2.59703 0.000140707 0)
(1.63519 0.00180055 0)
(0.506323 0.00756979 0)
(0.553851 0.00897062 0)
(0.655921 0.010258 0)
(0.722242 0.0118949 0)
(0.735607 0.0137744 0)
(0.729052 0.0157191 0)
(0.719496 0.017803 0)
(0.712324 0.0200266 0)
(0.708323 0.0223753 0)
(0.705185 0.0248418 0)
(0.701537 0.0274266 0)
(0.697149 0.0301349 0)
(0.692187 0.0329722 0)
(0.686773 0.0359454 0)
(0.680923 0.0390615 0)
(0.674611 0.0423289 0)
(0.667805 0.0457579 0)
(0.660485 0.0493596 0)
(0.652633 0.0531472 0)
(0.64423 0.057134 0)
(0.635253 0.061336 0)
(0.62568 0.0657688 0)
(0.615484 0.07045 0)
(0.604636 0.0753982 0)
(0.593107 0.0806316 0)
(0.580863 0.0861708 0)
(0.567867 0.0920356 0)
(0.55408 0.0982452 0)
(0.539458 0.104821 0)
(0.523954 0.111779 0)
(0.507517 0.119138 0)
(0.490086 0.12691 0)
(0.471607 0.135103 0)
(0.452 0.143723 0)
(0.431205 0.152757 0)
(0.409131 0.162195 0)
(0.385693 0.171997 0)
(0.360813 0.182111 0)
(0.334372 0.192462 0)
(0.306304 0.202933 0)
(0.276512 0.21338 0)
(0.244908 0.22361 0)
(0.211492 0.233375 0)
(0.176274 0.242384 0)
(0.139133 0.250314 0)
(0.101082 0.256742 0)
(0.0597083 0.26156 0)
(0.0235035 0.264019 0)
(2.59801 0.000147975 0)
(1.63764 0.00197806 0)
(0.508159 0.00827794 0)
(0.554069 0.00984025 0)
(0.656216 0.0112757 0)
(0.72278 0.0130664 0)
(0.736282 0.0151576 0)
(0.729826 0.0173243 0)
(0.720404 0.0196527 0)
(0.713355 0.0221357 0)
(0.709466 0.0247545 0)
(0.706435 0.027502 0)
(0.702897 0.03038 0)
(0.698626 0.033394 0)
(0.693786 0.0365505 0)
(0.6885 0.0398555 0)
(0.682787 0.0433179 0)
(0.676619 0.0469463 0)
(0.669968 0.0507527 0)
(0.662814 0.0547494 0)
(0.655141 0.0589513 0)
(0.64693 0.0633735 0)
(0.63816 0.0680335 0)
(0.62881 0.0729498 0)
(0.618854 0.0781416 0)
(0.608265 0.0836305 0)
(0.597013 0.0894376 0)
(0.585066 0.0955862 0)
(0.572387 0.1021 0)
(0.558938 0.109002 0)
(0.544673 0.116317 0)
(0.529546 0.124068 0)
(0.513503 0.132275 0)
(0.49648 0.140959 0)
(0.47842 0.150132 0)
(0.459236 0.159808 0)
(0.438858 0.16998 0)
(0.417187 0.180643 0)
(0.394119 0.191766 0)
(0.369558 0.203299 0)
(0.34336 0.215171 0)
(0.315422 0.22726 0)
(0.285614 0.239415 0)
(0.253796 0.25142 0)
(0.219914 0.26299 0)
(0.183931 0.273787 0)
(0.14566 0.283383 0)
(0.106137 0.291234 0)
(0.0629165 0.297102 0)
(0.0247255 0.300047 0)
(2.59912 0.000155189 0)
(1.64041 0.00214702 0)
(0.510213 0.00896134 0)
(0.554321 0.0106788 0)
(0.656546 0.0122591 0)
(0.723383 0.0142047 0)
(0.737062 0.0165143 0)
(0.730723 0.0189097 0)
(0.721456 0.0214917 0)
(0.714548 0.0242438 0)
(0.710784 0.0271421 0)
(0.707875 0.0301793 0)
(0.704463 0.0333594 0)
(0.700324 0.0366874 0)
(0.695623 0.0401703 0)
(0.690483 0.0438147 0)
(0.684923 0.0476299 0)
(0.67892 0.0516261 0)
(0.672445 0.055816 0)
(0.66548 0.0602138 0)
(0.65801 0.0648356 0)
(0.650019 0.0696987 0)
(0.641487 0.0748225 0)
(0.632393 0.0802276 0)
(0.622713 0.0859359 0)
(0.612421 0.0919716 0)
(0.601488 0.0983591 0)
(0.589885 0.105125 0)
(0.577573 0.112297 0)
(0.564517 0.119902 0)
(0.550669 0.127971 0)
(0.535984 0.13653 0)
(0.520407 0.145608 0)
(0.50387 0.155232 0)
(0.486314 0.165421 0)
(0.467646 0.176197 0)
(0.447786 0.187565 0)
(0.426625 0.199528 0)
(0.404041 0.212068 0)
(0.379917 0.225143 0)
(0.35408 0.238691 0)
(0.326384 0.252598 0)
(0.296654 0.266705 0)
(0.264688 0.280786 0)
(0.230357 0.294517 0)
(0.193557 0.307494 0)
(0.154001 0.319196 0)
(0.112666 0.32892 0)
(0.0670631 0.336235 0)
(0.0262997 0.339893 0)
(2.60037 0.000167435 0)
(1.6435 0.00229845 0)
(0.512513 0.0096219 0)
(0.554614 0.0114707 0)
(0.656924 0.0131762 0)
(0.724078 0.0152991 0)
(0.737971 0.0178261 0)
(0.73177 0.0204565 0)
(0.722686 0.023304 0)
(0.715936 0.0263364 0)
(0.71231 0.0295243 0)
(0.709538 0.0328604 0)
(0.706267 0.0363516 0)
(0.702276 0.0400016 0)
(0.697729 0.0438178 0)
(0.692751 0.0478079 0)
(0.687364 0.0519812 0)
(0.681544 0.0563501 0)
(0.675267 0.0609277 0)
(0.668515 0.0657302 0)
(0.661274 0.0707754 0)
(0.653531 0.0760827 0)
(0.645267 0.0816732 0)
(0.636463 0.0875704 0)
(0.627096 0.0937985 0)
(0.617143 0.100385 0)
(0.606575 0.107357 0)
(0.595364 0.114745 0)
(0.583475 0.122581 0)
(0.570871 0.130897 0)
(0.557508 0.139729 0)
(0.543338 0.149111 0)
(0.528308 0.159076 0)
(0.512349 0.169663 0)
(0.495395 0.180899 0)
(0.477353 0.192818 0)
(0.458132 0.205439 0)
(0.437615 0.218776 0)
(0.41566 0.232832 0)
(0.392128 0.247579 0)
(0.366817 0.262975 0)
(0.339529 0.278919 0)
(0.310038 0.295266 0)
(0.278054 0.311789 0)
(0.243349 0.328146 0)
(0.205703 0.343865 0)
(0.16469 0.358304 0)
(0.121204 0.370552 0)
(0.0726304 0.379897 0)
(0.0285106 0.384626 0)
(2.60174 0.000178254 0)
(1.64694 0.00243409 0)
(0.515074 0.010224 0)
(0.554946 0.0121908 0)
(0.657365 0.014012 0)
(0.724894 0.0163204 0)
(0.739029 0.0190714 0)
(0.733 0.0219476 0)
(0.724128 0.0250737 0)
(0.717552 0.0283985 0)
(0.714079 0.0318875 0)
(0.711457 0.0355339 0)
(0.708343 0.0393437 0)
(0.704515 0.0433246 0)
(0.700138 0.047482 0)
(0.695339 0.0518244 0)
(0.690143 0.0563611 0)
(0.684527 0.0611074 0)
(0.678468 0.0660763 0)
(0.671952 0.0712861 0)
(0.664967 0.0767563 0)
(0.657501 0.0825087 0)
(0.649537 0.0885663 0)
(0.641058 0.0949553 0)
(0.632044 0.101702 0)
(0.622472 0.108838 0)
(0.612318 0.116394 0)
(0.601553 0.124404 0)
(0.590145 0.132905 0)
(0.57806 0.141933 0)
(0.565254 0.151532 0)
(0.551681 0.161742 0)
(0.53729 0.172606 0)
(0.522009 0.184171 0)
(0.505773 0.196478 0)
(0.488487 0.209575 0)
(0.470049 0.223498 0)
(0.45034 0.23828 0)
(0.429197 0.253949 0)
(0.40646 0.270503 0)
(0.381897 0.287928 0)
(0.355258 0.30616 0)
(0.326251 0.325076 0)
(0.2945 0.344475 0)
(0.259621 0.364021 0)
(0.221238 0.383199 0)
(0.17869 0.401256 0)
(0.132635 0.417054 0)
(0.0802106 0.429431 0)
(0.0315554 0.435907 0)
(2.60324 0.000185339 0)
(1.6507 0.00254976 0)
(0.517882 0.0107311 0)
(0.555322 0.0128097 0)
(0.657878 0.0147468 0)
(0.725846 0.0172359 0)
(0.740264 0.0202266 0)
(0.734441 0.0233619 0)
(0.725811 0.02678 0)
(0.719429 0.0304109 0)
(0.716123 0.0342128 0)
(0.713664 0.0381789 0)
(0.710722 0.0423142 0)
(0.707073 0.0466324 0)
(0.702884 0.0511343 0)
(0.698281 0.0558319 0)
(0.693294 0.0607341 0)
(0.687901 0.0658579 0)
(0.682083 0.0712183 0)
(0.675828 0.0768349 0)
(0.669126 0.0827298 0)
(0.661966 0.0889259 0)
(0.654335 0.0954491 0)
(0.646218 0.102327 0)
(0.637596 0.109591 0)
(0.628451 0.117273 0)
(0.61876 0.125409 0)
(0.608497 0.134037 0)
(0.597633 0.143198 0)
(0.586137 0.152936 0)
(0.573968 0.163299 0)
(0.561081 0.174337 0)
(0.547429 0.186102 0)
(0.532942 0.198652 0)
(0.517555 0.212045 0)
(0.501174 0.226342 0)
(0.483693 0.241604 0)
(0.464988 0.257888 0)
(0.444888 0.275254 0)
(0.423209 0.29374 0)
(0.399698 0.313375 0)
(0.374048 0.334154 0)
(0.345895 0.356009 0)
(0.314762 0.378792 0)
(0.280087 0.402267 0)
(0.241239 0.425897 0)
(0.197263 0.448805 0)
(0.14837 0.469697 0)
(0.0911288 0.486739 0)
(0.0361983 0.496295 0)
(2.60486 0.000190436 0)
(1.65477 0.00263461 0)
(0.520929 0.0111113 0)
(0.555754 0.0132909 0)
(0.658481 0.0153402 0)
(0.726962 0.0180133 0)
(0.741715 0.0212582 0)
(0.736131 0.0246693 0)
(0.72778 0.028401 0)
(0.721608 0.0323601 0)
(0.718479 0.0364943 0)
(0.716195 0.0407962 0)
(0.713438 0.0452735 0)
(0.709983 0.04994 0)
(0.705995 0.0547972 0)
(0.701605 0.0598557 0)
(0.696845 0.0651284 0)
(0.691697 0.0706304 0)
(0.686142 0.0763816 0)
(0.680174 0.0824022 0)
(0.673782 0.0887163 0)
(0.666961 0.0953484 0)
(0.659697 0.102328 0)
(0.65198 0.109685 0)
(0.643794 0.117453 0)
(0.635123 0.125668 0)
(0.625947 0.13437 0)
(0.616246 0.143601 0)
(0.605992 0.153408 0)
(0.595158 0.163841 0)
(0.58371 0.174953 0)
(0.571606 0.186806 0)
(0.558802 0.19946 0)
(0.545236 0.212989 0)
(0.530844 0.227464 0)
(0.515538 0.242968 0)
(0.499213 0.259587 0)
(0.481749 0.277408 0)
(0.46297 0.296533 0)
(0.442681 0.317054 0)
(0.420615 0.339051 0)
(0.396423 0.36263 0)
(0.369667 0.38782 0)
(0.339811 0.414498 0)
(0.306073 0.442706 0)
(0.267421 0.472036 0)
(0.222506 0.501657 0)
(0.170738 0.530106 0)
(0.107479 0.554931 0)
(0.043551 0.570279 0)
(2.60658 0.000192767 0)
(1.65912 0.00268017 0)
(0.524199 0.0113057 0)
(0.556265 0.0135793 0)
(0.659205 0.0157455 0)
(0.728285 0.0186122 0)
(0.743435 0.0221265 0)
(0.738134 0.0258292 0)
(0.730102 0.0298912 0)
(0.724159 0.0341905 0)
(0.721217 0.0386634 0)
(0.719118 0.0433032 0)
(0.716557 0.0481226 0)
(0.713309 0.0531318 0)
(0.709533 0.0583421 0)
(0.70537 0.0637599 0)
(0.70085 0.0694012 0)
(0.695964 0.0752808 0)
(0.690693 0.081422 0)
(0.685033 0.0878455 0)
(0.678978 0.0945769 0)
(0.672523 0.101643 0)
(0.66566 0.109075 0)
(0.65838 0.116906 0)
(0.650672 0.12517 0)
(0.642522 0.133909 0)
(0.633915 0.143165 0)
(0.624835 0.152985 0)
(0.61526 0.16342 0)
(0.605168 0.174527 0)
(0.594529 0.186366 0)
(0.58331 0.199009 0)
(0.571473 0.212527 0)
(0.558965 0.227009 0)
(0.545729 0.242543 0)
(0.53169 0.259232 0)
(0.516748 0.277193 0)
(0.500796 0.296553 0)
(0.483672 0.317453 0)
(0.46517 0.340093 0)
(0.445056 0.364547 0)
(0.422974 0.39101 0)
(0.398329 0.419858 0)
(0.370659 0.45116 0)
(0.339082 0.485046 0)
(0.302038 0.521523 0)
(0.25756 0.560273 0)
(0.203911 0.600055 0)
(0.133938 0.638357 0)
(0.0566536 0.666587 0)
(2.60838 0.000147078 0)
(1.66367 0.0027305 0)
(0.527629 0.0112287 0)
(0.556878 0.0135705 0)
(0.660081 0.0158841 0)
(0.729851 0.0189822 0)
(0.74546 0.0228211 0)
(0.740485 0.0268752 0)
(0.732807 0.0313322 0)
(0.7271 0.0360273 0)
(0.724345 0.0408822 0)
(0.722435 0.0458931 0)
(0.720078 0.0510775 0)
(0.717047 0.0564479 0)
(0.713503 0.0620174 0)
(0.709583 0.0677949 0)
(0.705326 0.073797 0)
(0.700722 0.0800421 0)
(0.695761 0.0865543 0)
(0.690436 0.0933582 0)
(0.684747 0.100482 0)
(0.678692 0.107955 0)
(0.672265 0.115811 0)
(0.665462 0.124085 0)
(0.658274 0.132816 0)
(0.650693 0.142048 0)
(0.64271 0.151826 0)
(0.634311 0.162201 0)
(0.625483 0.173231 0)
(0.616209 0.184976 0)
(0.60647 0.197505 0)
(0.596239 0.210897 0)
(0.585491 0.225236 0)
(0.574186 0.240621 0)
(0.562273 0.257165 0)
(0.549702 0.274989 0)
(0.536394 0.294229 0)
(0.522251 0.315103 0)
(0.507191 0.337705 0)
(0.490942 0.362278 0)
(0.47325 0.389245 0)
(0.454094 0.418849 0)
(0.432877 0.451562 0)
(0.408788 0.487894 0)
(0.381003 0.528293 0)
(0.348004 0.573476 0)
(0.307117 0.624284 0)
(0.255082 0.681026 0)
(0.180521 0.743094 0)
(0.0833573 0.80348 0)
(2.6103 8.85534e-05 0)
(1.66837 0.00272885 0)
(0.530744 0.010878 0)
(0.557309 0.0132132 0)
(0.66092 0.0156226 0)
(0.731518 0.0189184 0)
(0.747684 0.0230777 0)
(0.743099 0.0274829 0)
(0.735824 0.0323365 0)
(0.730359 0.0374187 0)
(0.727788 0.0426409 0)
(0.726069 0.0480103 0)
(0.723925 0.0535549 0)
(0.721125 0.0592911 0)
(0.717824 0.0652297 0)
(0.714164 0.0713805 0)
(0.710189 0.0777595 0)
(0.705893 0.0843863 0)
(0.701269 0.0912854 0)
(0.696314 0.0984832 0)
(0.691029 0.106008 0)
(0.685414 0.113893 0)
(0.679469 0.12217 0)
(0.673192 0.130879 0)
(0.666579 0.14006 0)
(0.659626 0.149759 0)
(0.652329 0.160027 0)
(0.64468 0.170917 0)
(0.636676 0.18249 0)
(0.628305 0.194816 0)
(0.619561 0.207969 0)
(0.610428 0.222036 0)
(0.600892 0.237113 0)
(0.590936 0.253306 0)
(0.580528 0.270757 0)
(0.56962 0.289643 0)
(0.558229 0.309989 0)
(0.546198 0.332063 0)
(0.533412 0.356251 0)
(0.520039 0.38277 0)
(0.505818 0.412126 0)
(0.490446 0.444768 0)
(0.473668 0.48118 0)
(0.454995 0.522343 0)
(0.433769 0.569444 0)
(0.408834 0.624285 0)
(0.377801 0.689783 0)
(0.336708 0.770999 0)
(0.271098 0.878295 0)
(0.146625 1.04381 0)
(2.61263 7.28756e-05 0)
(1.67403 0.00254984 0)
(0.534337 0.0101331 0)
(0.557832 0.0125516 0)
(0.662061 0.0151601 0)
(0.733844 0.0188969 0)
(0.750817 0.0236701 0)
(0.746772 0.0287033 0)
(0.740023 0.0341944 0)
(0.734843 0.0398384 0)
(0.732496 0.045545 0)
(0.731038 0.0513492 0)
(0.729199 0.0573013 0)
(0.726731 0.0634273 0)
(0.723786 0.0697439 0)
(0.720507 0.076266 0)
(0.716944 0.083014 0)
(0.7131 0.0900136 0)
(0.708972 0.0972932 0)
(0.704561 0.104884 0)
(0.699872 0.112816 0)
(0.694911 0.121125 0)
(0.689682 0.129848 0)
(0.684189 0.139023 0)
(0.678434 0.148694 0)
(0.672423 0.158909 0)
(0.666158 0.169719 0)
(0.659641 0.181181 0)
(0.652881 0.19336 0)
(0.645881 0.206328 0)
(0.638651 0.220166 0)
(0.631195 0.234963 0)
(0.623516 0.250846 0)
(0.615642 0.267904 0)
(0.607635 0.286222 0)
(0.599274 0.306045 0)
(0.590594 0.327612 0)
(0.582071 0.351101 0)
(0.573588 0.376933 0)
(0.564915 0.405481 0)
(0.556159 0.437095 0)
(0.547408 0.472474 0)
(0.538856 0.51246 0)
(0.530741 0.558335 0)
(0.523584 0.611893 0)
(0.518562 0.675882 0)
(0.518427 0.754787 0)
(0.531342 0.856035 0)
(0.587364 0.990807 0)
(0.657587 1.1857 0)
(2.61509 5.73468e-05 0)
(1.68006 0.00189324 0)
(0.538812 0.00756896 0)
(0.55951 0.00969578 0)
(0.664745 0.0122442 0)
(0.738269 0.0163858 0)
(0.756318 0.0218839 0)
(0.752875 0.0276915 0)
(0.746589 0.0339931 0)
(0.741479 0.0403544 0)
(0.739146 0.0467056 0)
(0.737786 0.0531218 0)
(0.736121 0.0596684 0)
(0.73387 0.0663718 0)
(0.731173 0.0732435 0)
(0.728176 0.0802992 0)
(0.72494 0.0875621 0)
(0.721474 0.0950612 0)
(0.717778 0.102827 0)
(0.713857 0.110891 0)
(0.709718 0.119289 0)
(0.705373 0.128055 0)
(0.700828 0.13723 0)
(0.696094 0.146854 0)
(0.69118 0.156974 0)
(0.686096 0.16764 0)
(0.680857 0.178905 0)
(0.675475 0.190831 0)
(0.669969 0.203484 0)
(0.664358 0.21694 0)
(0.658662 0.231303 0)
(0.652945 0.246597 0)
(0.647192 0.262933 0)
(0.641321 0.28052 0)
(0.635552 0.299499 0)
(0.630128 0.32 0)
(0.624944 0.342368 0)
(0.620045 0.366806 0)
(0.615668 0.393504 0)
(0.611978 0.422903 0)
(0.609239 0.455534 0)
(0.607926 0.492043 0)
(0.608714 0.533355 0)
(0.612699 0.580618 0)
(0.62169 0.63549 0)
(0.639014 0.700137 0)
(0.670711 0.777474 0)
(0.725767 0.870947 0)
(0.836998 0.98058 0)
(0.984993 1.09527 0)
(2.61649 6.84255e-05 0)
(1.68351 0.00126204 0)
(0.541617 0.00529408 0)
(0.561289 0.00769747 0)
(0.668125 0.0108431 0)
(0.744063 0.0161605 0)
(0.763562 0.0229209 0)
(0.760856 0.0298202 0)
(0.755046 0.036852 0)
(0.749934 0.0436317 0)
(0.747611 0.0502797 0)
(0.746386 0.0569729 0)
(0.744925 0.0637919 0)
(0.742897 0.0707573 0)
(0.740434 0.0778766 0)
(0.737697 0.0851739 0)
(0.734759 0.0926818 0)
(0.731635 0.100436 0)
(0.728328 0.108469 0)
(0.724846 0.116816 0)
(0.721203 0.125511 0)
(0.717413 0.13459 0)
(0.713492 0.14409 0)
(0.709455 0.154052 0)
(0.70532 0.16452 0)
(0.701106 0.175541 0)
(0.696838 0.187166 0)
(0.692537 0.199462 0)
(0.68824 0.212487 0)
(0.684015 0.226264 0)
(0.679782 0.240901 0)
(0.675566 0.256552 0)
(0.671679 0.273278 0)
(0.668185 0.29123 0)
(0.665005 0.310616 0)
(0.662284 0.331519 0)
(0.660202 0.354101 0)
(0.658928 0.378633 0)
(0.658741 0.405402 0)
(0.660017 0.434751 0)
(0.66322 0.467135 0)
(0.669093 0.503078 0)
(0.678717 0.543238 0)
(0.693555 0.588382 0)
(0.715989 0.639362 0)
(0.749489 0.69703 0)
(0.799651 0.761653 0)
(0.872081 0.832275 0)
(0.985102 0.90395 0)
(1.1209 0.956851 0)
(2.61766 6.89311e-05 0)
(1.68649 -0.00159408 0)
(0.546935 -0.00491918 0)
(0.567261 -0.00317629 0)
(0.675905 0.000767763 0)
(0.754224 0.00874308 0)
(0.774616 0.0182243 0)
(0.771699 0.0274632 0)
(0.765306 0.0360199 0)
(0.759606 0.0437941 0)
(0.757104 0.0512574 0)
(0.755963 0.0587064 0)
(0.754668 0.066221 0)
(0.752824 0.0738159 0)
(0.750573 0.0814931 0)
(0.748104 0.0892879 0)
(0.745495 0.0972446 0)
(0.742757 0.105404 0)
(0.739889 0.113805 0)
(0.736899 0.122485 0)
(0.733799 0.131483 0)
(0.730608 0.140839 0)
(0.727341 0.150593 0)
(0.724021 0.160788 0)
(0.720672 0.171467 0)
(0.717318 0.182692 0)
(0.714008 0.194489 0)
(0.71077 0.206896 0)
(0.707553 0.22001 0)
(0.704466 0.233916 0)
(0.701749 0.248664 0)
(0.699375 0.264414 0)
(0.697331 0.281259 0)
(0.695794 0.299222 0)
(0.69487 0.318444 0)
(0.694719 0.339092 0)
(0.695569 0.361325 0)
(0.697665 0.385343 0)
(0.701358 0.411374 0)
(0.707092 0.439672 0)
(0.715472 0.470518 0)
(0.727308 0.504245 0)
(0.743739 0.54113 0)
(0.766258 0.581452 0)
(0.796918 0.625298 0)
(0.838418 0.672387 0)
(0.8944 0.721665 0)
(0.967565 0.770538 0)
(1.06885 0.814783 0)
(1.182 0.840396 0)
(2.61324 0.00232947 0)
(1.67636 -0.00687103 0)
(0.551918 -0.0139944 0)
(0.583363 -0.00821157 0)
(0.6964 -0.000635485 0)
(0.778331 0.00956413 0)
(0.799044 0.0197079 0)
(0.794674 0.0293138 0)
(0.786356 0.0378033 0)
(0.77928 0.0456381 0)
(0.776132 0.0532887 0)
(0.77463 0.0609135 0)
(0.773019 0.0685493 0)
(0.770855 0.0762287 0)
(0.768304 0.0840052 0)
(0.765595 0.0919315 0)
(0.76281 0.100053 0)
(0.759958 0.108407 0)
(0.757038 0.117027 0)
(0.754063 0.125947 0)
(0.751052 0.135199 0)
(0.748025 0.144817 0)
(0.745002 0.154835 0)
(0.742008 0.165289 0)
(0.739096 0.176186 0)
(0.73626 0.187577 0)
(0.733489 0.199555 0)
(0.730926 0.212136 0)
(0.728687 0.225378 0)
(0.726761 0.239395 0)
(0.725198 0.254224 0)
(0.724109 0.269879 0)
(0.723577 0.286474 0)
(0.723747 0.304105 0)
(0.72479 0.322869 0)
(0.726881 0.342904 0)
(0.730262 0.364325 0)
(0.735221 0.387279 0)
(0.742131 0.411906 0)
(0.751461 0.438354 0)
(0.763807 0.46675 0)
(0.779944 0.4972 0)
(0.800845 0.529724 0)
(0.827763 0.564205 0)
(0.862223 0.600299 0)
(0.906057 0.637249 0)
(0.96156 0.673714 0)
(1.03033 0.707368 0)
(1.1168 0.735263 0)
(1.20976 0.749043 0)
(2.60486 0.00803732 0)
(1.6458 -0.0737167 0)
(0.587246 -0.0731038 0)
(0.624512 -0.0460264 0)
(0.731781 -0.00616289 0)
(0.809507 0.0160406 0)
(0.827635 0.0261406 0)
(0.821754 0.034808 0)
(0.812272 0.0421637 0)
(0.804885 0.0502631 0)
(0.801485 0.0587753 0)
(0.799612 0.0671878 0)
(0.797622 0.0753766 0)
(0.795172 0.0834273 0)
(0.792439 0.0914708 0)
(0.789597 0.0995872 0)
(0.786703 0.107827 0)
(0.783758 0.116231 0)
(0.780762 0.124842 0)
(0.777727 0.133707 0)
(0.774676 0.142875 0)
(0.771633 0.152376 0)
(0.768628 0.162222 0)
(0.765648 0.172462 0)
(0.762749 0.183169 0)
(0.760106 0.194353 0)
(0.75771 0.206064 0)
(0.755537 0.218364 0)
(0.753712 0.231278 0)
(0.752316 0.244855 0)
(0.751423 0.25917 0)
(0.751143 0.274284 0)
(0.751604 0.29026 0)
(0.752958 0.307178 0)
(0.755384 0.325099 0)
(0.759083 0.344104 0)
(0.764297 0.364266 0)
(0.771326 0.385664 0)
(0.780526 0.408366 0)