/*--------------------------------*- C++ -*----------------------------------*\
| =========                 |                                                 |
| \\      /  F ield         | OpenFOAM: The Open Source CFD Toolbox           |
|  \\    /   O peration     | Version:  2412                                  |
|   \\  /    A nd           | Website:  www.openfoam.com                      |
|    \\/     M anipulation  |                                                 |
\*---------------------------------------------------------------------------*/
FoamFile
{
    version     2.0;
    format      ascii;
    arch        "LSB;label=32;scalar=64";
    class       volScalarField;
    location    "27";
    object      Ma;
}
// * * * * * * * * * * * * * * * * * * * * * * * * * * * * * * * * * * * * * //

dimensions      [0 0 0 0 0 0 0];

internalField   nonuniform List<scalar> 
7000
(
2.25598
0.994174
0.300527
0.338438
0.401062
0.442387
0.450594
0.446124
0.43977
0.43486
0.432015
0.429742
0.427143
0.424056
0.420584
0.416809
0.412743
0.408365
0.403654
0.398593
0.393172
0.387375
0.381189
0.374597
0.367584
0.360131
0.352222
0.343836
0.334955
0.325557
0.315624
0.305132
0.294062
0.282393
0.270107
0.257183
0.24361
0.229372
0.214464
0.198882
0.182632
0.165726
0.148189
0.130053
0.111368
0.0921924
0.0725906
0.0528469
0.031923
0.0155243
2.25604
0.994235
0.300325
0.338273
0.400907
0.442239
0.450446
0.44598
0.439632
0.434729
0.431888
0.429619
0.427023
0.42394
0.420473
0.416703
0.412642
0.40827
0.403565
0.398512
0.393097
0.387308
0.381131
0.374549
0.367546
0.360105
0.352209
0.343837
0.334971
0.32559
0.315675
0.305203
0.294155
0.28251
0.270251
0.257357
0.243815
0.229613
0.214745
0.199208
0.18301
0.166164
0.148701
0.13066
0.112103
0.0931171
0.073819
0.0546557
0.0351572
0.0220572
2.25616
0.994432
0.300457
0.338308
0.400937
0.442272
0.45048
0.44602
0.439689
0.434798
0.43197
0.429706
0.427121
0.424043
0.420591
0.416828
0.412783
0.40842
0.403733
0.398691
0.393298
0.387524
0.38137
0.374807
0.367833
0.360416
0.352553
0.344211
0.335385
0.326043
0.316175
0.305752
0.294762
0.283178
0.270988
0.258171
0.244717
0.230614
0.215857
0.20045
0.184403
0.167741
0.150499
0.132745
0.114565
0.0961165
0.0776337
0.0598397
0.0430408
0.0335722
2.25634
0.994738
0.300728
0.338385
0.401018
0.442372
0.450583
0.446137
0.43982
0.434956
0.432139
0.429894
0.427316
0.424261
0.420819
0.417083
0.41305
0.408717
0.404045
0.399037
0.393663
0.387929
0.3818
0.375283
0.36834
0.360978
0.353154
0.344878
0.336102
0.326837
0.317033
0.306702
0.295793
0.28432
0.272234
0.259552
0.246232
0.232296
0.217716
0.202523
0.186718
0.170346
0.153462
0.136148
0.118555
0.100896
0.0835505
0.0674574
0.0533027
0.0461803
2.25659
0.995169
0.301077
0.338454
0.401103
0.442493
0.450713
0.446287
0.439982
0.43516
0.432354
0.430141
0.427572
0.424552
0.421124
0.417426
0.413413
0.409121
0.404475
0.399513
0.394173
0.38849
0.382406
0.375947
0.369061
0.361766
0.354015
0.345816
0.337131
0.327957
0.318267
0.308045
0.297278
0.285937
0.274027
0.261509
0.248408
0.234682
0.220378
0.205464
0.190016
0.174037
0.157639
0.140921
0.124072
0.107409
0.0913717
0.0770291
0.0651082
0.0594941
2.25692
0.995741
0.301521
0.338526
0.401199
0.442638
0.450882
0.446458
0.440212
0.435395
0.432649
0.430434
0.427923
0.424902
0.421538
0.417846
0.413903
0.409621
0.405053
0.400109
0.394855
0.3892
0.383213
0.376795
0.370019
0.362782
0.355156
0.347036
0.338493
0.329426
0.319898
0.309817
0.299236
0.28808
0.276388
0.264109
0.251268
0.237851
0.223869
0.209359
0.194332
0.178893
0.163088
0.147116
0.131165
0.115612
0.100984
0.0882972
0.0781876
0.0736195
2.25733
0.996468
0.302064
0.338602
0.401306
0.442816
0.451086
0.44669
0.440473
0.435707
0.432988
0.430819
0.428331
0.425361
0.422026
0.418393
0.414483
0.410271
0.405741
0.40088
0.395673
0.390116
0.384185
0.377886
0.37118
0.364084
0.356545
0.348594
0.340162
0.331296
0.321911
0.312067
0.301672
0.290795
0.279345
0.267394
0.254871
0.241844
0.22828
0.214245
0.199772
0.184938
0.169887
0.154751
0.139833
0.125479
0.112234
0.101078
0.0924443
0.0886248
2.25785
0.997359
0.302716
0.338682
0.401426
0.443026
0.451333
0.44697
0.440792
0.436082
0.433403
0.431281
0.428833
0.425915
0.422628
0.419054
0.415201
0.411056
0.406596
0.401811
0.396689
0.391222
0.385396
0.379201
0.372625
0.365651
0.358274
0.350467
0.342236
0.333542
0.324405
0.314771
0.30468
0.294064
0.282985
0.271366
0.259289
0.246691
0.233664
0.220191
0.206374
0.192282
0.178048
0.163895
0.150053
0.136958
0.125074
0.115263
0.107842
0.104622
2.25846
0.998429
0.303486
0.33877
0.401562
0.443272
0.45163
0.4473
0.441182
0.436522
0.433903
0.431827
0.429438
0.426572
0.423351
0.419839
0.416063
0.41199
0.407618
0.402922
0.397903
0.392543
0.386841
0.380777
0.374347
0.367536
0.360333
0.352727
0.344704
0.336258
0.327369
0.318042
0.308249
0.298014
0.287295
0.276149
0.264518
0.252501
0.24004
0.227275
0.214187
0.200955
0.18767
0.174546
0.161895
0.150027
0.139452
0.130888
0.124492
0.121715
2.25919
0.999689
0.304383
0.338868
0.401716
0.443561
0.451978
0.447701
0.441634
0.437054
0.434483
0.432481
0.430141
0.427356
0.424196
0.420774
0.417069
0.413099
0.408815
0.404237
0.399326
0.394105
0.388535
0.382635
0.37637
0.369753
0.362752
0.35538
0.347606
0.339442
0.330861
0.321873
0.312462
0.302635
0.292391
0.281735
0.270695
0.259274
0.247543
0.235511
0.22332
0.210999
0.198785
0.186793
0.175337
0.164783
0.155438
0.14799
0.142489
0.140144
2.26003
1.00115
0.305415
0.338976
0.401891
0.443893
0.452389
0.448157
0.442183
0.437661
0.435178
0.43323
0.430981
0.428257
0.425197
0.421849
0.418258
0.414377
0.410222
0.405754
0.400994
0.395908
0.390515
0.384784
0.378727
0.372319
0.365568
0.358452
0.350978
0.343129
0.33491
0.326312
0.317337
0.307991
0.298276
0.288214
0.277815
0.267125
0.256171
0.245037
0.233779
0.222544
0.211437
0.200702
0.190517
0.181222
0.173164
0.166806
0.162134
0.160098
2.26099
1.00283
0.306593
0.3391
0.402092
0.44428
0.452865
0.448709
0.442805
0.438389
0.435967
0.434119
0.431934
0.429321
0.426337
0.423112
0.419611
0.41587
0.411826
0.40752
0.402896
0.398
0.392776
0.387268
0.381421
0.375278
0.368785
0.361987
0.354832
0.347364
0.339539
0.331399
0.322912
0.314119
0.305006
0.295612
0.285955
0.276071
0.266026
0.255857
0.245696
0.235597
0.22577
0.216326
0.207538
0.199607
0.192762
0.187488
0.18363
0.182023
2.26207
1.00472
0.307923
0.339242
0.402321
0.444721
0.453418
0.449334
0.443548
0.439216
0.436899
0.435128
0.433053
0.430526
0.427666
0.424542
0.421182
0.41756
0.41368
0.409517
0.405086
0.400366
0.395371
0.390077
0.384503
0.378624
0.372459
0.365984
0.359223
0.352152
0.344802
0.337151
0.329238
0.321046
0.312628
0.303974
0.295156
0.286179
0.277139
0.268075
0.259095
0.250314
0.241829
0.233864
0.226513
0.220064
0.214644
0.210543
0.207567
0.206264
2.26328
1.00684
0.309407
0.339397
0.402593
0.445217
0.454053
0.450065
0.444397
0.44018
0.43796
0.436296
0.434322
0.431916
0.429169
0.426183
0.422954
0.419493
0.415767
0.411794
0.407549
0.403055
0.398284
0.393264
0.387961
0.38241
0.376576
0.370497
0.364142
0.357549
0.350696
0.343622
0.33632
0.328827
0.321158
0.313351
0.305447
0.297496
0.289563
0.281729
0.274076
0.266728
0.259803
0.25342
0.247778
0.242928
0.239021
0.236287
0.234365
0.233711
2.26461
1.00918
0.311046
0.339556
0.402919
0.445777
0.454782
0.450907
0.445374
0.44129
0.439174
0.437629
0.435767
0.433493
0.430876
0.428037
0.424959
0.421667
0.418122
0.414349
0.410323
0.406064
0.40156
0.39682
0.391844
0.386628
0.381192
0.375517
0.369645
0.363544
0.357278
0.350805
0.344213
0.33746
0.330648
0.323753
0.316882
0.310052
0.303362
0.296883
0.290715
0.284967
0.279763
0.275235
0.271477
0.268666
0.266693
0.265721
0.265189
0.265155
2.26607
1.01175
0.312849
0.339753
0.403283
0.446422
0.455626
0.451878
0.446523
0.44256
0.440579
0.439142
0.437426
0.435273
0.432819
0.430119
0.427227
0.4241
0.420772
0.417198
0.413428
0.409413
0.405213
0.400772
0.396156
0.391309
0.386302
0.381083
0.375721
0.370182
0.364527
0.358749
0.352892
0.346992
0.341073
0.335221
0.329446
0.323879
0.318541
0.313583
0.309073
0.305151
0.301924
0.29952
0.298079
0.29758
0.298077
0.299505
0.30115
0.302675
2.26766
1.01455
0.31481
0.339982
0.403703
0.447175
0.456608
0.453012
0.447858
0.44403
0.442191
0.440874
0.439307
0.437293
0.435006
0.432467
0.429764
0.426831
0.423722
0.420383
0.41687
0.413143
0.409248
0.405158
0.400907
0.396487
0.391919
0.387217
0.38239
0.377476
0.372475
0.36745
0.3624
0.357406
0.352489
0.347729
0.343196
0.338955
0.335147
0.331828
0.329177
0.327312
0.32639
0.326515
0.327915
0.330655
0.33452
0.339626
0.344725
0.348724
2.26934
1.01754
0.316914
0.340247
0.404191
0.44806
0.457758
0.454357
0.449403
0.445752
0.444033
0.442871
0.441434
0.439598
0.437458
0.435118
0.432587
0.429886
0.426985
0.42392
0.420664
0.41726
0.413681
0.409975
0.406112
0.402148
0.398058
0.393899
0.389661
0.385395
0.381119
0.376875
0.372716
0.368675
0.364847
0.361267
0.358061
0.355306
0.35312
0.351684
0.35106
0.351506
0.353199
0.356409
0.361328
0.368067
0.376899
0.387632
0.399367
0.409971
2.27111
1.02069
0.319138
0.340562
0.404771
0.449105
0.459115
0.455934
0.451212
0.447736
0.446149
0.445136
0.443851
0.442186
0.440223
0.438077
0.435754
0.433276
0.430628
0.427826
0.424875
0.421785
0.418575
0.415245
0.411829
0.408319
0.404767
0.401159
0.397567
0.393976
0.390475
0.387061
0.383833
0.38082
0.378119
0.375817
0.373996
0.372842
0.372421
0.372922
0.374586
0.377704
0.382626
0.389494
0.398921
0.411249
0.426945
0.447105
0.470988
0.498595
2.27293
1.02394
0.321418
0.340941
0.40548
0.450366
0.460759
0.457822
0.453387
0.450055
0.448614
0.44772
0.446605
0.445087
0.443322
0.441348
0.439254
0.43699
0.434613
0.432078
0.429451
0.426692
0.423866
0.420943
0.417983
0.41497
0.41196
0.40896
0.406014
0.403163
0.400441
0.397928
0.395648
0.39373
0.392203
0.391241
0.390881
0.391311
0.392696
0.395382
0.399588
0.405685
0.413891
0.425051
0.439618
0.459156
0.485081
0.520593
0.571926
0.664903
2.27501
1.02767
0.323952
0.341215
0.406281
0.451966
0.462913
0.460349
0.456262
0.453158
0.451876
0.451202
0.450303
0.449061
0.447542
0.445881
0.444075
0.442176
0.440147
0.438046
0.435838
0.433593
0.431275
0.428961
0.426616
0.424327
0.422062
0.419921
0.417881
0.416053
0.414434
0.413141
0.412214
0.411771
0.411914
0.412686
0.414248
0.417014
0.421204
0.426896
0.434587
0.444558
0.457829
0.474815
0.497602
0.527609
0.569591
0.631145
0.729822
0.881474
2.27722
1.03165
0.326962
0.342166
0.40801
0.454834
0.466503
0.464317
0.46055
0.457503
0.456264
0.455681
0.454942
0.453877
0.452577
0.451143
0.449618
0.448016
0.446347
0.44462
0.44286
0.441076
0.439302
0.437545
0.435855
0.434235
0.432752
0.431412
0.430304
0.429437
0.428929
0.428798
0.429163
0.430045
0.431682
0.43427
0.437983
0.442901
0.449466
0.457791
0.46859
0.482303
0.49981
0.52262
0.551791
0.591353
0.64391
0.718031
0.828975
0.96713
2.2785
1.03396
0.328835
0.343226
0.410173
0.45858
0.471228
0.469541
0.4661
0.463075
0.461871
0.461405
0.460832
0.459946
0.458835
0.457607
0.456317
0.45498
0.453611
0.452222
0.450837
0.449473
0.448164
0.446928
0.445806
0.444825
0.444034
0.443472
0.443202
0.443291
0.443749
0.444653
0.446238
0.448643
0.451865
0.456153
0.461587
0.468578
0.477193
0.48816
0.501493
0.518491
0.539209
0.565767
0.59904
0.641709
0.697366
0.767749
0.864162
0.967471
2.27966
1.03608
0.332149
0.346924
0.415037
0.464994
0.478237
0.476421
0.472631
0.469258
0.467979
0.467618
0.467208
0.466497
0.465592
0.464594
0.463589
0.462563
0.461551
0.46054
0.459576
0.458657
0.457834
0.457111
0.456546
0.456156
0.456011
0.456124
0.456541
0.457351
0.458725
0.460707
0.463356
0.466845
0.471238
0.47684
0.483678
0.492267
0.502616
0.515404
0.530884
0.549716
0.572836
0.600697
0.635321
0.677091
0.728923
0.790939
0.868862
0.949899
2.2761
1.02968
0.334287
0.356823
0.427458
0.479818
0.493319
0.490519
0.485517
0.481269
0.479612
0.479057
0.478485
0.477616
0.476556
0.475463
0.4744
0.473376
0.4724
0.471489
0.470664
0.469954
0.469376
0.468978
0.468782
0.468821
0.469092
0.469761
0.47084
0.472443
0.474538
0.477326
0.480774
0.48517
0.49048
0.497075
0.504975
0.514555
0.526082
0.539788
0.556353
0.575908
0.599478
0.62736
0.660589
0.700047
0.74633
0.800695
0.864199
0.928775
2.28203
1.02254
0.358738
0.382356
0.448475
0.498367
0.510278
0.506526
0.500782
0.4964
0.494699
0.49401
0.493311
0.492362
0.491296
0.49022
0.489188
0.488192
0.487254
0.486374
0.485598
0.484925
0.484412
0.484029
0.483899
0.484055
0.484601
0.485467
0.486857
0.488705
0.491256
0.494402
0.498486
0.503351
0.509462
0.516588
0.525356
0.535459
0.547707
0.561821
0.578644
0.598171
0.621056
0.647782
0.678643
0.714585
0.755556
0.802427
0.855618
0.909175
1.87633
0.772012
0.273261
0.344117
0.417755
0.441224
0.441129
0.437148
0.433504
0.43341
0.435585
0.438473
0.441473
0.444516
0.447655
0.450903
0.454221
0.457564
0.460902
0.464218
0.467492
0.470672
0.473815
0.476955
0.480148
0.483328
0.48662
0.48994
0.493563
0.497372
0.501675
0.506365
0.511801
0.517898
0.525021
0.533155
0.542607
0.553543
0.566084
0.580722
0.597299
0.616686
0.638456
0.663781
0.692058
0.72453
0.760517
0.800989
0.845796
0.890537
1.8689
0.771403
0.282165
0.355347
0.428335
0.447791
0.443317
0.435955
0.430298
0.428404
0.428316
0.42872
0.42932
0.430224
0.431572
0.433353
0.435611
0.438218
0.441295
0.44472
0.448605
0.452672
0.457149
0.461793
0.466826
0.47198
0.477519
0.483247
0.48934
0.495664
0.502397
0.509468
0.517029
0.525164
0.533962
0.543709
0.554312
0.566332
0.579525
0.594595
0.611243
0.630222
0.651263
0.675019
0.701357
0.730664
0.762976
0.798099
0.836499
0.874174
1.86794
0.77009
0.284298
0.36506
0.443619
0.463692
0.457504
0.448128
0.441122
0.438391
0.437492
0.436894
0.436306
0.435904
0.435817
0.436087
0.436717
0.437721
0.439254
0.441237
0.443725
0.446642
0.450161
0.454163
0.458797
0.463938
0.469667
0.475917
0.48271
0.490079
0.497956
0.506543
0.515633
0.525584
0.536005
0.547447
0.559506
0.572777
0.586946
0.60262
0.619547
0.638278
0.658695
0.681194
0.705729
0.732537
0.761577
0.792778
0.826391
0.858918
1.86943
0.773372
0.290093
0.367275
0.44369
0.464289
0.459065
0.450544
0.443966
0.441604
0.441129
0.440951
0.440734
0.440623
0.440708
0.441014
0.441602
0.44251
0.443698
0.445181
0.446984
0.449219
0.451859
0.455071
0.458756
0.463136
0.468048
0.473768
0.480041
0.487238
0.494983
0.503743
0.513048
0.523418
0.53443
0.546563
0.559473
0.573572
0.588568
0.604823
0.622185
0.640923
0.661008
0.682657
0.705839
0.730686
0.757132
0.785226
0.815013
0.843662
1.87254
0.780054
0.297776
0.361234
0.429068
0.450305
0.448018
0.44195
0.436342
0.434468
0.434506
0.435036
0.435624
0.436338
0.43723
0.438402
0.439863
0.441547
0.443418
0.445525
0.447869
0.450532
0.45349
0.45686
0.460597
0.464874
0.46959
0.474999
0.480925
0.487697
0.495076
0.503398
0.512436
0.522481
0.533349
0.545261
0.558085
0.572002
0.58694
0.603041
0.620266
0.63875
0.658393
0.679337
0.701456
0.724929
0.749538
0.775261
0.802275
0.828112
1.88112
0.786634
0.300026
0.349024
0.4122
0.441241
0.444209
0.439522
0.43437
0.432088
0.431844
0.432367
0.433086
0.434006
0.435102
0.436435
0.438031
0.439887
0.442
0.444397
0.447071
0.450078
0.453388
0.457088
0.461125
0.465642
0.470548
0.476049
0.48201
0.488683
0.495928
0.503985
0.512751
0.522408
0.532894
0.54436
0.556736
0.570154
0.584548
0.600038
0.616553
0.6342
0.652899
0.672749
0.693648
0.715632
0.738555
0.762378
0.787195
0.810844
2.26308
1.106
0.407186
0.399178
0.459362
0.508056
0.519345
0.514454
0.507531
0.501483
0.497967
0.495496
0.493385
0.491367
0.48934
0.487368
0.485644
0.484155
0.483008
0.482161
0.481733
0.481684
0.482139
0.483072
0.484553
0.486618
0.489303
0.492663
0.496704
0.501514
0.507072
0.513485
0.520729
0.528922
0.538016
0.548143
0.559231
0.5714
0.584573
0.598857
0.614147
0.630541
0.647916
0.666325
0.685679
0.705968
0.727093
0.748972
0.771683
0.793291
2.2725
1.12789
0.391663
0.377126
0.449992
0.510705
0.529102
0.528219
0.523996
0.520193
0.518751
0.518376
0.518361
0.518321
0.517907
0.517278
0.516606
0.515977
0.51541
0.514936
0.514569
0.514375
0.514373
0.514646
0.51523
0.516201
0.517598
0.51953
0.521994
0.525145
0.528932
0.533547
0.538905
0.54519
0.552329
0.560459
0.569554
0.579708
0.590905
0.603178
0.61655
0.630971
0.646468
0.662945
0.680374
0.698685
0.717786
0.737581
0.758138
0.777702
2.29743
1.17661
0.434243
0.383993
0.447089
0.50338
0.521856
0.522884
0.521058
0.519874
0.520293
0.521524
0.523319
0.52512
0.526528
0.527728
0.528852
0.53
0.531148
0.532329
0.533516
0.53476
0.536053
0.537456
0.53897
0.540668
0.542566
0.544738
0.54723
0.550109
0.553443
0.557281
0.561722
0.566796
0.572624
0.579214
0.586686
0.595024
0.604329
0.614575
0.625808
0.637997
0.651172
0.665317
0.680404
0.696404
0.713217
0.73069
0.748911
0.766294
1.90075
0.805028
0.305805
0.316892
0.374008
0.414893
0.429173
0.432999
0.435822
0.439473
0.444404
0.45015
0.456588
0.463082
0.46926
0.475256
0.481222
0.487184
0.493128
0.499013
0.504836
0.510574
0.516248
0.521835
0.527372
0.532834
0.53829
0.543709
0.549187
0.554712
0.560356
0.566163
0.5722
0.578531
0.58521
0.592336
0.599934
0.608125
0.616897
0.626388
0.63655
0.647524
0.659219
0.671742
0.684978
0.698945
0.713577
0.728902
0.744916
0.760231
2.30593
1.19374
0.449586
0.386637
0.440663
0.492234
0.509233
0.509293
0.506147
0.50367
0.502412
0.502228
0.502683
0.503079
0.503403
0.503907
0.504733
0.506009
0.507705
0.509863
0.512436
0.515477
0.51894
0.522866
0.52718
0.531938
0.537023
0.542525
0.548285
0.554422
0.560806
0.567547
0.574526
0.581866
0.589458
0.597441
0.60573
0.614458
0.623563
0.63316
0.643218
0.65382
0.664949
0.67664
0.688899
0.701712
0.715083
0.728925
0.743327
0.757046
2.31117
1.20372
0.432887
0.369731
0.438372
0.500628
0.52208
0.523491
0.521272
0.519802
0.51993
0.521061
0.522791
0.524295
0.52532
0.526168
0.527002
0.527951
0.529026
0.530315
0.531824
0.533638
0.535746
0.538231
0.541079
0.544354
0.548049
0.552204
0.556816
0.5619
0.567456
0.57347
0.579949
0.586868
0.594261
0.602065
0.610335
0.618993
0.628119
0.637619
0.647596
0.657941
0.668777
0.67998
0.69167
0.703724
0.716236
0.729069
0.74235
0.754952
2.31389
1.20954
0.437063
0.371772
0.441499
0.50535
0.527725
0.529406
0.527242
0.525894
0.526366
0.527883
0.530154
0.532347
0.534066
0.535595
0.537122
0.538754
0.540485
0.542347
0.544335
0.546482
0.548804
0.551333
0.554101
0.557134
0.560475
0.564138
0.568173
0.572582
0.577422
0.582678
0.588408
0.594582
0.601251
0.608376
0.616002
0.624085
0.632653
0.641672
0.65115
0.661065
0.671406
0.682162
0.693294
0.704815
0.716655
0.728831
0.741333
0.753224
2.31688
1.21727
0.463433
0.387827
0.447096
0.506222
0.52878
0.53201
0.531132
0.530761
0.531653
0.533582
0.53612
0.538418
0.540445
0.542349
0.544306
0.546348
0.548525
0.550807
0.553237
0.555788
0.558514
0.561386
0.564463
0.567722
0.571225
0.574952
0.578964
0.58325
0.587867
0.592813
0.598133
0.603831
0.609935
0.616453
0.623398
0.630789
0.638618
0.646907
0.655625
0.6648
0.674382
0.6844
0.694787
0.705563
0.716655
0.728063
0.739807
0.750983
1.90563
0.813583
0.324708
0.323678
0.376481
0.414373
0.42726
0.430302
0.432593
0.435933
0.440703
0.446614
0.453341
0.460159
0.466867
0.473527
0.480261
0.487055
0.493919
0.500798
0.507695
0.514573
0.521449
0.528298
0.535142
0.541971
0.548809
0.555655
0.562533
0.569454
0.576435
0.583507
0.590681
0.597999
0.605466
0.613136
0.621004
0.629125
0.637488
0.646136
0.65506
0.664287
0.6738
0.683623
0.693733
0.704139
0.714814
0.72575
0.736995
0.747671
2.31198
1.20858
0.464951
0.403497
0.466201
0.527384
0.54931
0.550236
0.546092
0.54226
0.540054
0.538682
0.538088
0.537692
0.536959
0.536237
0.535671
0.535519
0.535707
0.536395
0.537509
0.539122
0.541203
0.543792
0.546851
0.550408
0.554422
0.558917
0.563838
0.569206
0.574968
0.581128
0.587636
0.594503
0.601687
0.609197
0.617001
0.625104
0.633483
0.642148
0.651085
0.660298
0.669779
0.679526
0.689522
0.699757
0.710219
0.720882
0.731809
0.742172
2.29403
1.16957
0.460055
0.422685
0.485794
0.546189
0.566073
0.566112
0.562392
0.559155
0.558399
0.558802
0.559889
0.561153
0.562025
0.562664
0.563255
0.563913
0.564649
0.565473
0.566394
0.567458
0.56871
0.570194
0.571943
0.574001
0.576385
0.579128
0.582247
0.585762
0.589677
0.594015
0.598779
0.603978
0.609607
0.615665
0.622144
0.629032
0.636319
0.643988
0.652021
0.6604
0.669103
0.678115
0.687431
0.697018
0.706873
0.71696
0.72733
0.737183
1.88783
0.805071
0.340771
0.355364
0.406342
0.443121
0.452856
0.452685
0.451749
0.452601
0.455914
0.460538
0.466078
0.472142
0.478232
0.484353
0.490569
0.496889
0.503265
0.509652
0.516014
0.522339
0.528615
0.534845
0.541021
0.547154
0.553255
0.559346
0.565447
0.571591
0.577802
0.584101
0.590522
0.597082
0.603811
0.610725
0.617848
0.625189
0.632767
0.640583
0.648658
0.656985
0.665577
0.674413
0.683493
0.692807
0.702339
0.712079
0.722066
0.731559
1.87402
0.796327
0.339518
0.35666
0.398325
0.426968
0.434882
0.434835
0.433828
0.433316
0.434049
0.435683
0.43824
0.441448
0.44494
0.448772
0.453028
0.457746
0.462906
0.468488
0.474452
0.480775
0.487412
0.49434
0.501515
0.508912
0.516489
0.524228
0.532092
0.540069
0.548132
0.556292
0.564522
0.572841
0.581229
0.589715
0.598281
0.606959
0.615743
0.624641
0.633647
0.642783
0.652047
0.661454
0.670998
0.680691
0.690527
0.700501
0.710653
0.720264
1.88891
0.806045
0.345014
0.373646
0.43094
0.466892
0.47362
0.469567
0.464485
0.461383
0.460432
0.460402
0.460995
0.46196
0.462999
0.464172
0.465605
0.467366
0.469492
0.471995
0.474897
0.478209
0.481959
0.48614
0.490772
0.495837
0.501347
0.507268
0.513606
0.520321
0.527417
0.534847
0.542609
0.550661
0.558993
0.567561
0.576362
0.585353
0.594527
0.603874
0.613388
0.623045
0.632844
0.642761
0.652799
0.662938
0.673185
0.683516
0.694
0.703894
2.34071
1.12427
0.469017
0.447559
0.513127
0.574866
0.595482
0.594872
0.589573
0.584271
0.58126
0.579351
0.577786
0.576416
0.574862
0.573129
0.571357
0.569644
0.568035
0.566557
0.565235
0.564103
0.56319
0.562541
0.562186
0.562177
0.562528
0.563301
0.564488
0.566127
0.568248
0.570858
0.573983
0.577604
0.581746
0.586381
0.591524
0.597139
0.603235
0.609767
0.616733
0.624089
0.631818
0.639911
0.648325
0.657044
0.666028
0.675264
0.684761
0.693818
1.88937
0.807236
0.346153
0.36347
0.415821
0.456081
0.468552
0.469556
0.469007
0.468986
0.471273
0.47479
0.478997
0.483732
0.488555
0.493366
0.498206
0.503135
0.50811
0.513121
0.51811
0.523087
0.528011
0.53291
0.537752
0.542575
0.547354
0.552132
0.556909
0.561717
0.56656
0.571476
0.576461
0.581568
0.586796
0.592197
0.597761
0.603543
0.609524
0.61576
0.622221
0.628958
0.635944
0.643189
0.650682
0.658434
0.666425
0.674654
0.683136
0.691241
1.8891
0.807384
0.347464
0.364537
0.416094
0.454585
0.465034
0.463969
0.461094
0.458535
0.458069
0.45891
0.460496
0.462703
0.465123
0.467712
0.470581
0.473809
0.477402
0.481345
0.485611
0.490182
0.495038
0.500159
0.505525
0.511111
0.516895
0.522854
0.52897
0.535241
0.541644
0.548177
0.554828
0.561589
0.568454
0.575419
0.582486
0.589655
0.596932
0.604316
0.611817
0.61943
0.627169
0.635028
0.643024
0.651148
0.659413
0.667804
0.67637
0.684504
2.34274
1.12796
0.472701
0.449625
0.516381
0.580618
0.603065
0.603166
0.598087
0.593018
0.590236
0.588681
0.587554
0.586703
0.585701
0.584536
0.583311
0.582187
0.58115
0.580292
0.579554
0.579044
0.578699
0.57864
0.578798
0.579279
0.580044
0.581133
0.58256
0.584335
0.586465
0.58895
0.59179
0.594982
0.598528
0.602425
0.606667
0.611245
0.616151
0.621378
0.62691
0.63274
0.638851
0.645236
0.651876
0.658767
0.665888
0.67323
0.6808
0.688041
1.88982
0.808779
0.353422
0.381409
0.439685
0.479632
0.489589
0.487908
0.484863
0.483478
0.484904
0.487579
0.490927
0.494761
0.498661
0.502611
0.506674
0.510901
0.515264
0.519746
0.524308
0.528941
0.533623
0.538354
0.543123
0.547927
0.552768
0.557645
0.56257
0.567544
0.572577
0.577683
0.582863
0.588139
0.59351
0.598997
0.604596
0.610327
0.616186
0.622188
0.628337
0.634643
0.641107
0.647732
0.654521
0.661476
0.668595
0.675867
0.683322
0.690421
1.87526
0.799751
0.35115
0.378099
0.427534
0.459446
0.467093
0.465963
0.464281
0.463568
0.464095
0.465294
0.467194
0.469479
0.47183
0.474312
0.477019
0.480003
0.48327
0.48682
0.490641
0.494727
0.49907
0.503662
0.508492
0.513549
0.518821
0.524296
0.529959
0.535798
0.541801
0.54795
0.554252
0.560683
0.567253
0.573938
0.580753
0.587679
0.594728
0.601883
0.609154
0.616524
0.624005
0.631584
0.639273
0.647057
0.654951
0.662939
0.671071
0.678771
1.87423
0.799385
0.351675
0.375347
0.422432
0.4541
0.462313
0.461851
0.460734
0.460114
0.460384
0.461209
0.462692
0.464528
0.466376
0.468278
0.470334
0.47259
0.475063
0.477753
0.48067
0.483817
0.487205
0.490833
0.494709
0.49883
0.503203
0.507821
0.512688
0.517796
0.523147
0.528733
0.534552
0.540592
0.546849
0.553309
0.559968
0.566811
0.573837
0.581033
0.588397
0.595918
0.603595
0.611412
0.619363
0.627438
0.635645
0.643975
0.652461
0.660518
1.88906
0.809112
0.35485
0.362657
0.413294
0.452092
0.463034
0.46262
0.460831
0.459585
0.459621
0.460431
0.461971
0.463874
0.465702
0.467509
0.469427
0.471519
0.473804
0.476278
0.478945
0.481803
0.48486
0.488115
0.491575
0.49524
0.499116
0.503202
0.507504
0.512019
0.516753
0.521704
0.526875
0.532262
0.537867
0.543686
0.549718
0.55596
0.562409
0.569058
0.575904
0.582938
0.590154
0.597548
0.60512
0.612862
0.620765
0.628818
0.637042
0.644864
2.31231
1.20464
0.485404
0.431468
0.492566
0.556794
0.582781
0.586273
0.583609
0.580877
0.579589
0.579274
0.579764
0.580594
0.581133
0.581423
0.581656
0.581939
0.582315
0.582783
0.583349
0.584013
0.58479
0.585685
0.586716
0.587884
0.589208
0.590689
0.592345
0.594176
0.596199
0.598415
0.600839
0.603471
0.606326
0.6094
0.612709
0.616246
0.620026
0.624041
0.628303
0.632801
0.637546
0.642527
0.647753
0.653206
0.658891
0.664784
0.670915
0.676809
2.32252
1.22873
0.466084
0.405361
0.481436
0.557493
0.588657
0.593335
0.590701
0.587838
0.586851
0.587304
0.588594
0.59041
0.592092
0.593489
0.594819
0.596233
0.597786
0.599466
0.601269
0.60318
0.605209
0.607349
0.609611
0.611988
0.614491
0.617113
0.619865
0.622741
0.625751
0.62889
0.632169
0.635583
0.639143
0.642844
0.646698
0.650699
0.654859
0.659171
0.663647
0.668281
0.673085
0.678052
0.683191
0.68849
0.693957
0.699578
0.705377
0.710916
2.31272
1.20615
0.486653
0.432531
0.494346
0.559801
0.586861
0.591011
0.588959
0.586847
0.586277
0.586934
0.588443
0.590433
0.592231
0.593825
0.595399
0.597082
0.59891
0.600885
0.602994
0.605239
0.607616
0.610134
0.61279
0.615591
0.618534
0.621624
0.624858
0.628242
0.631771
0.635451
0.639277
0.643256
0.647381
0.651659
0.656084
0.660663
0.665388
0.670267
0.675291
0.680469
0.68579
0.691265
0.696881
0.702648
0.708552
0.714603
0.72081
0.726749
1.88895
0.809179
0.356054
0.364302
0.416384
0.457003
0.469101
0.469119
0.467532
0.466518
0.467163
0.468789
0.471272
0.474228
0.477162
0.480128
0.483236
0.486564
0.490107
0.493869
0.497823
0.501977
0.506312
0.510839
0.515537
0.520419
0.525463
0.53068
0.53605
0.541585
0.547263
0.553097
0.559066
0.565182
0.571425
0.577808
0.58431
0.590946
0.597694
0.60457
0.611553
0.618658
0.625863
0.633185
0.640601
0.64813
0.655751
0.663485
0.671346
0.678834
1.87422
0.800022
0.355291
0.38047
0.428584
0.460131
0.46765
0.466483
0.464742
0.46386
0.464077
0.464929
0.466471
0.468352
0.470184
0.472035
0.474
0.476139
0.47845
0.480944
0.483609
0.486459
0.489486
0.492706
0.496109
0.49971
0.503499
0.507489
0.51167
0.516053
0.520627
0.525404
0.53037
0.535537
0.540891
0.546442
0.552175
0.5581
0.564202
0.570488
0.576945
0.583579
0.590374
0.597337
0.604453
0.611727
0.619144
0.62671
0.634435
0.641797
1.87704
0.803103
0.359362
0.395137
0.451551
0.484553
0.490474
0.486943
0.482758
0.480812
0.480801
0.481597
0.483008
0.484673
0.486271
0.487893
0.489637
0.491549
0.493624
0.495862
0.498254
0.500808
0.50352
0.506399
0.509442
0.512657
0.516038
0.519596
0.523324
0.52723
0.531309
0.535569
0.540003
0.544619
0.54941
0.554382
0.559529
0.564856
0.570356
0.576034
0.581882
0.587904
0.594093
0.600451
0.606969
0.61365
0.620483
0.627469
0.634614
0.641426
1.19153
1.04879
0.497497
0.19054
0.0108982
0.108738
0.160284
0.208623
0.230209
0.234563
0.222856
0.211382
0.201056
0.19152
0.179484
0.16503
0.147698
0.127764
0.105943
0.0827986
0.0589761
0.0352622
0.0158725
0.0232585
0.0469731
0.0712771
0.0954131
0.119119
0.142433
0.165334
0.187831
0.209905
0.231536
0.252675
0.272681
0.291781
0.311317
0.331688
0.351647
0.37081
0.389318
0.407311
0.424824
0.441872
0.45844
0.474531
0.490131
0.505246
0.519859
0.533975
0.547574
0.560655
0.573196
0.58519
0.596608
0.607441
0.617651
0.627226
0.636123
0.644325
0.651786
0.658488
0.664385
0.669461
0.673678
0.677032
0.679505
0.68112
0.681884
0.682053
0.681871
0.681305
0.679959
0.677444
0.674057
0.670444
0.66676
0.663038
0.659345
0.655764
0.652393
0.649308
0.646574
0.644228
0.642299
0.640789
0.639697
0.638999
0.638666
0.638638
0.638792
0.639126
0.639757
0.640844
0.642223
0.643735
0.645278
0.646946
0.648585
0.653361
1.1219
1.03596
0.806077
0.54917
0.502164
0.431225
0.381335
0.340602
0.310336
0.291779
0.260404
0.230121
0.210547
0.208797
0.215934
0.226485
0.238943
0.252854
0.267982
0.283834
0.300209
0.316676
0.332998
0.349167
0.365896
0.382875
0.400034
0.417129
0.434222
0.451149
0.467997
0.484623
0.501116
0.517346
0.532999
0.547912
0.562907
0.578623
0.594483
0.609704
0.624418
0.638785
0.652861
0.666632
0.680081
0.693193
0.705958
0.718365
0.730407
0.742072
0.753347
0.764221
0.774676
0.784696
0.794259
0.803345
0.811927
0.819982
0.827479
0.83439
0.840683
0.846329
0.851295
0.855557
0.859085
0.861868
0.863893
0.865164
0.865712
0.865719
0.865418
0.864746
0.863383
0.860987
0.857761
0.854279
0.850722
0.84715
0.843628
0.840231
0.837046
0.834144
0.831586
0.829405
0.827626
0.826249
0.825272
0.824668
0.824433
0.824457
0.824628
0.824958
0.82552
0.82648
0.827683
0.829019
0.830335
0.831746
0.832936
0.836735
1.07462
1.07544
1.00803
0.899571
0.831133
0.780834
0.744921
0.71483
0.690015
0.671921
0.656806
0.642464
0.632465
0.627326
0.625804
0.626056
0.627553
0.629951
0.633328
0.637587
0.642698
0.648464
0.654823
0.661651
0.669205
0.677361
0.686129
0.695281
0.704853
0.714654
0.724766
0.735014
0.745505
0.756049
0.766435
0.776377
0.786452
0.797232
0.808598
0.819691
0.8305
0.841115
0.851632
0.862025
0.872301
0.882407
0.892348
0.90208
0.911613
0.920902
0.929958
0.938734
0.947236
0.955416
0.963277
0.970766
0.977885
0.984578
0.990842
0.996621
1.00191
1.00665
1.01084
1.01442
1.01739
1.01971
1.02138
1.02238
1.02273
1.02261
1.02224
1.02155
1.02023
1.01801
1.01504
1.01179
1.00844
1.00509
1.0018