/*--------------------------------*- C++ -*----------------------------------*\
| =========                 |                                                 |
| \\      /  F ield         | OpenFOAM: The Open Source CFD Toolbox           |
|  \\    /   O peration     | Version:  2412                                  |
|   \\  /    A nd           | Website:  www.openfoam.com                      |
|    \\/     M anipulation  |                                                 |
\*---------------------------------------------------------------------------*/
FoamFile
{
    version     2.0;
    format      ascii;
    arch        "LSB;label=32;scalar=64";
    class       volScalarField;
    location    "27";
    object      p;
}
// * * * * * * * * * * * * * * * * * * * * * * * * * * * * * * * * * * * * * //

dimensions      [1 -1 -2 0 0 0 0];

internalField   nonuniform List<scalar> 
7000
(
1.63885
3.7569
11.4559
11.5283
11.0978
10.6883
10.5695
10.5841
10.6251
10.6649
10.6867
10.7005
10.715
10.7327
10.753
10.7753
10.7991
10.8245
10.8517
10.8807
10.9116
10.9442
10.9787
11.0151
11.0533
11.0934
11.1352
11.1789
11.2243
11.2713
11.32
11.3701
11.4215
11.4741
11.5276
11.5818
11.6364
11.691
11.7453
11.7986
11.8506
11.9007
11.9481
11.9923
12.0326
12.0682
12.0985
12.123
12.1406
12.1535
1.63915
3.75561
11.4554
11.5277
11.0973
10.6879
10.5692
10.5838
10.6248
10.6645
10.6862
10.7
10.7145
10.7322
10.7525
10.7747
10.7985
10.8239
10.8511
10.8801
10.9109
10.9435
10.978
11.0143
11.0525
11.0925
11.1343
11.178
11.2233
11.2703
11.3189
11.369
11.4204
11.473
11.5265
11.5806
11.6352
11.6899
11.7441
11.7975
11.8496
11.8997
11.9472
11.9915
12.0319
12.0676
12.098
12.1226
12.1403
12.1533
1.63904
3.75467
11.4536
11.5268
11.0966
10.6872
10.5685
10.5831
10.624
10.6636
10.6852
10.699
10.7134
10.7311
10.7513
10.7735
10.7972
10.8225
10.8496
10.8785
10.9093
10.9418
10.9762
11.0124
11.0505
11.0904
11.1321
11.1756
11.2209
11.2677
11.3162
11.3661
11.4174
11.4698
11.5231
11.5772
11.6316
11.6861
11.7403
11.7936
11.8455
11.8956
11.9431
11.9874
12.0277
12.0635
12.0939
12.1185
12.1361
12.1491
1.63891
3.75339
11.4503
11.5257
11.0956
10.6861
10.5673
10.5819
10.6227
10.6621
10.6837
10.6973
10.7117
10.7293
10.7495
10.7715
10.7951
10.8204
10.8473
10.8761
10.9067
10.9391
10.9734
11.0095
11.0474
11.0871
11.1286
11.1719
11.2169
11.2636
11.3118
11.3615
11.4125
11.4647
11.5178
11.5716
11.6258
11.6801
11.734
11.7871
11.8389
11.8888
11.9362
11.9804
12.0207
12.0564
12.0869
12.1115
12.1289
12.1418
1.63874
3.75151
11.4455
11.5243
11.0944
10.6844
10.5656
10.5801
10.6208
10.6601
10.6815
10.695
10.7093
10.7267
10.7468
10.7687
10.7922
10.8173
10.8441
10.8727
10.9031
10.9353
10.9694
11.0052
11.0429
11.0824
11.1236
11.1666
11.2113
11.2577
11.3056
11.3549
11.4055
11.4573
11.5101
11.5635
11.6174
11.6713
11.7249
11.7777
11.8293
11.879
11.9262
11.9703
12.0105
12.0462
12.0766
12.1012
12.1186
12.1316
1.63852
3.74899
11.4392
11.5225
11.0927
10.6824
10.5633
10.5778
10.6183
10.6574
10.6786
10.692
10.7061
10.7234
10.7433
10.765
10.7883
10.8132
10.8398
10.8682
10.8983
10.9303
10.964
10.9996
11.0369
11.0761
11.117
11.1596
11.2039
11.2498
11.2972
11.3461
11.3963
11.4475
11.4998
11.5527
11.6061
11.6595
11.7126
11.765
11.8162
11.8655
11.9125
11.9564
11.9965
12.0321
12.0625
12.0871
12.1045
12.1176
1.63825
3.74576
11.4313
11.5203
11.0907
10.6797
10.5604
10.5748
10.6152
10.654
10.675
10.6882
10.7021
10.7192
10.7389
10.7604
10.7834
10.808
10.8344
10.8624
10.8923
10.9239
10.9573
10.9925
11.0294
11.0681
11.1085
11.1506
11.1944
11.2397
11.2866
11.3349
11.3844
11.435
11.4866
11.5388
11.5915
11.6443
11.6968
11.7486
11.7992
11.8481
11.8947
11.9382
11.9781
12.0136
12.0439
12.0686
12.086
12.0993
1.63794
3.74176
11.4216
11.5175
11.0882
10.6765
10.5569
10.5711
10.6113
10.6498
10.6705
10.6834
10.6971
10.714
10.7334
10.7546
10.7773
10.8017
10.8277
10.8554
10.8848
10.916
10.949
10.9837
11.0201
11.0582
11.0981
11.1396
11.1827
11.2273
11.2735
11.3209
11.3697
11.4195
11.4702
11.5216
11.5734
11.6253
11.677
11.728
11.7779
11.8261
11.8721
11.9152
11.9548
11.99
12.0203
12.045
12.0624
12.0759
1.63757
3.73696
11.4101
11.5142
11.0852
10.6727
10.5525
10.5667
10.6065
10.6447
10.6651
10.6778
10.6912
10.7077
10.7268
10.7477
10.77
10.794
10.8196
10.8469
10.8759
10.9066
10.939
10.9731
11.0089
11.0464
11.0855
11.1262
11.1685
11.2123
11.2576
11.3041
11.3519
11.4006
11.4503
11.5006
11.5513
11.6022
11.6528
11.7027
11.7517
11.799
11.8442
11.8867
11.9257
11.9606
11.9906
12.0153
12.0327
12.0466
1.63714
3.73129
11.3965
11.5104
11.0816
10.6682
10.5474
10.5614
10.6009
10.6387
10.6587
10.671
10.6841
10.7003
10.719
10.7394
10.7614
10.7849
10.81
10.8368
10.8652
10.8953
10.9271
10.9605
10.9956
11.0323
11.0706
11.1104
11.1517
11.1945
11.2387
11.2841
11.3306
11.3782
11.4265
11.4755
11.5248
11.5743
11.6235
11.6722
11.7198
11.7659
11.8101
11.8516
11.8899
11.9242
11.9539
11.9785
11.9959
12.0101
1.63665
3.7247
11.3807
11.5059
11.0776
10.6629
10.5414
10.5552
10.5942
10.6316
10.6512
10.6631
10.6758
10.6915
10.7098
10.7298
10.7513
10.7742
10.7988
10.825
10.8528
10.8822
10.9132
10.9458
10.98
11.0158
11.0531
11.0919
11.1321
11.1736
11.2165
11.2605
11.3056
11.3517
11.3984
11.4458
11.4935
11.5412
11.5887
11.6356
11.6816
11.7261
11.7687
11.8089
11.8461
11.8796
11.9086
11.933
11.9503
11.965
1.6361
3.71716
11.3628
11.5007
11.0728
10.6568
10.5345
10.548
10.5865
10.6233
10.6425
10.6539
10.6661
10.6814
10.6992
10.7186
10.7395
10.7619
10.7858
10.8113
10.8383
10.867
10.8971
10.9288
10.962
10.9967
11.0329
11.0704
11.1093
11.1494
11.1908
11.2332
11.2766
11.3208
11.3657
11.4111
11.4567
11.5023
11.5476
11.5923
11.6361
11.6785
11.7191
11.7574
11.7929
11.825
11.8531
11.8769
11.8939
11.909
1.63548
3.70864
11.3424
11.4948
11.0674
10.6499
10.5265
10.5397
10.5776
10.6138
10.6325
10.6434
10.655
10.6698
10.687
10.7058
10.7261
10.7477
10.7709
10.7956
10.8218
10.8495
10.8787
10.9094
10.9414
10.9749
11.0097
11.0458
11.0831
11.1216
11.1612
11.2017
11.2431
11.2852
11.3278
11.3708
11.4139
11.4569
11.4995
11.5414
11.5823
11.6219
11.6596
11.6953
11.7283
11.7582
11.7845
11.8072
11.8238
11.8394
1.6348
3.69907
11.3197
11.4881
11.0613
10.6422
10.5174
10.5302
10.5674
10.6029
10.621
10.6313
10.6424
10.6565
10.673
10.6912
10.7107
10.7316
10.754
10.7778
10.8031
10.8297
10.8578
10.8872
10.918
10.95
10.9833
11.0178
11.0534
11.09
11.1275
11.1658
11.2049
11.2445
11.2844
11.3245
11.3646
11.4043
11.4435
11.4819
11.5191
11.5549
11.5888
11.6206
11.6499
11.6765
11.7
11.7206
11.7359
11.7518
1.63408
3.68844
11.2947
11.4805
11.0543
10.6336
10.5072
10.5195
10.5558
10.5905
10.6079
10.6176
10.628
10.6414
10.6573
10.6747
10.6934
10.7134
10.7349
10.7577
10.7819
10.8074
10.8342
10.8623
10.8916
10.922
10.9536
10.9862
11.0198
11.0542
11.0894
11.1252
11.1615
11.1982
11.2349
11.2716
11.308
11.3439
11.3789
11.4128
11.4453
11.476
11.5046
11.5309
11.5547
11.5759
11.5945
11.6112
11.624
11.6402
1.63329
3.67683
11.2673
11.4721
11.0467
10.6239
10.4956
10.5074
10.5426
10.5765
10.5931
10.6021
10.6118
10.6244
10.6395
10.656
10.6739
10.693
10.7134
10.7351
10.7581
10.7823
10.8077
10.8343
10.862
10.8906
10.9203
10.9508
10.9821
11.0141
11.0466
11.0795
11.1127
11.1459
11.179
11.2117
11.2438
11.2749
11.3047
11.333
11.3593
11.3833
11.4048
11.4233
11.439
11.4518
11.4623
11.4717
11.479
11.4938
1.63243
3.66428
11.2375
11.463
11.0383
10.6131
10.4826
10.4937
10.5276
10.5605
10.5764
10.5847
10.5936
10.6054
10.6195
10.6352
10.6521
10.6701
10.6894
10.7099
10.7316
10.7544
10.7783
10.8032
10.829
10.8557
10.8832
10.9114
10.9402
10.9694
10.9989
11.0285
11.0581
11.0875
11.1163
11.1443
11.1712
11.1966
11.2202
11.2414
11.2599
11.2752
11.2869
11.2945
11.2977
11.297
11.2936
11.2892
11.2853
11.296
1.63153
3.65091
11.2056
11.4532
11.0291
10.6012
10.468
10.4783
10.5107
10.5425
10.5576
10.565
10.5731
10.584
10.5972
10.6119
10.6278
10.6447
10.6628
10.682
10.7022
10.7235
10.7457
10.7687
10.7926
10.8171
10.8422
10.8678
10.8937
10.9199
10.946
10.972
10.9976
11.0224
11.0464
11.0689
11.0898
11.1085
11.1245
11.1371
11.1459
11.1498
11.1482
11.1412
11.1263
11.1044
11.0765
11.0458
11.0156
11.0119
1.63059
3.63688
11.1722
11.4427
11.0192
10.5879
10.4516
10.461
10.4916
10.5224
10.5366
10.5432
10.5504
10.5604
10.5726
10.5862
10.6009
10.6167
10.6334
10.6512
10.6699
10.6895
10.7098
10.7309
10.7525
10.7747
10.7972
10.8199
10.8428
10.8655
10.8879
10.9098
10.9309
10.9508
10.9692
10.9856
10.9995
11.0103
11.0174
11.0194
11.0165
11.007
10.9876
10.9585
10.9177
10.8634
10.7942
10.7122
10.6217
10.5663
1.62964
3.62248
11.138
11.4316
11.0084
10.5731
10.4329
10.4411
10.4697
10.4992
10.5127
10.5185
10.5248
10.5338
10.545
10.5576
10.5712
10.5856
10.601
10.6173
10.6343
10.6521
10.6704
10.6893
10.7086
10.7281
10.7478
10.7675
10.7869
10.806
10.8243
10.8417
10.8578
10.8721
10.8843
10.8938
10.9
10.9014
10.8987
10.8897
10.8711
10.8429
10.8021
10.7458
10.669
10.5659
10.4279
10.247
10.0132
9.75879
1.62883
3.60418
11.0973
11.4184
10.9947
10.5538
10.4081
10.4147
10.4405
10.4688
10.4814
10.4863
10.4915
10.4992
10.5091
10.5203
10.5323
10.5452
10.5588
10.5731
10.588
10.6035
10.6193
10.6355
10.6517
10.668
10.6841
10.6999
10.715
10.7293
10.7425
10.7541
10.7638
10.7711
10.7753
10.7752
10.7723
10.7635
10.7455
10.7187
10.6809
10.6288
10.5581
10.462
10.3311
10.1487
9.88563
9.48043
8.78207
7.25986
1.62804
3.58469
11.0542
11.4012
10.9756
10.5255
10.3719
10.3765
10.3991
10.4265
10.439
10.4434
10.4477
10.4542
10.4628
10.4726
10.4831
10.4941
10.5057
10.5178
10.5303
10.543
10.5559
10.5687
10.5814
10.5938
10.6056
10.6167
10.6267
10.6353
10.6423
10.6471
10.6489
10.6479
10.6437
10.6338
10.6168
10.5923
10.5586
10.5129
10.4524
10.3722
10.2657
10.1234
9.93034
9.66266
9.27883
8.70989
7.8676
6.48135
1.62758
3.57342
11.0293
11.3896
10.9602
10.4971
10.3328
10.3349
10.3537
10.381
10.3935
10.3972
10.4003
10.4056
10.4128
10.421
10.4299
10.4391
10.4486
10.4584
10.4683
10.4782
10.488
10.4975
10.5065
10.5148
10.5222
10.5284
10.5332
10.536
10.5362
10.5347
10.5299
10.5197
10.5042
10.4828
10.4539
10.4157
10.3661
10.3021
10.2196
10.1138
9.97647
9.7978
9.56245
9.24925
8.829
8.26146
7.52962
6.55667
1.62694
3.56421
11.006
11.3682
10.9321
10.4517
10.2778
10.28
10.3003
10.331
10.3449
10.3485
10.3507
10.3549
10.3611
10.3682
10.3755
10.3829
10.3903
10.3978
10.4051
10.4122
10.4189
10.425
10.4303
10.4346
10.4376
10.439
10.4386
10.4365
10.4312
10.4217
10.4083
10.39
10.3658
10.3346
10.2946
10.2442
10.1808
10.1014
10.0019
9.87741
9.72093
9.52373
9.27466
8.95989
8.56484
8.07378
7.49345
6.76442
1.62767
3.59857
11.0675
11.3655
10.9047
10.386
10.2008
10.2061
10.2343
10.2721
10.2886
10.2921
10.2938
10.2975
10.3031
10.3093
10.3153
10.3212
10.3269
10.3324
10.3374
10.342
10.3459
10.3489
10.3508
10.3513
10.3506
10.3483
10.3432
10.335
10.3236
10.3083
10.2884
10.2632
10.2313
10.1917
10.1426
10.0823
10.0084
9.91815
9.8079
9.67335
9.50915
9.30901
9.06563
8.77128
8.41871
8.00075
7.51983
6.96883
1.58996
3.70903
11.0723
11.2744
10.8239
10.3046
10.1317
10.1418
10.1783
10.2183
10.2347
10.2385
10.2405
10.2442
10.249
10.2539
10.2584
10.2624
10.266
10.2691
10.2716
10.2733
10.2741
10.2739
10.2728
10.2699
10.2647
10.2574
10.2476
10.2347
10.2182
10.1976
10.172
10.1407
10.1023
10.0559
9.99987
9.93244
9.85164
9.75492
9.63942
9.5017
9.3379
9.14369
8.91464
8.64628
8.33528
7.97898
7.57935
7.13171
1.55515
4.81621
11.2234
10.9534
10.3122
10.0553
10.051
10.0776
10.1249
10.1515
10.1611
10.1654
10.1696
10.1747
10.1798
10.1844
10.1882
10.1913
10.1937
10.1953
10.1959
10.1957
10.1947
10.1922
10.1877
10.1817
10.174
10.1639
10.1508
10.1343
10.1139
10.0888
10.0586
10.0224
9.97915
9.92776
9.86696
9.79517
9.7106
9.61121
9.49472
9.35857
9.20001
9.01615
8.80429
8.56198
8.28778
7.98167
7.645
7.27054
1.55604
4.82318
11.1732
10.8843
10.2396
10.0003
10.0105
10.053
10.1015
10.1232
10.1292
10.1317
10.1347
10.1379
10.1405
10.1421
10.1428
10.1427
10.142
10.1402
10.1371
10.1332
10.1283
10.122
10.114
10.1042
10.0919
10.0772
10.0597
10.0389
10.0145
9.98587
9.95214
9.91227
9.86532
9.81045
9.74644
9.67204
9.58587
9.48628
9.37153
9.23971
9.08893
8.91722
8.72299
8.5048
8.26195
7.99393
7.70705
7.39102
1.5662
4.8423
11.2357
10.9042
10.1833
9.92287
9.93799
9.99275
10.0501
10.0745
10.0808
10.0836
10.0869
10.0903
10.0926
10.0936
10.0935
10.0925
10.0901
10.086
10.0808
10.0745
10.0668
10.0575
10.0463
10.033
10.0175
9.99936
9.97839
9.95413
9.92592
9.89312
9.85518
9.81168
9.76189
9.70478
9.63941
9.56435
9.4784
9.38031
9.26892
9.14273
9.00059
8.84115
8.66345
8.46679
8.25151
8.01739
7.76829
7.49787
1.55651
4.82048
11.1598
10.8524
10.1593
9.89809
9.91017
9.95947
10.0157
10.0399
10.0455
10.047
10.0489
10.0508
10.0515
10.0511
10.0495
10.0461
10.0413
10.0354
10.0283
10.0198
10.0097
9.99788
9.98406
9.96806
9.94962
9.92853
9.90439
9.87691
9.84553
9.80983
9.76936
9.72339
9.6713
9.61216
9.54526
9.46979
9.38495
9.28965
9.18295
9.06362
8.93065
8.78322
8.62104
8.44406
8.25245
8.04562
7.82723
7.5925
1.52734
4.76286
10.9523
10.7278
10.1508
9.90268
9.90362
9.93305
9.98171
10.005
10.0107
10.0115
10.0121
10.0124
10.0119
10.0102
10.0066
10.0014
9.99521
9.98781
9.97899
9.9686
9.95645
9.94245
9.92634
9.90805
9.88722
9.86371
9.83708
9.80711
9.77339
9.73549
9.69295
9.64518
9.5917
9.53184
9.46495
9.39032
9.30723
9.21486
9.11239
8.99927
8.875
8.7391
8.59107
8.43061
8.25784
8.07489
7.88219
7.67621
1.51127
4.71735
10.8691
10.7328
10.234
9.94127
9.88952
9.90786
9.94731
9.9714
9.97812
9.97784
9.97667
9.97436
9.97146
9.96763
9.96254
9.95618
9.94852
9.93954
9.92905
9.91697
9.90309
9.88736
9.86951
9.84943
9.82679
9.80147
9.77307
9.74134
9.70597
9.66655
9.62277
9.5741
9.52005
9.46013
9.39387
9.32067
9.23999
9.15118
9.05372
8.94711
8.83097
8.70496
8.56898
8.4231
8.26766
8.10334
7.93137
7.74878
1.6681
3.2928
10.5076
11.013
10.597
10.0773
9.88917
9.89314
9.91841
9.95146
9.96216
9.961
9.95704
9.95068
9.94484
9.93891
9.932
9.92374
9.91409
9.90301
9.89045
9.87624
9.86022
9.84241
9.82253
9.80039
9.77571
9.74838
9.71805
9.68452
9.64748
9.60658
9.56147
9.51176
9.45708
9.39708
9.33141
9.25962
9.18127
9.09594
9.00314
8.90255
8.79393
8.67702
8.55183
8.41849
8.27731
8.12878
7.97406
7.81068
1.67602
3.1692
10.4418
11.1647
10.7159
10.1122
9.86739
9.85456
9.8723
9.90448
9.91491
9.91304
9.90703
9.89768
9.89005
9.88351
9.87656
9.86836
9.85869
9.84754
9.83486
9.82051
9.80436
9.78621
9.76594
9.74336
9.71819
9.69032
9.65942
9.62536
9.5878
9.54656
9.50137
9.45195
9.39807
9.33928
9.2752
9.20548
9.12981
9.04779
8.95917
8.86382
8.76167
8.65287
8.53724
8.41485
8.28592
8.15087
8.01069
7.86324
1.64118
3.05469
9.91299
11.0087
10.6487
10.1098
9.88666
9.86581
9.87679
9.8951
9.89676
9.89281
9.88266
9.86929
9.85812
9.84841
9.83862
9.82786
9.81588
9.80264
9.78807
9.77204
9.75436
9.73488
9.7134
9.68976
9.66377
9.63516
9.60368
9.56916
9.5314
9.49018
9.44525
9.39633
9.34316
9.28544
9.22288
9.15524
9.08229
9.00389
8.91996
8.83026
8.73462
8.63286
8.52491
8.41113
8.29235
8.16888
8.04119
7.90734
1.43607
4.54912
10.3368
10.5123
10.2198
9.92516
9.81718
9.81456
9.82284
9.83335
9.83326
9.82972
9.82067
9.80871
9.79845
9.78933
9.77983
9.76921
9.75731
9.74411
9.72956
9.7135
9.69578
9.67623
9.65471
9.63103
9.60505
9.5765
9.54522
9.51111
9.47391
9.43339
9.38933
9.34152
9.28975
9.23378
9.17339
9.1084
9.03865
8.964
8.88432
8.79949
8.70945
8.61422
8.51419
8.40945
8.29988
8.18573
8.06798
7.94519
1.63352
3.00322
9.72791
10.8965
10.5816
10.0814
9.86188
9.82762
9.83297
9.83946
9.8367
9.82754
9.81086
9.79506
9.78145
9.76889
9.75606
9.74223
9.7272
9.7111
9.69391
9.67543
9.65546
9.63384
9.6104
9.58503
9.55754
9.52789
9.49592
9.46131
9.42384
9.38334
9.33963
9.29256
9.24192
9.18748
9.12906
9.06649
8.99964
8.92839
8.85264
8.77238
8.68759
8.59832
8.50472
8.40689
8.305
8.19942
8.09077
7.97778
1.64238
2.93511
9.72931
11.0214
10.64
10.0491
9.79188
9.75838
9.76853
9.78418
9.78309
9.77595
9.75999
9.74289
9.72905
9.71692
9.70467
9.69158
9.67745
9.66208
9.64531
9.6271
9.60735
9.58594
9.56274
9.53761
9.51038
9.48094
9.44912
9.41476
9.3777
9.33783
9.29496
9.24885
9.19938
9.14645
9.08992
9.02967
8.96561
8.89763
8.8257
8.74974
8.66975
8.58581
8.49798
8.4064
8.31129
8.21308
8.11221
8.00743
1.64069
2.9158
9.6748
10.9998
10.615
10.009
9.74241
9.70731
9.71846
9.73678
9.73628
9.73004
9.71506
9.69746
9.68333
9.67127
9.65918
9.64611
9.63184
9.61629
9.59941
9.58111
9.56131
9.53987
9.51667
9.49159
9.4645
9.43526
9.40375
9.36983
9.33338
9.29424
9.2523
9.20738
9.15938
9.10817
9.05368
8.99582
8.93451
8.86969
8.80131
8.72932
8.65375
8.57467
8.49217
8.40642
8.31747
8.22567
8.1315
8.03379
1.62633
2.92435
9.50671
10.8594
10.5494
9.99839
9.74281
9.69494
9.69965
9.70794
9.70562
9.69708
9.67986
9.66313
9.64881
9.63572
9.6225
9.60845
9.59334
9.57709
9.55963
9.54087
9.52066
9.49891
9.47549
9.45028
9.42315
9.394
9.36271
9.32916
9.29321
9.25473
9.21363
9.16981
9.12319
9.0737
9.02122
8.96564
8.90691
8.84501
8.77989
8.71155
8.64
8.5653
8.48755
8.40687
8.3235
8.23752
8.14926
8.05767
1.39431
4.48176
10.0359
10.3046
10.0239
9.7363
9.62844
9.61929
9.6247
9.63127
9.6302
9.62498
9.61365
9.60094
9.58948
9.57862
9.56727
9.55482
9.54109
9.52603
9.50962
9.49179
9.47245
9.45154
9.42895
9.40456
9.37828
9.35
9.31964
9.28713
9.25233
9.21515
9.17551
9.13331
9.08849
9.04096
8.99063
8.93744
8.88137
8.82238
8.76049
8.69571
8.62803
8.55749
8.48413
8.40805
8.32946
8.24841
8.16528
8.07909
1.63155
2.94804
9.59397
10.8427
10.4986
9.90979
9.63631
9.59397
9.60427
9.62471
9.62629
9.62162
9.60922
9.5919
9.57697
9.56385
9.55063
9.53637
9.5208
9.5039
9.48578
9.46625
9.44536
9.4231
9.3994
9.37413
9.34714
9.31833
9.2876
9.25483
9.22002
9.18313
9.1441
9.1028
9.05916
9.01308
8.96451
8.91338
8.85965
8.80324
8.74413
8.68232
8.61785
8.55078
8.4812
8.40922
8.33496
8.25849
8.18004
8.09871
1.6418
3.07748
9.86676
10.7746
10.3921
9.78026
9.51838
9.49823
9.51555
9.54835
9.55781
9.55515
9.54678
9.53255
9.52006
9.50918
9.49811
9.48581
9.47205
9.45692
9.44057
9.42293
9.4038
9.38305
9.36058
9.33638
9.31042
9.28267
9.25305
9.22155
9.18807
9.15254
9.11488
9.075
9.03286
8.98839
8.94156
8.89233
8.84066
8.78654
8.72999
8.67104
8.60971
8.54595
8.47985
8.41149
8.34095
8.26835
8.1939
8.11673
1.40445
4.54566
10.1046
10.1595
9.85377
9.54641
9.44685
9.45216
9.47153
9.49151
9.49724
9.49572
9.49068
9.48122
9.47188
9.46281
9.45304
9.44193
9.42935
9.41533
9.39988
9.38296
9.36449
9.34441
9.32267
9.29926
9.27413
9.24726
9.21855
9.18796
9.1555
9.1211
9.0847
9.04624
9.00567
8.96294
8.91801
8.87085
8.82144
8.76976
8.7158
8.65956
8.60108
8.54043
8.47764
8.41277
8.34588
8.27702
8.20635
8.13309
1.3884
4.55538
10.0009
10.0257
9.78387
9.55163
9.46924
9.4666
9.47277
9.48218
9.48387
9.48179
9.47584
9.4658
9.45549
9.44508
9.43387
9.42148
9.40779
9.39282
9.37655
9.35897
9.34002
9.31963
9.29775
9.27433
9.24932
9.22268
9.19437
9.16435
9.13251
9.09881
9.06319
9.0256
8.98602
8.94439
8.90068
8.85484
8.80695
8.75708
8.70519
8.6512
8.59513
8.53701
8.47685
8.41468
8.3506
8.28472
8.21719
8.14726
1.42154
4.56883
10.2128
10.1826
9.79854
9.46315
9.37
9.38196
9.41316
9.43763
9.44455
9.44317
9.43856
9.42995
9.42099
9.41188
9.40191
9.39062
9.37787
9.36367
9.34804
9.33093
9.31236
9.2923
9.27075
9.24767
9.22301
9.19675
9.16887
9.13934
9.10809
9.07508
9.04025
9.00362
8.96518
8.92489
8.88275
8.83878
8.79286
8.74492
8.69498
8.6431
8.58929
8.53357
8.47597
8.41652
8.35528
8.2923
8.22769
8.16063
1.53229
3.35225
9.88908
10.707
10.3191
9.67695
9.39311
9.36729
9.38494
9.4208
9.43495
9.43392
9.42926
9.41948
9.40902
9.39902
9.38857
9.37693
9.36384
9.34932
9.33341
9.31614
9.29748
9.27737
9.25577
9.23266
9.20793
9.18158
9.15371
9.12422
9.09305
9.06018
9.02563
8.9894
8.95145
8.91176
8.87033
8.82714
8.78216
8.73537
8.68681
8.63651
8.58435
8.53039
8.47472
8.4174
8.35846
8.29795
8.23599
8.17186
1.39677
4.53415
10.0664
10.0953
9.79224
9.46716
9.34517
9.34362
9.35502
9.37648
9.38531
9.38461
9.38109
9.37343
9.36447
9.35571
9.34652
9.33616
9.32436
9.31111
9.29644
9.28037
9.26287
9.2439
9.22342
9.20141
9.17784
9.1527
9.12602
9.09777
9.06794
9.03654
9.0035
8.96877
8.93232
8.89414
8.85423
8.81258
8.7692
8.72407
8.67719
8.62855
8.57828
8.52639
8.47289
8.41778
8.36112
8.30296
8.24344
8.182
1.39416
4.53126
10.0489
10.0824
9.77565
9.44779
9.32758
9.32788
9.34046
9.36321
9.3726
9.37171
9.36765
9.35906
9.34939
9.3399
9.32994
9.31883
9.30632
9.29243
9.27723
9.26072
9.2429
9.22375
9.20323
9.18131
9.15803
9.13333
9.10713
9.07936
9.05002
9.01907
8.98654
8.95246
8.91681
8.87957
8.84072
8.80023
8.75811
8.71435
8.66897
8.62197
8.57338
8.52321
8.47148
8.41822
8.36346
8.30724
8.24965
8.1902
1.53047
3.34025
9.84963
10.6879
10.3016
9.63715
9.33335
9.29765
9.3142
9.34899
9.3642
9.3633
9.35873
9.34888
9.33806
9.3281
9.31804
9.30699
9.29457
9.28079
9.26568
9.24927
9.23153
9.21245
9.19197
9.17002
9.14675
9.12204
9.09584
9.06814
9.03893
9.00819
8.97597
8.94226
8.90705
8.8703
8.83203
8.79222
8.75087
8.70798
8.66356
8.61762
8.57017
8.52123
8.47082
8.419
8.36575
8.31116
8.25531
8.1978
1.40816
4.54769
10.1187
10.0924
9.70691
9.35406
9.2439
9.25316
9.28245
9.31142
9.32101
9.32009
9.3162
9.30813
9.29948
9.291
9.28196
9.27175
9.26018
9.24725
9.23303
9.21752
9.2007
9.18256
9.16307
9.1422
9.11997
9.09633
9.07126
9.04474
9.01675
8.98733
8.95646
8.92411
8.89027
8.85493
8.81809
8.77975
8.73993
8.69859
8.65572
8.61132
8.56543
8.51806
8.46926
8.41902
8.36736
8.31437
8.26015
8.20429
1.39311
4.55548
10.0078
9.982
9.66892
9.38855
9.30008
9.3031
9.31527
9.32608
9.32662
9.32412
9.31751
9.30741
9.29738
9.28746
9.27694
9.2654
9.2527
9.23883
9.22379
9.2076
9.19024
9.17167
9.15187
9.13082
9.10848
9.08485
9.05991
9.03364
9.00603
8.97704
8.94662
8.91476
8.88145
8.84668
8.81044
8.77274
8.73358
8.69298
8.65096
8.60753
8.56266
8.51638
8.4687
8.41963
8.36922
8.31746
8.2644
8.20957
1.38515
4.54776
9.95914
9.94774
9.65903
9.3873
9.29504
9.29436
9.30051
9.30822
9.30828
9.30602
9.29987
9.28996
9.28003
9.27022
9.25987
9.24857
9.23618
9.2227
9.20811
9.19239
9.17548
9.15738
9.13804
9.11746
9.0956
9.07246
9.048
9.02222
8.99509
8.9666
8.93672
8.90545
8.87278
8.83873
8.80329
8.76644
8.72817
8.68848
8.64737
8.60484
8.56091
8.51558
8.46891
8.42094
8.37163
8.32095
8.26894
8.21513
1.37724
4.50928
9.9196
10.0317
9.73132
9.40344
9.2822
9.27818
9.28678
9.29913
9.30123
9.29888
9.29219
9.28114
9.27042
9.26028
9.2498
9.23839
9.22586
9.21222
9.19747
9.18159
9.16457
9.14639
9.12702
9.10644
9.08463
9.06158
9.03727
9.01167
8.98478
8.95658
8.92705
8.89618
8.86397
8.83041
8.79548
8.75918
8.72151
8.68246
8.64205
8.60029
8.5572
8.51279
8.46704
8.41992
8.37149
8.32178
8.27085
8.21832
1.62614
2.96911
9.522
10.6177
10.2732
9.64748
9.33805
9.27225
9.27981
9.29802
9.30546
9.3032
9.29565
9.28127
9.26808
9.25676
9.2459
9.23435
9.22171
9.20793
9.19307
9.17713
9.1601
9.14194
9.12262
9.10212
9.08042
9.05748
9.0333
9.00786
8.98114
8.95312
8.92379
8.89315
8.86117
8.82786
8.79321
8.75721
8.71987
8.68119
8.64117
8.59983
8.55716
8.5132
8.46793
8.42139
8.37364
8.32474
8.27474
8.22335
1.63546
2.85387
9.48441
10.8213
10.4149
9.67679
9.3097
9.23176
9.24232
9.26828
9.28293
9.28171
9.27557
9.26218
9.24806
9.23649
9.22605
9.21513
9.20305
9.18974
9.17531
9.15979
9.14319
9.12548
9.10663
9.0866
9.06538
9.04295
9.0193
8.9944
8.96825
8.94082
8.9121
8.88208
8.85076
8.81813
8.78417
8.74889
8.71229
8.67436
8.63511
8.59454
8.55267
8.50947
8.46499
8.41926
8.37231
8.32418
8.27496
8.22439
1.62646
2.96235
9.50652
10.6082
10.2637
9.63139
9.31387
9.24626
9.25465
9.27526
9.28542
9.28354
9.27648
9.26206
9.2482
9.23649
9.22554
9.21403
9.20146
9.18777
9.17303
9.15726
9.14046
9.12259
9.10362
9.08353
9.06228
9.03987
9.01626
8.99145
8.9654
8.93812
8.90957
8.87976
8.84867
8.81628
8.7826
8.74762
8.71133
8.67374
8.63485
8.59465
8.55317
8.5104
8.46636
8.42106
8.37454
8.3268
8.27792
8.22748
1.37421
4.50589
9.90018
10.012
9.70752
9.36542
9.23674
9.2323
9.24182
9.25637
9.25949
9.25727
9.25076
9.23979
9.22918
9.21924
9.20905
9.198
9.18587
9.17269
9.15848
9.14323
9.12695
9.10959
9.09113
9.07155
9.05082
9.02893
9.00586
8.98158
8.95609
8.92936
8.90139
8.87215
8.84164
8.80985
8.77677
8.74239
8.70671
8.66973
8.63145
8.59186
8.55097
8.50879
8.46534
8.42063
8.37466
8.32743
8.27893
8.22868
1.37998
4.54113
9.92467
9.90719
9.60732
9.33025
9.24237
9.24467
9.25538
9.26535
9.26558
9.26299
9.25604
9.2452
9.23459
9.22431
9.21361
9.20202
9.18942
9.17582
9.16124
9.14565
9.12904
9.11138
9.09265
9.07281
9.05186
9.02977
9.00651
8.98208
8.95645
8.92961
8.90155
8.87224
8.84169
8.80987
8.77679
8.74243
8.70679
8.66987
8.63167
8.59218
8.55143
8.5094
8.46612
8.42159
8.37584
8.32886
8.28069
8.23099
1.40417
4.5624
10.0551
9.98767
9.59231
9.27626
9.19346
9.20507
9.23479
9.2552
9.25775
9.2551
9.24807
9.23768
9.22773
9.21804
9.20778
9.19651
9.18417
9.17081
9.15645
9.14108
9.12467
9.10721
9.08868
9.06904
9.04828
9.02638
9.00332
8.97908
8.95365
8.92701
8.89914
8.87003
8.83967
8.80805
8.77516
8.741
8.70556
8.66883
8.63082
8.59153
8.55097
8.50914
8.46605
8.42172
8.37616
8.32941
8.28151
8.23223
3.04434
2.45922
3.00486
4.18131
4.12733
4.11036
4.04946
4.01177
3.99889
4.00167
4.02935
4.07304
4.11017
4.14086
4.17484
4.21754
4.2692
4.32727
4.38891
4.4518
4.51421
4.57494
4.63346
4.69038
4.74134
4.78666
4.82632
4.86071
4.88982
4.91383
4.93279
4.94685
4.95616
4.96092
4.96133
4.9597
4.95437
4.94308
4.92765
4.90989
4.88988
4.86756
4.84306
4.81662
4.78855
4.75908
4.72849
4.69701
4.66488
4.63232
4.59954
4.56676
4.53417
4.50199
4.47041
4.43963
4.40985
4.38127
4.35409
4.3285
4.30469
4.28286
4.26318
4.24582
4.23094
4.21865
4.20905
4.20217
4.19799
4.19655
4.19678
4.19789
4.20096
4.20773
4.21951
4.23257
4.24596
4.25953
4.27313
4.28647
4.2992
4.31099
4.3216
4.33083
4.33858
4.34481
4.3495
4.35272
4.35454
4.35515
4.35508
4.3547
4.35365
4.35135
4.34741
4.34304
4.33853
4.33383
4.32879
4.32436
4.09686
3.5551
3.75772
4.23589
4.15299
4.09625
4.03687
3.99642
3.9848
3.99705
4.03827
4.08879
4.12058
4.14247
4.17148
4.2124
4.26368
4.32171
4.38322
4.44602
4.50833
4.5692
4.62801
4.68466
4.73569
4.78102
4.8208
4.85532
4.88457
4.90871
4.92777
4.94195
4.95133
4.95612
4.95634
4.95516
4.95089
4.94089
4.92393
4.90556
4.88571
4.86372
4.83947
4.8132
4.78524
4.75589
4.72541
4.69404
4.66202
4.62955
4.59687
4.56417
4.53166
4.49955
4.46803
4.43731
4.40758
4.37904
4.35189
4.32632
4.30254
4.28073
4.26107
4.24373
4.22888
4.21664
4.2071
4.20032
4.19637
4.19543
4.19572
4.1969
4.19997
4.20664
4.2185
4.23187
4.24561
4.25946
4.27327
4.28677
4.29963
4.31155
4.32224
4.33154
4.33932
4.34555
4.35023
4.35339
4.35518
4.35569
4.3556
4.35522
4.35418
4.35192
4.34787
4.34337
4.33878
4.33417
4.32936
4.32655
5.22638
4.46542
4.23743
4.26917
4.24987
4.19729
4.11507
4.062
4.04199
4.04449
4.05706
4.08642
4.12169
4.15312
4.18619
4.22683
4.2758
4.33136
4.39074
4.45166
4.51242
4.57186
4.62915
4.68366
4.73383
4.77867
4.81802
4.85207
4.88089
4.90462
4.92332
4.93714
4.94617
4.95053
4.95045
4.94936
4.94571
4.93709
4.91981
4.90045
4.88
4.8579
4.83377
4.80765
4.77982
4.75058
4.7202
4.68894
4.65703
4.62469
4.59212
4.55953
4.52714
4.49512
4.4637
4.43307
4.40343
4.37497
4.3479
4.32241
4.2987
4.27696
4.25738
4.24013
4.22537
4.21326
4.20389
4.19739
4.19388
4.19359
4.19395
4.19525
4.19847
4.2053
4.21711
4.23074
4.24499
4.25938
4.27364
4.28749
4.30064
4.31277
4.32363
4.33303
4.34086
4.34709
4.35171
4.35478
4.35646
4.35677
4.35665
4.35621
4.35509
4.3527
4.34855
4.34391
4.33921
4.33466
4.33006
4.32899
5.82983
5.09683
4.66448
4.46783
4.42903
4.36309
4.27071
4.19026
4.13844
4.11821
4.12054
4.13167
4.15796
4.19495
4.22844
4.2633
4.30417
4.35192
4.40499
4.46107
4.51811
4.57464
4.6294
4.6817
4.73011
4.77385
4.81242
4.84572
4.87384
4.89696
4.91511
4.92841
4.93696
4.94074
4.94057
4.93944
4.93607
4.92829
4.9124
4.89231
4.87098
4.84844
4.8243
4.79838
4.77082
4.74184
4.71173
4.68073
4.64907
4.61697
4.58465
4.5523
4.52014
4.48835
4.45714
4.42672
4.39728
4.36902
4.34214
4.31684
4.29331
4.27175
4.25235
4.23529
4.22074
4.20886
4.19978
4.19372
4.19089
4.19097
4.19151
4.19311
4.19674
4.2042
4.21573
4.22942
4.24415
4.25921
4.2741
4.28846
4.30198
4.31437
4.3254
4.33491
4.34278
4.34898
4.35353
4.35651
4.35802
4.35805
4.35789
4.35734
4.35603
4.35331
4.34915
4.34447
4.33967
4.33516
4.3308
4.33088
6.23281
5.59788
5.12348
4.83434
4.68553
4.57255
4.46108
4.35952
4.28203
4.23457
4.21484
4.21581
4.22216
4.23867
4.27118
4.30395
4.34022
4.38152
4.42767
4.47743
4.52924
4.58153
4.63286
4.6821
4.72819
4.77018
4.80749
4.83963
4.86676
4.88905
4.9064
4.91897
4.92687
4.92989
4.92963
4.92839
4.92502
4.91758
4.90253
4.88278
4.861
4.8379
4.81347
4.78756
4.7602
4.73152
4.70172
4.67103
4.63969
4.6079
4.57588
4.54383
4.51196
4.48047
4.44956
4.41943
4.39028
4.36231
4.33572
4.31071
4.28747
4.26621
4.2471
4.23034
4.21612
4.20459
4.19599
4.19043
4.18837
4.18855
4.18933
4.19132
4.19557
4.20388
4.21517
4.22875
4.24377
4.25936
4.27485
4.28972
4.30362
4.31627
4.32746
4.33703
4.34491
4.35107
4.35552
4.35838
4.35958
4.35953
4.35924
4.35847
4.35681
4.35371
4.3496
4.34493
4.34008
4.33559
4.3316
4.3319
6.53985
6.00482
5.55027
5.20657
4.97361
4.80719
4.67006
4.55076
4.45266
4.38057
4.33533
4.3135
4.31346
4.31666
4.32735
4.35054
4.38291
4.4189
4.45769
4.4996
4.54425
4.59051
4.63691
4.68217
4.72515
4.76483
4.80038
4.83128
4.85736
4.8787
4.89513
4.90693
4.91417
4.9164
4.91606
4.91471
4.91126
4.90385
4.88924
4.87033
4.84867
4.82525
4.80048
4.77448
4.74726
4.71888
4.68947
4.6592
4.62827
4.5969
4.56529
4.53366
4.5022
4.47112
4.44064
4.41093
4.38221
4.35467
4.32852
4.30394
4.28115
4.26032
4.24167
4.22534
4.21161
4.20062
4.19258
4.18756
4.18631
4.18659
4.18759
4.19
4.19505
4.20392
4.21535
4.22889
4.24396
4.25979
4.27563
4.29087
4.30507
4.31791
4.3292
4.33881
4.34666
4.35276
4.35714
4.35985
4.36071
4.3606
4.36019
4.35921
4.35714
4.35382
4.34966
4.34499
4.34014
4.33569
4.33199
4.3324
6.78406
6.33359
5.91605
5.55701
5.27646
5.06472
4.89696
4.75696
4.63985
4.54637
4.47773
4.43304
4.4096
4.4039
4.40555
4.41227
4.42809
4.45656
4.48836
4.52361
4.56161
4.60147
4.64215
4.68269
4.72195
4.75881
4.79229
4.82167
4.84659
4.8669
4.88256
4.8936
4.9001
4.90155
4.90115
4.89967
4.89606
4.88842
4.87427
4.85603
4.83477
4.81136
4.78646
4.76038
4.73326
4.70516
4.67614
4.64633
4.61589
4.58501
4.5539
4.52277
4.49182
4.46126
4.4313
4.40213
4.37395
4.34697
4.32138
4.29738
4.27516
4.25493
4.23687
4.22121
4.20807
4.19768
4.19024
4.18583
4.18538
4.18574
4.18696
4.1898
4.19568
4.20507
4.21672
4.23023
4.24517
4.26092
4.27679
4.29211
4.30639
4.31931
4.33063
4.34023
4.34805
4.35409
4.35834