/*--------------------------------*- C++ -*----------------------------------*\
| =========                 |                                                 |
| \\      /  F ield         | OpenFOAM: The Open Source CFD Toolbox           |
|  \\    /   O peration     | Version:  2412                                  |
|   \\  /    A nd           | Website:  www.openfoam.com                      |
|    \\/     M anipulation  |                                                 |
\*---------------------------------------------------------------------------*/
FoamFile
{
    version     2.0;
    format      ascii;
    arch        "LSB;label=32;scalar=64";
    class       volVectorField;
    location    "27";
    object      U;
}
// * * * * * * * * * * * * * * * * * * * * * * * * * * * * * * * * * * * * * //

dimensions      [0 1 -1 0 0 0 0];

internalField   nonuniform List<vector> 
7000
(
(2.59104 -7.24816e-05 0)
(1.62049 0.000178364 0)
(0.495622 0.000208988 0)
(0.552994 0.000350767 0)
(0.654683 0.00044656 0)
(0.719879 0.0005246 0)
(0.73276 0.000592443 0)
(0.725867 0.000662738 0)
(0.715805 0.0007412 0)
(0.708107 0.000831616 0)
(0.70364 0.000930259 0)
(0.700072 0.00103346 0)
(0.695986 0.00114043 0)
(0.691131 0.0012521 0)
(0.685667 0.00136948 0)
(0.67972 0.00149317 0)
(0.673308 0.00162345 0)
(0.666397 0.00176064 0)
(0.658952 0.00190518 0)
(0.650947 0.00205762 0)
(0.64236 0.00221856 0)
(0.633166 0.00238868 0)
(0.623341 0.00256867 0)
(0.612858 0.00275932 0)
(0.601687 0.00296143 0)
(0.589799 0.00317589 0)
(0.57716 0.0034036 0)
(0.563738 0.00364553 0)
(0.549498 0.00390264 0)
(0.534403 0.00417591 0)
(0.518417 0.00446632 0)
(0.5015 0.00477475 0)
(0.483616 0.00510209 0)
(0.464727 0.00544894 0)
(0.444797 0.00581591 0)
(0.423792 0.00620309 0)
(0.401682 0.00661053 0)
(0.378444 0.0070374 0)
(0.354061 0.00748276 0)
(0.328524 0.00794443 0)
(0.301837 0.00842004 0)
(0.274019 0.00890548 0)
(0.245106 0.00939682 0)
(0.215149 0.0098877 0)
(0.184222 0.0103736 0)
(0.152419 0.0108474 0)
(0.119821 0.0113135 0)
(0.0868491 0.0117555 0)
(0.051491 0.0123442 0)
(0.0221144 0.0131962 0)
(2.59117 -4.80834e-05 0)
(1.62066 0.000347465 0)
(0.49531 0.000828118 0)
(0.552733 0.00113978 0)
(0.654445 0.0013749 0)
(0.719654 0.00159693 0)
(0.732536 0.00180494 0)
(0.725647 0.00202025 0)
(0.715593 0.00225776 0)
(0.707905 0.00252754 0)
(0.703444 0.00282033 0)
(0.69988 0.00312657 0)
(0.695798 0.00344408 0)
(0.690947 0.00377514 0)
(0.685489 0.00412237 0)
(0.679547 0.00448716 0)
(0.673141 0.00487024 0)
(0.666236 0.0052723 0)
(0.658798 0.00569444 0)
(0.6508 0.0061379 0)
(0.642219 0.0066042 0)
(0.633033 0.00709484 0)
(0.623216 0.00761154 0)
(0.612741 0.00815592 0)
(0.601579 0.00872993 0)
(0.589699 0.00933526 0)
(0.57707 0.00997393 0)
(0.563658 0.0106475 0)
(0.549427 0.011358 0)
(0.534342 0.0121066 0)
(0.518364 0.0128949 0)
(0.501456 0.0137232 0)
(0.48358 0.0145924 0)
(0.464696 0.0155012 0)
(0.444769 0.0164491 0)
(0.423765 0.0174325 0)
(0.401652 0.0184481 0)
(0.378405 0.0194891 0)
(0.354006 0.0205481 0)
(0.328445 0.021614 0)
(0.301725 0.0226742 0)
(0.273861 0.023712 0)
(0.244886 0.0247099 0)
(0.214851 0.0256467 0)
(0.183827 0.0265017 0)
(0.151907 0.0272554 0)
(0.119163 0.0279055 0)
(0.0860638 0.0284259 0)
(0.0505453 0.0290766 0)
(0.0211885 0.0298264 0)
(2.5913 4.76383e-05 0)
(1.62095 0.000392394 0)
(0.495517 0.00160505 0)
(0.552785 0.0019806 0)
(0.654486 0.0023048 0)
(0.719696 0.00267043 0)
(0.732578 0.00303986 0)
(0.7257 0.0034187 0)
(0.715668 0.0038288 0)
(0.708001 0.00428672 0)
(0.703554 0.0047814 0)
(0.7 0.00530003 0)
(0.695927 0.00583968 0)
(0.691088 0.00640321 0)
(0.685642 0.00699459 0)
(0.679715 0.00761584 0)
(0.673322 0.00826859 0)
(0.666432 0.00895391 0)
(0.65901 0.00967403 0)
(0.651028 0.0104309 0)
(0.642465 0.0112274 0)
(0.633298 0.0120658 0)
(0.623501 0.0129497 0)
(0.613048 0.0138815 0)
(0.601909 0.0148649 0)
(0.590054 0.0159028 0)
(0.577451 0.0169991 0)
(0.564066 0.0181564 0)
(0.549863 0.0193785 0)
(0.534807 0.0206676 0)
(0.51886 0.0220269 0)
(0.501982 0.0234573 0)
(0.484135 0.0249604 0)
(0.46528 0.0265351 0)
(0.445379 0.0281803 0)
(0.424398 0.0298913 0)
(0.402303 0.031662 0)
(0.379066 0.0334829 0)
(0.354669 0.0353404 0)
(0.329098 0.0372184 0)
(0.302352 0.0390935 0)
(0.274445 0.0409411 0)
(0.245406 0.0427286 0)
(0.215283 0.0444239 0)
(0.184143 0.0459903 0)
(0.152083 0.0473927 0)
(0.119169 0.0486187 0)
(0.0859276 0.0496289 0)
(0.0502698 0.0506812 0)
(0.0207489 0.0516739 0)
(2.59147 5.41212e-05 0)
(1.6214 0.000535891 0)
(0.495945 0.00235109 0)
(0.552908 0.00281445 0)
(0.654609 0.00323713 0)
(0.719838 0.00375714 0)
(0.732726 0.00430347 0)
(0.725862 0.00485941 0)
(0.715859 0.00545214 0)
(0.708224 0.00610439 0)
(0.7038 0.00680589 0)
(0.700263 0.00754277 0)
(0.696208 0.00831124 0)
(0.691388 0.0091144 0)
(0.685964 0.00995683 0)
(0.680059 0.0108414 0)
(0.673691 0.0117703 0)
(0.666826 0.0127455 0)
(0.659431 0.0137699 0)
(0.651478 0.0148465 0)
(0.642945 0.0159792 0)
(0.633811 0.0171716 0)
(0.624049 0.0184281 0)
(0.613633 0.019753 0)
(0.602534 0.0211508 0)
(0.590721 0.0226266 0)
(0.578162 0.0241848 0)
(0.564824 0.0258306 0)
(0.55067 0.027568 0)
(0.535665 0.029402 0)
(0.51977 0.0313354 0)
(0.502946 0.0333719 0)
(0.485152 0.0355119 0)
(0.46635 0.0377567 0)
(0.446499 0.0401023 0)
(0.425564 0.0425458 0)
(0.403508 0.0450762 0)
(0.380303 0.0476837 0)
(0.355924 0.0503476 0)
(0.330356 0.0530473 0)
(0.303594 0.0557504 0)
(0.275646 0.058421 0)
(0.246538 0.0610166 0)
(0.216316 0.0634861 0)
(0.185043 0.0657853 0)
(0.152816 0.0678577 0)
(0.119701 0.0696748 0)
(0.0862755 0.0711829 0)
(0.0504191 0.072608 0)
(0.0206051 0.0737638 0)
(2.59173 6.77567e-05 0)
(1.62203 0.000716444 0)
(0.496496 0.00310387 0)
(0.553018 0.00367982 0)
(0.654736 0.00421154 0)
(0.72001 0.00488565 0)
(0.732912 0.00560904 0)
(0.726066 0.00634914 0)
(0.7161 0.00713326 0)
(0.708506 0.00798603 0)
(0.704115 0.00889959 0)
(0.700604 0.00986108 0)
(0.696575 0.0108657 0)
(0.691785 0.0119169 0)
(0.686393 0.0130192 0)
(0.680522 0.0141767 0)
(0.674189 0.0153917 0)
(0.667362 0.0166676 0)
(0.660007 0.0180074 0)
(0.652096 0.0194161 0)
(0.64361 0.0208976 0)
(0.634524 0.0224578 0)
(0.624814 0.0241013 0)
(0.614454 0.025835 0)
(0.603414 0.0276637 0)
(0.591664 0.029595 0)
(0.579172 0.0316339 0)
(0.565905 0.033788 0)
(0.551825 0.0360622 0)
(0.536897 0.0384635 0)
(0.521081 0.0409954 0)
(0.504337 0.043663 0)
(0.486625 0.0464673 0)
(0.467903 0.0494098 0)
(0.44813 0.0524865 0)
(0.427266 0.0556924 0)
(0.405275 0.0590163 0)
(0.382121 0.062442 0)
(0.357779 0.065948 0)
(0.332225 0.0695023 0)
(0.305451 0.0730703 0)
(0.27746 0.0765986 0)
(0.248271 0.0800357 0)
(0.217926 0.0833114 0)
(0.186485 0.0863596 0)
(0.154049 0.0891148 0)
(0.120672 0.0915179 0)
(0.0869958 0.093492 0)
(0.0508509 0.0952295 0)
(0.020623 0.096478 0)
(2.59206 8.00473e-05 0)
(1.62287 0.000900566 0)
(0.497195 0.00385574 0)
(0.553133 0.00455781 0)
(0.654879 0.00520482 0)
(0.720221 0.00603332 0)
(0.733148 0.00693928 0)
(0.726329 0.00786859 0)
(0.716407 0.00885271 0)
(0.708862 0.00991488 0)
(0.704513 0.0110489 0)
(0.701039 0.0122428 0)
(0.697046 0.013492 0)
(0.692294 0.0147999 0)
(0.686943 0.0161712 0)
(0.681117 0.0176106 0)
(0.674832 0.0191212 0)
(0.668054 0.0207071 0)
(0.660751 0.0223726 0)
(0.652898 0.0241231 0)
(0.644471 0.0259644 0)
(0.63545 0.027903 0)
(0.62581 0.0299456 0)
(0.615524 0.0320997 0)
(0.604564 0.0343728 0)
(0.592898 0.0367728 0)
(0.580496 0.0393081 0)
(0.567323 0.0419861 0)
(0.553344 0.0448155 0)
(0.53852 0.0478027 0)
(0.522812 0.0509552 0)
(0.50618 0.054277 0)
(0.48858 0.0577725 0)
(0.46997 0.0614416 0)
(0.450306 0.0652825 0)
(0.429545 0.0692873 0)
(0.407646 0.0734453 0)
(0.384571 0.0777353 0)
(0.360285 0.0821326 0)
(0.334763 0.0865975 0)
(0.307985 0.0910852 0)
(0.27995 0.0955364 0)
(0.250666 0.0998795 0)
(0.220171 0.104033 0)
(0.18852 0.107901 0)
(0.155814 0.111393 0)
(0.122103 0.114431 0)
(0.088067 0.116902 0)
(0.0515117 0.118952 0)
(0.0207744 0.120271 0)
(2.59249 9.27137e-05 0)
(1.62395 0.00108686 0)
(0.498051 0.0046154 0)
(0.553254 0.00545135 0)
(0.655037 0.00622011 0)
(0.720472 0.00720675 0)
(0.733439 0.00830275 0)
(0.726652 0.00942585 0)
(0.716784 0.0106168 0)
(0.709299 0.0118968 0)
(0.705002 0.0132594 0)
(0.701574 0.0146932 0)
(0.697627 0.016195 0)
(0.692924 0.0177677 0)
(0.687627 0.0194168 0)
(0.681857 0.0211468 0)
(0.675631 0.0229623 0)
(0.668916 0.0248676 0)
(0.66168 0.0268686 0)
(0.653897 0.0289711 0)
(0.645548 0.0311829 0)
(0.636609 0.0335111 0)
(0.627057 0.0359645 0)
(0.616865 0.0385514 0)
(0.606005 0.0412818 0)
(0.594447 0.0441648 0)
(0.582159 0.0472108 0)
(0.569107 0.0504291 0)
(0.555255 0.0538302 0)
(0.540566 0.0574228 0)
(0.524997 0.0612155 0)
(0.508509 0.0652152 0)
(0.491055 0.0694267 0)
(0.472592 0.0738519 0)
(0.453072 0.0784889 0)
(0.43245 0.0833304 0)
(0.410677 0.0883636 0)
(0.387712 0.0935663 0)
(0.363511 0.0989084 0)
(0.33804 0.104345 0)
(0.311274 0.109821 0)
(0.283196 0.115266 0)
(0.25381 0.120593 0)
(0.223136 0.125703 0)
(0.191231 0.130476 0)
(0.158186 0.134794 0)
(0.124045 0.138536 0)
(0.089542 0.141558 0)
(0.0524188 0.143968 0)
(0.0210218 0.145391 0)
(2.59302 0.000105496 0)
(1.62527 0.00127367 0)
(0.499078 0.00538087 0)
(0.553383 0.00635445 0)
(0.655213 0.00724855 0)
(0.720768 0.00839754 0)
(0.73379 0.00968616 0)
(0.727043 0.0110103 0)
(0.717241 0.0124163 0)
(0.709827 0.0139222 0)
(0.705592 0.0155209 0)
(0.702221 0.0172026 0)
(0.698331 0.0189649 0)
(0.693689 0.0208109 0)
(0.688457 0.0227463 0)
(0.682756 0.0247762 0)
(0.676603 0.0269056 0)
(0.669965 0.02914 0)
(0.662811 0.031486 0)
(0.655116 0.0339511 0)
(0.646861 0.0365436 0)
(0.638023 0.0392726 0)
(0.628579 0.0421481 0)
(0.618503 0.0451805 0)
(0.607767 0.048381 0)
(0.596342 0.051761 0)
(0.584195 0.0553325 0)
(0.571293 0.0591076 0)
(0.5576 0.063098 0)
(0.543076 0.0673153 0)
(0.527682 0.0717697 0)
(0.511372 0.0764703 0)
(0.494103 0.0814242 0)
(0.475825 0.0866343 0)
(0.456489 0.0921015 0)
(0.436044 0.0978176 0)
(0.414438 0.103771 0)
(0.391619 0.109937 0)
(0.367538 0.116283 0)
(0.342148 0.12276 0)
(0.315411 0.129303 0)
(0.2873 0.135831 0)
(0.257803 0.142236 0)
(0.226929 0.148405 0)
(0.194717 0.154184 0)
(0.161263 0.159424 0)
(0.126583 0.163975 0)
(0.09146 0.167636 0)
(0.0536158 0.170463 0)
(0.0214115 0.172025 0)
(2.59366 0.000118346 0)
(1.62685 0.0014601 0)
(0.500291 0.00614949 0)
(0.553525 0.00726304 0)
(0.655412 0.0082857 0)
(0.721116 0.00960123 0)
(0.734208 0.0110881 0)
(0.727514 0.0126187 0)
(0.71779 0.0142471 0)
(0.710457 0.0159867 0)
(0.706296 0.0178297 0)
(0.702993 0.0197674 0)
(0.699173 0.0217983 0)
(0.694604 0.0239261 0)
(0.68945 0.0261564 0)
(0.683832 0.0284947 0)
(0.677765 0.0309469 0)
(0.67122 0.0335192 0)
(0.664164 0.0362194 0)
(0.656575 0.0390562 0)
(0.648433 0.0420392 0)
(0.639716 0.0451791 0)
(0.630403 0.0484874 0)
(0.620467 0.0519763 0)
(0.609881 0.0556589 0)
(0.598616 0.0595487 0)
(0.58664 0.06366 0)
(0.57392 0.0680067 0)
(0.56042 0.0726037 0)
(0.546099 0.0774641 0)
(0.530916 0.0826018 0)
(0.514827 0.0880273 0)
(0.497784 0.0937513 0)
(0.479736 0.0997782 0)
(0.460629 0.106111 0)
(0.440408 0.112744 0)
(0.419013 0.119666 0)
(0.396386 0.126853 0)
(0.372465 0.134268 0)
(0.347193 0.141862 0)
(0.320516 0.14956 0)
(0.292387 0.157273 0)
(0.262781 0.164874 0)
(0.231681 0.172223 0)
(0.199114 0.179149 0)
(0.165162 0.185447 0)
(0.129834 0.190924 0)
(0.0939374 0.195331 0)
(0.0551451 0.198669 0)
(0.0219193 0.200423 0)
(2.59441 0.000131124 0)
(1.62872 0.0016449 0)
(0.501703 0.00691616 0)
(0.553682 0.0081711 0)
(0.655637 0.00932449 0)
(0.721522 0.0108101 0)
(0.734703 0.0124993 0)
(0.728073 0.0142422 0)
(0.718443 0.0161005 0)
(0.711203 0.0180821 0)
(0.707127 0.0201777 0)
(0.703906 0.0223798 0)
(0.700168 0.0246877 0)
(0.695686 0.0271056 0)
(0.690624 0.0296393 0)
(0.685102 0.0322946 0)
(0.679138 0.035078 0)
(0.672702 0.0379968 0)
(0.665762 0.0410599 0)
(0.658297 0.0442772 0)
(0.650288 0.0476598 0)
(0.641716 0.0512198 0)
(0.632556 0.0549706 0)
(0.622786 0.0589262 0)
(0.612378 0.0631017 0)
(0.601303 0.0675129 0)
(0.589531 0.0721764 0)
(0.577028 0.0771087 0)
(0.563758 0.0823274 0)
(0.54968 0.0878487 0)
(0.534754 0.0936894 0)
(0.518931 0.0998636 0)
(0.502163 0.106384 0)
(0.484396 0.113261 0)
(0.465573 0.120497 0)
(0.44563 0.128092 0)
(0.424503 0.136035 0)
(0.402121 0.144306 0)
(0.378414 0.152866 0)
(0.353306 0.161665 0)
(0.32673 0.170622 0)
(0.298612 0.179638 0)
(0.268904 0.188575 0)
(0.23757 0.197263 0)
(0.204599 0.205498 0)
(0.170063 0.213036 0)
(0.13393 0.219622 0)
(0.0970629 0.224931 0)
(0.0571062 0.228893 0)
(0.0226247 0.230898 0)
(2.59528 0.000143703 0)
(1.63088 0.00182629 0)
(0.503329 0.00767355 0)
(0.553857 0.00907118 0)
(0.655893 0.0103576 0)
(0.721993 0.0120156 0)
(0.735284 0.0139121 0)
(0.728734 0.0158722 0)
(0.719213 0.0179673 0)
(0.712081 0.0201994 0)
(0.708103 0.0225566 0)
(0.704975 0.0250316 0)
(0.701334 0.0276251 0)
(0.696953 0.0303415 0)
(0.691997 0.0331868 0)
(0.686588 0.0361672 0)
(0.680743 0.0392899 0)
(0.674432 0.0425633 0)
(0.667628 0.0459973 0)
(0.660308 0.049603 0)
(0.652454 0.0533933 0)
(0.644048 0.0573818 0)
(0.635069 0.0615837 0)
(0.625492 0.066015 0)
(0.615292 0.070693 0)
(0.604441 0.0756359 0)
(0.592908 0.0808629 0)
(0.58066 0.0863935 0)
(0.567662 0.0922481 0)
(0.553872 0.0984465 0)
(0.539249 0.105009 0)
(0.523745 0.111953 0)
(0.507308 0.119297 0)
(0.489882 0.127053 0)
(0.471403 0.135231 0)
(0.451805 0.143834 0)
(0.431014 0.152854 0)
(0.408948 0.162276 0)
(0.385523 0.172064 0)
(0.360646 0.182169 0)
(0.334226 0.192506 0)
(0.306169 0.20297 0)
(0.276384 0.213411 0)
(0.244812 0.223633 0)
(0.2114 0.233399 0)
(0.176186 0.242401 0)
(0.139116 0.250319 0)
(0.101045 0.25675 0)
(0.0595845 0.261519 0)
(0.0235145 0.263876 0)
(2.59628 0.000155794 0)
(1.63336 0.00200222 0)
(0.505184 0.00841058 0)
(0.554058 0.00995413 0)
(0.656186 0.0113767 0)
(0.722539 0.0132059 0)
(0.735963 0.0153133 0)
(0.729507 0.017496 0)
(0.720117 0.0198361 0)
(0.713108 0.0223281 0)
(0.709241 0.0249561 0)
(0.706221 0.0277131 0)
(0.70269 0.0306006 0)
(0.698426 0.0336238 0)
(0.693592 0.0367886 0)
(0.688312 0.0401018 0)
(0.682602 0.0435713 0)
(0.676436 0.0472064 0)
(0.669786 0.0510183 0)
(0.662632 0.0550195 0)
(0.654958 0.0592244 0)
(0.646744 0.0636484 0)
(0.637972 0.0683085 0)
(0.628619 0.0732229 0)
(0.61866 0.0784113 0)
(0.608067 0.0838945 0)
(0.596812 0.0896944 0)
(0.584862 0.0958338 0)
(0.572181 0.102336 0)
(0.558729 0.109226 0)
(0.544464 0.116526 0)
(0.529336 0.124262 0)
(0.513293 0.132452 0)
(0.496275 0.141119 0)
(0.478215 0.150275 0)
(0.45904 0.159932 0)
(0.438666 0.170088 0)
(0.417002 0.180734 0)
(0.393948 0.191841 0)
(0.36939 0.203362 0)
(0.34321 0.21522 0)
(0.315284 0.2273 0)
(0.285484 0.239448 0)
(0.253696 0.251443 0)
(0.219822 0.263012 0)
(0.183837 0.273801 0)
(0.145636 0.283386 0)
(0.106104 0.291242 0)
(0.0627944 0.297061 0)
(0.0247285 0.299901 0)
(2.59741 0.000165238 0)
(1.63617 0.00217215 0)
(0.507279 0.00910969 0)
(0.554291 0.0108074 0)
(0.656522 0.0123737 0)
(0.723167 0.0143653 0)
(0.736752 0.0166884 0)
(0.730413 0.0190999 0)
(0.721176 0.0216939 0)
(0.714305 0.024456 0)
(0.710563 0.0273648 0)
(0.707665 0.0304129 0)
(0.70426 0.0336031 0)
(0.700128 0.0369412 0)
(0.695432 0.0404333 0)
(0.690296 0.0440866 0)
(0.68474 0.0479097 0)
(0.678739 0.0519129 0)
(0.672265 0.0561088 0)
(0.665299 0.0605114 0)
(0.657828 0.0651364 0)
(0.649834 0.0700013 0)
(0.641299 0.075125 0)
(0.632202 0.0805281 0)
(0.622518 0.0862326 0)
(0.612222 0.0922622 0)
(0.601287 0.0986418 0)
(0.58968 0.105398 0)
(0.577366 0.112557 0)
(0.564307 0.120149 0)
(0.550459 0.128202 0)
(0.535774 0.136745 0)
(0.520197 0.145804 0)
(0.503665 0.155408 0)
(0.486109 0.165579 0)
(0.467449 0.176335 0)
(0.447593 0.187684 0)
(0.426439 0.199629 0)
(0.403868 0.212151 0)
(0.379748 0.225212 0)
(0.353926 0.238745 0)
(0.326244 0.252639 0)
(0.29652 0.266738 0)
(0.264582 0.280809 0)
(0.230262 0.294535 0)
(0.193461 0.307503 0)
(0.153971 0.319193 0)
(0.112634 0.328925 0)
(0.0669413 0.336193 0)
(0.026295 0.339741 0)
(2.59867 0.000170559 0)
(1.63931 0.002334 0)
(0.509611 0.00975682 0)
(0.554565 0.0116129 0)
(0.656901 0.0133284 0)
(0.723875 0.0154728 0)
(0.737662 0.0180221 0)
(0.73146 0.0206688 0)
(0.722402 0.0235255 0)
(0.71569 0.0265684 0)
(0.712088 0.0297684 0)
(0.709326 0.0331173 0)
(0.706063 0.0366189 0)
(0.702078 0.0402798 0)
(0.697537 0.0441064 0)
(0.692565 0.0481061 0)
(0.687181 0.0522883 0)
(0.681364 0.0566647 0)
(0.675087 0.0612489 0)
(0.668335 0.0660567 0)
(0.661093 0.0711054 0)
(0.653348 0.0764146 0)
(0.645081 0.082005 0)
(0.636273 0.0879 0)
(0.626902 0.0941237 0)
(0.616945 0.100703 0)
(0.606374 0.107666 0)
(0.59516 0.115044 0)
(0.583268 0.122866 0)
(0.570662 0.131168 0)
(0.557298 0.139982 0)
(0.543129 0.149346 0)
(0.528098 0.159292 0)
(0.512143 0.169857 0)
(0.49519 0.181073 0)
(0.477155 0.19297 0)
(0.457938 0.205571 0)
(0.437427 0.218888 0)
(0.415484 0.232924 0)
(0.391956 0.247655 0)
(0.366659 0.263034 0)
(0.339386 0.278964 0)
(0.309901 0.2953 0)
(0.277943 0.311811 0)
(0.243249 0.328161 0)
(0.205597 0.343871 0)
(0.164651 0.358295 0)
(0.121174 0.370555 0)
(0.0725087 0.379858 0)
(0.0284949 0.384469 0)
(2.60007 0.000178103 0)
(1.64279 0.00247673 0)
(0.512179 0.0103562 0)
(0.554883 0.0123517 0)
(0.657327 0.0142 0)
(0.724674 0.0165125 0)
(0.738711 0.0192866 0)
(0.732671 0.0221789 0)
(0.723822 0.0253148 0)
(0.717288 0.0286514 0)
(0.71384 0.0321533 0)
(0.711229 0.035813 0)
(0.708122 0.0396353 0)
(0.704301 0.0436275 0)
(0.699932 0.0477959 0)
(0.69514 0.0521485 0)
(0.689949 0.0566953 0)
(0.684336 0.0614493 0)
(0.67828 0.0664254 0)
(0.671765 0.0716412 0)
(0.66478 0.0771154 0)
(0.657313 0.08287 0)
(0.649347 0.0889276 0)
(0.640866 0.0953142 0)
(0.631848 0.102057 0)
(0.622273 0.109185 0)
(0.612116 0.116732 0)
(0.601348 0.12473 0)
(0.589938 0.133216 0)
(0.577851 0.142229 0)
(0.565044 0.151809 0)
(0.551472 0.161998 0)
(0.537079 0.172842 0)
(0.521802 0.184384 0)
(0.505567 0.19667 0)
(0.488286 0.209742 0)
(0.469855 0.223642 0)
(0.450149 0.238403 0)
(0.429018 0.25405 0)
(0.406285 0.270586 0)
(0.381735 0.287992 0)
(0.35511 0.306208 0)
(0.32611 0.325111 0)
(0.29438 0.344497 0)
(0.259516 0.364032 0)
(0.221129 0.383205 0)
(0.178639 0.401243 0)
(0.132608 0.417049 0)
(0.0800912 0.429388 0)
(0.0315269 0.435737 0)
(2.60159 0.000187953 0)
(1.6466 0.00259415 0)
(0.51501 0.0108873 0)
(0.555251 0.0129955 0)
(0.657824 0.0149562 0)
(0.725606 0.0174546 0)
(0.739931 0.0204584 0)
(0.734093 0.0236082 0)
(0.725486 0.0270402 0)
(0.719145 0.0306846 0)
(0.715864 0.0345 0)
(0.713418 0.0384796 0)
(0.710482 0.0426297 0)
(0.706841 0.0469589 0)
(0.70266 0.0514732 0)
(0.698065 0.0561815 0)
(0.693083 0.0610947 0)
(0.687695 0.0662273 0)
(0.681881 0.0715956 0)
(0.675629 0.077219 0)
(0.668928 0.0831181 0)
(0.661768 0.0893166 0)
(0.654137 0.0958398 0)
(0.646018 0.102716 0)
(0.637395 0.109975 0)
(0.628248 0.117649 0)
(0.618555 0.125775 0)
(0.60829 0.13439 0)
(0.597425 0.143536 0)
(0.585927 0.153257 0)
(0.573757 0.1636 0)
(0.560871 0.174616 0)
(0.547217 0.186359 0)
(0.532734 0.198885 0)
(0.517348 0.212254 0)
(0.500971 0.226526 0)
(0.483496 0.241763 0)
(0.464794 0.258024 0)
(0.444705 0.275365 0)
(0.423032 0.293831 0)
(0.39953 0.313445 0)
(0.373894 0.334205 0)
(0.345749 0.356045 0)
(0.314633 0.378814 0)
(0.279978 0.402277 0)
(0.241125 0.425896 0)
(0.197195 0.448788 0)
(0.148338 0.46968 0)
(0.0910092 0.486696 0)
(0.0361561 0.496106 0)
(2.60324 0.000194254 0)
(1.65073 0.00268396 0)
(0.518092 0.0112997 0)
(0.55567 0.0135039 0)
(0.65841 0.0155708 0)
(0.726701 0.0182555 0)
(0.741362 0.0215125 0)
(0.735765 0.0249362 0)
(0.727437 0.0286814 0)
(0.721305 0.0326547 0)
(0.718202 0.0368036 0)
(0.715931 0.0411199 0)
(0.71318 0.0456121 0)
(0.709732 0.0502893 0)
(0.705753 0.0551588 0)
(0.701372 0.0602293 0)
(0.696618 0.0655131 0)
(0.691475 0.0710255 0)
(0.685926 0.0767851 0)
(0.67996 0.0828124 0)
(0.673572 0.0891309 0)
(0.666751 0.0957658 0)
(0.659489 0.102746 0)
(0.651772 0.1101 0)
(0.643586 0.117864 0)
(0.634914 0.126071 0)
(0.625737 0.134763 0)
(0.616035 0.143981 0)
(0.605781 0.153773 0)
(0.594946 0.164187 0)
(0.583498 0.175279 0)
(0.571395 0.187109 0)
(0.55859 0.19974 0)
(0.545027 0.213242 0)
(0.530636 0.227692 0)
(0.515333 0.243169 0)
(0.499015 0.25976 0)
(0.481552 0.277558 0)
(0.462783 0.296657 0)
(0.442498 0.317156 0)
(0.42044 0.339128 0)
(0.396262 0.362687 0)
(0.369515 0.387858 0)
(0.339673 0.414518 0)
(0.305952 0.442713 0)
(0.267303 0.47203 0)
(0.222422 0.501632 0)
(0.170702 0.530074 0)
(0.107365 0.554883 0)
(0.043483 0.570063 0)
(2.605 0.000196899 0)
(1.65515 0.00273503 0)
(0.5214 0.0115432 0)
(0.556155 0.0138285 0)
(0.659106 0.0159962 0)
(0.727999 0.0188692 0)
(0.743057 0.0223978 0)
(0.737742 0.0261135 0)
(0.729733 0.0301894 0)
(0.723832 0.0345049 0)
(0.720917 0.0389943 0)
(0.718831 0.0436497 0)
(0.716275 0.0484839 0)
(0.713033 0.0535079 0)
(0.709269 0.0587309 0)
(0.705116 0.064162 0)
(0.700604 0.0698148 0)
(0.695724 0.0757058 0)
(0.690459 0.0818553 0)
(0.684804 0.0882855 0)
(0.678752 0.0950214 0)
(0.6723 0.10209 0)
(0.66544 0.109522 0)
(0.658162 0.11735 0)
(0.650455 0.12561 0)
(0.642306 0.134341 0)
(0.6337 0.143586 0)
(0.62462 0.153392 0)
(0.615046 0.163811 0)
(0.604954 0.174898 0)
(0.594315 0.186717 0)
(0.583097 0.199336 0)
(0.57126 0.21283 0)
(0.558754 0.227283 0)
(0.54552 0.242789 0)
(0.531482 0.25945 0)
(0.516547 0.277383 0)
(0.500597 0.296717 0)
(0.483481 0.317588 0)
(0.464983 0.340204 0)
(0.444874 0.36463 0)
(0.422805 0.39107 0)
(0.398167 0.419902 0)
(0.370514 0.451183 0)
(0.338952 0.48505 0)
(0.301908 0.521513 0)
(0.257457 0.560237 0)
(0.20386 0.600011 0)
(0.133822 0.638292 0)
(0.0565603 0.666333 0)
(2.60684 0.000195376 0)
(1.65979 0.00273601 0)
(0.524901 0.0115442 0)
(0.556729 0.0138948 0)
(0.659947 0.0161706 0)
(0.729546 0.0192597 0)
(0.74507 0.0231093 0)
(0.740082 0.0271764 0)
(0.732429 0.0316496 0)
(0.726765 0.0363607 0)
(0.724036 0.0412311 0)
(0.722138 0.0462567 0)
(0.719787 0.0514554 0)
(0.716763 0.0568422 0)
(0.713229 0.0624256 0)
(0.709319 0.0682166 0)
(0.70507 0.0742305 0)
(0.700472 0.0804868 0)
(0.695516 0.0870081 0)
(0.690197 0.0938195 0)
(0.684512 0.100949 0)
(0.67846 0.108425 0)
(0.672037 0.116282 0)
(0.665236 0.124554 0)
(0.65805 0.133281 0)
(0.650472 0.142505 0)
(0.64249 0.152273 0)
(0.634092 0.162635 0)
(0.625266 0.173647 0)
(0.615994 0.185373 0)
(0.606255 0.197881 0)
(0.596027 0.211248 0)
(0.585278 0.225561 0)
(0.573972 0.240918 0)
(0.562064 0.257433 0)
(0.549494 0.275228 0)
(0.536191 0.294437 0)
(0.522049 0.315283 0)
(0.506993 0.337853 0)
(0.490747 0.362396 0)
(0.473058 0.389343 0)
(0.45392 0.418921 0)
(0.43271 0.451614 0)
(0.408625 0.487921 0)
(0.380857 0.528293 0)
(0.34786 0.573458 0)
(0.306991 0.624237 0)
(0.255015 0.680965 0)
(0.180394 0.743008 0)
(0.0832309 0.803166 0)
(2.60872 0.000142077 0)
(1.66456 0.00273045 0)
(0.528496 0.0112116 0)
(0.557417 0.0135569 0)
(0.660994 0.0159259 0)
(0.731443 0.0192135 0)
(0.747536 0.0233861 0)
(0.74294 0.0278082 0)
(0.735687 0.032682 0)
(0.730257 0.0377822 0)
(0.727701 0.0430209 0)
(0.725984 0.0484062 0)
(0.723834 0.0539668 0)
(0.721027 0.0597195 0)
(0.717722 0.065673 0)
(0.714056 0.0718372 0)
(0.710073 0.0782276 0)
(0.705769 0.0848646 0)
(0.701135 0.0917722 0)
(0.69617 0.0989764 0)
(0.690875 0.106506 0)
(0.685251 0.114392 0)
(0.679298 0.12267 0)
(0.673013 0.131376 0)
(0.666393 0.140552 0)
(0.659434 0.150243 0)
(0.652131 0.160499 0)
(0.644479 0.171375 0)
(0.636472 0.182932 0)
(0.6281 0.195237 0)
(0.619353 0.208368 0)
(0.61022 0.22241 0)
(0.600683 0.23746 0)
(0.590726 0.253624 0)
(0.58032 0.271045 0)
(0.569412 0.2899 0)
(0.558026 0.310211 0)
(0.545993 0.332255 0)
(0.533207 0.356418 0)
(0.519846 0.382906 0)
(0.505628 0.412239 0)
(0.490259 0.444852 0)
(0.473486 0.481235 0)
(0.454814 0.522373 0)
(0.433602 0.569442 0)
(0.408677 0.624261 0)
(0.377648 0.689726 0)
(0.336607 0.770912 0)
(0.270944 0.878169 0)
(0.14644 1.04339 0)
(2.61109 8.15443e-05 0)
(1.67034 0.0026003 0)
(0.532252 0.0103864 0)
(0.557938 0.0128218 0)
(0.662136 0.0154358 0)
(0.733801 0.0191881 0)
(0.750721 0.0239856 0)
(0.746677 0.0290446 0)
(0.739959 0.0345618 0)
(0.73482 0.0402294 0)
(0.732496 0.045958 0)
(0.731049 0.0517834 0)
(0.729214 0.0577559 0)
(0.726748 0.0639026 0)
(0.723803 0.070238 0)
(0.720522 0.0767765 0)
(0.716954 0.0835389 0)
(0.713103 0.0905507 0)
(0.708965 0.0978404 0)
(0.704541 0.105438 0)
(0.699839 0.113375 0)
(0.694863 0.121686 0)
(0.689618 0.130407 0)
(0.684108 0.139578 0)
(0.678337 0.149241 0)
(0.672309 0.159445 0)
(0.666028 0.170241 0)
(0.659499 0.181687 0)
(0.652727 0.193847 0)
(0.645717 0.206793 0)
(0.638477 0.220606 0)
(0.631013 0.235376 0)
(0.623328 0.25123 0)
(0.615449 0.268254 0)
(0.607438 0.286539 0)
(0.599068 0.306334 0)
(0.590389 0.327868 0)
(0.581879 0.351322 0)
(0.573394 0.377128 0)
(0.564713 0.405644 0)
(0.555955 0.437222 0)
(0.547207 0.472569 0)
(0.538659 0.512523 0)
(0.530537 0.55837 0)
(0.523383 0.611893 0)
(0.518373 0.675856 0)
(0.518228 0.754722 0)
(0.531152 0.85592 0)
(0.587123 0.99063 0)
(0.657197 1.1853 0)
(2.61361 5.93748e-05 0)
(1.67649 0.00194267 0)
(0.536775 0.00776498 0)
(0.559572 0.00992545 0)
(0.66478 0.0125066 0)
(0.738191 0.0166815 0)
(0.756189 0.022212 0)
(0.752746 0.0280518 0)
(0.746489 0.0343828 0)
(0.741419 0.0407709 0)
(0.739111 0.0471477 0)
(0.737766 0.0535892 0)
(0.736111 0.0601604 0)
(0.733869 0.0668877 0)
(0.731178 0.0737819 0)
(0.728186 0.080858 0)
(0.724953 0.0881394 0)
(0.721487 0.0956545 0)
(0.717789 0.103434 0)
(0.713863 0.111509 0)
(0.709718 0.119913 0)
(0.705362 0.128683 0)
(0.700806 0.137857 0)
(0.696059 0.147478 0)
(0.69113 0.15759 0)
(0.68603 0.168244 0)
(0.680774 0.179494 0)
(0.675377 0.191402 0)
(0.669855 0.204031 0)
(0.66423 0.217462 0)
(0.65852 0.231799 0)
(0.652791 0.247059 0)
(0.647021 0.26336 0)
(0.641136 0.280917 0)
(0.635373 0.299862 0)
(0.629948 0.320331 0)
(0.624749 0.342666 0)
(0.619846 0.367066 0)
(0.615467 0.393722 0)
(0.611768 0.423087 0)
(0.609024 0.455682 0)
(0.607711 0.49216 0)
(0.608495 0.533438 0)
(0.612472 0.580664 0)
(0.621463 0.635504 0)
(0.638787 0.700114 0)
(0.670454 0.777411 0)
(0.725473 0.870829 0)
(0.836621 0.980395 0)
(0.984474 1.09496 0)
(2.61506 7.02091e-05 0)
(1.68004 0.00130476 0)
(0.539632 0.0054586 0)
(0.56132 0.00791028 0)
(0.668131 0.0111031 0)
(0.743955 0.0164657 0)
(0.763399 0.0232633 0)
(0.760687 0.0301977 0)
(0.754899 0.0372583 0)
(0.749823 0.0440641 0)
(0.747525 0.0507383 0)
(0.746316 0.0574583 0)
(0.744866 0.0643041 0)
(0.742848 0.0712961 0)
(0.740394 0.0784408 0)
(0.737664 0.0857615 0)
(0.734732 0.0932913 0)
(0.731612 0.101065 0)
(0.728307 0.109116 0)
(0.724826 0.117478 0)
(0.721181 0.126184 0)
(0.717387 0.13527 0)
(0.71346 0.144774 0)
(0.709415 0.154736 0)
(0.705271 0.165198 0)
(0.701047 0.17621 0)
(0.696766 0.187821 0)
(0.692451 0.2001 0)
(0.68814 0.213098 0)
(0.683906 0.226846 0)
(0.679651 0.241457 0)
(0.675413 0.257076 0)
(0.671526 0.273765 0)
(0.668026 0.291686 0)
(0.664831 0.311035 0)
(0.6621 0.331895 0)
(0.660004 0.354438 0)
(0.658721 0.378928 0)
(0.658531 0.405657 0)
(0.659801 0.434968 0)
(0.662998 0.467317 0)
(0.668868 0.503223 0)
(0.678475 0.543347 0)
(0.693299 0.588452 0)
(0.715727 0.639395 0)
(0.749211 0.697019 0)
(0.79934 0.761595 0)
(0.871715 0.83217 0)
(0.98464 0.903785 0)
(1.12028 0.956612 0)
(2.61627 3.68519e-05 0)
(1.68311 -0.00152789 0)
(0.544994 -0.00484958 0)
(0.567289 -0.00305231 0)
(0.675899 0.000995943 0)
(0.754089 0.00905075 0)
(0.774411 0.0185849 0)
(0.771474 0.0278689 0)
(0.765091 0.0364548 0)
(0.759422 0.0442556 0)
(0.756947 0.0517472 0)
(0.755822 0.0592251 0)
(0.754539 0.066767 0)
(0.752706 0.0743924 0)
(0.750464 0.0820965 0)
(0.748003 0.0899154 0)
(0.745402 0.0978942 0)
(0.742671 0.106074 0)
(0.739809 0.114494 0)
(0.736823 0.123189 0)
(0.733725 0.1322 0)
(0.730534 0.141565 0)
(0.727267 0.151325 0)
(0.723944 0.16152 0)
(0.720591 0.172197 0)
(0.717232 0.183415 0)
(0.713916 0.195197 0)
(0.710663 0.207584 0)
(0.707432 0.220679 0)
(0.704349 0.23456 0)
(0.701625 0.249277 0)
(0.699229 0.264997 0)
(0.697174 0.281809 0)
(0.695627 0.29973 0)
(0.694691 0.318912 0)
(0.69453 0.339514 0)
(0.695363 0.361704 0)
(0.697447 0.385681 0)
(0.701137 0.411671 0)
(0.706864 0.439928 0)
(0.715235 0.470736 0)
(0.727061 0.504422 0)
(0.743477 0.541268 0)
(0.765977 0.581553 0)
(0.796618 0.625358 0)
(0.83809 0.672404 0)
(0.894026 0.721634 0)
(0.967123 0.77046 0)
(1.0683 0.814662 0)
(1.18132 0.840217 0)
(2.61195 0.00228827 0)
(1.67309 -0.00676325 0)
(0.54952 -0.0137847 0)
(0.583062 -0.0080158 0)
(0.696125 -0.00038748 0)
(0.777881 0.00988894 0)
(0.798483 0.0200826 0)
(0.79406 0.0297287 0)
(0.785728 0.038241 0)
(0.778685 0.0461006 0)
(0.775571 0.0537805 0)
(0.774091 0.0614371 0)
(0.772507 0.0691049 0)
(0.770368 0.0768156 0)
(0.767834 0.084622 0)
(0.765147 0.0925769 0)
(0.762387 0.100725 0)
(0.759562 0.109103 0)
(0.756668 0.117745 0)
(0.753718 0.126684 0)
(0.750731 0.135953 0)
(0.747726 0.145583 0)
(0.744723 0.15561 0)
(0.74175 0.166064 0)
(0.73886 0.176957 0)
(0.736033 0.188348 0)
(0.733267 0.200317 0)
(0.730724 0.212881 0)
(0.728499 0.226107 0)
(0.726575 0.240101 0)
(0.725014 0.254897 0)
(0.723923 0.270518 0)
(0.723388 0.287077 0)
(0.723555 0.304666 0)
(0.724587 0.323389 0)
(0.726666 0.343378 0)
(0.730041 0.364753 0)
(0.734992 0.387665 0)
(0.741894 0.412247 0)
(0.751215 0.438651 0)
(0.76355 0.467004 0)
(0.779674 0.497413 0)
(0.800559 0.529896 0)
(0.827457 0.564338 0)
(0.861891 0.600393 0)
(0.905692 0.6373 0)
(0.961145 0.673726 0)
(1.02985 0.707334 0)
(1.11621 0.7352 0)
(1.20904 0.748948 0)
(2.60368 0.00790312 0)
(1.64289 -0.07351 0)
(0.584824 -0.0725427 0)
(0.623923 -0.045758 0)
(0.731371 -0.00575838 0)
(0.80899 0.0165328 0)
(0.826985 0.026632 0)
(0.821023 0.0352889 0)
(0.811508 0.042652 0)
(0.804148 0.0507657 0)
(0.800775 0.0592948 0)
(0.798917 0.067726 0)
(0.796936 0.0759357 0)
(0.794495 0.0840039 0)
(0.791771 0.0920676 0)
(0.78894 0.100205 0)
(0.786061 0.108466 0)
(0.783134 0.11689 0)
(0.780157 0.12552 0)
(0.777144 0.134403 0)
(0.774116 0.143587 0)
(0.771099 0.153098 0)
(0.768115 0.162951 0)
(0.765157 0.173201 0)
(0.762302 0.183912 0)
(0.759693 0.195094 0)
(0.757315 0.206802 0)
(0.755168 0.219096 0)
(0.753371 0.231995 0)
(0.751999 0.245555 0)
(0.751125 0.259847 0)
(0.750861 0.274936 0)
(0.751335 0.290883 0)
(0.7527 0.307768 0)
(0.755131 0.325649 0)
(0.758828 0.344616 0)
(0.76404 0.364736 0)
(0.771068 0.38609 0)
(0.780261 0.408747 0)
(0.792068 0.432758 0)
(0.807015 0.458138 0)