/*--------------------------------*- C++ -*----------------------------------*\
| =========                 |                                                 |
| \\      /  F ield         | OpenFOAM: The Open Source CFD Toolbox           |
|  \\    /   O peration     | Version:  2412                                  |
|   \\  /    A nd           | Website:  www.openfoam.com                      |
|    \\/     M anipulation  |                                                 |
\*---------------------------------------------------------------------------*/
FoamFile
{
    version     2.0;
    format      ascii;
    arch        "LSB;label=32;scalar=64";
    class       volScalarField;
    location    "7";
    object      Ma;
}
// * * * * * * * * * * * * * * * * * * * * * * * * * * * * * * * * * * * * * //

dimensions      [0 0 0 0 0 0 0];

internalField   nonuniform List<scalar> 
7000
(
3
2.99997
2.99997
2.99983
2.99974
2.99899
2.99843
2.99446
2.98937
2.96682
2.93155
2.77819
2.46387
1.76236
0.764991
0.370037
0.349563
0.393985
0.425552
0.431033
0.424414
0.412943
0.402421
0.395072
0.389442
0.384183
0.378677
0.372627
0.365648
0.357519
0.348499
0.3388
0.328479
0.317487
0.305689
0.292874
0.278844
0.263079
0.245921
0.227618
0.208052
0.187391
0.165647
0.14388
0.121982
0.0986706
0.0746021
0.0519003
0.0291917
0.0130815
3
2.99997
2.99996
2.9998
2.99975
2.99873
2.99851
2.99256
2.99015
2.9584
2.94515
2.7377
2.51991
1.80115
0.776932
0.388726
0.358679
0.39875
0.42844
0.433035
0.425939
0.414259
0.403636
0.396158
0.390266
0.38461
0.378619
0.372021
0.364591
0.356322
0.3474
0.33797
0.328002
0.317358
0.30584
0.293212
0.279276
0.26353
0.24635
0.228062
0.208614
0.188242
0.167007
0.145981
0.125044
0.102786
0.0795552
0.0571943
0.0346419
0.0198906
3
2.99997
2.99996
2.9998
2.99973
2.9988
2.99849
2.99324
2.99064
2.96294
2.93781
2.74698
2.50711
1.73694
0.772226
0.380245
0.353706
0.395299
0.426307
0.432253
0.426557
0.416049
0.406145
0.398967
0.393088
0.387308
0.381168
0.374461
0.366932
0.358531
0.349452
0.339844
0.329688
0.318865
0.307193
0.294445
0.280423
0.264635
0.247494
0.229341
0.21014
0.190147
0.16944
0.14907
0.128951
0.107676
0.0854717
0.0641746
0.0434938
0.0315312
3
2.99997
2.99996
2.9998
2.99974
2.9989
2.99864
2.99416
2.99024
2.96415
2.93731
2.73624
2.50376
1.79467
0.777051
0.378024
0.350155
0.393215
0.425145
0.431323
0.425715
0.415216
0.405309
0.398244
0.392627
0.387187
0.381381
0.374985
0.367695
0.359411
0.350384
0.340783
0.330613
0.319783
0.308134
0.295458
0.281552
0.265938
0.249056
0.231235
0.212454
0.192986
0.172897
0.15321
0.133885
0.113601
0.0925775
0.0727398
0.0543491
0.0445007
3
2.99997
2.99996
2.9998
2.99976
2.99877
2.99862
2.99325
2.98925
2.96068
2.94298
2.75264
2.52982
1.81621
0.794626
0.40101
0.363233
0.40118
0.430551
0.43524
0.428597
0.417505
0.407065
0.399522
0.393504
0.387748
0.381707
0.375134
0.367771
0.359594
0.350792
0.341467
0.331573
0.320993
0.309568
0.297109
0.283417
0.268044
0.25149
0.234075
0.215788
0.196917
0.17752
0.158581
0.140102
0.12086
0.10112
0.0828977
0.0667256
0.0584164
3
2.99997
2.99996
2.99981
2.99977
2.99892
2.99875
2.99421
2.99073
2.96583
2.94042
2.73762
2.51057
1.74758
0.78448
0.388773
0.353377
0.396185
0.429094
0.435827
0.4305
0.420466
0.410828
0.403961
0.398516
0.393163
0.387309
0.380745
0.373196
0.364616
0.355341
0.34554
0.33522
0.324301
0.312649
0.300089
0.286397
0.271159
0.254915
0.237922
0.220178
0.20198
0.183364
0.165267
0.147722
0.129601
0.111225
0.094645
0.0804572
0.073317
3
2.99998
2.99997
2.99983
2.99977
2.99901
2.99858
2.99418
2.99142
2.96617
2.93786
2.74774
2.50849
1.75977
0.80232
0.395694
0.351314
0.394414
0.428746
0.436434
0.43184
0.422439
0.413257
0.406797
0.401758
0.396798
0.391283
0.384972
0.377565
0.369035
0.359734
0.349838
0.339373
0.328296
0.31652
0.303918
0.290247
0.275146
0.259267
0.242764
0.225628
0.208175
0.190432
0.173284
0.156784
0.139872
0.122903
0.107916
0.0954612
0.0892079
3
2.99997
2.99997
2.99982
2.99978
2.99903
2.99867
2.99458
2.99231
2.96866
2.93829
2.75394
2.51848
1.7776
0.819994
0.411364
0.359729
0.400748
0.434193
0.441001
0.435837
0.426342
0.417081
0.410663
0.40574
0.4009
0.395465
0.389134
0.381685
0.373228
0.36402
0.3542
0.34377
0.332702
0.32094
0.308409
0.29484
0.279946
0.264503
0.248586
0.232166
0.215564
0.198789
0.182683
0.167325
0.151689
0.136151
0.122649
0.111669
0.106147
3
2.99998
2.99996
2.99983
2.99978
2.999
2.99878
2.99419
2.99105
2.96902
2.93903
2.77829
2.5136
1.81829
0.838678
0.416746
0.352986
0.395986
0.432806
0.441943
0.438557
0.430276
0.421645
0.415528
0.410779
0.406026
0.400594
0.394172
0.386575
0.378029
0.368784
0.35896
0.348551
0.337527
0.32585
0.313486
0.300128
0.285555
0.270664
0.255448
0.239844
0.224178
0.208467
0.193488
0.17936
0.165062
0.150951
0.138838
0.129159
0.12421
3
2.99998
2.99997
2.99982
2.99975
2.99893
2.9985
2.99423
2.99151
2.96708
2.93624
2.77006
2.5391
1.85913
0.863341
0.431481
0.354641
0.397063
0.435122
0.444905
0.442084
0.434488
0.426403
0.420862
0.416677
0.412329
0.407075
0.400584
0.392785
0.384033
0.374607
0.36464
0.354142
0.343101
0.331491
0.319319
0.306225
0.292065
0.277813
0.263407
0.248748
0.23414
0.219594
0.205825
0.192998
0.180106
0.167387
0.156576
0.148041
0.143604
3
2.99997
2.99997
2.99982
2.9998
2.99899
2.99869
2.99465
2.99092
2.96771
2.94366
2.75654
2.56098
1.82896
0.884847
0.446502
0.355677
0.398235
0.438076
0.448634
0.446194
0.43898
0.431109
0.425891
0.422084
0.418032
0.412922
0.406378
0.398525
0.389786
0.3804
0.370481
0.36005
0.349124
0.337699
0.325822
0.313069
0.299471
0.285999
0.272517
0.25892
0.245497
0.232231
0.219777
0.20831
0.196812
0.185548
0.175979
0.168469
0.164485
3
2.99997
2.99997
2.99981
2.99978
2.99889
2.99869
2.99359
2.99221
2.96282
2.95188
2.77602
2.59582
1.92479
0.922082
0.469441
0.359124
0.40048
0.442033
0.454204
0.452984
0.446787
0.439371
0.434322
0.430453
0.426104
0.420421
0.413254
0.404996
0.396012
0.386515
0.376591
0.366254
0.35552
0.344388
0.332909
0.320593
0.30771
0.29519
0.282802
0.270404
0.258281
0.246424
0.23541
0.225454
0.215484
0.205597
0.197266
0.190821
0.187279
3
2.99998
2.99997
2.99982
2.99977
2.99888
2.9987
2.99365
2.99207
2.96433
2.95282
2.81409
2.59283
1.94794
0.954061
0.483204
0.356165
0.399217
0.443786
0.458291
0.458489
0.453365
0.446474
0.441669
0.437821
0.433243
0.427121
0.41957
0.411049
0.401942
0.392452
0.38264
0.372526
0.362128
0.351436
0.340453
0.3287
0.31679
0.305422
0.294314
0.283293
0.272631
0.262337
0.252902
0.2446
0.236238
0.227955
0.220851
0.21535
0.212293
3
2.99998
2.99997
2.99986
2.99979
2.99912
2.9987
2.99471
2.993
2.97001
2.94597
2.79123
2.59184
1.95674
0.985879
0.498423
0.351529
0.397223
0.445721
0.462697
0.463863
0.45911
0.452022
0.446849
0.442581
0.437586
0.431232
0.423681
0.415361
0.406592
0.397517
0.388156
0.378554
0.368732
0.358699
0.348313
0.337397
0.32668
0.316646
0.307019
0.297616
0.28864
0.280112
0.27243
0.265909
0.25935
0.25276
0.247093
0.242867
0.240408
3
2.99998
2.99997
2.99985
2.99979
2.99909
2.99873
2.99519
2.99228
2.97281
2.94356
2.79647
2.61064
1.93965
1.02269
0.516909
0.349406
0.396149
0.447182
0.465652
0.467013
0.462223
0.454886
0.449398
0.4449
0.439853
0.433669
0.426492
0.418697
0.410549
0.402114
0.393421
0.384525
0.375466
0.366156
0.356503
0.346795
0.337456
0.328923
0.320987
0.313334
0.306244
0.299738
0.294078
0.289649
0.285246
0.280736
0.276884
0.274057
0.272365
3
2.99998
2.99998
2.99985
2.9998
2.99919
2.99884
2.9959
2.99268
2.97413
2.94527
2.84293
2.60357
2.00379
1.06447
0.537469
0.34296
0.392331
0.447115
0.467247
0.468935
0.464144
0.456603
0.450773
0.446269
0.441531
0.43583
0.429252
0.422144
0.414674
0.406886
0.39887
0.390709
0.382368
0.373739
0.365152
0.356864
0.349138
0.342302
0.336269
0.330692
0.325674
0.32141
0.318053
0.316171
0.314403
0.312497
0.311019
0.310381
0.310243
3
2.99998
2.99997
2.99986
2.99979
2.9992
2.99878
2.9955
2.99295
2.97219
2.94974
2.82075
2.64364
2.01927
1.11444
0.560872
0.339664
0.390971
0.448962
0.470361
0.471816
0.466523
0.458682
0.452793
0.448412
0.443899
0.438584
0.432522
0.425905
0.418893
0.411645
0.404264
0.39674
0.389068
0.381496
0.374276
0.367598
0.361683
0.35675
0.352781
0.349531
0.346919
0.345265
0.344562
0.345679
0.347324
0.349077
0.351256
0.35412
0.356402
3
2.99998
2.99997
2.99987
2.99981
2.99922
2.99893
2.99585
2.99381
2.9757
2.95396
2.83927
2.66184
2.05999
1.16179
0.587799
0.335585
0.389788
0.451019
0.474352
0.476037
0.470844
0.462942
0.456621
0.45165
0.446679
0.441131
0.435052
0.42866
0.422134
0.415533
0.408847
0.402151
0.395621
0.389445
0.38385
0.379028
0.375126
0.372299
0.370563
0.369864
0.370017
0.37126
0.373692
0.378533
0.384692
0.391538
0.399445
0.408594
0.417418
3
2.99998
2.99998
2.99987
2.99985
2.99926
2.99907
2.99575
2.9937
2.97485
2.9582
2.84438
2.68336
2.11493
1.22592
0.616427
0.332368
0.389595
0.453829
0.479115
0.480984
0.475313
0.467005
0.46012
0.4546
0.449188
0.44341
0.437353
0.431246
0.425178
0.419159
0.413281
0.407651
0.40246
0.397888
0.394085
0.39127
0.38955
0.388982
0.389666
0.391699
0.394871
0.399347
0.405614
0.415064
0.427491
0.441652
0.458822
0.479982
0.50499
3
2.99998
2.99998
2.99987
2.99985
2.99924
2.99902
2.99603
2.99366
2.97873
2.95654
2.86877
2.68723
2.20586
1.29402
0.648076
0.326915
0.388781
0.457028
0.484233
0.485597
0.478638
0.469217
0.461679
0.455934
0.450624
0.445159
0.439568
0.434034
0.42853
0.42312
0.418109
0.4137
0.410004
0.407072
0.405175
0.404422
0.40491
0.406681
0.409881
0.414558
0.420763
0.429134
0.440138
0.455106
0.475033
0.499579
0.532156
0.579838
0.669806
3
2.99998
2.99998
2.99986
2.99985
2.99923
2.99902
2.99564
2.99425
2.97629
2.96454
2.85991
2.72082
2.22197
1.36897
0.680634
0.324183
0.388881
0.460114
0.48853
0.489029
0.480373
0.470001
0.462201
0.456635
0.451792
0.446959
0.442153
0.437375
0.432781
0.428731
0.425363
0.422759
0.421054
0.420426
0.421119
0.423036
0.426271
0.430898
0.437277
0.445767
0.456769
0.470688
0.488028
0.510383
0.541691
0.583378
0.641762
0.735285
0.880096
3
2.99998
2.99997
2.99987
2.99982
2.99928
2.99904
2.99597
2.99498
2.97731
2.96942
2.87275
2.72658
2.27745
1.43009
0.715462
0.326
0.390507
0.461001
0.489503
0.489112
0.479094
0.468461
0.460962
0.455902
0.451794
0.447898
0.444174
0.440804
0.437748
0.435274
0.433643
0.43302
0.433583
0.435272
0.438145
0.442245
0.447771
0.455172
0.464961
0.477185
0.492086
0.510585
0.533485
0.56248
0.601623
0.655764
0.727515
0.835806
0.960463
3
2.99999
2.99996
2.99986
2.99979
2.99928
2.99885
2.99601
2.99423
2.97996
2.96732
2.87567
2.72797
2.29582
1.46205
0.74177
0.330283
0.391086
0.45807
0.486568
0.485641
0.475303
0.465583
0.459046
0.455035
0.452065
0.449295
0.446804
0.444873
0.443509
0.442787
0.44304
0.444284
0.446637
0.450108
0.454776
0.461019
0.469091
0.479208
0.491641
0.506693
0.52495
0.546859
0.574124
0.607338
0.649086
0.705071
0.773702
0.870377
0.964167
2.99999
2.99999
2.99992
2.9999
2.99961
2.99943
2.99839
2.99719
2.99264
2.97829
2.96994
2.88316
2.7356
2.31911
1.48306
0.764896
0.336765
0.390849
0.455271
0.482283
0.480588
0.47149
0.463051
0.458019
0.455373
0.453599
0.452186
0.451057
0.450449
0.450584
0.451428
0.453074
0.455715
0.459535
0.464639
0.47111
0.479179
0.489079
0.500938
0.515289
0.532358
0.552723
0.577091
0.605949
0.640907
0.681604
0.733252
0.792168
0.87074
0.946049
2.99999
2.99998
2.99989
2.99988
2.9994
2.9993
2.99674
2.99568
2.98429
2.98395
2.94007
3.00218
2.72682
2.30586
1.45618
0.739351
0.326799
0.388944
0.458251
0.482968
0.480835
0.47243
0.4644
0.459855
0.457537
0.45617
0.455453
0.455282
0.455805
0.457084
0.459176
0.462107
0.466069
0.471221
0.477625
0.485466
0.494931
0.506227
0.519658
0.535297
0.553746
0.574894
0.600172
0.6288
0.663064
0.701295
0.747122
0.798585
0.859043
0.922121
2.99999
2.99999
2.99991
2.9999
2.99944
2.99936
2.99685
2.9956
2.98394
2.98439
2.93528
3.02484
2.74308
2.32478
1.44829
0.748211
0.354693
0.404493
0.466587
0.489717
0.487644
0.479371
0.471217
0.466558
0.463961
0.462426
0.461774
0.461975
0.46291
0.464582
0.467139
0.470582
0.475213
0.481116
0.488339
0.497019
0.507413
0.51958
0.533991
0.550391
0.569615
0.590948
0.615972
0.64355
0.67585
0.711063
0.751541
0.796302
0.846786
0.896425
3.00001
3
3
2.99997
2.99996
2.9999
3.00001
2.99922
3.00333
2.98803
3.03952
2.96699
2.84108
2.13461
1.37152
0.503677
0.292814
0.353465
0.413893
0.435853
0.442294
0.444442
0.445891
0.449133
0.452952
0.456459
0.459737
0.463113
0.466616
0.470462
0.474728
0.479613
0.485173
0.491835
0.499716
0.508881
0.519499
0.531746
0.545977
0.562219
0.581049
0.601884
0.625982
0.652145
0.682033
0.714366
0.750004
0.788896
0.831576
0.873537
3
3
2.99996
2.99996
2.99976
2.99966
2.99867
2.99788
2.99191
2.98543
2.95298
2.93208
2.78219
2.27604
1.47518
0.572566
0.328972
0.373294
0.420408
0.439363
0.445876
0.448942
0.45122
0.455231
0.460341
0.465517
0.470616
0.475768
0.480857
0.485811
0.490798
0.495969
0.50168
0.508056
0.515681
0.524619
0.535165
0.547048
0.560508
0.575641
0.593085
0.612533
0.63465
0.659101
0.686027
0.71554
0.747216
0.781251
0.817796
0.853199
3
3
2.99996
2.99995
2.99977
2.99972
2.99876
2.99811
2.99279
2.98799
2.95645
2.93851
2.73431
2.38058
1.5999
0.63798
0.34601
0.391763
0.4428
0.472824
0.482824
0.485239
0.486512
0.488431
0.491745
0.49561
0.49975
0.504069
0.50815
0.511993
0.515954
0.520166
0.524788
0.530012
0.536265
0.543784
0.553142
0.563827
0.576516
0.590609
0.606865
0.624884
0.644932
0.667223
0.69148
0.71789
0.746312
0.776042
0.807671
0.837713
3
3
2.99997
2.99996
2.99984
2.99972
2.99891
2.99829
2.99294
2.99005
2.9603
2.94128
2.73706
2.46512
1.73194
0.702876
0.378291
0.401217
0.452099
0.496595
0.514
0.518232
0.519566
0.520547
0.522728
0.525206
0.527751
0.530526
0.533154
0.535585
0.538255
0.541484
0.545337
0.54989
0.555447
0.562018
0.570285
0.580123
0.591778
0.604713
0.619413
0.635852
0.653933
0.673893
0.695722
0.719257
0.744499
0.770873
0.798828
0.825419
3
3
2.99998
2.99997
2.99983
2.99977
2.99889
2.99852
2.99353
2.99094
2.9638
2.94701
2.76813
2.54184
1.8344
0.810006
0.426222
0.400656
0.454389
0.508262
0.532625
0.539182
0.54024
0.539618
0.539346
0.539469
0.539846
0.540946
0.542389
0.544316
0.54696
0.55047
0.554942
0.56029
0.56652
0.573493
0.581619
0.590961
0.602116
0.614864
0.628993
0.644449
0.661177
0.679369
0.698997
0.720066
0.742337
0.765731
0.790427
0.814013
3
3
2.99998
2.99998
2.99987
2.99985
2.99916
2.99889
2.99446
2.99203
2.96716
2.95351
2.79105
2.57126
1.89205
0.871585
0.451725
0.398315
0.456438
0.515273
0.540913
0.547593
0.546863
0.543093
0.540164
0.538541
0.538119
0.539049
0.540974
0.543318
0.546478
0.550694
0.556012
0.562322
0.569578
0.577617
0.586521
0.59632
0.607183
0.619363
0.632808
0.647791
0.663945
0.681352
0.699624
0.719187
0.739402
0.760679
0.782821
0.803894
3.00001
3.00001
3.00001
3.00004
3.00006
3.00015
3.0001
3.00054
2.9983
3.00721
2.95753
3.13285
2.88246
2.56136
1.79204
1.0336
0.439027
0.383109
0.431808
0.480573
0.495271
0.495066
0.493051
0.491962
0.494005
0.498237
0.503974
0.510465
0.517337
0.524218
0.531285
0.538688
0.546687
0.555333
0.564709
0.574668
0.585164
0.596212
0.607968
0.620606
0.634227
0.648899
0.664497
0.681142
0.698598
0.716998
0.735974
0.755742
0.776244
0.795631
3.00001
3.00002
3.00002
3.00006
3.00008
3.00039
3.00056
3.00208
3.00125
3.00991
2.96765
3.12998
2.90603
2.60457
1.8745
1.1125
0.467847
0.385645
0.42504
0.461951
0.467573
0.461198
0.45724
0.457256
0.461475
0.468776
0.478081
0.488254
0.498662
0.509018
0.519384
0.529652
0.539926
0.550397
0.561357
0.57281
0.584624
0.596692
0.609187
0.622114
0.635721
0.650181
0.665394
0.681505
0.698241
0.715821
0.733918
0.752559
0.771841
0.790012
3.00001
3.00001
3.00001
3.00002
3
3.00011
3.0001
3.00125
3.0008
3.00948
2.97682
3.13713
2.90119
2.64425
1.92433
1.15527
0.455269
0.362617
0.407248
0.449771
0.460608
0.458043
0.456029
0.457026
0.461284
0.468301
0.477567
0.488003
0.499158
0.510381
0.521199
0.53186
0.542562
0.553213
0.56396
0.575191
0.587073
0.599398
0.612226
0.625435
0.639041
0.653191
0.667857
0.683167
0.698934
0.715427
0.732498
0.750071
0.768189
0.785309
3
3
2.99999
2.99997
2.99992
2.99981
2.99942
2.99897
2.99631
2.99429
2.97946
2.95863
2.85314
2.66213
2.10435
1.14565
0.618663
0.425991
0.457536
0.497949
0.514204
0.512606
0.50714
0.502561
0.500071
0.499937
0.502873
0.507862
0.514635
0.52254
0.531341
0.540548
0.549526
0.558614
0.568287
0.578602
0.589298
0.600636
0.613261
0.626752
0.640422
0.65441
0.66871
0.683458
0.698608
0.71428
0.730408
0.746965
0.763945
0.779975
3.00001
3
3
2.99997
2.99995
2.99982
2.99983
2.99941
2.99881
3.00063
2.99477
3.05529
2.92146
2.78939
2.08377
1.31848
0.506114
0.35809
0.412373
0.470023
0.493359
0.499521
0.501347
0.502395
0.504023
0.506657
0.510746
0.51609
0.522427
0.529454
0.537124
0.545478
0.554376
0.562907
0.571436
0.580858
0.590951
0.601474
0.612451
0.624522
0.638253
0.65268
0.667351
0.682014
0.696802
0.711846
0.727081
0.7427
0.758618
0.773635
3.00001
3
3
2.99996
2.99995
2.99975
2.99968
2.99857
2.99801
2.99214
2.98738
2.95778
2.92531
2.7395
2.21342
1.40559
0.53874
0.352854
0.407329
0.465805
0.491966
0.502236
0.507027
0.510901
0.51484
0.519476
0.525084
0.53086
0.536171
0.541348
0.547223
0.553812
0.561052
0.568585
0.576568
0.58495
0.593836
0.603351
0.613381
0.6241
0.636139
0.649338
0.663156
0.677557
0.692268
0.707117
0.722051
0.737288
0.752661
0.767158
3.00001
3
3
2.99997
2.99996
2.99976
2.99972
2.99862
2.99815
2.99302
2.98845
2.95895
2.93936
2.75994
2.33299
1.54349
0.595182
0.341483
0.39889
0.46181
0.499628
0.518731
0.52816
0.534305
0.539851
0.545608
0.551316
0.555939
0.55884
0.560969
0.563328
0.566478
0.570551
0.575397
0.581559
0.588916
0.596757
0.605012
0.613812
0.623401
0.634202
0.646395
0.659294
0.672758
0.686798
0.701508
0.716438
0.731469
0.746588
0.760787
3.00001
3
3
2.99998
2.99997
2.99984
2.99977
2.99899
2.99851
2.9949
2.99038
2.96619
2.93596
2.71762
2.42084
1.66946
0.67668
0.363116
0.407037
0.467523
0.515699
0.540604
0.551242
0.557175
0.56237
0.567251
0.571276
0.573203
0.573101
0.572823
0.573173
0.574384
0.576205
0.579185
0.584434
0.591164
0.59869
0.606754
0.61533
0.624477
0.634472
0.64542
0.657224
0.670006
0.683358
0.697094
0.711181
0.725671
0.74058
0.75472
3.00001
3
3
2.99999
2.99998
2.99987
2.99982
2.99912
2.99892
2.99338
3.0034
2.94278
3.1374
2.84846
2.48543
1.663
0.901351
0.399949
0.409911
0.46181
0.510942
0.529519
0.531839
0.530347
0.53069
0.53342
0.537612
0.541955
0.545201
0.548556
0.552746
0.557645
0.562878
0.568435
0.575736
0.584774
0.594095
0.603692
0.613545
0.623701
0.634242
0.645309
0.656954
0.668996
0.681442
0.69421
0.707379
0.720702
0.734489
0.747426
3.00001
3
3
2.99999
2.99998
2.9999
2.99981
2.99928
2.99881
2.99614
2.98986
2.97522
2.9334
2.80267
2.50784
1.82386
0.85355
0.446129
0.402926
0.460442
0.516858
0.542629
0.548623
0.546486
0.543603
0.541865
0.541442
0.541887
0.543146
0.545377
0.548166
0.551736
0.556482
0.562158
0.569042
0.577822
0.587353
0.597272
0.60787
0.619014
0.630446
0.642196
0.654221
0.666406
0.678766
0.691245
0.703949
0.716758
0.729754
0.741994
3.00001
3
3
2.99998
2.99998
2.99987
2.99983
2.99916
2.99888
2.9949
2.99209
2.9727
2.94123
2.81243
2.57462
1.93473
0.949569
0.500423
0.413218
0.466832
0.526507
0.558359
0.568486
0.568417
0.564219
0.560592
0.558445
0.55664
0.55524
0.55481
0.55536
0.557456
0.560416
0.564309
0.569582
0.576502
0.585166
0.594733
0.604901
0.615796
0.627334
0.639374
0.651538
0.66375
0.676007
0.688188
0.700402
0.712577
0.724795
0.736183
3.00001
3.00001
3.00001
3
3.00001
3
3.00007
2.99999
3.00048
2.99839
3.00725
2.95964
3.1294
2.88978
2.58211
1.83487
1.08563
0.476897
0.403491
0.448601
0.498837
0.518291
0.520255
0.519359
0.519469
0.520857
0.524056
0.52832
0.532737
0.53706
0.542006
0.5477
0.553847
0.560581
0.568044
0.576242
0.585156
0.594735
0.604948
0.615585
0.626456
0.637534
0.648767
0.660039
0.67139
0.682628
0.693941
0.705325
0.71681
0.72774
3.00001
3.00001
3.00001
3.00001
3.00003
3.00007
3.00027
3.00049
3.002
3.00128
3.0127
2.97145
3.13669
2.91668
2.625
1.9212
1.16211
0.494425
0.406749
0.444005
0.482226
0.490777
0.485918
0.482598
0.483621
0.488598
0.495788
0.503798
0.512118
0.520629
0.529595
0.538643
0.547719
0.556966
0.566244
0.575635
0.58514
0.594882
0.604694
0.614652
0.624736
0.634843
0.644973
0.655013
0.665178
0.675279
0.685591
0.696141
0.706912
0.717219
3.00001
3.00001
3.00001
3.00001
3.00002
3.00005
3.00016
3.0004
3.00172
3.00109
3.0127
2.97294
3.13822
2.9173
2.64449
1.94172
1.18398
0.497981
0.392712
0.433089
0.476971
0.491493
0.489865
0.486628
0.486487
0.490131
0.496416
0.503662
0.511515
0.519955
0.528741
0.537733
0.546979
0.556269
0.565197
0.574231
0.583793
0.593571
0.603368
0.613249
0.622981
0.632568
0.64207
0.651483
0.660911
0.670548
0.68025
0.690323
0.700576
0.710408
3.00001
3.00001
3
3
2.99999
2.99992
2.99986
2.99942
2.9992
2.99663
2.99516
2.97887
2.95767
2.85975
2.66091
2.13907
1.18417
0.654339
0.459386
0.487766
0.528476
0.550666
0.54987
0.541328
0.533547
0.52868
0.526689
0.527194
0.529651
0.533091
0.537751
0.543923
0.551243
0.559373
0.567877
0.576466
0.585299
0.594635
0.604089
0.613551
0.623053
0.632442
0.641662
0.650804
0.659699
0.668855
0.677903
0.687521
0.697225
0.70655
3.00001
3.00001
3
3
3
2.99997
2.99996
2.99994
3.00007
3.00006
3.00296
2.99725
3.02703
2.95428
2.8397
2.09402
1.32821
0.537813
0.381147
0.425527
0.478677
0.505638
0.512549
0.513021
0.513341
0.514976
0.517588
0.522161
0.527794
0.533565
0.539701
0.546546
0.554307
0.562889
0.57161
0.58024
0.588704
0.597029
0.605412
0.613936
0.62244
0.631117
0.639752
0.648598
0.657186
0.666132
0.674754
0.683869
0.693117
0.701986
3.00001
3.00001
3
3
2.99997
2.99996
2.99979
2.99973
2.999
2.9987
2.99385
2.98829
2.99273
2.9137
2.70903
2.17409
1.39907
0.577432
0.381415
0.420012
0.470824
0.498157
0.507889
0.511503
0.515045
0.519384
0.5245
0.530215
0.535784
0.541576
0.547872
0.554402
0.560963
0.568227
0.576122
0.583882
0.591561
0.59915
0.606551
0.613891
0.621367
0.629063
0.636931
0.645067
0.65331
0.661828
0.670385
0.679283
0.688244
0.696938
3.00001
3.00001
3
3
2.99995
2.99994
2.99966
2.9996
2.99778
2.99696
2.9855
2.99514
2.92233
3.12523
2.79211
2.37021
1.48457
0.794844
0.425376
0.449995
0.500157
0.538346
0.548843
0.545094
0.539889
0.536592
0.53514
0.53523
0.5369
0.540044
0.544643
0.55047
0.557261
0.564829
0.573024
0.581611
0.590251
0.598781
0.607158
0.615463
0.623796
0.632203
0.640587
0.648884
0.657004
0.665134
0.673175
0.681438
0.689478
0.697237
3.00001
3.00001
3
3
2.99997
2.99996
2.99978
2.99975
2.99879
2.99836
2.99487
2.98778
2.96158
2.92701
2.70025
2.43055
1.69661
0.711667
0.377105
0.414382
0.472538
0.521431
0.541481
0.544993
0.544129
0.543295
0.543621
0.544915
0.54702
0.549932
0.553682
0.558189
0.563599
0.570006
0.576969
0.58425
0.591671
0.599147
0.606713
0.614498
0.62256
0.630849
0.639196
0.647531
0.655713
0.663853
0.671692
0.679559
0.687007
0.694127
3.00001
3.00001
3
3
2.99997
2.99996
2.99981
2.99973
2.99884
2.99846
2.99323
2.99015
2.96206
2.94569
2.76777
2.53114
1.82613
0.803382
0.428938
0.415843
0.46847
0.521982
0.549088
0.558414
0.561233
0.562449
0.563418
0.564831
0.566688
0.56877
0.570913
0.573076
0.575296
0.578134
0.582307
0.587416
0.592935
0.598887
0.60528
0.612119
0.619399
0.627087
0.635093
0.643321
0.651665
0.66005
0.668363
0.676558
0.684427
0.691813
3.00001
3.00001
3
3
2.99998
2.99998
2.99987
2.99982
2.99923
2.9988
2.99506
2.99186
2.97041
2.94126
2.80442
2.51609
1.84507
0.871551
0.457943
0.402911
0.460967
0.52478
0.560136
0.573903
0.577816
0.578013
0.577819
0.578709
0.579834
0.580437
0.580409
0.580153
0.580034
0.580353
0.582116
0.585653
0.590002
0.595053
0.60076
0.607094
0.614033
0.621536
0.629536
0.637933
0.646622
0.655466
0.664339
0.673104
0.681599
0.689724
3.00001
3.00001
3
3
2.99999
2.99998
2.99989
2.99985
2.99935
2.99886
2.99704
2.99123
2.97837
2.93899
2.81695
2.5372
1.87735
0.920117
0.481981
0.405238
0.46381
0.528141
0.562965
0.576028
0.57828
0.577282
0.5777
0.579528
0.581452
0.582707
0.582653
0.582144
0.581728
0.581625
0.582823
0.586132
0.590254
0.594962
0.600254
0.606122
0.612571
0.619606
0.627189
0.63525
0.643693
0.652379
0.661135
0.669831
0.678334
0.686384
3.00001
3.00001
3.00001
3.00001
3.00001
3.00004
3.00006
3.00014
3.00004
3.0005
2.99818
3.00722
2.95632
3.13474
2.88018
2.55185
1.77619
1.01944
0.428602
0.381168
0.430497
0.481885
0.502489
0.506606
0.508363
0.512463
0.519139
0.527447
0.536247
0.544401
0.551959
0.559218
0.566557
0.574044
0.582063
0.5908
0.599464
0.607881
0.616092
0.624089
0.631844
0.639311
0.646431
0.653211
0.660034
0.667118
0.673905
0.680286
0.686052
0.691241
3.00001
3.00001
3.00001
3.00002
3.00002
3.00006
3.00009
3.00029
3.00053
3.00169
3.00071
3.00933
2.9643
3.1319
2.89928
2.58661
1.84295
1.08256
0.453674
0.381175
0.42185
0.463252
0.476212
0.476641
0.478045
0.483694
0.492381
0.503044
0.514674
0.526739
0.53906
0.551555
0.564162
0.576799
0.589315
0.601488
0.612595
0.622193
0.630945
0.638963
0.646228
0.652666
0.658097
0.662517
0.666637
0.671067
0.675151
0.679384
0.683255
0.687135
3.00001
3.00001
3.00001
3.00001
3
3.00001
2.99992
3.00012
3.00019
3.00198
3.00092
3.01048
2.96418
3.135
2.89897
2.5931
1.83667
1.06959
0.428624
0.352008
0.397892
0.446119
0.466237
0.471895
0.475728
0.482264
0.491555
0.50265
0.514738
0.527285
0.540068
0.552995
0.565931
0.57879
0.59139
0.603488
0.614912
0.625358
0.634285
0.641416
0.647316
0.652224
0.656388
0.65989
0.662775
0.665212
0.66807
0.672688
0.677799
0.682882
3.00001
3.00001
3.00001
3
3
2.99998
2.99992
2.99985
2.9994
2.99924
2.99668
2.9943
2.97657
2.95506
2.81142
2.64534
1.95787
1.0286
0.536094
0.386894
0.435431
0.494717
0.529274
0.540827
0.543707
0.546519
0.551973
0.558835
0.565648
0.571608
0.57653
0.58066
0.58425
0.587516
0.590553
0.594119
0.598955
0.604069
0.609003
0.613663
0.618151
0.622844
0.627562
0.631884
0.636791
0.642398
0.648345
0.654823
0.661914
0.668858
3.00001
3.00001
3
3
2.99999
2.99996
2.99986
2.99979
2.99916
2.99882
2.9953
2.99332
2.97513
2.9617
2.84025
2.6741
2.08649
1.18779
0.618972
0.372534
0.426647
0.498316
0.538941
0.551477
0.553802
0.555308
0.558403
0.563058
0.568116
0.572749
0.576711
0.580115
0.583062
0.585618
0.587938
0.590463
0.593619
0.597287
0.601265
0.605469
0.609891
0.614555
0.619482
0.624933
0.630945
0.636795
0.642739
0.649409
0.656554
0.663612
3.00001
3
3
2.99999
2.99999
2.99996
2.9999
2.99975
2.99929
2.99876
2.99585
2.99319
2.97369
2.95922
2.83866
2.68264
2.09799
1.21366
0.616282
0.342006
0.412355
0.494477
0.535736
0.548517
0.550995
0.552459
0.555947
0.560835
0.566373
0.571843
0.576867
0.581403
0.585561
0.589382
0.592868
0.596109
0.599417
0.603124
0.607083
0.61117
0.615319
0.619543
0.623872
0.628553
0.633902
0.639215
0.644315
0.650418
0.657358
0.664477
1.16641
0.898119
0.422143
0.173013
0.0736411
0.179002
0.21563
0.243376
0.249457
0.24127
0.228183
0.216659
0.20605
0.194944
0.180461
0.162866
0.142743
0.120304
0.0964849
0.0719405
0.0470989
0.024523
0.0169733
0.0383351
0.0630475
0.0882385
0.112896
0.136782
0.160336
0.183281
0.205874
0.227502
0.248007
0.267911
0.288969
0.31025
0.330753
0.350339
0.36943
0.387915
0.406015
0.423611
0.440866
0.457691
0.474161
0.490283
0.506
0.521399
0.536452
0.551172
0.565535
0.579564
0.593232
0.606575
0.619589
0.632295
0.644681
0.656783
0.668549
0.680051
0.691209
0.702086
0.712641
0.722863
0.73279
0.742331
0.751569
0.760393
0.768846
0.776897
0.784492
0.791659
0.798306
0.804446
0.809984
0.815044
0.819282
0.82301
0.825943
0.827979
0.829399
0.830018
0.830486
0.830446
0.829795
0.828092
0.825514
0.822333
0.818791
0.815104
0.811415
0.807784
0.804418
0.801375
0.798753
0.79665
0.795145
0.794475
0.794157
0.798238
1.09269
0.940819
0.716446
0.495351
0.455414
0.391838
0.3436
0.303806
0.279741
0.252046
0.221039
0.200252
0.189871
0.195572
0.206219
0.218447
0.232637
0.248459
0.265257
0.282592
0.30029
0.318189
0.335787
0.353511
0.371629
0.390143
0.408591
0.427117
0.44538
0.463687
0.481628
0.499449
0.516421
0.532834
0.549446
0.566825
0.583903
0.600327
0.616177
0.631748
0.64687
0.661719
0.676146
0.690309
0.704077
0.717557
0.730667
0.743503
0.756047
0.768364
0.780496
0.792434
0.804211
0.815786
0.827133
0.838232
0.849041
0.859547
0.869751
0.879653
0.889257
0.898582
0.907648
0.916443
0.924932
0.933188
0.941147
0.948702
0.955989
0.96289
0.969334
0.975376
0.980921
0.985922
0.990355
0.994157
0.997378
0.99979
1.00153
1.00243
1.00244
1.00196
1.00106
0.9999
0.998083
0.995433
0.991952
0.988039
0.983782
0.979513
0.975264
0.97119
0.967378
0.963919
0.960909
0.958469
0.956562
0.955441
0.954612
0.957544
1.05156
1.02139
0.931029
0.835011
0.775874
0.734396
0.700802
0.673989
0.655867
0.643424
0.631122
0.623362
0.620698
0.620037
0.620201
0.620336
0.620262
0.620531
0.622066
0.625631
0.630424
0.635841
0.641762
0.648512
0.656109
0.664502
0.673617
0.683364
0.6936
0.704242
0.715278
0.726492
0.737576
0.748404
0.759681
0.771846
0.784473
0.796843
0.809071
0.821325
0.833608
0.845918
0.858187
0.870404
0.882525
0.894548
0.906429
0.918147
0.929654
0.940921
0.951953
0.96273
0.973296
0.983651
0.993836
1.00388
1.01372
1.0234
1.03279
1.04191
1.05065
1.05902
1.06704
1.07468
1.08198
1.08896
1.09564
1.10201
1.10808
1.11387
1.11941
1.12469
1.12977
1.13451
1.13895
1.14317
1.14691
1.15023
1.15318
1.15538
1.1569
1.15802
1.1589
1.15926
1.15892
1.15793
1.15608
1.15379
1.15058
1.14752
1.14386
1.1407
1.13711
1.13428
1.13118
1.12901
1.12665
1.12542
1.1237
1.12564
1.03001
1.04643
1.0248
0.987434
0.954092
0.930967
0.914215
0.900845
0.890066
0.882768
0.877744
0.873173
0.871693
0.873152
0.874881
0.875761
0.875342
0.873786
0.87171
0.869183
0.866549
0.86418
0.862312
0.861245
0.861009
0.861556
0.86328
0.866443
0.870551
0.875376
0.880998
0.887085
0.893332
0.89964
0.906522
0.91443
0.923086
0.931757
0.94046
0.949345
0.958495
0.967929
0.977628
0.987556
0.997665
1.00791
1.01828
1.02871
1.03918
1.04962
1.05998
1.07022
1.08035
1.09036
1.10023
1.10996
1.11957
1.12907
1.13847
1.14773
1.15679
1.16557
1.17396
1.18187
1.18928
1.19627
1.203
1.20932
1.21506
1.22033
1.22521
1.22968
1.23368
1.23724
1.24036
1.24305
1.24542
1.2474
1.24916
1.25051
1.25145
1.25223
1.25313
1.25399
1.25421
1.25404
1.2533
1.25215
1.2506
1.2487
1.24657
1.24445
1.24237
1.24046
1.2387
1.23723
1.23599
1.2352
1.23425
1.23627
1.00448
1.03904
1.0509
1.04731
1.03994
1.03435
1.0312
1.02885
1.02651
1.02428
1.02315
1.02375
1.025
1.02594
1.02683
1.02719
1.02654
1.02454
1.022
1.01878
1.0151
1.01103
1.007
1.00329
0.999918
0.997326
0.995714
0.994895
0.994769
0.995493
0.997328
0.999785
1.00262
1.00589
1.00998
1.01519
1.02126
1.02759
1.03402
1.0406
1.04734
1.05434
1.06164
1.06926
1.07718