/*--------------------------------*- C++ -*----------------------------------*\
| =========                 |                                                 |
| \\      /  F ield         | OpenFOAM: The Open Source CFD Toolbox           |
|  \\    /   O peration     | Version:  2412                                  |
|   \\  /    A nd           | Website:  www.openfoam.com                      |
|    \\/     M anipulation  |                                                 |
\*---------------------------------------------------------------------------*/
FoamFile
{
    version     2.0;
    format      ascii;
    arch        "LSB;label=32;scalar=64";
    class       volScalarField;
    location    "7";
    object      p;
}
// * * * * * * * * * * * * * * * * * * * * * * * * * * * * * * * * * * * * * //

dimensions      [1 -1 -2 0 0 0 0];

internalField   nonuniform List<scalar> 
7000
(
1.00001
1.00001
1.00005
1.00006
1.00035
1.00032
1.00201
1.00171
1.01184
1.01336
1.07274
1.06184
1.65069
1.78999
5.12356
10.0258
10.5284
10.287
10.0174
9.96568
10.0016
10.0901
10.1872
10.2629
10.3265
10.3901
10.4587
10.5317
10.608
10.6865
10.767
10.8498
10.9349
11.0223
11.112
11.2041
11.2989
11.3919
11.4858
11.5765
11.6628
11.7448
11.8209
11.8923
11.954
12.0063
12.0483
12.0801
12.1021
12.1175
1.00001
1.00001
1.00005
1.00009
1.00034
1.00053
1.00206
1.00285
1.01165
1.01811
1.07151
1.09271
1.59954
1.66406
5.19601
10.031
10.5359
10.2918
10.0191
9.96622
10.0019
10.0898
10.1868
10.2625
10.326
10.3894
10.4579
10.5309
10.607
10.6854
10.7659
10.8486
10.9337
11.0211
11.1107
11.2028
11.2976
11.3907
11.4845
11.5752
11.6616
11.7436
11.8197
11.8911
11.9529
12.0054
12.0475
12.0797
12.1018
12.1177
1.00001
1.00001
1.00006
1.00007
1.00037
1.00044
1.00207
1.0026
1.01056
1.01766
1.06441
1.10969
1.59338
1.82666
5.06744
10.0326
10.5334
10.2902
10.0188
9.96585
10.0014
10.089
10.1858
10.2615
10.3249
10.3881
10.4563
10.529
10.6047
10.683
10.7633
10.8459
10.9309
11.0181
11.1076
11.1995
11.2941
11.3868
11.4804
11.5709
11.657
11.7388
11.8145
11.8856
11.9474
12.0003
12.0424
12.0752
12.0978
12.1141
1.00001
1.00001
1.00007
1.00007
1.00036
1.00038
1.0019
1.00201
1.01065
1.01751
1.07324
1.08027
1.62352
1.68618
5.14195
10.0136
10.5356
10.2939
10.0207
9.96607
10.0012
10.0877
10.1841
10.2596
10.3229
10.3858
10.4535
10.5258
10.6012
10.6791
10.7592
10.8415
10.9263
11.0133
11.1025
11.194
11.2883
11.3806
11.4738
11.5637
11.6495
11.7308
11.8062
11.8769
11.9385
11.9917
12.0339
12.0674
12.0904
12.1071
1.00001
1.00001
1.00006
1.00007
1.00037
1.00041
1.00208
1.00213
1.01251
1.01691
1.07392
1.07527
1.60462
1.64507
5.12325
9.96088
10.5481
10.3091
10.0278
9.968
10.0017
10.0861
10.1818
10.2572
10.3202
10.3826
10.4497
10.5214
10.5961
10.6736
10.7534
10.8354
10.9198
11.0065
11.0952
11.1862
11.2799
11.3716
11.4641
11.5534
11.6386
11.7194
11.7942
11.8646
11.926
11.9794
12.0216
12.0557
12.0792
12.0963
1.00001
1.00001
1.00006
1.00008
1.00032
1.00042
1.00182
1.00187
1.0109
1.01325
1.07297
1.09382
1.58295
1.83322
4.95988
9.91496
10.5487
10.315
10.0316
9.96855
10.0012
10.0835
10.1785
10.2536
10.3163
10.3781
10.4445
10.5155
10.5896
10.6667
10.746
10.8275
10.9114
10.9975
11.0856
11.1758
11.2687
11.3596
11.4511
11.5395
11.6239
11.7041
11.7782
11.848
11.9092
11.9627
12.0049
12.0395
12.0634
12.0809
1.00001
1.00001
1.00006
1.00006
1.00032
1.00036
1.00169
1.00268
1.00973
1.01535
1.06452
1.09567
1.58312
1.82418
4.9431
9.85846
10.5611
10.3297
10.039
9.96962
10.0007
10.0802
10.1742
10.249
10.3112
10.3724
10.4378
10.508
10.5813
10.6577
10.7363
10.8173
10.9005
10.9859
11.0732
11.1623
11.2541
11.344
11.4344
11.5215
11.605
11.6842
11.7576
11.8267
11.8875
11.9409
11.9831
12.018
12.0421
12.0601
1.00001
1.00001
1.00006
1.00006
1.00031
1.00037
1.00167
1.00214
1.00937
1.01239
1.0642
1.08974
1.57258
1.80133
4.89037
9.76879
10.577
10.3522
10.0499
9.97186
10.0005
10.0764
10.1693
10.2434
10.305
10.3652
10.4296
10.4988
10.5713
10.6468
10.7246
10.8047
10.887
10.9714
11.0576
11.1455
11.2357
11.3245
11.4133
11.499
11.5812
11.6594
11.7317
11.8
11.8602
11.9133
11.9554
11.9904
12.0147
12.033
1.00001
1.00001
1.00006
1.00006
1.00032
1.00032
1.00182
1.00182
1.01069
1.01206
1.0688
1.0786
1.56541
1.7568
4.83355
9.61925
10.5912
10.3744
10.0595
9.97187
9.99858
10.071
10.1631
10.2367
10.2975
10.3567
10.4197
10.4879
10.5593
10.6337
10.7104
10.7893
10.8704
10.9536
11.0384
11.1248
11.213
11.3004
11.3873
11.4714
11.552
11.6288
11.6999
11.767
11.8264
11.879
11.9207
11.9557
11.98
11.9987
1.00001
1.00001
1.00006
1.00006
1.00034
1.00042
1.00183
1.00232
1.00981
1.01384
1.06881
1.06387
1.58439
1.61762
4.86579
9.55061
10.6203
10.4035
10.0706
9.972
9.99612
10.0649
10.1562
10.2292
10.2889
10.3468
10.4085
10.475
10.5453
10.6183
10.6937
10.7711
10.8506
10.9321
11.0152
11.0997
11.1854
11.2711
11.3558
11.4378
11.5166
11.5916
11.6612
11.7267
11.785
11.8366
11.8778
11.9126
11.9368
11.9559
1.00001
1.00001
1.00005
1.00007
1.00031
1.00031
1.00174
1.00221
1.00956
1.01611
1.06034
1.10326
1.50973
1.72965
4.64375
9.42139
10.6602
10.4436
10.0832
9.97034
9.99197
10.0575
10.1483
10.2208
10.2791
10.3354
10.3956
10.46
10.5287
10.6001
10.6738
10.7494
10.827
10.9064
10.9874
11.0698
11.1525
11.2358
11.3179
11.3975
11.4741
11.5468
11.6145
11.6779
11.7346
11.7849
11.8254
11.8596
11.8837
11.9032
1.00001
1.00001
1.00005
1.00007
1.00033
1.00034
1.00196
1.00212
1.01065
1.0152
1.06244
1.08284
1.50008
1.55254
4.64279
9.26726
10.6987
10.4842
10.0965
9.96895
9.98752
10.0492
10.1397
10.2116
10.2685
10.3227
10.3806
10.4432
10.5097
10.5791
10.6506
10.724
10.7991
10.876
10.9545
11.0344
11.1135
11.1939
11.273
11.3497
11.4234
11.4934
11.5586
11.6192
11.6736
11.7222
11.7613
11.7948
11.8184
11.8382
1.00001
1.00001
1.00005
1.00008
1.0003
1.00048
1.00182
1.00241
1.01078
1.01151
1.06634
1.03845
1.51435
1.57912
4.50394
9.07236
10.7254
10.5185
10.1104
9.96831
9.98363
10.0405
10.1299
10.201
10.2562
10.3081
10.3634
10.4237
10.4877
10.5544
10.6235
10.6942
10.7666
10.8405
10.9158
10.9927
11.0678
11.1447
11.2202
11.2934
11.3636
11.4301
11.4918
11.5488
11.6
11.646
11.6831
11.7153
11.7382
11.7585
1.00001
1.00001
1.00005
1.00005
1.00029
1.00029
1.0017
1.00166
1.00969
1.00925
1.06427
1.06292
1.49813
1.53723
4.43103
8.86397
10.7532
10.5502
10.1261
9.96876
9.98061
10.0315
10.1189
10.1886
10.2419
10.2911
10.3438
10.4011
10.4623
10.5261
10.5921
10.6598
10.729
10.7993
10.8708
10.9433
11.0154
11.0876
11.1587
11.2275
11.2933
11.3552
11.4125
11.4644
11.5116
11.5538
11.5878
11.6176
11.6388
11.6594
1.00001
1.00001
1.00005
1.00005
1.00029
1.00034
1.00154
1.00195
1.00841
1.01221
1.05736
1.08324
1.44971
1.6346
4.21785
8.63558
10.7818
10.5811
10.1464
9.97041
9.97838
10.0225
10.1063
10.1739
10.225
10.2716
10.3214
10.3757
10.4335
10.4939
10.5564
10.6205
10.6859
10.7523
10.8195
10.887
10.9547
11.0218
11.0875
11.1511
11.2112
11.2673
11.3185
11.3637
11.4059
11.4417
11.4708
11.4963
11.5147
11.5353
1.00001
1.00001
1.00005
1.00005
1.00027
1.00029
1.00145
1.00134
1.00831
1.01127
1.05397
1.04573
1.46575
1.53371
4.16241
8.36812
10.829
10.6233
10.1668
9.97242
9.97667
10.0146
10.092
10.1574
10.2061
10.2498
10.2964
10.3471
10.4014
10.4578
10.5162
10.5762
10.6372
10.6993
10.7608
10.8234
10.8854
10.9465
11.0059
11.0628
11.1161
11.1647
11.2076
11.2442
11.2786
11.3049
11.3262
11.3437
11.3563
11.3756
1.00001
1.00001
1.00005
1.00006
1.00025
1.00036
1.0014
1.00172
1.0085
1.01247
1.0491
1.08391
1.40819
1.5379
3.96112
8.11685
10.8882
10.6737
10.1914
9.97635
9.97622
10.0088
10.079
10.1407
10.1859
10.2261
10.2689
10.3157
10.3656
10.4176
10.4715
10.5266
10.5826
10.6391
10.6956
10.7518
10.8072
10.8613
10.9132
10.962
11.0068
11.0456
11.0781
11.1034
11.1251
11.1377
11.1452
11.1474
11.1489
11.1639
1.00001
1.00001
1.00004
1.00005
1.00024
1.00034
1.00129
1.00169
1.00725
1.01126
1.0442
1.07246
1.38395
1.44966
3.84026
7.80575
10.9627
10.7382
10.2213
9.98184
9.97225
10.0028
10.0688
10.1253
10.1657
10.2011
10.239
10.2808
10.3258
10.3728
10.4216
10.4714
10.522
10.5725
10.6226
10.6718
10.7198
10.7658
10.809
10.8481
10.8821
10.9087
10.9279
10.9377
10.9402
10.9324
10.9154
10.8903
10.8656
10.867
1.00001
1.00001
1.00004
1.00005
1.00023
1.00026
1.00122
1.00186
1.00701
1.012
1.04198
1.07456
1.34871
1.44227
3.64147
7.41488
11.0285
10.7973
10.2563
9.99053
9.97033
9.99816
10.0589
10.1096
10.144
10.1739
10.2063
10.2427
10.2823
10.3239
10.3669
10.4111
10.4552
10.4991
10.5421
10.5837
10.6233
10.66
10.6931
10.7208
10.7415
10.7535
10.7545
10.7454
10.7216
10.6779
10.6194
10.5444
10.4603
10.4115
1.00001
1.00001
1.00004
1.00005
1.00022
1.00033
1.00111
1.0019
1.00718
1.00612
1.04777
1.0443
1.35468
1.29481
3.61744
7.00536
11.1258
10.88
10.2924
9.99698
9.96413
9.98947
10.0456
10.091
10.1194
10.1433
10.1698
10.2005
10.2343
10.2699
10.3069
10.3444
10.3821
10.4189
10.4541
10.4874
10.5175
10.544
10.5652
10.5799
10.5846
10.5798
10.5615
10.5216
10.459
10.3674
10.2404
10.0696
9.84557
9.60878
1.00001
1.00001
1.00005
1.00005
1.00024
1.00027
1.00127
1.00183
1.00708
1.00984
1.04044
1.06395
1.29921
1.36109
3.27562
6.51537
11.2095
10.9597
10.3355
10.004
9.95231
9.97371
10.0239
10.064
10.0855
10.1025
10.122
10.1458
10.1718
10.2001
10.2296
10.2593
10.2883
10.3159
10.3413
10.3636
10.3819
10.3949
10.4006
10.3983
10.3861
10.3564
10.3032
10.223
10.106
9.9408
9.68919
9.29921
8.62406
7.15516
1.00001
1.00001
1.00005
1.00005
1.00024
1.00026
1.00128
1.0013
1.00698
1.00881
1.03521
1.05817
1.27897
1.28377
3.14868
6.02116
11.2252
10.9945
10.3685
10.0022
9.92805
9.94551
9.98869
10.0218
10.0364
10.0468
10.059
10.0753
10.0944
10.1138
10.1346
10.1548
10.1739
10.1908
10.2044
10.214
10.2182
10.2163
10.207
10.1844
10.1436
10.0833
9.99606
9.87213
9.69615
9.44683
9.0803
8.53393
7.72614
6.39718
1
1
1.00005
1.00005
1.00026
1.00026
1.00137
1.00155
1.00683
1.00806
1.03555
1.05935
1.26938
1.28999
3.06295
5.68195
11.1666
10.9512
10.3552
9.97809
9.89068
9.90539
9.94199
9.96706
9.97658
9.98081
9.98732
9.997
10.0088
10.0206
10.0326
10.0436
10.0524
10.0586
10.0606
10.0588
10.0515
10.0344
10.0044
9.96057
9.89837
9.81242
9.69491
9.53534
9.31845
9.02324
8.62795
8.08514
7.39014
6.47001
0.999999
1.00003
1.00003
1.00014
1.00015
1.00053
1.00103
1.00154
1.00777
1.00784
1.03534
1.05095
1.262
1.25211
3.02945
5.5615
11.0636
10.8487
10.2758
9.91654
9.84202
9.85733
9.8899
9.90831
9.91068
9.9102
9.91086
9.91354
9.91893
9.92399
9.92774
9.9302
9.93014
9.92799
9.92124
9.90721
9.88551
9.85384
9.80968
9.75014
9.67061
9.56578
9.4286
9.25037
9.02023
8.72479
8.35426
7.88437
7.34069
6.66534
1
1.00003
1.00005
1.00018
1.00019
1.00101
1.00114
1.00496
1.00669
1.02443
1.02073
1.02508
1.28754
1.29426
3.07783
5.78996
11.0584
10.8001
10.1404
9.79946
9.74909
9.768
9.80779
9.8263
9.8269
9.82525
9.82254
9.82194
9.82219
9.82206
9.82094
9.81761
9.81097
9.80035
9.78429
9.76136
9.72965
9.68736
9.63215
9.56087
9.4697
9.3542
9.20885
9.02761
8.80365
8.53008
8.20021
7.80928
7.3617
6.85182
0.999999
1.00003
1.00003
1.00017
1.0002
1.00094
1.00114
1.00492
1.00737
1.02507
1.02262
1.03486
1.26645
1.23952
3.13837
5.93426
10.8101
10.6016
10.0101
9.69583
9.65841
9.67981
9.72402
9.74399
9.74436
9.74178
9.73608
9.73125
9.72689
9.72268
9.71687
9.70879
9.69709
9.68049
9.65763
9.62743
9.58831
9.53798
9.47537
9.39652
9.29907
9.17955
9.0341
8.85837
8.64865
8.40089
8.11257
7.7829
7.4137
7.00579
1
1
1
1.00003
1.00004
1.00007
1.0001
1.00002
1.00049
0.997939
1.00569
0.98628
0.897192
2.21161
2.24118
7.60351
10.2527
10.0217
9.61254
9.48209
9.49875
9.54787
9.60379
9.6337
9.64343
9.64445
9.64299
9.63859
9.63223
9.62592
9.61804
9.60722
9.59252
9.57237
9.54562
9.51061
9.46585
9.40981
9.34141
9.25803
9.15882
9.03963
8.89892
8.73275
8.53945
8.31742
8.06575
7.78638
7.47861
7.14013
1
1.00001
1.00002
1.00007
1.00011
1.00036
1.00063
1.00242
1.003
1.01485
1.0247
1.08651
1.01936
1.98749
2.09252
6.95573
10.184
10.0069
9.61848
9.45922
9.45689
9.47928
9.52539
9.55609
9.56906
9.57083
9.56917
9.56368
9.55445
9.54432
9.53327
9.51936
9.50111
9.4775
9.44748
9.40902
9.36141
9.30363
9.23452
9.15164
9.05345
8.93777
8.80387
8.64936
8.47302
8.27398
8.0508
7.80246
7.53894
7.25449
1
1.00001
1.00002
1.00007
1.00009
1.00038
1.00043
1.00233
1.00258
1.01367
1.02168
1.08044
1.07314
1.81283
1.89354
6.31284
10.3738
10.215
9.7842
9.51533
9.43835
9.44689
9.47165
9.49984
9.51264
9.51284
9.5097
9.50099
9.48805
9.47512
9.46097
9.4439
9.42281
9.39628
9.36332
9.32246
9.27318
9.21387
9.14359
9.06112
8.96538
8.85519
8.7294
8.58689
8.42676
8.24826
8.05292
7.83928
7.61441
7.37018
1
1.00001
1.00001
1.00006
1.00006
1.00033
1.00046
1.00207
1.00251
1.013
1.01506
1.07548
1.0789
1.688
1.67768
5.60963
10.3533
10.3133
9.98181
9.58436
9.41995
9.41018
9.42497
9.45489
9.46845
9.46803
9.4632
9.45085
9.43365
9.41649
9.39853
9.37786
9.35255
9.32262
9.28701
9.24403
9.19425
9.13536
9.06734
8.98816
8.89626
8.79166
8.67392
8.54226
8.39611
8.23522
8.0603
7.87385
7.67708
7.4658
1
1.00001
1.00001
1.00006
1.00006
1.00034
1.00035
1.00203
1.0023
1.01175
1.01248
1.07188
1.05402
1.59553
1.61949
5.06206
9.88729
10.4167
10.1156
9.63778
9.41703
9.38529
9.39805
9.42567
9.43738
9.43521
9.4263
9.40762
9.38667
9.36681
9.34522
9.32184
9.29387
9.26108
9.22304
9.17894
9.12785
9.06872
9.00022
8.92272
8.83608
8.73951
8.63145
8.51101
8.3782
8.23357
8.07791
7.91321
7.73968
7.55438
1
1.00001
1.00001
1.00004
1.00006
1.00022
1.00031
1.00158
1.00172
1.01048
1.01091
1.06409
1.05289
1.53328
1.55032
4.80569
9.48472
10.4203
10.1508
9.6512
9.41266
9.37029
9.3814
9.40656
9.41484
9.41123
9.39903
9.37795
9.35397
9.33049
9.30585
9.27841
9.24696
9.21098
9.17002
9.12363
9.07111
9.01203
8.94563
8.87136
8.78834
8.69545
8.59296
8.48106
8.3598
8.22959
8.09011
7.9423
7.78729
7.62227
0.999998
0.999998
0.99999
0.999988
0.999952
0.999937
0.999836
1.00004
1.0001
1.0023
0.994081
1.02286
1.06406
0.962227
2.57219
3.73219
9.40015
10.3835
10.0874
9.60853
9.39725
9.36895
9.37632
9.38838
9.38676
9.37878
9.36148
9.3407
9.31781
9.29418
9.26838
9.23877
9.20468
9.16596
9.12252
9.07412
9.02039
8.96077
8.89483
8.82226
8.74288
8.65606
8.56133
8.45845
8.34743
8.22763
8.10144
7.96758
7.82721
7.67821
0.999998
0.999998
0.999985
0.999985
0.999891
0.999883
0.999396
0.999007
0.996994
0.997855
0.98853
1.01189
1.04326
0.937573
2.45782
3.37275
8.90923
10.2122
9.96795
9.55236
9.38915
9.38182
9.38992
9.39485
9.39054
9.37767
9.35373
9.32813
9.30146
9.27329
9.24294
9.20945
9.17177
9.12938
9.083
9.03223
8.97715
8.91748
8.8527
8.7822
8.70534
8.62189
8.53181
8.43505
8.33145
8.22116
8.10341
7.98044
7.85168
7.7153
1
1
0.999998
0.999999
0.999975
0.999999
1.00008
0.998992
0.997596
0.997988
0.98257
1.00032
1.02078
0.919312
2.44596
3.17732
8.89605
10.2939
10.0117
9.57245
9.39118
9.37373
9.38011
9.3854
9.38043
9.36556
9.33539
9.30362
9.27219
9.24092
9.20818
9.17223
9.1323
9.08773
9.03976
8.98787
8.93153
8.87103
8.80604
8.7362
8.66161
8.58186
8.49657
8.40553
8.3088
8.20656
8.09836
7.98383
7.86512
7.73983
1
1
1.00001
1.00002
1.00007
1.00016
1.00025
1.00115
1.00132
1.00667
1.00667
1.04238
1.07322
1.35259
1.32014
3.93173
7.76567
10.2572
10.1029
9.66902
9.39671
9.34511
9.351
9.3633
9.36008
9.34596
9.31344
9.27493
9.23759
9.20194
9.16628
9.12876
9.08592
9.04004
8.98971
8.93528
8.87906
8.81784
8.75603
8.68957
8.61962
8.54457
8.46406
8.37828
8.28713
8.19093
8.08922
7.98294
7.87236
7.75617
1
1
1.00001
1.00002
1.00006
1.0001
1.00011
1.0006
1.00051
1.00081
0.992634
0.991245
1.00223
0.911015
2.29209
2.45014
8.08865
10.3085
10.0652
9.56489
9.3213
9.2822
9.29191
9.3118
9.31101
9.29959
9.26851
9.22588
9.18712
9.15219
9.11748
9.07976
9.03869
8.9895
8.93979
8.88589
8.82997
8.77081
8.70991
8.64607
8.57818
8.506
8.43055
8.35103
8.2665
8.1768
8.08259
7.98418
7.88143
7.77346
1
1
1.00001
1.00002
1.00007
1.0001
1.00044
1.00047
1.00257
1.003
1.01259
1.0216
1.07923
0.998905
2.10545
2.25785
7.62963
10.3367
10.0803
9.55109
9.30884
9.25561
9.26078
9.2727
9.2703
9.25652
9.22377
9.18325
9.14204
9.10673
9.07191
9.03358
8.99124
8.94456
8.89505
8.8421
8.78637
8.729
8.67005
8.60784
8.54624
8.47844
8.40738
8.33222
8.25291
8.16966
8.08244
7.98948
7.89352
7.79275
1
1
1.00001
1.00001
1.00007
1.00008
1.00043
1.00046
1.00236
1.00261
1.01231
1.02206
1.07212
1.03678
1.88902
2.0203
6.86403
10.4571
10.2009
9.64546
9.34318
9.23617
9.22039
9.22293
9.2197
9.20478
9.17045
9.13191
9.09275
9.05902
9.02419
8.98671
8.94541
8.899
8.85243
8.80139
8.7482
8.69352
8.63759
8.57897
8.51989
8.45699
8.39113
8.3217
8.24852
8.17064
8.08729
8.00072
7.91132
7.81705
1
1
1.00001
1.00001
1.00005
1.00007
1.00027
1.00044
1.00159
1.00227
1.01038
1.01426
1.07493
1.06366
1.74789
1.79245
5.93732
10.5395
10.3658
9.83909
9.42374
9.23401
9.18619
9.18152
9.17176
9.14986
9.11961
9.08097
9.04759
9.01574
8.98235
8.94702
8.90645
8.86401
8.8219
8.7721
8.72254
8.67139
8.61905
8.56456
8.50832
8.449
8.38644
8.32057
8.25012
8.17591
8.09853
8.01765
7.93324
7.84424
1
1
1.00001
1.00001
1.00004
1.00004
1.00027
1.00035
1.00159
1.00263
1.01207
1.00206
1.03948
1.09954
1.00341
2.78101
4.3708
10.3566
10.4625
10.056
9.51246
9.24346
9.16293
9.14471
9.12783
9.0998
9.06886
9.03522
9.00137
8.97213
8.94094
8.90861
8.87298
8.83279
8.79693
8.75137
8.70438
8.65625
8.60629
8.55448
8.50099
8.44533
8.38664
8.32382
8.25751
8.18766
8.11437
8.03744
7.95707
7.87212
1
1
1.00001
1.00001
1.00003
1.00004
1.00022
1.00023
1.00152
1.00082
1.01014
1.00891
1.06872
1.06403
1.57188
1.70267
4.79475
9.43215
10.2824
10.0049
9.4897
9.21486
9.12251
9.10462
9.09431
9.07365
9.04554
9.01237
8.98274
8.95333
8.92323
8.89165
8.85841
8.82066
8.78215
8.7423
8.69668
8.65056
8.60311
8.55407
8.50301
8.44917
8.39216
8.33231
8.2693
8.20261
8.13225
8.05832
7.98119
7.89974
1
1
1.00001
1.00001
1.00004
1.00005
1.00024
1.00036
1.0014
1.00193
1.00921
1.00974
1.06221
1.05869
1.50397
1.54064
4.50817
8.84027
10.1888
9.97463
9.49525
9.20151
9.09592
9.07851
9.07178
9.05816
9.02985
8.99568
8.96642
8.93878
8.91177
8.88265
8.85083
8.81614
8.77852
8.73914
8.69649
8.65141
8.60523
8.55725
8.50706
8.45452
8.39968
8.34216
8.28161
8.21773
8.15033
8.07946
8.00544
7.92725
1
1
1
1
1
0.999992
0.999989
0.99991
1.00005
0.999963
1.00179
0.993424
1.02032
1.05722
0.955706
2.5005
3.51986
8.9272
10.1124
9.85764
9.37531
9.12901
9.06049
9.05021
9.04195
9.02632
8.99962
8.97092
8.94476
8.92124
8.89945
8.87375
8.84529
8.8132
8.77757
8.73926
8.69823
8.65486
8.6097
8.56261
8.51372
8.46301
8.4099
8.35399
8.29476
8.23271
8.16739
8.09927
8.0283
7.95376
1
0.999999
0.999999
0.999994
0.999985
0.999938
0.999924
0.999411
0.999004
0.996312
0.996982
0.982996
1.004
1.03117
0.92681
2.39904
3.12867
8.49591
9.87348
9.6662
9.26585
9.08235
9.05194
9.05101
9.04627
9.03302
9.00589
8.97753
8.95029
8.92556
8.90238
8.87716
8.84941
8.81725
8.78195
8.74413
8.70345
8.66038
8.61526
8.56919
8.52143
8.47129
8.41897
8.36422
8.30665
8.24659
8.18364
8.1179
8.04939
7.97766
1
1
1
0.999997
0.999992
0.999961
0.999952
0.999529
0.999044
0.996646
0.997059
0.981288
1.00075
1.0245
0.92509
2.35989
3.04813
8.33705
9.91361
9.70104
9.28366
9.07853
9.03683
9.03815
9.037
9.0288
9.00879
8.97772
8.95016
8.92465
8.90065
8.8752
8.8475
8.81591
8.78032
8.74372
8.7045
8.66267
8.61998
8.57524
8.52902
8.48101
8.43086
8.37843
8.32332
8.26546
8.20477
8.14112
8.07457
8.00448
1
1
1
1.00001
1.00003
1.00004
1.00017
1.00021
1.00102
1.00104
1.00617
1.00586
1.04285
1.06164
1.35295
1.35162
3.77364
7.29296
9.85038
9.75674
9.40627
9.10912
9.02311
9.02542
9.03137
9.02931
9.01731
8.99078
8.96013
8.93089
8.90652
8.88051
8.85194
8.82014
8.78464
8.74745
8.70823
8.66809
8.62514
8.58151
8.53602
8.48895
8.44005
8.38901
8.33557
8.2795
8.22065
8.15891
8.09446
8.0269
1
1
1
1.00001
1.00001
1.00002
1.00004
1.00003
0.999982
0.999453
0.999063
0.994419
1.00308
0.987855
0.915833
2.20988
2.43116
7.6251
9.74171
9.57625
9.23279
9.03389
8.99603
9.00668
9.02607
9.02521
9.01562
8.99108
8.95906
8.93048
8.90545
8.87852
8.85124
8.81988
8.78522
8.74859
8.71015
8.67006
8.6288
8.58536
8.54078
8.49463
8.44672
8.39696
8.34514
8.29104
8.2345
8.17532
8.1136
8.04875
1
1
1
1.00001
1.00002
1.00006
1.00009
1.00032
1.00043
1.00121
1.00468
1.00365
1.02518
1.03712
1.06178
2.03782
2.33869
7.15268
9.83784
9.67834
9.29823
9.08038
9.0287
9.03432
9.04588
9.0425
9.02808
8.99719
8.96409
8.93459
8.90711
8.87881
8.84823
8.81918
8.7845
8.74816
8.71028
8.67087
8.62963
8.58771
8.54437
8.49955
8.45318
8.40504
8.35494
8.3026
8.24789
8.19053
8.13063
8.06755
1
1
1
1.00002
1.00002
1.0001
1.0001
1.00065
1.00072
1.00406
1.00589
1.02736
1.01579
1.07081
1.17108
1.12505
2.97647
5.46452
10.2465
10.1832
9.76132
9.3328
9.14925
9.10807
9.09668
9.07683
9.04485
9.00981
8.97479
8.94273
8.91244
8.88258
8.8518
8.8198
8.78583
8.74903
8.71069
8.67098
8.63003
8.58815
8.54529
8.50132
8.45602
8.40905
8.36019
8.30923
8.25603
8.20044
8.14258
8.08176
1
1
1
1.00001
1.00002
1.00007
1.00009
1.00038
1.00041
1.00199
1.0018
1.01209
1.02077
1.08225
1.08867
1.71981
1.8262
5.5415
10.2544
10.1783
9.79688
9.37111
9.16231
9.10179
9.08611
9.06861
9.04004
9.00614
8.97141
8.93831
8.90747
8.87643
8.84646
8.81484
8.78081
8.74448
8.70641
8.66684
8.62628
8.58487
8.54268
8.49957
8.45528
8.40955
8.36207
8.31256
8.26079
8.20673
8.15039
8.09145
1
1
1
1.00001
1.00001
1.00006
1.00007
1.00037
1.00043
1.00208
1.00269
1.0111
1.01817
1.06553
1.0752
1.59152
1.63759
5.08297
9.83455
10.2395
9.94649
9.47136
9.21403
9.12415
9.10074
9.08674
9.06099
9.0248
8.98543
8.94735
8.91278
8.87946
8.84768
8.8142
8.78203
8.74489
8.70662
8.66715
8.6265
8.58493
8.54257
8.49935
8.4551
8.40956
8.36239
8.31337
8.26223
8.209
8.15376
8.09578
1
1
1
1.00001
1.00001
1.00004
1.00006
1.00023
1.0003
1.00156
1.00154
1.00959
1.01111
1.06216
1.05479
1.57385
1.67288
4.78386
9.43265
10.3841
10.1122
9.57367
9.26061
9.14152
9.11579
9.1049
9.08257
9.04538
9.00201
8.95948
8.92227
8.88797
8.85488
8.81931
8.78672
8.74902
8.70975
8.66927
8.62763
8.58511
8.54193
8.4981
8.45348
8.40777
8.36068
8.31194
8.26133
8.20861
8.15423
8.09828
1
1
1
1.00001
1.00001
1.00004
1.00004
1.00021
1.00022
1.00118
1.00101
1.00859
1.00849
1.06157
1.05772
1.52809
1.63691
4.58598
9.09317
10.3579
10.1169
9.59616
9.28271
9.1686
9.1458
9.13834
9.11943
9.08021
9.03536
8.99007
8.95034
8.91368
8.8782
8.84023
8.80429
8.76507
8.72329
8.68064
8.63692
8.59231
8.54712
8.50147
8.4552
8.408
8.35984
8.31005
8.25879
8.20563
8.15124
8.09672
1
1
0.999998
0.999998
0.99999
0.999989
0.999952
0.999952
0.999884
1.0001
1.00017
1.00246
0.994211
1.02388
1.06689
0.963808
2.59114
3.78921
9.46882
10.3299
10.0256
9.53952
9.2928
9.21847
9.19765
9.17691
9.14391
9.10497
9.06223
9.02031
8.98235
8.94399
8.9069
8.86759
8.82851
8.78672
8.7421
8.69656
8.64974
8.60241
8.55399
8.50555
8.45657
8.40655
8.35771
8.3064
8.25404
8.20099
8.14666
8.08926
1
1
0.999998
0.999997
0.999984
0.999981
0.999906
0.999905
0.999509
0.999156
0.997882
0.998929
0.989865
1.01507
1.04993
0.942936
2.49879
3.48961
9.06719
10.2135
9.96053
9.53789
9.34074
9.28844
9.26579
9.23332
9.19406
9.15252
9.11054
9.06932
9.02906
8.98892
8.94827
8.90631
8.86247
8.81745
8.76806
8.71869
8.66806
8.61667
8.56471
8.51287
8.46029
8.40695
8.3555
8.30241
8.24765
8.19302
8.13801
8.0822
1
1
1
1
1
1.00002
1.00002
1.00008
1.00018
0.998544
0.996965
0.997876
0.988893
1.01473
1.04957
0.944949
2.51381
3.52931
9.17393
10.3261
10.054
9.6335
9.4265
9.35579
9.3223
9.28759
9.24625
9.20204
9.15785
9.11441
9.07194
9.02928
8.98539
8.94046
8.89308
8.84419
8.79255
8.74012
8.68442
8.63026
8.57461
8.51928
8.46357
8.40856
8.35379
8.29777
8.24202
8.18987
8.13261
8.07662
1
1
1
1
1.00001
1.00003
1.00003
1.00018
1.00025
1.00091
1.00151
1.0053
1.01064
1.0466
1.08176
1.38812
1.58492
4.08273
8.37925
10.4159
10.239
9.79567
9.48953
9.37023
9.33847
9.3249
9.29858
9.2527
9.20407
9.1565
9.11003
9.06316
9.0149
8.96547
8.9133
8.86124
8.80753
8.75123
8.69384
8.63564
8.57681
8.52092
8.46162
8.40432
8.34835
8.29203
8.23489
8.17999
8.12317
8.06617
1
1
1
1.00001
1.00001
1.00004
1.00006
1.00026
1.00032
1.00143
1.00184
1.00757
1.01194
1.04156
1.07026
1.35656
1.43525
3.7811
7.71499
10.8598
10.6232
10.0198
9.59966
9.45179
9.42268
9.40628
9.37334
9.32085
9.26275
9.20553
9.15041
9.09634
9.0424
8.98743
8.93224
8.87653
8.82034
8.76309
8.70465
8.64578
8.58631
8.527
8.46694
8.40905
8.35164
8.291
8.23413
8.17696
8.11915
8.06091
1
1
1
1.00001
1.00002
1.00003
1.00004
1.00026
1.0002
1.00146
1.0014
1.00776
1.01076
1.04484
1.07673
1.34938
1.46438
3.70652
7.58224
11.0737
10.7536
10.0363
9.62607
9.49462
9.47018
9.45213
9.41369
9.35759
9.29583
9.23365
9.173
9.11384
9.05557
8.99796
8.94033
8.88325
8.82556
8.76736
8.70808
8.64826
8.58779
8.52749
8.46718
8.40755
8.35054
8.2884
8.23106
8.1735
8.11559
8.05746
3.10939
2.7079
3.53049
4.2383
4.10223
4.07737
4.02648
4.01003
4.009
4.03227
4.07124
4.10672
4.1329
4.15673
4.18823
4.23087
4.28168
4.33678
4.39403
4.45123
4.50707
4.56006
4.61347
4.66246
4.70521
4.74176
4.77262
4.79813
4.81802
4.83286
4.84235
4.84732
4.84748
4.84544
4.83925
4.82724
4.81188
4.79357
4.77219
4.74814
4.72156
4.69282
4.6621
4.6297
4.59578
4.56051
4.52407
4.48661
4.44826
4.40911
4.36927
4.32886
4.28801
4.24686
4.20558
4.16433
4.12328
4.08258
4.04238
4.00282
3.96401
3.92608
3.88913
3.85324
3.8185
3.78501
3.7528
3.72196
3.69258
3.66474
3.63852
3.61402
3.59133
3.57059
3.55194
3.5355
3.52138
3.50972
3.50074
3.49463
3.49174
3.49195
3.49275
3.4947
3.49881
3.50697
3.51899
3.5335
3.54939
3.56591
3.58257
3.59895
3.61459
3.62905
3.64192
3.653
3.66179
3.66832
3.67177
3.67437
4.16416
3.77937
4.02249
4.25319
4.13745
4.05317
4.00379
3.98971
3.99981
4.0357
4.0881
4.12457
4.14236
4.15776
4.18522
4.22754
4.27825
4.33332
4.39062
4.44791
4.50381
4.55797
4.61025
4.65915
4.70228
4.73915
4.77037
4.796
4.81625
4.83112
4.8409
4.84556
4.84553
4.84407
4.83903
4.82764
4.81038
4.79143
4.77026
4.74633
4.71981
4.691
4.66023
4.6277
4.59366
4.55833
4.52188
4.48443
4.44611
4.40703
4.36729
4.32701
4.28631
4.24532
4.20421
4.16313
4.12223
4.08167
4.04158
4.00211
3.96338
3.9255
3.88858
3.85271
3.81795
3.78446
3.75222
3.72134
3.69191
3.66405
3.63784
3.61325
3.59049
3.56974
3.55103
3.53453
3.52037
3.50864
3.49958
3.49338
3.49063
3.49086
3.49176
3.49386
3.49813
3.50616
3.51775
3.5321
3.54816
3.56497
3.58193
3.59854
3.61436
3.62899
3.64204
3.65321
3.66224
3.66891
3.67257
3.67672
5.23925
4.56423
4.39758
4.35453
4.25942
4.14823
4.08316
4.0564
4.05741
4.06669
4.09079
4.12152
4.14565
4.16977
4.20091
4.24275
4.2926
4.34711
4.40346
4.45984
4.51447
4.56732
4.61805
4.6654
4.7075
4.74353
4.77419
4.79888
4.81819
4.83221
4.84103
4.84476
4.8445
4.8429
4.83816
4.82748
4.80873
4.78839
4.76667
4.7427
4.71627
4.68754
4.65682
4.62434
4.59036
4.55506
4.51863
4.4812
4.44293
4.40391
4.36427
4.32412
4.28359
4.24281
4.20193
4.16109
4.12045
4.08013
4.04026
4.00096
3.96237
3.92459
3.88775
3.85195
3.81722
3.78381
3.75157
3.72069
3.69127
3.66353
3.63744
3.61292
3.59024
3.56953
3.55085
3.53441
3.52028
3.50865
3.49951
3.49315
3.49055
3.49081
3.49176
3.49397
3.49848
3.50628
3.517
3.53085
3.54653
3.5633
3.58039
3.59714
3.61312
3.62792
3.64113
3.65253
3.66185
3.66917
3.67339
3.67881
5.79805
5.1354
4.76626
4.5799
4.45044
4.32518
4.22677
4.16369
4.13468
4.13537
4.14306
4.16329
4.1973
4.22349
4.25013
4.28484
4.32708
4.37601
4.42762
4.48008
4.53197
4.5824
4.63029
4.67512
4.71503
4.74912
4.77874
4.80203
4.81998
4.83267
4.8402
4.84269
4.8423
4.84057
4.83583
4.82538
4.80605
4.78447
4.76173
4.7373
4.71074
4.68202
4.65132
4.61888
4.58493
4.54968
4.5133
4.47596
4.4378
4.39895
4.35952
4.31964
4.27944
4.23902
4.19849
4.15803
4.11774
4.07777
4.03823
3.99923
3.96089
3.92332
3.88663
3.85098
3.81633
3.78304
3.75103
3.72015
3.6908
3.66324
3.63719
3.61286
3.59028
3.56966
3.55111
3.53475
3.52064
3.50924
3.50007
3.49354
3.49077
3.49116
3.49232
3.49463
3.49916
3.50668
3.51692
3.52975
3.54467
3.56083
3.57766
3.59428
3.61029
3.62523
3.63846
3.65013
3.65971
3.66754
3.67176
3.68029
6.17489
5.59557
5.17238
4.89786
4.70432
4.54568
4.4161
4.32166
4.26292
4.23668
4.2342
4.23787
4.24889
4.27182
4.29862
4.33022
4.36713
4.41097
4.45798
4.50667
4.55528
4.6026
4.64753
4.6893
4.72658
4.75871
4.78588
4.80714
4.82337
4.83432
4.84025
4.84116
4.84056
4.8384
4.83307
4.82178
4.80259
4.78037
4.75661
4.73136
4.70439
4.67556
4.6449
4.61253
4.57864
4.54347
4.50719
4.46997
4.43196
4.3933
4.3541
4.3145
4.27461
4.23454
4.19442
4.15436
4.11451
4.07494
4.03576
3.9971
3.95908
3.9218
3.8854
3.84997
3.81558
3.78245
3.75058
3.72003
3.69104
3.66364
3.63788
3.61396
3.59161
3.57124
3.55308
3.53708
3.52335
3.51202
3.5031
3.4968
3.49418
3.49444
3.49537
3.49754
3.50195
3.50914
3.51877
3.53036
3.54392
3.55883
3.57462
3.59057
3.60605
3.62067
3.63393
3.64563
3.65548
3.66376
3.66877
3.67897
6.46501
5.97775
5.56169
5.23705
4.99074
4.79535
4.63715
4.51415
4.42619
4.37102
4.34287
4.33521
4.33728
4.34491
4.36189
4.38722
4.41802
4.45413
4.49481
4.53715
4.58013
4.62268
4.66345
4.70101
4.73461
4.76401
4.789
4.80892
4.82354
4.83347
4.83748
4.83735
4.83639
4.83364
4.82747
4.81494
4.79651
4.77437
4.74994
4.72381
4.69624
4.66717
4.63652
4.60429
4.57055
4.53555
4.49944
4.46241
4.42462
4.38622
4.34734
4.30808
4.2686
4.22896
4.18928
4.14974
4.11041
4.07135
4.03264
3.99443
3.95682
3.91992
3.88387
3.84877
3.81474
3.78192
3.7504
3.72026
3.69165
3.66462
3.63934
3.61583
3.59392
3.57405
3.55638
3.54084
3.52752
3.51646
3.50788
3.50182
3.49902
3.49924
3.50007
3.50206
3.50617
3.51265
3.52144
3.5318
3.54373
3.55692
3.57107
3.58568
3.60019
3.61411
3.62702
3.63858
3.64859
3.65735
3.66297
3.67452
6.69763
6.28558
5.90225
5.56527
5.28638
5.06043
4.87635
4.72839
4.61412
4.53168
4.47778
4.44725
4.43361
4.43375
4.43641
4.44485
4.46296
4.4909
4.52467
4.56093
4.59847
4.63653
4.67238
4.70603
4.7372
4.76463
4.78808
4.80658
4.82021
4.82889
4.83155
4.8312
4.82984
4.8264
4.81934
4.80609
4.78826
4.76661
4.74194
4.71517
4.68711
4.65793
4.6272
4.59499
4.56143
4.52665
4.49079
4.45401
4.41648
4.37838
4.33985
4.30096
4.26192
4.22277
4.18352
4.14449
4.10575
4.06725
4.02906
3.99134
3.95422
3.91781
3.88223
3.8476
3.81404
3.78169
3.75065
3.72102
3.693
3.66646
3.64188
3.61898
3.59758
3.57849
3.56149
3.54659
3.53384
3.52334
3.51516
3.5094
3.50642
3.50658
3.50726
3.5089
3.51233
3.51817
3.5254
3.53455
3.54458
3.55566
3.5677
3.58043
3.59337
3.60612
3.61824
3.62943
3.63936
3.64851
3.65464
3.66735
6.88816
6.53916
6.19303
5.86438
5.57489
5.32918
5.12314
4.95258
4.81519
4.70811
4.62901
4.57444
4.54116
4.52316
4.51426
4.51491
4.51883
4.52938
4.55118
4.58002
4.6117
4.64342
4.67533
4.70607
4.73387
4.75843
4.78041
4.79828
4.81061
4.8185
4.82066
4.82023
4.81872