/*--------------------------------*- C++ -*----------------------------------*\
| =========                 |                                                 |
| \\      /  F ield         | OpenFOAM: The Open Source CFD Toolbox           |
|  \\    /   O peration     | Version:  2412                                  |
|   \\  /    A nd           | Website:  www.openfoam.com                      |
|    \\/     M anipulation  |                                                 |
\*---------------------------------------------------------------------------*/
FoamFile
{
    version     2.0;
    format      ascii;
    arch        "LSB;label=32;scalar=64";
    class       surfaceScalarField;
    location    "7";
    object      phi;
}
// * * * * * * * * * * * * * * * * * * * * * * * * * * * * * * * * * * * * * //

dimensions      [1 0 -1 0 0 0 0];

oriented        oriented;

internalField   nonuniform List<scalar> 
13790
(
0.00290515
4.19694e-11
0.00290514
-9.77562e-10
0.00290515
-3.3909e-10
0.00290517
-6.14283e-09
0.00290508
-6.66454e-09
0.00290548
-6.09369e-08
0.00290503
-9.05511e-08
0.00290821
-3.59593e-07
0.00290334
-5.07174e-07
0.00292021
-1.7832e-06
0.00291516
-9.24843e-07
0.00293054
-1.03163e-05
0.00287863
1.56081e-05
0.00283816
7.1979e-05
0.00272366
7.00247e-08
0.00258995
4.44151e-05
0.00256231
3.06681e-05
0.00254857
2.72481e-05
0.0025292
2.84258e-05
0.0025033
2.86981e-05
0.00247819
2.70163e-05
0.00245212
2.57405e-05
0.00242652
2.41507e-05
0.00240208
2.26861e-05
0.0023796
2.18297e-05
0.00235866
2.19768e-05
0.00233689
2.33187e-05
0.00231046
2.58643e-05
0.00227524
2.92281e-05
0.00223223
3.35346e-05
0.00218438
3.84247e-05
0.0021335
4.38236e-05
0.00207965
4.97291e-05
0.00202165
5.61683e-05
0.00195724
6.32077e-05
0.0018838
7.08961e-05
0.00179799
7.92545e-05
0.00169803
8.80239e-05
0.00158865
9.72422e-05
0.00146942
0.000106756
0.00134227
0.000116363
0.00120836
0.000126216
0.00106731
0.00013624
0.000920478
0.000145478
0.000761927
0.000151163
0.000595497
0.000151994
0.000434126
0.000148566
0.000282867
0.000140769
0.000140314
0.000133553
0.00013227
0.00301309
-1.47735e-10
0.00301308
7.34797e-10
0.00301311
-2.53368e-09
0.00301297
1.06932e-09
0.00301314
-1.44067e-08
0.00301234
-1.07341e-08
0.00301319
-2.25751e-08
0.00300958
-1.41454e-08
0.00301269
4.14657e-07
0.00300126
6.42599e-07
0.00301252
2.87419e-06
0.0028966
-2.05098e-06
0.00299012
4.64746e-06
0.00305046
-4.26236e-05
0.00296126
7.7781e-05
0.00277094
8.67106e-05
0.00270547
8.64777e-05
0.00266775
7.49043e-05
0.00263855
6.69144e-05
0.00260744
6.25475e-05
0.00257887
5.77015e-05
0.0025509
5.36932e-05
0.00252381
5.02488e-05
0.00249736
4.76035e-05
0.00247197
4.65538e-05
0.00244737
4.75121e-05
0.00242113
5.04657e-05
0.00238973
5.50833e-05
0.00235092
6.12208e-05
0.00230617
6.86154e-05
0.00225791
7.73749e-05
0.00220734
8.75709e-05
0.00215388
9.92895e-05
0.00209579
0.000112564
0.00203047
0.000127399
0.00195511
0.00014373
0.00186627
0.000161407
0.00176223
0.000179644
0.00164828
0.000198554
0.00152445
0.000217693
0.00139307
0.000236608
0.00125586
0.000255438
0.00111299
0.000273932
0.000966268
0.000290974
0.000807818
0.000302265
0.000639494
0.000305608
0.000472766
0.000301877
0.000311162
0.000291368
0.000154187
0.000281157
0.000278124
0.00312504
1.80536e-10
0.00312504
6.87449e-10
0.00312503
-1.76214e-09
0.00312506
-1.08751e-09
0.00312498
-7.08293e-11
0.00312523
9.81834e-09
0.00312505
5.88167e-08
0.00312454
1.79925e-07
0.00312659
3.08749e-07
0.0031127
3.69957e-07
0.00314172
-1.04154e-06
0.0029651
6.91634e-06
0.0031262
-1.75822e-06
0.00274507
4.15491e-05
0.00304758
2.36079e-05
0.00282959
0.000132595
0.00277416
0.00013322
0.00274861
0.000111934
0.00272773
9.69796e-05
0.00270404
8.89427e-05
0.00268299
8.20166e-05
0.00265982
7.74574e-05
0.002635
7.42753e-05
0.00260851
7.23236e-05
0.00258168
7.23012e-05
0.00255518
7.46407e-05
0.00252718
7.93744e-05
0.00249415
8.62315e-05
0.00245324
9.52099e-05
0.00240587
0.000106003
0.00235458
0.000118946
0.00230071
0.000134261
0.00224375
0.000152083
0.00218202
0.000172442
0.00211287
0.000195295
0.00203339
0.000220465
0.00193997
0.000247622
0.00183111
0.00027542
0.00171242
0.000304073
0.00158396
0.000332865
0.00144806
0.000360981
0.00130671
0.000388457
0.00116027
0.000414788
0.00101105
0.000439038
0.000849852
0.000456066
0.000677494
0.000462947
0.000504544
0.00046053
0.000334265
0.000450127
0.000166168
0.000439522
0.000435649
0.00324115
-6.32893e-11
0.00324117
-1.67343e-09
0.00324115
7.97191e-10
0.00324118
1.10845e-09
0.00324112
-1.71592e-10
0.00324137
3.60199e-09
0.00324123
-2.04032e-08
0.00324171
2.12682e-08
0.00324003
-3.48882e-07
0.00323735
-4.48464e-07
0.00322015
4.29606e-07
0.00321292
-1.80354e-07
0.00321124
1.14927e-05
0.00318578
2.97278e-05
0.00313573
5.56773e-05
0.00290186
0.000201167
0.00285539
0.0001729
0.00283893
0.000141992
0.00282183
0.000125717
0.00279872
0.000116483
0.00277684
0.000107392
0.00275188
0.000102361
0.00272603
9.86923e-05
0.00269976
9.66876e-05
0.00267407
9.71127e-05
0.00264895
0.000100559
0.00262215
0.000107187
0.00258991
0.000116813
0.00254863
0.000129159
0.00249995
0.000144183
0.00244678
0.000162005
0.00239066
0.000182967
0.00233115
0.00020726
0.00226669
0.000234937
0.00219463
0.000265956
0.002112
0.000300088
0.00201495
0.000336889
0.00190227
0.000374435
0.00177962
0.000413033
0.00164704
0.000451656
0.0015069
0.000489163
0.00136127
0.000525408
0.00121046
0.00055963
0.00105718
0.000591098
0.000891501
0.000614174
0.000713735
0.000625293
0.000533889
0.000625266
0.000355125
0.000616896
0.000177089
0.000607471
0.000603785
0.00336158
1.17762e-10
0.00336158
-2.16881e-12
0.00336157
2.0719e-09
0.00336162
-5.10801e-10
0.00336153
2.02618e-08
0.00336146
2.16551e-08
0.00336133
1.33315e-07
0.00336159
2.02417e-07
0.00335775
7.12673e-07
0.00337142
1.87687e-06
0.00334397
1.73478e-06
0.00341702
1.02569e-06
0.00335371
5.90263e-06
0.00335348
-4.96261e-05
0.0033334
8.68732e-05
0.00312419
0.000232117
0.00304572
0.000244338
0.00299489
0.000205808
0.00295944
0.000172415
0.00292572
0.000153494
0.00289615
0.000139798
0.00286628
0.000132378
0.00283619
0.000127836
0.00280608
0.000125266
0.00277702
0.000125545
0.00274894
0.000129438
0.00271927
0.000137238
0.00268429
0.00014876
0.00264119
0.000164122
0.00259181
0.000182769
0.00253849
0.000205309
0.00248217
0.000232071
0.00242202
0.000263215
0.00235627
0.000298747
0.00228223
0.000338515
0.00219695
0.000382183
0.00209629
0.000429152
0.00197968
0.000476777
0.00185283
0.000525703
0.00171577
0.000574434
0.00157092
0.00062153
0.00142045
0.000666764
0.00126454
0.000709158
0.00110622
0.000748225
0.000934734
0.000777933
0.000750332
0.000793875
0.000562593
0.000797086
0.000375264
0.000791741
0.000187387
0.000784823
0.00078184
0.00348648
1.85076e-11
0.00348648
1.14638e-09
0.00348648
1.86651e-09
0.00348642
7.26864e-09
0.00348652
1.20842e-08
0.00348602
2.09938e-08
0.00348632
1.06328e-07
0.00348666
-3.17435e-08
0.00348381
5.17331e-07
0.00350341
1.19622e-06
0.00346486
2.84357e-06
0.00339524
5.85875e-06
0.00352139
1.94833e-06
0.00300691
-3.86428e-06
0.00336874
8.6357e-05
0.00314273
0.000300883
0.00310052
0.000288117
0.00308456
0.000238078
0.00306732
0.000200894
0.00304322
0.000180615
0.00302084
0.000165564
0.00299595
0.000157735
0.00297021
0.000152847
0.0029439
0.000150396
0.0029177
0.000151585
0.00289099
0.000157286
0.00286111
0.000167803
0.00282445
0.000182967
0.00277726
0.000202347
0.00272228
0.000225815
0.00266278
0.000253794
0.00260024
0.000286679
0.00253411
0.000324718
0.00246269
0.000367944
0.00238326
0.000416228
0.00229272
0.000469152
0.00218646
0.000526092
0.0020648
0.000583693
0.00193289
0.000642927
0.00179064
0.000701786
0.0016405
0.000758544
0.00148468
0.000812939
0.00132307
0.000863917
0.0011589
0.000911128
0.000980692
0.000948179
0.000788662
0.000969674
0.000592037
0.000976938
0.000395396
0.000975349
0.000197937
0.000971348
0.000970047
0.00361602
-1.05801e-10
0.00361602
5.82666e-11
0.00361602
-3.42318e-10
0.00361604
-8.06553e-10
0.00361601
4.37416e-09
0.00361612
-1.26111e-09
0.00361619
2.69222e-08
0.00361391
1.36262e-07
0.00361952
2.49618e-07
0.00359123
8.18432e-07
0.00362603
1.02173e-06
0.00342971
1.24353e-06
0.00366687
9.20936e-06
0.00319367
1.58685e-05
0.00352482
0.000107866
0.00325288
0.000368159
0.00320455
0.000331575
0.00319526
0.000262995
0.00318334
0.000223587
0.00316338
0.000204064
0.00314445
0.000188253
0.00312208
0.000180451
0.00309875
0.000175186
0.00307457
0.000172944
0.0030503
0.000175295
0.00302517
0.000183239
0.00299622
0.000197129
0.00295946
0.000216779
0.002911
0.000241062
0.00285383
0.000270459
0.00279131
0.000304956
0.00272496
0.000344914
0.0026543
0.000390572
0.00257786
0.000441996
0.00249308
0.000499073
0.00239695
0.000561333
0.00228424
0.000628094
0.00215703
0.000695557
0.0020197
0.000765099
0.00187175
0.000834125
0.00171571
0.000900608
0.001554
0.000964344
0.00138619
0.00102428
0.00121577
0.00108035
0.00103017
0.00112568
0.000829714
0.00115368
0.000623423
0.00116563
0.000416837
0.00116848
0.000208553
0.00116829
0.00116845
0.00375037
2.51059e-10
0.00375037
1.57082e-10
0.00375037
-3.47503e-10
0.00375037
-2.03335e-09
0.00375038
-4.14909e-09
0.00375053
6.16949e-09
0.00375033
-5.94072e-08
0.00375046
2.41402e-08
0.00375147
-2.8462e-07
0.00374666
-5.11568e-07
0.00375898
-5.08406e-07
0.00357048
-3.85204e-06
0.00380367
1.39025e-05
0.00336109
1.86146e-05
0.00366353
0.000137399
0.00343918
0.000401029
0.0033943
0.000377232
0.00336893
0.000307274
0.00334389
0.000260161
0.00331488
0.000234727
0.00329021
0.000215155
0.00326554
0.00020414
0.00324147
0.000197761
0.0032175
0.000195584
0.00319353
0.000199192
0.00316814
0.000209604
0.00313778
0.000226998
0.00309823
0.00025117
0.00304758
0.000280985
0.00298861
0.000316621
0.00292415
0.000358229
0.00285517
0.000405965
0.002781
0.000459957
0.00270021
0.000520216
0.00261037
0.000586584
0.00250862
0.000658495
0.00238905
0.000735085
0.00225593
0.000812441
0.00211299
0.000892279
0.00195931
0.000971588
0.00179725
0.00104799
0.00162933
0.00112132
0.00145481
0.00119066
0.00127764
0.00125624
0.00108408
0.00131091
0.000874665
0.00134635
0.0006575
0.00136429
0.000439777
0.00137195
0.000220551
0.00137553
0.00137833
0.00388972
-1.77919e-10
0.00388973
4.1296e-10
0.00388971
1.07622e-10
0.00388977
2.53693e-09
0.00388967
-4.33295e-09
0.00388998
-1.77695e-08
0.00388945
-2.77532e-08
0.00389112
-1.71373e-07
0.00388914
3.46981e-08
0.00389538
-4.18672e-07
0.00388949
-1.74999e-08
0.00386728
2.11102e-06
0.00382829
2.19731e-06
0.00379057
4.89239e-05
0.00367979
0.000119355
0.00351514
0.000468383
0.00348166
0.000429205
0.00347664
0.000336501
0.00346767
0.000281268
0.00345193
0.000252651
0.00343698
0.000232105
0.00341807
0.00022176
0.00339698
0.000216782
0.00337427
0.000216673
0.00335061
0.000222961
0.00332443
0.000236792
0.00329214
0.000258333
0.00324917
0.000287578
0.00319494
0.000323252
0.00313264
0.000365594
0.00306499
0.000414683
0.00299258
0.000470574
0.00291449
0.000533262
0.00282921
0.000602695
0.00273432
0.000678647
0.00262706
0.000760459
0.00250073
0.000846901
0.00236185
0.000934177
0.00221344
0.00102441
0.002054
0.00111424
0.00188559
0.00120085
0.00171106
0.00128416
0.00152936
0.00136342
0.00134498
0.00143919
0.00114299
0.00150443
0.000923916
0.00154875
0.000695156
0.00157353
0.000465447
0.00158672
0.000233296
0.00159538
0.00160053
0.00403424
9.38972e-11
0.00403425
-7.89914e-10
0.00403423
1.41467e-09
0.00403428
1.11306e-09
0.00403421
4.77025e-09
0.00403436
3.01995e-08
0.00403423
1.1781e-08
0.00403449
-4.19278e-09
0.00403472
2.48661e-08
0.00402373
-2.94701e-07
0.00401082
2.09973e-06
0.00405466
-4.95215e-06
0.00401326
2.29454e-05
0.00411217
6.63957e-06
0.00392576
0.00018219
0.00367358
0.000507334
0.00363507
0.000469787
0.00362947
0.000366313
0.00361987
0.000302848
0.00360586
0.000269687
0.00359314
0.000246459
0.00357819
0.000235469
0.0035615
0.000231647
0.00354347
0.00023412
0.00352341
0.000244209
0.00349837
0.000263002
0.0034645
0.000290466
0.00341742
0.000326101
0.00335853
0.000368868
0.00329151
0.00041887
0.00321913
0.000476067
0.00314182
0.000540425
0.00305855
0.000611903
0.00296778
0.000690492
0.00286711
0.000775966
0.00275379
0.000867638
0.00262043
0.000963641
0.00247559
0.00106078
0.00232174
0.0011614
0.00215682
0.00126191
0.00198231
0.00135916
0.00180109
0.00145311
0.00161186
0.0015431
0.00141976
0.00162987
0.00120899
0.00170671
0.000979357
0.00176172
0.000737767
0.00179435
0.000494511
0.00181442
0.000248354
0.00182844
0.00183728
0.00418414
-1.2823e-11
0.00418412
-1.05509e-10
0.00418414
-1.58687e-11
0.00418405
-3.39712e-10
0.00418407
-2.5263e-09
0.00418434
6.17431e-10
0.00418449
-5.15124e-08
0.00418421
3.72386e-08
0.00418313
-3.94227e-07
0.00417904
1.42477e-09
0.00419383
-2.32803e-07
0.00395747
2.92573e-06
0.00423045
1.78249e-05
0.00366301
6.29616e-05
0.00409308
0.000166452
0.00383837
0.000544081
0.00380502
0.000508091
0.0037979
0.000397038
0.00378537
0.000324483
0.00377095
0.000286409
0.00375903
0.000260491
0.00374558
0.000248652
0.00373156
0.00024525
0.00371692
0.000249968
0.0036992
0.000264057
0.00367421
0.000288408
0.00363774
0.000323079
0.00358656
0.000365822
0.00352428
0.000416858
0.00345439
0.000475517
0.0033789
0.00054155
0.0032978
0.000614873
0.00321005
0.000695398
0.00311416
0.000783239
0.00300783
0.000878242
0.00288816
0.000979754
0.00274798
0.00108474
0.0025977
0.00119167
0.00243875
0.00130287
0.00226857
0.00141422
0.00208833
0.00152246
0.00190063
0.00162766
0.00170389
0.00172933
0.00150335
0.00182838
0.00128267
0.00191852
0.00104239
0.00198476
0.000786607
0.0020284
0.000527787
0.00205636
0.000265281
0.0020774
0.00209046
0.0043396
4.03926e-10
0.00433957
1.19592e-09
0.0043396
1.30545e-09
0.00433949
1.71238e-10
0.00433949
1.3555e-08
0.0043396
-7.20133e-09
0.00433936
5.55258e-08
0.00433908
3.0349e-08
0.0043412
9.56531e-08
0.00431986
8.07215e-07
0.00434555
1.82728e-07
0.00419761
6.86316e-06
0.00431592
1.12882e-05
0.00431894
6.73192e-06
0.0042698
0.000181083
0.00404406
0.000572109
0.00399996
0.000551566
0.0039835
0.000432793
0.00397154
0.000345023
0.00396447
0.000299278
0.00395983
0.000270197
0.00395264
0.000258035
0.0039419
0.000257338
0.0039278
0.000266549
0.00390704
0.000286814
0.0038753
0.000318664
0.00382905
0.00036078
0.00376977
0.000412008
0.00370126
0.000471403
0.0036265
0.00053851
0.00354661
0.000613027
0.00346105
0.000694871
0.00336861
0.00078404
0.00326763
0.000880774
0.00315577
0.000985024
0.00302941
0.00109606
0.00288277
0.00120919
0.00272784
0.001326
0.00256484
0.00144801
0.00239013
0.00157064
0.00220449
0.00169028
0.00201061
0.00180728
0.00180675
0.00192162
0.00159841
0.00203427
0.00136808
0.00214031
0.00111481
0.00222173
0.000843836
0.00227662
0.00056807
0.002315
0.000286047
0.00234506
0.00236378
0.00450083
5.60462e-10
0.00450085
1.89096e-10
0.00450084
2.63725e-09
0.00450074
8.68226e-09
0.00450092
1.27264e-08
0.00449989
4.24713e-08
0.004501
9.83202e-08
0.00449684
2.08706e-07
0.00449697
6.67002e-07
0.00450683
1.23263e-06
0.00448931
2.53346e-06
0.00462312
-5.08168e-07
0.00450024
8.75636e-06
0.00440026
1.2451e-05
0.00438696
0.00014449
0.00417903
0.000581549
0.00415248
0.000584477
0.00415052
0.000457701
0.00415095
0.000356005
0.00415423
0.000304548
0.00415765
0.000273721
0.00415702
0.000262684
0.00415052
0.00026658
0.0041374
0.000282836
0.00411362
0.000311728
0.0040749
0.000352813
0.00402078
0.00040427
0.00395478
0.000464527
0.00388099
0.000532527
0.00380196
0.000607709
0.00371817
0.000690206
0.00362864
0.000779919
0.00353208
0.000877128
0.00342656
0.000982193
0.00330945
0.00109519
0.00317608
0.00121502
0.00302468
0.0013358
0.00286687
0.00146266
0.0027014
0.00159555
0.00252355
0.00172983
0.00233358
0.00186177
0.00213428
0.00199174
0.00192389
0.00212016
0.00170796
0.00224805
0.00146778
0.00237215
0.00120254
0.00247062
0.000912857
0.00254296
0.000615622
0.00259362
0.00031094
0.00263462
0.0026615
0.00466806
-4.15069e-10
0.00466808
5.38264e-11
0.00466805
7.47307e-11
0.00466814
6.18967e-10
0.00466798
3.45102e-09
0.00466838
-7.43287e-09
0.0046675
5.46404e-08
0.00467055
2.3705e-08
0.0046664
4.94247e-07
0.00468207
6.55012e-08
0.00463577
2.32511e-06
0.00477362
1.25855e-06
0.00463575
1.38129e-05
0.00471382
-4.20615e-06
0.00454323
0.000175237
0.00430697
0.000611382
0.00430376
0.00060377
0.00432582
0.00046257
0.00434448
0.000355655
0.00435491
0.000303936
0.00436083
0.000275014
0.00435839
0.00026736
0.00434857
0.000278193
0.00433038
0.000303015
0.00429928
0.000341468
0.00425335
0.000392027
0.00419453
0.000452557
0.00412625
0.000521283
0.00405164
0.000597215
0.00397226
0.000680139
0.00388752
0.000770064
0.00379637
0.000867305
0.0036975
0.000972377
0.00358879
0.00108563
0.00346713
0.00120707
0.00332756
0.00133354
0.00317407
0.00146386
0.00301489
0.00160015
0.00284881
0.0017437
0.00267023
0.00188996
0.00247834
0.00203482
0.00227534
0.00217901
0.00205943
0.00232338
0.00183591
0.00246858
0.00158586
0.00261334
0.00130673
0.00273344
0.000998031
0.00282627
0.000677369
0.00289533
0.000343387
0.00295361
0.00299133
0.0048415
7.48468e-11
0.0048415
1.26906e-10
0.00484149
6.27935e-10
0.00484154
-3.42701e-10
0.00484147
7.37528e-09
0.00484163
1.19328e-08
0.00484156
4.7775e-08
0.00484202
1.52729e-07
0.00484046
2.23589e-07
0.00484098
4.94319e-07
0.00484078
1.78469e-06
0.00468163
6.62303e-06
0.00489301
1.04804e-05
0.00437233
3.40105e-05
0.00472502
0.000169176
0.00447201
0.000606592
0.00448596
0.000608208
0.00451706
0.000461405
0.00453518
0.000356253
0.00454346
0.000303191
0.00454584
0.000277546
0.0045391
0.000274492
0.00452533
0.000292921
0.00450279
0.0003269
0.0044672
0.000375107
0.00441858
0.000434834
0.0043593
0.000503709
0.00429214
0.000580118
0.00421942
0.0006634
0.0041416
0.000753642
0.00405757
0.000850828
0.00396628
0.000955557
0.00386625
0.00106844
0.00375501
0.00118979
0.003628
0.00131759
0.00348585
0.00145139
0.00333267
0.00159086
0.00317422
0.00173672
0.0030096
0.00189072
0.00283188
0.00204937
0.00263967
0.00220777
0.00243527
0.00236681
0.00221634
0.00252847
0.00198698
0.00269355
0.00172905
0.00286328
0.00143675
0.00301051
0.00110647
0.00313117
0.000755759
0.00322595
0.000385459
0.00330728
0.00336284
0.00502139
2.73342e-10
0.00502139
3.24852e-10
0.00502139
9.74872e-10
0.00502139
-6.76234e-10
0.00502133
6.29737e-09
0.00502172
-3.29641e-10
0.00502126
4.07706e-08
0.00502384
2.9479e-08
0.00502086
7.63463e-08
0.00502553
1.65455e-07
0.00502442
1.55343e-06
0.00508234
-3.29479e-06
0.00499827
1.78713e-05
0.00507097
2.92375e-05
0.00482815
0.000181132
0.0046258
0.000616022
0.00464803
0.000616594
0.00469089
0.000455198
0.0047176
0.000346423
0.00472678
0.000297193
0.00472481
0.000280106
0.00471377
0.000284303
0.00469505
0.000310804
0.00466815
0.000354429
0.00463168
0.000411933
0.0045851
0.000480102
0.0045289
0.000556652
0.00446519
0.000640595
0.00439548
0.000731338
0.0043189
0.000828527
0.00423488
0.000932752
0.00414261
0.00104463
0.00404033
0.00116479
0.00392379
0.00129192
0.00379308
0.00142573
0.00365168
0.00156681
0.00350187
0.00171467
0.00334723
0.00186995
0.00318687
0.00203403
0.003014
0.00220503
0.0028244
0.00237833
0.00262048
0.00255305
0.00240103
0.00273341
0.00216818
0.00292025
0.00190602
0.00311915
0.00160062
0.00330056
0.00124768
0.0034585
0.000863381
0.00358932
0.000446598
0.00370806
0.00379509
0.00520796
-5.37288e-11
0.00520795
-1.18065e-11
0.00520796
7.16999e-10
0.00520799
1.64573e-09
0.00520796
5.50096e-09
0.00520793
1.26149e-08
0.00520766
4.16749e-08
0.00520885
4.66122e-08
0.00520838
3.93046e-07
0.00519073
5.95392e-07
0.00522671
2.09326e-06
0.00508005
3.97216e-06
0.00522162
1.47715e-05
0.00474366
4.22625e-05
0.00513433
0.000165134
0.0048324
0.000618152
0.004857
0.000619338
0.00490182
0.000445212
0.00492815
0.000338009
0.00493053
0.000293807
0.00491857
0.000287327
0.00489995
0.000300376
0.00487728
0.000335391
0.00484922
0.000388299
0.00481284
0.000454239
0.00476737
0.000530116
0.00471342
0.000614252
0.00465109
0.000705121
0.00458048
0.000802118
0.00450206
0.000905498
0.00441572
0.00101576
0.00432031
0.00113347
0.00421246
0.00125821
0.00409284
0.00139043
0.00396345
0.00152998
0.00382628
0.00167739
0.00368307
0.00183289
0.00353554
0.00199695
0.0033824
0.0021707
0.00321781
0.00235327
0.00303572
0.00254158
0.0028369
0.00273386
0.00262072
0.002934
0.00238753
0.00314395
0.00212619
0.00337548
0.00181316
0.0035982
0.00144063
0.00380597
0.00101523
0.0039922
0.000533445
0.00417289
0.00431402
0.00540146
-9.98414e-12
0.00540147
-1.24776e-10
0.00540146
8.3422e-12
0.00540148
1.00987e-09
0.00540145
2.07506e-09
0.00540138
1.86811e-08
0.00540135
2.1749e-08
0.00540172
2.13539e-08
0.00540278
1.72554e-07
0.00538594
2.62389e-07
0.00541973
1.04705e-06
0.00530915
1.11986e-06
0.00540815
1.59954e-05
0.00495284
1.45982e-05
0.00541655
0.00018224
0.00505172
0.000631475
0.00508386
0.000614799
0.00512886
0.000430919
0.00515039
0.000324998
0.00515428
0.000291756
0.00514625
0.000298328
0.00513
0.00032497
0.00510108
0.00037244
0.00506257
0.000435438
0.00501532
0.000509389
0.00496091
0.000591488
0.00489949
0.000680136
0.00483142
0.000774734
0.00475732
0.00087539
0.00467659
0.000982611
0.00458771
0.00109662
0.00448886
0.00121768
0.00438062
0.00134633
0.00426387
0.0014826
0.0041405
0.00162717
0.00401219
0.00178023
0.00387968
0.00194259
0.00374319
0.00211484
0.00360094
0.00229765
0.0034481
0.00249102
0.00327929
0.00269398
0.00309012
0.00290355
0.00288243
0.00312443
0.002658
0.00335654
0.00240938
0.00362033
0.0020947
0.00389846
0.0017088
0.00416803
0.00124403
0.00443283
0.000685832
0.0047141
0.00498551
0.00560215
-9.76085e-11
0.00560216
1.34488e-11
0.00560216
-1.55209e-10
0.00560215
-2.52926e-10
0.00560216
5.67299e-10
0.0056021
-7.25512e-09
0.00560255
1.46737e-08
0.00559896
-4.22432e-09
0.005606
2.69037e-08
0.00557426
7.87324e-07
0.00562761
-1.81819e-07
0.00546852
3.79469e-06
0.00558035
7.31464e-06
0.00512272
3.19669e-05
0.00557247
0.000138045
0.00528609
0.000571883
0.00533663
0.000590028
0.00537777
0.000419657
0.0053974
0.00032611
0.00540223
0.000300738
0.00539398
0.000320763
0.00537041
0.000361704
0.00533051
0.00042176
0.00527947
0.000494603
0.00521991
0.000575418
0.00515462
0.000661505
0.00508476
0.000752274
0.00501092
0.00084816
0.00493277
0.00094999
0.00484807
0.00105845
0.0047564
0.00117363
0.00465775
0.0012964
0.00455273
0.0014272
0.00444338
0.00156693
0.00433008
0.00171524
0.0042143
0.00187307
0.00409646
0.00204134
0.00397498
0.00222084
0.00384764
0.00241163
0.00371093
0.00261453
0.00355956
0.00283026
0.00338981
0.00305384
0.00320525
0.0032907
0.00299413
0.00355282
0.002762
0.00384933
0.00246837
0.0041803
0.00209388
0.00452412
0.00160804
0.00489356
0.000963289
0.00534211
0.00593492
0.0058103
9.4691e-11
0.0058103
3.10806e-10
0.00581031
-1.58661e-10
0.00581028
3.39019e-10
0.00581043
-1.96068e-09
0.0058097
4.76857e-09
0.00581123
-2.08961e-08
0.00580573
-6.65684e-09
0.00580595
7.90651e-09
0.00582801
-3.07041e-07
0.00581427
1.43439e-06
0.00592821
-1.35543e-06
0.00580294
1.20725e-05
0.00626897
9.03932e-06
0.00579698
0.000139986
0.00553431
0.000489516
0.00559566
0.000544453
0.00564327
0.000402355
0.00566868
0.000325143
0.0056683
0.000319806
0.00564224
0.000358083
0.00559671
0.000414287
0.00553867
0.000484779
0.00547491
0.000563793
0.00540727
0.000647538
0.00533737
0.00073489
0.00526515
0.000825785
0.00519009
0.000921569
0.00511034
0.00102345
0.00502259
0.00113098
0.0049296
0.00124586
0.00483418
0.00136916
0.00473772
0.00150148
0.00463901
0.00164288
0.00453923
0.00179352
0.00443952
0.0019552
0.00433924
0.00212764
0.00423591
0.00231168
0.00412713
0.00250832
0.00401187
0.00271742
0.00388754
0.00293901
0.00374358
0.00317815
0.00357742
0.00343687
0.00339775
0.00371479
0.00321237
0.00403321
0.00297435
0.00440888
0.00265377
0.00482646
0.0022125
0.00531303
0.00156589
0.00597074
0.00748751
0.00840002
4.49355e-10
0.00840005
4.36107e-10
0.00840004
3.19566e-10
0.0084
1.28447e-10
0.00840002
-7.2418e-10
0.00839984
-4.04248e-09
0.00840037
-6.7116e-09
0.0083959
3.13651e-08
0.0084031
2.49327e-08
0.00836935
8.00507e-08
0.00840152
1.09511e-06
0.00834433
1.7717e-06
0.00839201
6.35965e-06
0.00779474
1.89773e-05
0.00833801
7.78142e-05
0.00812061
0.000337244
0.00822856
0.0004367
0.00829263
0.000371836
0.00831043
0.000342699
0.00826406
0.000374181
0.0081846
0.000437842
0.00808165
0.000510117
0.00798026
0.000588303
0.00788006
0.000669902
0.00778055
0.000752936
0.00768093
0.000837761
0.00758053
0.000926134
0.00747644
0.00101911
0.00736423
0.00111776
0.00724975
0.00122307
0.007136
0.00133585
0.00702303
0.00145726
0.00691127
0.00158798
0.00680139
0.00172895
0.00669716
0.00188022
0.00659561
0.00204237
0.00649332
0.00221566
0.00639039
0.00239943
0.00628893
0.00259517
0.00618324
0.00281005
0.00605956
0.00304255
0.0059238
0.00328782
0.00578322
0.00355003
0.00563833
0.00383224
0.00551364
0.00414285
0.00541693
0.00450993
0.00530625
0.00491732
0.00527809
0.00531034
0.00559611
0.00562843
0.00537269
0.0077015
0.00840002
9.2537e-10
0.00840005
-2.90164e-10
0.00840002
-5.2646e-10
0.00840004
-4.20851e-09
0.00839998
-8.29217e-09
0.00840016
-2.31716e-08
0.00839953
-3.59392e-08
0.00840077
-1.22475e-07
0.0084016
-5.99216e-08
0.00838816
-1.35297e-07
0.00842247
-5.22682e-08
0.00827447
-5.81123e-08
0.00836918
2.77501e-06
0.00808528
3.69115e-06
0.00845266
4.08453e-05
0.00825412
0.000185556
0.00837067
0.000316573
0.00841793
0.000356257
0.00836263
0.0003893
0.00825396
0.000457969
0.00813095
0.000539034
0.00800401
0.000618117
0.00789403
0.000697094
0.00779225
0.000776051
0.00769594
0.000854138
0.00760569
0.000934595
0.00751669
0.00101796
0.00742959
0.00110612
0.00733943
0.00120009
0.00724633
0.00130071
0.00715671
0.00140885
0.00707226
0.00152595
0.00699641
0.00165286
0.00692652
0.00179015
0.00685918
0.00193805
0.00679529
0.00209552
0.00673578
0.00226344
0.00667742
0.00244584
0.00661699
0.00264336
0.00655832
0.00285447
0.00650228
0.00307865
0.00644963
0.00331727
0.00640391
0.00356849
0.00637527
0.0038337
0.00638882
0.00410599
0.0065119
0.00439371
0.00672942
0.00469892
0.00710398
0.00492327
0.00762644
0.00507969
0.0046593
0.00832119
0.00840001
7.56727e-10
0.00840005
-4.20941e-09
0.00839999
-1.77298e-10
0.00840016
-2.11825e-08
0.00839993
-1.77005e-09
0.00840073
-8.79485e-08
0.00839966
-2.85269e-08
0.00840331
-2.41103e-07
0.0083998
-4.50793e-07
0.00840532
-1.04767e-06
0.00840784
-1.55461e-06
0.00834252
-1.08819e-06
0.00835924
-1.36454e-06
0.0081333
3.24393e-06
0.00827527
1.31241e-05
0.00835765
6.22193e-05
0.00845877
0.000201131
0.00842474
0.000336779
0.00829496
0.000460484
0.00814202
0.000557126
0.00800059
0.000643746
0.00787785
0.000725336
0.00777809
0.000802978
0.0076881
0.000877351
0.00761024
0.000950639
0.00753677
0.00102405
0.00746525
0.00110033
0.00739676
0.00118123
0.00733169
0.00126766
0.00726594
0.0013608
0.00720587
0.00146202
0.0071524
0.00157211
0.00710498
0.00169177
0.0070648
0.00182181
0.00703043
0.00196264
0.00700014
0.00211573
0.00697112
0.00228067
0.00694778
0.00245625
0.00693595
0.00264308
0.00693353
0.00284357
0.00694044
0.0030554
0.00695724
0.00327775
0.00699509
0.00350644
0.00706399
0.0037387
0.00717763
0.0039662
0.00738442
0.00417153
0.00771217
0.00437694
0.00815384
0.00449061
0.00865879
0.00457827
0.0043065
0.0090081
0.00840003
-9.37829e-11
0.00840004
-9.16785e-10
0.00840003
-1.23621e-09
0.00840011
-1.03391e-08
0.00840002
-9.4937e-09
0.00840094
-9.69464e-08
0.00839858
-7.28561e-08
0.00840569
-6.95448e-07
0.00839489
-3.87647e-07
0.00840894
-4.0898e-06
0.00841448
-4.23212e-07
0.00842865
-4.85611e-07
0.00841573
-6.81522e-06
0.00819967
-5.78409e-06
0.00844084
2.14521e-06
0.00853566
-1.46593e-05
0.00846453
0.000195439
0.00829474
0.000398081
0.00811863
0.000574199
0.00796838
0.000670657
0.00785369
0.000750756
0.00775563
0.000828459
0.00767433
0.000899726
0.00760704
0.000968144
0.00754776
0.00103407
0.0074935
0.00109904
0.00744309
0.00116621
0.00739745
0.00123723
0.00735638
0.00131468
0.00731879
0.00139916
0.00728377
0.00149173
0.00725406
0.00159342
0.00723193
0.00170536
0.0072163
0.00182872
0.00720452
0.00196294
0.00720058
0.00210783
0.00720511
0.00226374
0.00721788
0.0024303
0.00724197
0.00260705
0.0072805
0.00279313
0.00733413
0.0029877
0.007409
0.00318556
0.00750771
0.00338887
0.00764181
0.00358168
0.00781367
0.00376945
0.00804392
0.00391929
0.00835994
0.00405378
0.00874078
0.00411235
0.00922127
0.00410998
0.00400168
0.00953263
0.00840001
1.05694e-10
0.00840005
1.43412e-09
0.00839989
3.71569e-09
0.00839996
9.93693e-09
0.00839999
1.55963e-08
0.00840003
5.03411e-08
0.00839914
8.4548e-08
0.00840145
2.10452e-07
0.00839848
4.0838e-07
0.00840275
9.62952e-07
0.00840752
2.22222e-06
0.00858189
4.40296e-06
0.00849929
2.13097e-05
0.00833943
-8.16331e-06
0.00829634
4.81166e-05
0.00829827
-9.44791e-05
0.00824654
0.000165209
0.00807991
0.000473211
0.00795863
0.000649398
0.00785888
0.000770322
0.00777639
0.000858371
0.00770128
0.000930154
0.00763348
0.00099392
0.00757138
0.00105194
0.00751587
0.00110656
0.00746867
0.00115997
0.00743018
0.00121602
0.0074006
0.00127712
0.00737822
0.00134442
0.00736229
0.00141885
0.00735003
0.00150205
0.00734234
0.00159431
0.00734226
0.00169741
0.00734923
0.00181195
0.00736311
0.00193749
0.00738545
0.00207364
0.00741695
0.00221985
0.00746102
0.00237528
0.00751757
0.00254013
0.00758909
0.0027097
0.00767514
0.00288639
0.007785
0.00305888
0.00791886
0.00323466
0.00808488
0.0033929
0.00828291
0.00354487
0.00851889
0.003658
0.00880672
0.00374637
0.00912741
0.00378068
0.00949619
0.00374804
0.00365877
0.00985597
0.00840004
-2.547e-10
0.00840003
4.39699e-09
0.00840002
7.63957e-09
0.0084
3.10067e-08
0.00839991
4.79517e-08
0.00839999
1.95709e-07
0.00839926
3.06782e-07
0.00840056
1.13161e-06
0.00839763
1.99113e-06
0.00840441
6.52257e-06
0.00839591
7.473e-06
0.00872899
1.47886e-05
0.00852734
8.21664e-05
0.00843843
-0.000175381
0.008396
0.000187173
0.00845796
-0.000596571
0.00838989
0.000124819
0.00816827
0.00063528
0.00796774
0.000867309
0.00785513
0.000922817
0.00777715
0.000982187
0.00770497
0.00103582
0.00763939
0.0010877
0.00757932
0.00113454
0.00752687
0.00117639
0.00748373
0.00121909
0.00745412
0.00126226
0.00743732
0.00131096
0.00742526
0.0013668
0.00741985
0.00143064
0.00741779
0.00150306
0.00742347
0.00158546
0.00743833
0.00167832
0.00746137
0.00178276
0.00749196
0.00189835
0.00753205
0.002024
0.00758369
0.00215895
0.0076485
0.00230117
0.00772894
0.00245112
0.00782519
0.00260352
0.00793633
0.00276039
0.0080668
0.00291034