/*--------------------------------*- C++ -*----------------------------------*\
| =========                 |                                                 |
| \\      /  F ield         | OpenFOAM: The Open Source CFD Toolbox           |
|  \\    /   O peration     | Version:  2412                                  |
|   \\  /    A nd           | Website:  www.openfoam.com                      |
|    \\/     M anipulation  |                                                 |
\*---------------------------------------------------------------------------*/
FoamFile
{
    version     2.0;
    format      ascii;
    arch        "LSB;label=32;scalar=64";
    class       volScalarField;
    location    "7";
    object      T;
}
// * * * * * * * * * * * * * * * * * * * * * * * * * * * * * * * * * * * * * //

dimensions      [0 0 0 1 0 0 0];

internalField   nonuniform List<scalar> 
7000
(
1
1.00002
1.00002
1.00009
1.00012
1.00049
1.00075
1.00264
1.00514
1.01544
1.03687
1.10067
1.32687
1.91138
2.33757
2.64021
2.65155
2.64433
2.63093
2.63214
2.63751
2.64314
2.64933
2.65513
2.66053
2.6647
2.66767
2.67124
2.67903
2.69251
2.70719
2.71918
2.7271
2.73131
2.73292
2.73424
2.73832
2.75021
2.76426
2.77932
2.79408
2.80172
2.80014
2.7842
2.77753
2.79173
2.81699
2.83578
2.83824
2.81274
1
1.00002
1.00002
1.00011
1.00011
1.00066
1.00065
1.00382
1.00433
1.02101
1.02564
1.13568
1.28579
1.86582
2.33937
2.62914
2.64877
2.64329
2.63132
2.63252
2.63808
2.64364
2.64935
2.65475
2.66013
2.66437
2.6675
2.67224
2.68164
2.69514
2.70931
2.72064
2.72798
2.7318
2.73323
2.73444
2.73836
2.75014
2.76429
2.77929
2.79383
2.80143
2.80007
2.78431
2.77651
2.78928
2.81492
2.83446
2.83761
2.81256
1
1.00002
1.00002
1.00011
1.00013
1.00061
1.00066
1.00344
1.00415
1.01834
1.03113
1.1279
1.28977
1.9565
2.32622
2.63616
2.64884
2.64216
2.63053
2.63229
2.63731
2.6424
2.64808
2.65378
2.65967
2.66435
2.66758
2.67185
2.68066
2.69394
2.70806
2.71946
2.72696
2.73093
2.73245
2.73377
2.73791
2.75002
2.76429
2.7791
2.79332
2.80091
2.79981
2.78446
2.77563
2.78725
2.81332
2.83367
2.83724
2.81249
1
1.00002
1.00002
1.0001
1.00012
1.00056
1.0006
1.0029
1.00454
1.01732
1.03218
1.13557
1.29448
1.86939
2.32968
2.64106
2.65271
2.64584
2.63212
2.63307
2.63716
2.64276
2.64933
2.65554
2.66125
2.66552
2.66848
2.67232
2.68065
2.69395
2.708
2.71927
2.72666
2.73055
2.73205
2.7334
2.73768
2.74993
2.76415
2.77884
2.7928
2.80026
2.7993
2.78429
2.7749
2.78582
2.81209
2.83254
2.83644
2.81201
1
1.00002
1.00002
1.0001
1.00011
1.00063
1.00059
1.00337
1.00491
1.0196
1.02774
1.1248
1.27975
1.85187
2.32053
2.62786
2.64993
2.64478
2.63282
2.63397
2.63921
2.64458
2.65064
2.65654
2.66196
2.66596
2.66888
2.6734
2.68263
2.69581
2.70926
2.71981
2.72665
2.73022
2.73159
2.73291
2.73726
2.74964
2.76371
2.77813
2.79191
2.79938
2.79857
2.78384
2.77377
2.78416
2.81064
2.83126
2.83507
2.81129
1
1.00002
1.00002
1.0001
1.00011
1.00055
1.00055
1.00288
1.0043
1.01642
1.03006
1.13717
1.28698
1.94536
2.31273
2.63259
2.65162
2.64509
2.63257
2.63409
2.63905
2.64384
2.64973
2.65556
2.6606
2.66416
2.66678
2.67068
2.6794
2.69309
2.70714
2.7182
2.72538
2.72915
2.73062
2.73207
2.73674
2.74923
2.76292
2.77713
2.7908
2.79827
2.79755
2.78295
2.77238
2.78228
2.8088
2.82974
2.83403
2.80996
1
1.00002
1.00002
1.00009
1.0001
1.0005
1.00065
1.0029
1.00395
1.01635
1.03209
1.12811
1.28777
1.92461
2.30789
2.63232
2.65435
2.64734
2.63418
2.63525
2.63905
2.6433
2.6489
2.65493
2.66025
2.66397
2.66664
2.67051
2.6792
2.69268
2.70633
2.71699
2.72394
2.72762
2.7291
2.73065
2.73583
2.74882
2.7619
2.77564
2.7894
2.79721
2.7967
2.78223
2.77078
2.77999
2.80665
2.82771
2.8318
2.80873
1
1.00002
1.00002
1.00009
1.0001
1.00049
1.00061
1.00269
1.00348
1.01484
1.03237
1.12458
1.28164
1.90322
2.29885
2.63052
2.65409
2.64666
2.6324
2.63368
2.63844
2.64307
2.64905
2.65479
2.65941
2.66258
2.66529
2.67017
2.68004
2.69321
2.70597
2.71574
2.72209
2.72549
2.72693
2.72866
2.73457
2.74835
2.76105
2.77416
2.78759
2.79547
2.79516
2.781
2.7686
2.77703
2.80316
2.82479
2.8298
2.80642
1
1.00002
1.00002
1.00009
1.0001
1.0005
1.00055
1.00292
1.00418
1.0145
1.03076
1.10749
1.2901
1.85491
2.28981
2.62501
2.6575
2.64989
2.63386
2.63469
2.63788
2.64273
2.64896
2.65502
2.65941
2.6622
2.66485
2.67015
2.68073
2.69384
2.70593
2.71487
2.72058
2.7236
2.72495
2.72684
2.73344
2.74786
2.75997
2.77218
2.78532
2.79358
2.7936
2.78014
2.76672
2.77418
2.79978
2.82205
2.82719
2.80473
1
1.00002
1.00002
1.00009
1.00011
1.00054
1.00069
1.00286
1.00388
1.0157
1.03337
1.11275
1.27122
1.79777
2.28351
2.63125
2.66407
2.65474
2.63641
2.63667
2.63922
2.64398
2.65028
2.65568
2.65896
2.66111
2.66398
2.67028
2.68161
2.69453
2.70577
2.71374
2.7187
2.72129
2.72257
2.72467
2.73211
2.74705
2.75876
2.77004
2.78241
2.79057
2.79088
2.77832
2.76389
2.76965
2.7951
2.81791
2.8233
2.80095
1
1.00002
1.00002
1.00009
1.00009
1.00051
1.00057
1.00265
1.00426
1.01574
1.02796
1.12732
1.25276
1.84763
2.24592
2.62732
2.66832
2.65677
2.63744
2.63793
2.64066
2.64573
2.65204
2.65627
2.65833
2.66022
2.66389
2.67203
2.68394
2.69593
2.70553
2.71204
2.716
2.71809
2.71936
2.7219
2.73083
2.74583
2.75689
2.76746
2.77912
2.78689
2.78733
2.7755
2.7609
2.76651
2.78985
2.81318
2.82013
2.79839
1
1.00002
1.00002
1.0001
1.0001
1.00056
1.00057
1.00325
1.00334
1.01898
1.02234
1.11487
1.23296
1.73037
2.23628
2.62077
2.67044
2.65966
2.64045
2.63899
2.64071
2.64513
2.65125
2.65495
2.65677
2.65945
2.66531
2.67534
2.68684
2.69711
2.70467
2.70951
2.7124
2.714
2.71542
2.7187
2.72958
2.74479
2.75497
2.76444
2.77557
2.78345
2.78414
2.77313
2.75711
2.76081
2.78499
2.80852
2.81402
2.79269
1
1.00002
1.00002
1.00009
1.00011
1.00058
1.00057
1.00323
1.00353
1.01792
1.02254
1.08664
1.237
1.71155
2.22033
2.61607
2.67403
2.66129
2.64309
2.64068
2.64216
2.6462
2.65188
2.65505
2.65698
2.66075
2.66833
2.67854
2.68884
2.69707
2.70256
2.70589
2.70783
2.7091
2.71095
2.71568
2.72892
2.74346
2.75234
2.76045
2.77087
2.77882
2.77989
2.76985
2.75216
2.75451
2.77552
2.80078
2.80964
2.78881
1
1.00001
1.00002
1.00007
1.0001
1.00044
1.00062
1.00264
1.00317
1.01449
1.02745
1.10499
1.23808
1.69341
2.20103
2.61551
2.67956
2.66392
2.64343
2.64079
2.64261
2.64761
2.65408
2.65743
2.66028
2.66555
2.67327
2.68206
2.6899
2.69555
2.69899
2.70109
2.70238
2.7037
2.70646
2.71353
2.72811
2.74213
2.74974
2.75629
2.76501
2.77223
2.77341
2.76474
2.7467
2.74773
2.76768
2.79356
2.80078
2.78003
1
1.00001
1.00002
1.00008
1.0001
1.00046
1.00058
1.00238
1.0036
1.01282
1.02913
1.10254
1.22087
1.72519
2.16362
2.60991
2.68402
2.66738
2.64714
2.64459
2.64676
2.65288
2.6592
2.66226
2.66553
2.6707
2.67713
2.68377
2.68912
2.69246
2.69437
2.6955
2.69637
2.69803
2.70271
2.71283
2.72667
2.73969
2.74635
2.75111
2.75942
2.76626
2.76735
2.75966
2.74045
2.73947
2.75653
2.78177
2.79173
2.77328
1
1.00001
1.00001
1.00008
1.00009
1.00041
1.00054
1.00196
1.00345
1.01229
1.02907
1.06853
1.23368
1.65283
2.1527
2.60536
2.69082
2.67091
2.64922
2.64839
2.65139
2.65862
2.66475
2.66891
2.67196
2.67494
2.67863
2.68235
2.68482
2.68617
2.6871
2.68784
2.68908
2.69271
2.7013
2.71262
2.72513
2.73607
2.74174
2.74458
2.75055
2.75794
2.75993
2.75342
2.73226
2.7288
2.74319
2.7699
2.77968
2.75901
1
1.00001
1.00002
1.00007
1.0001
1.0004
1.00059
1.00218
1.0032
1.01381
1.02492
1.08838
1.20412
1.64072
2.11286
2.60581
2.696
2.6741
2.65176
2.65268
2.65701
2.66575
2.67158
2.67371
2.67419
2.6745
2.67509
2.67569
2.67634
2.67731
2.67831
2.67989
2.68366
2.69125
2.70132
2.71234
2.72317
2.73191
2.73635
2.73793
2.74126
2.74808
2.74991
2.74525
2.72476
2.71658
2.72596
2.75134
2.76196
2.74558
1
1.00001
1.00001
1.00007
1.00009
1.00039
1.00049
1.00205
1.00281
1.01187
1.02313
1.07704
1.19731
1.60159
2.08488
2.59118
2.70223
2.67844
2.66008
2.65741
2.65928
2.66224
2.66511
2.66662
2.66707
2.66694
2.66697
2.66733
2.66813
2.66929
2.67134
2.67567
2.6827
2.69166
2.70173
2.71163
2.72017
2.7265
2.72944
2.73009
2.73124
2.73596
2.73893
2.7358
2.71469
2.70241
2.70775
2.72946
2.73963
2.71796
1
1.00001
1.00001
1.00007
1.00007
1.00038
1.00041
1.00213
1.0029
1.01261
1.02013
1.07645
1.18203
1.54927
2.05437
2.57533
2.70597
2.68366
2.66776
2.65946
2.6559
2.65654
2.65805
2.65919
2.65932
2.65938
2.65967
2.66034
2.66158
2.66411
2.66873
2.67555
2.68403
2.69301
2.70184
2.70999
2.71598
2.71938
2.72065
2.72028
2.71986
2.72245
2.72434
2.72234
2.7048
2.68364
2.68246
2.69701
2.70333
2.68003
1
1.00001
1.00001
1.00007
1.00006
1.00039
1.00043
1.00195
1.00312
1.00988
1.02193
1.0595
1.18471
1.45606
2.0289
2.56241
2.71784
2.69255
2.66758
2.6509
2.64818
2.65072
2.65487
2.65699
2.65721
2.65698
2.65704
2.6575
2.65897
2.66319
2.6705
2.6787
2.68642
2.69357
2.70074
2.70608
2.70931
2.71008
2.70961
2.70833
2.70692
2.70788
2.709
2.70718
2.69111
2.66198
2.6507
2.65398
2.64626
2.56445
1
1.00001
1.00001
1.00007
1.00007
1.00039
1.00043
1.0022
1.00261
1.01196
1.01607
1.0693
1.16067
1.45454
1.97026
2.54501
2.72511
2.69462
2.65867
2.64288
2.64327
2.65053
2.65675
2.65861
2.65838
2.65766
2.6577
2.65864
2.66205
2.66787
2.67405
2.67999
2.68572
2.691
2.69533
2.69665
2.69704
2.69692
2.69588
2.69232
2.68922
2.68784
2.6861
2.6825
2.67062
2.63249
2.59871
2.57731
2.54169
2.43271
1
1.00001
1.00002
1.00007
1.00008
1.00036
1.00044
1.00201
1.00217
1.01165
1.01351
1.06177
1.16245
1.40196
1.94947
2.52398
2.72257
2.68273
2.65134
2.64312
2.6454
2.65583
2.66238
2.66404
2.6638
2.66227
2.66116
2.66125
2.66254
2.66656
2.67178
2.67654
2.67985
2.68082
2.68108
2.68103
2.68058
2.6792
2.67718
2.67306
2.66851
2.66513
2.66021
2.65482
2.64401
2.61363
2.55778
2.50879
2.43248
2.38155
1
1.00001
1.00002
1.00007
1.0001
1.00035
1.00054
1.00198
1.00267
1.00986
1.01479
1.06023
1.16205
1.38368
1.94649
2.51438
2.70489
2.66851
2.65272
2.65221
2.65578
2.66638
2.66835
2.66784
2.66499
2.66074
2.65828
2.65775
2.65816
2.66013
2.66367
2.66618
2.66802
2.66891
2.66887
2.6684
2.66742
2.66586
2.66252
2.65699
2.65039
2.64265
2.63674
2.62521
2.61381
2.59333
2.54027
2.49198
2.39605
2.34616
1.00001
1.00001
1.00005
1.00005
1.0002
1.00025
1.0008
1.00108
1.00369
1.01078
1.01305
1.0554
1.15855
1.36436
1.92802
2.46823
2.69283
2.67415
2.6699
2.66797
2.66844
2.66996
2.66831
2.66383
2.65827
2.6533
2.64991
2.64852
2.64854
2.64909
2.65067
2.65293
2.65482
2.65582
2.65585
2.65533
2.65418
2.6519
2.64895
2.64287
2.63554
2.62633
2.61463
2.60285
2.5846
2.56869
2.52778
2.49151
2.40917
2.35094
1.00001
1.00001
1.00006
1.00005
1.00031
1.0003
1.00166
1.00189
1.0078
1.00655
1.03473
0.969927
1.16075
1.37396
1.93301
2.47961
2.72736
2.70984
2.69095
2.67427
2.66565
2.66028
2.65578
2.6513
2.64752
2.64521
2.64365
2.64276
2.64237
2.6425
2.64318
2.64471
2.64593
2.64617
2.64593
2.64494
2.64306
2.63985
2.63416
2.62814
2.61894
2.61143
2.59662
2.58601
2.56473
2.5495
2.51843
2.48524
2.43985
2.37623
1.00001
1.00001
1.00005
1.00005
1.00029
1.00027
1.00161
1.00194
1.00802
1.00628
1.03727
0.957729
1.15657
1.35555
1.95135
2.49976
2.74487
2.72468
2.6981
2.67169
2.65901
2.65339
2.65054
2.64709
2.64405
2.64149
2.63895
2.63537
2.63305
2.63297
2.63396
2.63627
2.63772
2.63815
2.63801
2.63728
2.6351
2.63216
2.62546
2.61975
2.60861
2.60143
2.58671
2.57699
2.55688
2.54235
2.51741
2.48843
2.4498
2.4099
1
1
1
1.00002
1.00002
1.00005
0.999973
1.00044
0.997975
1.00779
0.97398
1.02867
1.01169
1.61082
2.42428
2.5653
2.62072
2.61659
2.60802
2.6096
2.61496
2.6233
2.63295
2.63595
2.63591
2.63509
2.6332
2.6306
2.62807
2.62476
2.62196
2.61937
2.61841
2.61643
2.61411
2.61287
2.61258
2.61234
2.61002
2.60642
2.59778
2.59133
2.57762
2.56828
2.5507
2.53545
2.51572
2.49205
2.46251
2.42897
1
1
1.00002
1.00002
1.00012
1.00016
1.00065
1.00102
1.00396
1.00664
1.02295
1.03645
1.0682
1.48336
2.32265
2.5304
2.59791
2.58852
2.58231
2.58393
2.59064
2.5953
2.60074
2.60617
2.60914
2.61036
2.6104
2.61017
2.60913
2.60747
2.60546
2.60419
2.60219
2.60009
2.59485
2.58866
2.58023
2.57403
2.56989
2.5681
2.56384
2.56009
2.55166
2.54192
2.52986
2.51485
2.50041
2.48248
2.45958
2.43389
1
1
1.00002
1.00002
1.00012
1.00013
1.00062
1.0009
1.00354
1.00541
1.02158
1.0312
1.12114
1.3945
2.13612
2.46825
2.60609
2.59455
2.58687
2.57824
2.57938
2.5819
2.58431
2.58774
2.59106
2.59317
2.59479
2.5969
2.59968
2.60233
2.60326
2.60316
2.60241
2.60072
2.59621
2.58935
2.577
2.56637
2.55296
2.54359
2.5326
2.52374
2.51483
2.50393
2.49288
2.47943
2.46461
2.45011
2.43273
2.41652
1
1
1.00002
1.00002
1.00008
1.00014
1.00055
1.00083
1.00353
1.0045
1.01966
1.02901
1.13009
1.33049
1.94476
2.40187
2.62662
2.61789
2.60942
2.59373
2.58865
2.59061
2.59167
2.59314
2.59403
2.59539
2.59762
2.60073
2.60458
2.60857
2.61123
2.612
2.61172
2.61057
2.60731
2.60233
2.59076
2.57613
2.55824
2.54405
2.52998
2.51621
2.50374
2.49078
2.4771
2.46336
2.44804
2.43277
2.41584
2.39972
1
1
1.00002
1.00002
1.00009
1.00011
1.00056
1.00067
1.00326
1.00417
1.0179
1.02627
1.11481
1.27127
1.83165
2.30375
2.62674
2.64221
2.631
2.60886
2.59454
2.59531
2.59686
2.6008
2.60531
2.60863
2.61337
2.61649
2.61912
2.62052
2.62052
2.61982
2.61819
2.61591
2.61288
2.61029
2.60503
2.59752
2.58309
2.56441
2.54464
2.52582
2.50939
2.49389
2.47899
2.46387
2.44876
2.43315
2.41687
2.4011
1
1
1.00001
1.00001
1.00007
1.00007
1.00042
1.00051
1.00279
1.0037
1.01635
1.02254
1.10284
1.25563
1.76319
2.28049
2.63196
2.65888
2.64344
2.6088
2.6022
2.6056
2.61409
2.63085
2.64173
2.64513
2.64499
2.64111
2.63409
2.62934
2.62565
2.62235
2.61897
2.61584
2.61257
2.60995
2.60674
2.60255
2.59584
2.58492
2.57126
2.5534
2.53466
2.51488
2.49707
2.47807
2.46173
2.44453
2.42855
2.41382
0.999999
0.999997
0.999997
0.999984
0.999978
0.999929
0.999978
0.999707
1.00111
0.995786
1.02782
0.910859
1.08411
1.18993
1.7968
2.58907
2.66444
2.66772
2.64871
2.60747
2.59842
2.60065
2.60994
2.62799
2.63797
2.64149
2.64114
2.63863
2.63368
2.62944
2.62599
2.62329
2.61951
2.61479
2.609
2.60383
2.59962
2.5959
2.59097
2.58324
2.57229
2.55824
2.54266
2.52503
2.50751
2.48888
2.4717
2.45445
2.43809
2.42366
0.999999
0.999996
0.999996
0.999974
0.999964
0.999806
0.99976
0.998964
0.999654
0.994669
1.0221
0.914893
1.07043
1.1658
1.74411
2.5668
2.65624
2.66573
2.65014
2.61457
2.5902
2.58654
2.58599
2.58863
2.59097
2.59446
2.59676
2.59853
2.60074
2.60281
2.60289
2.60243
2.60119
2.59831
2.59221
2.58395
2.5756
2.56882
2.56266
2.5573
2.55067
2.54128
2.52998
2.51586
2.50125
2.48454
2.46815
2.45205
2.4365
2.42282
1
1
1
0.999995
1.00001
0.999925
1.00001
0.999394
0.999719
0.994992
1.01641
0.912307
1.07609
1.13078
1.72664
2.59159
2.64241
2.64172
2.61668
2.57807
2.55461
2.5497
2.54896
2.55013
2.55494
2.56382
2.57078
2.57637
2.58009
2.58386
2.58987
2.59452
2.59546
2.59459
2.59193
2.58538
2.57494
2.56407
2.55288
2.54239
2.53244
2.52206
2.51152
2.49985
2.48834
2.4754
2.46205
2.44818
2.43446
2.42212
1
1.00001
1.00001
1.00002
1.00004
1.0001
1.00028
1.0005
1.00181
1.00268
1.00975
1.02018
1.06992
1.20574
1.53834
2.14338
2.57105
2.67068
2.6522
2.64363
2.63516
2.62223
2.60812
2.59586
2.5879
2.58586
2.58071
2.57667
2.57311
2.57196
2.57236
2.57561
2.58431
2.59381
2.59913
2.59924
2.59694
2.59043
2.57516
2.55611
2.53973
2.52525
2.51228
2.49959
2.48759
2.47549
2.46365
2.45183
2.44051
2.43007
1
1
1
1.00002
1.00002
1.0001
1.00005
1.00028
1.00052
0.999499
1.00306
0.96279
1.05945
1.03955
1.64683
2.46123
2.57996
2.62502
2.60916
2.60167
2.60247
2.6052
2.60426
2.60351
2.60166
2.59928
2.59608
2.58914
2.58023
2.574
2.57139
2.57127
2.57352
2.58257
2.59406
2.60036
2.60204
2.60139
2.5983
2.58889
2.5691
2.54621
2.52446
2.50664
2.49188
2.47883
2.46757
2.45671
2.44723
2.43871
1
1
1
1.00002
1.00003
1.00013
1.00014
1.00071
1.0009
1.00393
1.00569
1.02
1.04295
1.09112
1.53589
2.39419
2.56292
2.60899
2.58971
2.5699
2.56811
2.5729
2.58051
2.5849
2.58603
2.5856
2.58363
2.58305
2.58591
2.58996
2.5909
2.58993
2.58835
2.58915
2.59139
2.59498
2.59784
2.5985
2.59757
2.59354
2.58234
2.56534
2.54608
2.52568
2.50627
2.48915
2.47519
2.46237
2.45168
2.4422
1
1
1
1.00002
1.00002
1.00012
1.00013
1.0007
1.00084
1.00342
1.00521
1.02045
1.0322
1.09529
1.43496
2.18033
2.53938
2.62198
2.59787
2.57349
2.56462
2.56465
2.56697
2.56903
2.5699
2.57036
2.57088
2.57462
2.58604
2.60035
2.61199
2.61824
2.6196
2.61804
2.61182
2.60279
2.59613
2.59267
2.59111
2.58823
2.58063
2.56668
2.5509
2.53448
2.51745
2.49948
2.48319
2.46846
2.45613
2.44567
1
1
1
1.00001
1.00002
1.00008
1.00011
1.00051
1.0007
1.00242
1.00459
1.01579
1.03467
1.1407
1.35991
2.01761
2.44657
2.63833
2.62296
2.60461
2.59236
2.58285
2.57806
2.57715
2.57691
2.57727
2.58037
2.59171
2.61129
2.62901
2.64001
2.64409
2.64367
2.63767
2.62098
2.59975
2.58024
2.56611
2.55741
2.55266
2.54883
2.54387
2.5371
2.52704
2.51638
2.5058
2.49517
2.48382
2.47191
2.46038
1
1
1
1.00001
1.00001
1.00007
1.00008
1.00046
1.00045
1.00339
0.996967
1.03623
0.904609
1.10429
1.23435
1.88607
2.6462
2.70861
2.67746
2.64326
2.61469
2.59497
2.57868
2.57087
2.56669
2.5644
2.56591
2.57406
2.59429
2.61587
2.63
2.63609
2.63667
2.63263
2.61704
2.59117
2.56665
2.5466
2.53218
2.52265
2.51678
2.51271
2.50941
2.50739
2.50551
2.5036
2.50065
2.49808
2.49392
2.49047
1
1
1
1.00001
1.00001
1.00005
1.0001
1.00035
1.00059
1.00171
1.00523
1.01048
1.03537
1.08889
1.30017
1.84369
2.30843
2.62645
2.65467
2.64044
2.61371
2.59381
2.58171
2.58015
2.57956
2.57913
2.57971
2.58251
2.58732
2.59375
2.60364
2.61344
2.61821
2.61801
2.61205
2.59568
2.57741
2.5608
2.54477
2.53061
2.52038
2.51326
2.50831
2.50532
2.5035
2.50268
2.50153
2.50037
2.49881
2.49709
1
1
1
1.00001
1.00001
1.00007
1.00008
1.00043
1.00052
1.00254
1.0037
1.01271
1.03053
1.08809
1.25351
1.71437
2.25241
2.59001
2.64358
2.62571
2.5918
2.58299
2.58574
2.59517
2.61603
2.62861
2.6313
2.63045
2.62562
2.61685
2.60841
2.59812
2.59254
2.59081
2.58896
2.58405
2.57319
2.56222
2.55361
2.5458
2.53809
2.53014
2.52387
2.519
2.51497
2.51225
2.50966
2.50739
2.50515
2.50314
1
1
1
1
0.999999
1.00001
0.999961
1.00002
0.999722
1.00104
0.995769
1.0265
0.913339
1.07925
1.17877
1.76456
2.54692
2.62623
2.64011
2.62676
2.59044
2.57192
2.57161
2.57548
2.58663
2.60428
2.617
2.62159
2.62128
2.61843
2.61032
2.59867
2.58788
2.57867
2.57059
2.56396
2.55875
2.55469
2.55113
2.54852
2.54713
2.54616
2.54519
2.54443
2.54291
2.54148
2.53853
2.53421
2.52882
2.52213
1
1
0.999999
0.999998
0.999988
0.999963
0.99987
0.999786
0.998999
0.999598
0.993162
1.02037
0.912131
1.06413
1.15293
1.71538
2.55093
2.60639
2.61779
2.60348
2.57709
2.55598
2.54988
2.54733
2.5467
2.54817
2.5558
2.5697
2.58553
2.59733
2.60099
2.60047
2.59768
2.59221
2.58584
2.57926
2.57339
2.56725
2.56217
2.55777
2.55424
2.55165
2.54948
2.54844
2.5466
2.5451
2.54194
2.53706
2.5309
2.52355
1
1
1
0.999999
0.999991
0.999979
0.999929
0.999824
0.999129
0.999646
0.993157
1.01945
0.911554
1.06373
1.13932
1.70318
2.53615
2.59369
2.6076
2.59294
2.56266
2.53493
2.52342
2.52
2.51987
2.52145
2.53053
2.5526
2.57998
2.60402
2.62185
2.63379
2.63961
2.64061
2.63928
2.6334
2.62061
2.60334
2.58462
2.5651
2.54758
2.5329
2.52101
2.51218
2.50572
2.50015
2.49643
2.49209
2.4886
2.48494
1
1
1
1.00001
1.00001
1.00005
1.00007
1.00029
1.00036
1.00166
1.00225
1.01023
1.02143
1.06528
1.20289
1.50351
2.14333
2.53407
2.63046
2.60622
2.60257
2.59711
2.59752
2.60061
2.5989
2.5901
2.58225
2.58073
2.58249
2.58943
2.5983
2.60533
2.61017
2.61245
2.61268
2.6116
2.6073
2.59708
2.58365
2.56849
2.5524
2.53738
2.52459
2.51385
2.5068
2.49975
2.49562
2.48943
2.4849
2.48028
1
1
1
1
1
1.00002
1.00002
1.00002
0.999951
0.999985
0.998406
1.00205
0.982857
1.03776
1.01118
1.63896
2.45925
2.54078
2.5788
2.56355
2.5631
2.5675
2.57783
2.58683
2.59231
2.59608
2.60236
2.60513
2.60478
2.60502
2.60594
2.60569
2.60298
2.59718
2.59142
2.58666
2.58306
2.57986
2.57535
2.56871
2.56144
2.55264
2.54442
2.5351
2.5287
2.5207
2.5164
2.50968
2.50351
2.49718
1
1
1
1
1.00002
1.00002
1.00011
1.00013
1.0005
1.00044
1.00327
1.00506
0.999193
1.05533
1.11879
1.56601
2.36584
2.51523
2.55803
2.5417
2.52885
2.52973
2.53593
2.54611
2.55597
2.56775
2.58526
2.60553
2.62524
2.63881
2.64446
2.645
2.64266
2.6338
2.61859
2.60263
2.58707
2.57292
2.56126
2.55159
2.54281
2.53431
2.52659
2.51899
2.51285
2.50681
2.50254
2.49757
2.49395
2.48966
1
1
1
1.00001
1.00003
1.00003
1.00018
1.00018
1.00114
1.00135
1.0073
1.00042
1.04754
0.905082
1.13504
1.31928
1.96019
2.53332
2.72166
2.67541
2.62607
2.59068
2.57214
2.57148
2.57137
2.57193
2.57533
2.58048
2.58539
2.58931
2.59147
2.59218
2.59206
2.59108
2.58818
2.58308
2.57742
2.57212
2.56717
2.56181
2.55535
2.54759
2.53958
2.53201
2.52567
2.51921
2.5135
2.50629
2.50115
2.49509
1
1
1
1
1.00002
1.00002
1.00012
1.00011
1.00062
1.00075
1.00232
1.00589
1.01824
1.03844
1.1556
1.34561
1.98206
2.40358
2.65201
2.63214
2.62001
2.59323
2.58257
2.58327
2.58541
2.58958
2.59269
2.59515
2.59723
2.59878
2.59945
2.59912
2.59691
2.59206
2.58668
2.58156
2.57743
2.57442
2.57177
2.568
2.56236
2.55504
2.5472
2.5392
2.53198
2.52452
2.51871
2.51199
2.50788
2.50289
1
1
1
1
1.00002
1.00002
1.0001
1.00013
1.00059
1.00069
1.00345
1.00442
1.01901
1.02659
1.11335
1.27835
1.84134
2.31255
2.61954
2.62632
2.61287
2.58463
2.56777
2.56824
2.57144
2.57916
2.59332
2.60729
2.61727
2.62271
2.6249
2.62508
2.62408
2.61911
2.60619
2.58899
2.57238
2.55782
2.54567
2.5357
2.52738
2.52021
2.51398
2.50852
2.50377
2.4995
2.49586
2.49268
2.49103
2.4899
1
1
1
1
1.00001
1.00001
1.00007
1.00009
1.00038
1.00057
1.00243
1.00387
1.01405
1.03114
1.08766
1.29282
1.81875
2.27917
2.61339
2.64107
2.62411
2.58471
2.56749
2.56956
2.57614
2.59207
2.61003
2.61977
2.62341
2.62386
2.62345
2.62239
2.62058
2.61651
2.60502
2.58531
2.56471
2.54591
2.53015
2.5176
2.50794
2.50066
2.49522
2.49115
2.48806
2.48572
2.48393
2.4827
2.48245
2.48245
1
1
1
1
1.00001
1.00001
1.00006
1.00007
1.00032
1.00056
1.00123
1.00448
1.00903
1.03264
1.08251
1.28088
1.78395
2.25559
2.60205
2.65131
2.63134
2.5924
2.58597
2.59081
2.60617
2.62618
2.63458
2.63471
2.63114
2.62463
2.62176
2.62021
2.61878
2.61558
2.60564
2.58466
2.56232
2.54224
2.52577
2.51313
2.50394
2.4975
2.49308
2.49008
2.48804
2.48661
2.48567
2.48524
2.48548
2.48689
1
0.999999
0.999999
0.999997
0.999997
0.999985
0.999978
0.999937
1.00001
0.999725
1.00117
0.995749
1.02858
0.909485
1.08553
1.19594
1.80562
2.59392
2.66839
2.67262
2.65488
2.61311
2.59202
2.58976
2.59181
2.59393
2.59349
2.59001
2.58516
2.58302
2.58309
2.58408
2.5844
2.58376
2.58049
2.57343
2.56739
2.5637
2.56204
2.56172
2.56186
2.56198
2.56177
2.5604
2.55588
2.54662
2.53622
2.5264
2.5201
2.51545
1
1
0.999999
0.999996
0.999995
0.999973
0.999963
0.999864
0.999774
0.999165
0.99991
0.994922
1.02405
0.912999
1.0744
1.17625
1.76345
2.57919
2.66364
2.67256
2.65876
2.62668
2.6001
2.58493
2.57602
2.56773
2.56187
2.55696
2.55398
2.55272
2.55237
2.55241
2.55257
2.55268
2.553
2.55461
2.5603
2.57156
2.58275
2.59144
2.59675
2.59895
2.59907
2.59744
2.59142
2.5779
2.56258
2.54406
2.52849
2.51248
1
1
1
1
1.00001
0.999999
1.00005
0.999906
0.999998
0.999065
0.999843
0.994296
1.02434
0.911423
1.07455
1.16951
1.77335
2.6032
2.67401
2.67258
2.6464
2.60339
2.57393
2.55837
2.55091
2.5467
2.54438
2.54362
2.54376
2.54443
2.54512
2.54533
2.54524
2.54482
2.54429
2.54418
2.5444
2.54591
2.55101
2.56083
2.57079
2.57875
2.58333
2.58487
2.58473
2.58255
2.57419
2.55299
2.52901
2.50448
1
1
1
1
1
1.00002
1.00004
1.00007
1.00031
1.00033
1.00165
1.00272
1.0113
1.0222
1.09692
1.20305
1.71329
2.17241
2.5985
2.67163
2.64514
2.63133
2.63369
2.64144
2.6427
2.6371
2.62332
2.60918
2.59795
2.59058
2.58679
2.58521
2.58447
2.58352
2.58111
2.57329
2.55629
2.53792
2.52291
2.51331
2.50933
2.50937
2.51251
2.52014
2.52586
2.52782
2.52756
2.52475
2.51908
2.51145
1
1
1
1
1.00001
1.00002
1.00007
1.0001
1.00042
1.00054
1.00237
1.00302
1.0123
1.01827
1.07836
1.18879
1.57187
2.08089
2.5641
2.69609
2.68058
2.68466
2.68681
2.68185
2.66837
2.653
2.64017
2.62785
2.61651
2.60704
2.59933
2.59294
2.58814
2.58502
2.58208
2.57605
2.56441
2.54904
2.53282
2.51829
2.50696
2.49957
2.49605
2.49566
2.49787
2.50525
2.51612
2.52595
2.53469
2.54112
1
1
1
1.00001
1.00001
1.00003
1.00004
1.00013
1.00033
1.00059
1.00201
1.00321
1.01312
1.01943
1.0802
1.18001
1.56498
2.05961
2.56113
2.71718
2.70713
2.70595
2.69826
2.67956
2.66076
2.64919
2.63756
2.62685
2.61572
2.6051
2.59595
2.58867
2.58306
2.57913
2.57668
2.5743
2.56932
2.5594
2.54629
2.53239
2.51985
2.5104
2.50498
2.50347
2.50488
2.51146
2.5245
2.5362
2.5456
2.55148
2.23509
2.65547
2.69718
3.01999
3.40003
3.2858
3.2745
3.25187
3.24408
3.24001
3.23765
3.23101
3.22464
3.21491
3.2054
3.19506
3.18669
3.17817
3.16971
3.16129
3.15421
3.14475
3.13616
3.12719
3.11958
3.11255
3.10224
3.09581
3.08751
3.08186
3.07136
3.06535
3.05766
3.0525
3.04406
3.03712
3.02759
3.02019
3.01158
3.00477
2.99692
2.98991
2.9818
2.97396
2.96573
2.95711
2.949
2.94048
2.93194
2.92331
2.91489
2.90647
2.89837
2.89029
2.88232
2.87438
2.86663
2.85883
2.85148
2.84398
2.83699
2.82998
2.82323
2.81676
2.81019
2.80413
2.79781
2.79194
2.78605
2.78028
2.77486
2.76943
2.76442
2.75952
2.75523
2.7505
2.74737
2.74343
2.74036
2.73857
2.7358
2.73486
2.73301
2.73184
2.73062
2.73081
2.73148
2.73247
2.73373
2.73495
2.736
2.73718
2.7378
2.7382
2.73829
2.73799
2.73726
2.73526
2.73426
2.72743
2.24274
2.46547
2.54414
2.70907
2.78029
2.86871
2.94782
3.03745
3.09742
3.14682
3.18607
3.21256
3.21923
3.21262
3.19431
3.14606
3.0933
3.04718
3.00689
2.97129
2.94029
2.91116
2.88423
2.85693
2.83005
2.80226
2.77737
2.75209
2.73047
2.70836
2.69009
2.67215
2.65731
2.64266
2.63019
2.61796
2.60709
2.59637
2.58723
2.57831
2.57101
2.56375
2.55759
2.55131
2.54588
2.54055
2.53593
2.53134
2.52688
2.52212
2.51682
2.51109
2.50478
2.49825
2.49175
2.48547
2.47973
2.47463
2.47017
2.46635
2.46312
2.46033
2.45783
2.45563
2.45384
2.45202
2.45042
2.44949
2.44842
2.44776
2.44782
2.44817
2.44908
2.45065
2.4529
2.45599
2.45945
2.46417
2.46928
2.47536
2.4824
2.4894
2.49708
2.50413
2.51147
2.51926
2.52765
2.53543
2.54313
2.5499
2.55619
2.56172
2.56647
2.57044
2.57353
2.57551
2.57688
2.57689
2.57678
2.5722
2.27173
2.30462
2.38933
2.45657
2.5088
2.53787
2.55628
2.57132
2.58435
2.59444
2.61005
2.62256
2.63415
2.64901
2.65763
2.65954
2.6591
2.65679
2.64928
2.63243
2.61225
2.59348
2.57716
2.56156
2.54705
2.53358
2.52092
2.50852
2.49659
2.48529
2.47432
2.4642
2.45459
2.44581
2.43662
2.42759
2.41824
2.40886
2.3993
2.38936
2.3793
2.36905
2.35886
2.34871
2.33876
2.32899
2.3196
2.31064
2.30231
2.29469
2.28767
2.28128
2.27523
2.26949
2.26386
2.25823
2.25284
2.24754
2.24294
2.23885
2.23571
2.23343
2.23185
2.23107
2.2307
2.23072
2.23087
2.23105
2.23115
2.23105
2.23064
2.22978
2.2282
2.22637
2.22409
2.22102
2.21817
2.21509
2.21158
2.20893
2.2068
2.20476
2.203
2.20224
2.20254
2.20343
2.2057
2.20793
2.21259
2.21607
2.22175
2.22563
2.23158
2.23523
2.2408
2.24375
2.24861
2.25053
2.25487
2.25452
2.28634
2.27023
2.29317
2.32268
2.35206
2.37016
2.38046
2.38857
2.39286
2.39461
2.39623
2.39677
2.39727
2.39621
2.39663
2.39813
2.40187
2.40799
2.41477
2.42272
2.43072
2.4374
2.44217
2.44435
2.44471
2.44395
2.44066
2.43366
2.4252
2.41668
2.40766
2.39897
2.39075
2.38346
2.37617
2.36895
2.3617
2.35478
2.3478
2.34039
2.33237
2.32367
2.31427
2.30422
2.29367
2.28274
2.27153
2.26018
2.24885
2.23779
2.22715
2.21702
2.20741
2.19829
2.1897
2.18164
2.174
2.16672
2.15975
2.1532
2.14726
2.14219
2.13827
2.13572
2.13454
2.13436
2.13456
2.13537
2.13729
2.13993
2.1429
2.14617
2.14973
2.15344
2.15717
2.16081
2.16384
2.1665
2.16799
2.16878
2.16882
2.16801
2.166
2.16304
2.16075
2.15818
2.15608
2.15408
2.15252
2.15155
2.15118
2.1509
2.15088
2.15083
2.15104
2.15112
2.15136
2.15137
2.15171
2.14957
2.30166
2.27371
2.26098
2.26381
2.2701
2.27513
2.27683
2.27775
2.27807
2.27753
2.2772
2.27575
2.2742
2.27432
2.27542
2.27743
2.28053
2.28603
2.29146
2.29781
2.30481
2.31272
2.32006
2.32628
2.3318
2.3353
2.33632
2.33603
2.33515
2.33328
2.32937
2.3248
2.31979
2.31453
2.30869
2.30246
2.2961
2.29013
2.28457
2.27929
2.2742
2.26902
2.26341
2.25717
2.25024
2.24265
2.23434
2.22543
2.21589
2.20607
2.19604
2.18606
2.17617
2.1664
2.15672
2.14746
2.13842
2.13017
2.1222
2.11479
2.10757
2.10037
2.09345
2.08652
2.08032
2.0746
2.07002
2.0662
2.06361
2.06182
2.06093
2.06093
2.06118
2.06189
2.06299
2.06448
2.06583
2.06777
2.06916
2.07156
2.07353
2.07646
2.07845
2.08114
2.08387
2.08628
2.0902
2.09276
2.09649
2.09904
2.10226
2.10443
2.10689
2.10846
2.10999
2.11091
2.11168
2.11191
2.11247
2.11023
2.33606
2.28749
2.26474
2.24612
2.23466
2.2266
2.21987
2.21288
2.2078
2.20331
2.20005
2.19908
2.199
2.19962
2.20139
2.20614
2.21071
2.2177
2.22575
2.23404
2.24221
2.25022
2.25732
2.2634
2.26879
2.27231
2.27509
2.27684
2.27691
2.27627
2.27496
2.27289
2.27038
2.26749
2.26378
2.25901
2.25373
2.2485
2.24323
2.2382
2.23338
2.22923
2.22519
2.22117
2.21658
2.21132
2.20529
2.1984
2.19112
2.1834
2.17565
2.16776
2.1597
2.15144
2.14269
2.13352
2.12388
2.11382
2.10359
2.09313
2.08294
2.07297
2.06379
2.05535
2.0481
2.04192
2.03695
2.03319
2.03052
2.02869
2.02808
2.02816
2.02855
2.02947
2.03099
2.03272
2.03454
2.03659
2.0385
2.04067
2.0428
2.04498
2.04681
2.04826
2.05043
2.05151
2.05392
2.05551
2.0577
2.0593
2.06117
2.06268
2.06398
2.06506
2.06565
2.06602
2.06592
2.06567
2.06544
2.06227
2.37558
2.32208
2.27909
2.25296
2.23013
2.20979
2.19362
2.17938
2.16861
2.16088
2.15411
2.15173
2.15189
2.15326
2.15624
2.16031
2.1686
2.17646
2.18755
2.19871
2.20887
2.21801
2.22532
2.23109
2.23475
2.23714
2.2385
2.23864
2.23825
2.23725
2.23591
2.23388
2.23249
2.23129
2.22841
2.22593
2.22319
2.22009
2.21664
2.21323
2.20953
2.20544
2.20067
2.19539
2.1899
2.18425
2.17877
2.17313
2.16774
2.16245
2.15755
2.15284
2.14808
2.14287
2.1366
2.12928
2.12051
2.11062
2.0995
2.08771
2.07551
2.06343
2.05202
2.04156
2.03258
2.02503
2.01914
2.0148
2.01168
2.00995
2.00961
2.00979
2.01043
2.01176
2.01354
2.01542
2.01728
2.01918
2.02106
2.02283
2.02501
2.02672
2.02895
2.03026
2.03247
2.03437
2.03609
2.03843
2.04039
2.0423
2.04404
2.04563
2.04678
2.04777
2.04813
2.04806
2.04775
2.04695
2.0464
2.04206
2.38765
2.34707
2.30393
2.2654
2.23638
2.2122
2.1921
2.17331
2.15722
2.14669
2.1378
2.13162
2.13097
2.13177
2.13525
2.1396
2.14724
2.1571
2.16739
2.18011
2.19133
2.20134
2.20976
2.2163
2.21968
2.22003
2.2195
2.21777
2.21427
2.21092
2.20745
2.2043
2.20145
2.20027
2.19846
2.19862
2.20015
2.20165
2.20192
2.20164
2.20037
2.19698
2.19076
2.18263
2.17381
2.16511
2.15754
2.15123
2.14626
2.14236
2.13945
2.13753
2.13607
2.13443
2.13138
2.12653
2.1193
2.10982
2.09835
2.08569
2.0726
2.05963
2.04761
2.03672
2.02753
2.01993
2.01406
2.00983