/*--------------------------------*- C++ -*----------------------------------*\
| =========                 |                                                 |
| \\      /  F ield         | OpenFOAM: The Open Source CFD Toolbox           |
|  \\    /   O peration     | Version:  2412                                  |
|   \\  /    A nd           | Website:  www.openfoam.com                      |
|    \\/     M anipulation  |                                                 |
\*---------------------------------------------------------------------------*/
FoamFile
{
    version     2.0;
    format      ascii;
    arch        "LSB;label=32;scalar=64";
    class       volVectorField;
    location    "7";
    object      U;
}
// * * * * * * * * * * * * * * * * * * * * * * * * * * * * * * * * * * * * * //

dimensions      [0 1 -1 0 0 0 0];

internalField   nonuniform List<vector> 
7000
(
(3 3.35236e-09 0)
(2.99999 -3.06946e-07 0)
(2.99999 -2.15942e-08 0)
(2.99995 -1.1108e-06 0)
(2.99992 -1.94099e-06 0)
(2.99972 -1.45686e-05 0)
(2.99954 -3.42111e-05 0)
(2.9984 -0.000115371 0)
(2.99703 -0.00026441 0)
(2.98963 -0.000831621 0)
(2.9851 -0.000818759 0)
(2.91467 -0.00495889 0)
(2.83812 0.00437237 0)
(2.43636 0.0268271 0)
(1.1696 -0.00139864 0)
(0.601254 0.00284772 0)
(0.569208 0.00228384 0)
(0.640669 0.00213276 0)
(0.690246 0.00217386 0)
(0.699297 0.00208933 0)
(0.689261 0.00190063 0)
(0.671349 0.00181353 0)
(0.655007 0.00175641 0)
(0.64375 0.00169853 0)
(0.63522 0.00165291 0)
(0.627133 0.00165336 0)
(0.618489 0.00173381 0)
(0.609014 0.00191569 0)
(0.598478 0.00218449 0)
(0.586641 0.00254515 0)
(0.573395 0.00296529 0)
(0.558666 0.00341822 0)
(0.542433 0.00389269 0)
(0.524681 0.00438907 0)
(0.505326 0.00491785 0)
(0.484251 0.00549426 0)
(0.461385 0.0061346 0)
(0.436229 0.00684306 0)
(0.408798 0.00761887 0)
(0.379374 0.00845554 0)
(0.347643 0.00933998 0)
(0.313494 0.0102608 0)
(0.27696 0.0111904 0)
(0.239776 0.0119998 0)
(0.202907 0.0125228 0)
(0.164374 0.0126912 0)
(0.124589 0.012464 0)
(0.0866025 0.0117709 0)
(0.0478966 0.0111594 0)
(0.0187819 0.0113387 0)
(3 -6.17727e-08 0)
(2.99999 -1.01847e-07 0)
(2.99999 -9.30538e-07 0)
(2.99995 -1.48121e-06 0)
(2.99991 -7.16105e-06 0)
(2.9997 -2.29978e-05 0)
(2.99948 -4.15061e-05 0)
(2.99827 -0.000138041 0)
(2.9966 -9.54409e-05 0)
(2.9893 -0.000480663 0)
(2.98266 0.000446214 0)
(2.91751 -0.00386039 0)
(2.85738 0.00570632 0)
(2.46026 0.00842556 0)
(1.18826 0.0113232 0)
(0.630211 0.0108024 0)
(0.583692 0.00832869 0)
(0.648251 0.00736652 0)
(0.694945 0.00734542 0)
(0.702562 0.00728653 0)
(0.691781 0.00682534 0)
(0.673525 0.00632097 0)
(0.656963 0.00579002 0)
(0.645454 0.00533239 0)
(0.636499 0.00507826 0)
(0.627772 0.00509973 0)
(0.618353 0.0054042 0)
(0.608112 0.00595495 0)
(0.597005 0.00670091 0)
(0.584918 0.00761256 0)
(0.571753 0.00865524 0)
(0.557372 0.00980426 0)
(0.541633 0.0110544 0)
(0.524387 0.0124076 0)
(0.505438 0.0138712 0)
(0.484613 0.0154538 0)
(0.461826 0.0171641 0)
(0.436612 0.0189757 0)
(0.409052 0.0208701 0)
(0.379521 0.0228054 0)
(0.347814 0.0247267 0)
(0.313944 0.026592 0)
(0.278016 0.0283536 0)
(0.241756 0.0298095 0)
(0.206082 0.0307129 0)
(0.168849 0.0309617 0)
(0.129932 0.030548 0)
(0.0917306 0.0292835 0)
(0.0512523 0.0279015 0)
(0.0193917 0.0271423 0)
(3 6.19015e-08 0)
(2.99999 5.213e-07 0)
(2.99999 -1.26049e-06 0)
(2.99995 -5.1976e-07 0)
(2.99991 -4.35571e-06 0)
(2.9997 -8.22761e-08 0)
(2.99948 2.5355e-05 0)
(2.99838 7.82888e-05 0)
(2.99683 0.000375071 0)
(2.98998 0.000732061 0)
(2.98317 0.00104373 0)
(2.91735 0.00312696 0)
(2.84727 -0.000323763 0)
(2.42951 -0.00906569 0)
(1.17774 0.0110314 0)
(0.617159 0.0162641 0)
(0.575443 0.0159607 0)
(0.642385 0.0143712 0)
(0.691296 0.0131662 0)
(0.701191 0.0122901 0)
(0.692626 0.0112994 0)
(0.676224 0.0105173 0)
(0.66084 0.00989565 0)
(0.649864 0.00947694 0)
(0.640997 0.00934905 0)
(0.632123 0.00954285 0)
(0.622469 0.0100393 0)
(0.611989 0.0107957 0)
(0.600649 0.0118196 0)
(0.588317 0.0130888 0)
(0.574877 0.0146277 0)
(0.560186 0.0164476 0)
(0.544113 0.0185497 0)
(0.526524 0.020923 0)
(0.507246 0.0235506 0)
(0.486121 0.0264127 0)
(0.463066 0.0294922 0)
(0.437626 0.0327123 0)
(0.409906 0.036039 0)
(0.380291 0.0393889 0)
(0.34861 0.0426599 0)
(0.314921 0.0457627 0)
(0.279321 0.0485976 0)
(0.243482 0.0509111 0)
(0.208335 0.0524459 0)
(0.171738 0.0531152 0)
(0.133235 0.0529219 0)
(0.0948965 0.0516208 0)
(0.0535106 0.0500382 0)
(0.0199682 0.048964 0)
(3 3.06037e-08 0)
(2.99999 -2.94212e-07 0)
(2.99998 -3.13411e-07 0)
(2.99995 2.10621e-08 0)
(2.99991 -9.72677e-07 0)
(2.99972 7.40416e-06 0)
(2.99953 2.08116e-06 0)
(2.99849 5.09853e-05 0)
(2.99701 -0.000135626 0)
(2.9897 -0.00034559 0)
(2.98418 -0.000785467 0)
(2.91582 0.000312256 0)
(2.84866 0.00222919 0)
(2.45365 0.0239667 0)
(1.18597 0.0123912 0)
(0.613733 0.0272506 0)
(0.56981 0.0236513 0)
(0.63931 0.0193375 0)
(0.689537 0.0169669 0)
(0.699719 0.015694 0)
(0.691179 0.0144663 0)
(0.67486 0.0136679 0)
(0.659581 0.0130839 0)
(0.648845 0.0127618 0)
(0.640376 0.0127979 0)
(0.631997 0.0132396 0)
(0.622844 0.014085 0)
(0.612803 0.0153042 0)
(0.601778 0.0168943 0)
(0.589608 0.0188287 0)
(0.576204 0.0211161 0)
(0.561455 0.0237624 0)
(0.54527 0.0267683 0)
(0.527561 0.0301276 0)
(0.508186 0.0338299 0)
(0.48701 0.0378604 0)
(0.463937 0.042202 0)
(0.438517 0.0467348 0)
(0.410869 0.0514116 0)
(0.381359 0.0561034 0)
(0.349826 0.0606564 0)
(0.316348 0.0649262 0)
(0.280985 0.0687604 0)
(0.245337 0.071876 0)
(0.210372 0.0740539 0)
(0.174032 0.0752609 0)
(0.135646 0.0755061 0)
(0.0971328 0.074514 0)
(0.0551648 0.0730422 0)
(0.0204811 0.0717576 0)
(3 -2.94369e-08 0)
(2.99999 -6.06327e-07 0)
(2.99999 6.70026e-07 0)
(2.99995 1.25585e-07 0)
(2.99991 5.07308e-06 0)
(2.9997 6.7717e-06 0)
(2.9995 2.08042e-05 0)
(2.99828 4.04153e-05 0)
(2.99657 3.63857e-05 0)
(2.98955 0.000223097 0)
(2.98351 0.000579495 0)
(2.91935 0.000328325 0)
(2.86187 0.00442264 0)
(2.47156 -0.00357571 0)
(1.21028 0.0215467 0)
(0.649171 0.0340408 0)
(0.590454 0.0314442 0)
(0.651878 0.0267892 0)
(0.698213 0.0234762 0)
(0.706048 0.0213787 0)
(0.696008 0.019547 0)
(0.678701 0.0184475 0)
(0.662497 0.0176701 0)
(0.650948 0.0172022 0)
(0.641791 0.0171526 0)
(0.632859 0.0176023 0)
(0.623305 0.0185773 0)
(0.613034 0.02006 0)
(0.601957 0.0220608 0)
(0.589904 0.0245335 0)
(0.576741 0.0274974 0)
(0.56229 0.0309599 0)
(0.546396 0.0349168 0)
(0.528925 0.0393534 0)
(0.509721 0.0442445 0)
(0.488658 0.0495624 0)
(0.465633 0.0552796 0)
(0.440235 0.0612146 0)
(0.412632 0.0673145 0)
(0.383182 0.0733972 0)
(0.351739 0.0792618 0)
(0.318391 0.0847129 0)
(0.283148 0.0895504 0)
(0.247529 0.0934688 0)
(0.212532 0.0963094 0)
(0.176193 0.0981039 0)
(0.137701 0.0988827 0)
(0.0989168 0.0983454 0)
(0.0564761 0.0971235 0)
(0.0209256 0.0956845 0)
(3 9.88373e-08 0)
(2.99999 4.47827e-07 0)
(2.99999 1.57565e-06 0)
(2.99995 2.76254e-06 0)
(2.99992 1.17378e-05 0)
(2.99973 1.55742e-05 0)
(2.99956 8.47376e-05 0)
(2.9985 8.2398e-05 0)
(2.99715 0.000431514 0)
(2.99007 0.00118018 0)
(2.98429 0.00155299 0)
(2.91934 0.00276451 0)
(2.84811 0.000531987 0)
(2.43736 -0.0207436 0)
(1.19284 0.0197557 0)
(0.629565 0.0393422 0)
(0.574127 0.0387027 0)
(0.643449 0.0339396 0)
(0.695578 0.0297156 0)
(0.706833 0.0267919 0)
(0.698929 0.024341 0)
(0.683287 0.022908 0)
(0.668382 0.0219616 0)
(0.65794 0.0214383 0)
(0.649678 0.0214364 0)
(0.641352 0.0220312 0)
(0.632058 0.0232516 0)
(0.621715 0.0250854 0)
(0.610257 0.0275462 0)
(0.597574 0.0306026 0)
(0.583649 0.0342859 0)
(0.56838 0.0386048 0)
(0.551688 0.043551 0)
(0.533494 0.0490979 0)
(0.51368 0.0552059 0)
(0.492147 0.0618331 0)
(0.468745 0.0689519 0)
(0.443078 0.0763113 0)
(0.415338 0.0838579 0)
(0.385821 0.0913547 0)
(0.354372 0.0985577 0)
(0.321069 0.105227 0)
(0.285852 0.111123 0)
(0.250151 0.115913 0)
(0.214984 0.119497 0)
(0.178482 0.121967 0)
(0.139721 0.123392 0)
(0.100553 0.123438 0)
(0.0576315 0.122573 0)
(0.021353 0.121031 0)
(3 -4.8464e-08 0)
(2.99999 3.09204e-07 0)
(2.99999 2.66745e-07 0)
(2.99996 1.63486e-06 0)
(2.99992 4.18222e-06 0)
(2.99975 2.49577e-06 0)
(2.99955 3.56053e-05 0)
(2.99852 2.14079e-05 0)
(2.99732 0.000158924 0)
(2.99032 0.000518605 0)
(2.98463 0.000877932 0)
(2.91843 0.00220533 0)
(2.84662 0.00322937 0)
(2.44132 0.00559667 0)
(1.21848 0.0303766 0)
(0.639581 0.0555655 0)
(0.57035 0.047993 0)
(0.640577 0.0385453 0)
(0.695083 0.0328775 0)
(0.707847 0.0299466 0)
(0.700985 0.0276135 0)
(0.686304 0.0263404 0)
(0.67211 0.0254479 0)
(0.662361 0.0249885 0)
(0.654794 0.0251627 0)
(0.647113 0.0260858 0)
(0.638353 0.0277956 0)
(0.628379 0.0302766 0)
(0.6171 0.0334497 0)
(0.60441 0.0373389 0)
(0.590307 0.0419244 0)
(0.574713 0.0471993 0)
(0.557583 0.0531606 0)
(0.538889 0.0597922 0)
(0.51857 0.0670654 0)
(0.496592 0.0749418 0)
(0.472775 0.0834121 0)
(0.446772 0.0921696 0)
(0.418833 0.101147 0)
(0.389189 0.110056 0)
(0.357676 0.118615 0)
(0.32436 0.126541 0)
(0.289106 0.133558 0)
(0.25325 0.139308 0)
(0.217829 0.143735 0)
(0.18106 0.146988 0)
(0.141923 0.149173 0)
(0.102266 0.149908 0)
(0.058787 0.149498 0)
(0.0217759 0.147911 0)
(3 1.72653e-08 0)
(2.99999 -1.26651e-08 0)
(2.99999 -4.02194e-07 0)
(2.99996 -1.47115e-06 0)
(2.99992 -8.70052e-07 0)
(2.99976 2.70023e-06 0)
(2.99957 -1.10369e-05 0)
(2.99859 5.41476e-05 0)
(2.99751 2.44921e-05 0)
(2.99059 1.75738e-05 0)
(2.98546 0.000210189 0)
(2.92044 -0.000956894 0)
(2.85115 0.00664009 0)
(2.45229 0.0104253 0)
(1.24276 0.0353737 0)
(0.664394 0.0609621 0)
(0.583691 0.0524972 0)
(0.650512 0.0433939 0)
(0.703442 0.0379101 0)
(0.71484 0.0347027 0)
(0.707226 0.0318183 0)
(0.692472 0.0300896 0)
(0.67822 0.0289299 0)
(0.668509 0.0284136 0)
(0.661042 0.0287426 0)
(0.653475 0.0300157 0)
(0.644817 0.0322434 0)
(0.634882 0.0354031 0)
(0.623608 0.0393681 0)
(0.610909 0.0441697 0)
(0.596735 0.0497649 0)
(0.580997 0.0561253 0)
(0.563641 0.0632358 0)
(0.544641 0.0710739 0)
(0.523967 0.0796069 0)
(0.501652 0.0887947 0)
(0.477479 0.098644 0)
(0.451158 0.108824 0)
(0.423023 0.119239 0)
(0.393244 0.129567 0)
(0.361653 0.139502 0)
(0.328298 0.148725 0)
(0.292966 0.156928 0)
(0.256903 0.16374 0)
(0.221159 0.169123 0)
(0.18405 0.173274 0)
(0.144454 0.176338 0)
(0.104196 0.177865 0)
(0.0600558 0.17799 0)
(0.0222647 0.176421 0)
(3 4.48731e-08 0)
(2.99999 2.35517e-07 0)
(2.99999 8.96764e-08 0)
(2.99996 1.54486e-07 0)
(2.99993 -3.03948e-06 0)
(2.99975 -5.70852e-06 0)
(2.99959 -3.35979e-05 0)
(2.99854 -5.66898e-05 0)
(2.99728 -0.000147185 0)
(2.99045 -0.00033675 0)
(2.98389 -0.000534389 0)
(2.92379 -0.00117795 0)
(2.85501 0.0017257 0)
(2.47638 0.0138791 0)
(1.26862 0.0346611 0)
(0.671624 0.0694539 0)
(0.572325 0.0597105 0)
(0.642744 0.0489275 0)
(0.701115 0.0425808 0)
(0.716296 0.0388419 0)
(0.711395 0.0355779 0)
(0.698667 0.0336172 0)
(0.685487 0.0323977 0)
(0.676314 0.0319599 0)
(0.669095 0.0325 0)
(0.661601 0.034136 0)
(0.652902 0.036877 0)
(0.64281 0.0407233 0)
(0.631295 0.0455377 0)
(0.618329 0.0513141 0)
(0.603859 0.0579971 0)
(0.587811 0.0655307 0)
(0.570138 0.0738769 0)
(0.550813 0.0830002 0)
(0.529817 0.0928596 0)
(0.507228 0.103412 0)
(0.482773 0.114667 0)
(0.456194 0.126295 0)
(0.427905 0.138162 0)
(0.398015 0.149928 0)
(0.366356 0.161273 0)
(0.332956 0.171854 0)
(0.29753 0.181331 0)
(0.261221 0.189326 0)
(0.225095 0.195799 0)
(0.187582 0.200988 0)
(0.147454 0.205069 0)
(0.106484 0.207506 0)
(0.0615375 0.208269 0)
(0.022825 0.206763 0)
(3 -4.15174e-08 0)
(2.99999 -1.60761e-07 0)
(2.99999 4.05367e-07 0)
(2.99995 1.26964e-06 0)
(2.99991 9.58008e-07 0)
(2.99973 3.00287e-06 0)
(2.99953 3.99753e-06 0)
(2.99851 -4.77996e-05 0)
(2.9973 7.8208e-05 0)
(2.99028 -6.7047e-05 0)
(2.98482 0.000694029 0)
(2.92205 0.000725312 0)
(2.86278 0.00510087 0)
(2.4927 0.0131941 0)
(1.30389 0.043545 0)
(0.695246 0.08065 0)
(0.574789 0.0683842 0)
(0.644706 0.0538167 0)
(0.705045 0.0454063 0)
(0.721268 0.0409094 0)
(0.717214 0.0375067 0)
(0.705582 0.035778 0)
(0.693287 0.0349698 0)
(0.68495 0.0350384 0)
(0.678482 0.0361503 0)
(0.671528 0.0384378 0)
(0.663091 0.0419163 0)
(0.652933 0.0465979 0)
(0.641073 0.0523527 0)
(0.627606 0.0591672 0)
(0.612547 0.0669696 0)
(0.595899 0.0756883 0)
(0.577665 0.0852743 0)
(0.557841 0.0956884 0)
(0.53642 0.106887 0)
(0.513516 0.118825 0)
(0.488781 0.1315 0)
(0.461974 0.144592 0)
(0.433566 0.157928 0)
(0.403605 0.171163 0)
(0.371911 0.183968 0)
(0.338485 0.195988 0)
(0.302973 0.20685 0)
(0.266403 0.21617 0)
(0.229839 0.223884 0)
(0.191856 0.23029 0)
(0.151106 0.235544 0)
(0.109281 0.239042 0)
(0.0633403 0.240549 0)
(0.0235203 0.239181 0)
(3 -1.99214e-08 0)
(2.99999 -3.27662e-07 0)
(2.99999 3.40264e-07 0)
(2.99996 2.03471e-07 0)
(2.99993 5.07189e-07 0)
(2.99975 1.00051e-05 0)
(2.99955 -9.177e-06 0)
(2.9986 1.7546e-05 0)
(2.99727 -8.06051e-05 0)
(2.99097 -0.000111759 0)
(2.98452 0.000550594 0)
(2.92677 -0.000392604 0)
(2.86639 0.0113042 0)
(2.48596 0.0222609 0)
(1.32501 0.0527436 0)
(0.718433 0.0874326 0)
(0.576395 0.0729792 0)
(0.646513 0.0579393 0)
(0.709754 0.0489761 0)
(0.727332 0.0439114 0)
(0.723967 0.0399614 0)
(0.713023 0.0379168 0)
(0.701084 0.037048 0)
(0.693113 0.037351 0)
(0.687075 0.0389981 0)
(0.680516 0.0420994 0)
(0.672329 0.0466428 0)
(0.662203 0.052455 0)
(0.650179 0.0594614 0)
(0.636423 0.0675592 0)
(0.620988 0.0766425 0)
(0.603933 0.0866365 0)
(0.585307 0.0974994 0)
(0.565131 0.109212 0)
(0.54341 0.121749 0)
(0.520297 0.135082 0)
(0.495383 0.149161 0)
(0.468453 0.16372 0)
(0.440025 0.178545 0)
(0.410083 0.193281 0)
(0.378432 0.207603 0)
(0.345041 0.221154 0)
(0.309486 0.233541 0)
(0.272663 0.244369 0)
(0.235632 0.253537 0)
(0.197103 0.261361 0)
(0.155629 0.268007 0)
(0.112776 0.272767 0)
(0.0655774 0.275208 0)
(0.024379 0.274074 0)
(3 1.00417e-07 0)
(2.99999 3.16413e-07 0)
(2.99999 1.53174e-07 0)
(2.99995 -9.3204e-07 0)
(2.99992 1.06434e-06 0)
(2.99972 -7.16958e-06 0)
(2.99954 -1.21595e-05 0)
(2.99844 -4.14972e-06 0)
(2.99719 -0.000180241 0)
(2.9908 8.36652e-05 0)
(2.98465 -0.000402508 0)
(2.93111 0.00185312 0)
(2.88234 0.0073286 0)
(2.53185 0.0207837 0)
(1.37785 0.0538308 0)
(0.754058 0.0945871 0)
(0.581522 0.0789778 0)
(0.650087 0.0628657 0)
(0.716364 0.0523999 0)
(0.736386 0.0464693 0)
(0.734903 0.0421025 0)
(0.725544 0.0400073 0)
(0.714328 0.039369 0)
(0.706545 0.0401268 0)
(0.700333 0.0424518 0)
(0.693326 0.0464578 0)
(0.684389 0.0520746 0)
(0.67335 0.059062 0)
(0.660428 0.0673301 0)
(0.645824 0.0767086 0)
(0.629665 0.0870665 0)
(0.61204 0.0983318 0)
(0.592994 0.110468 0)
(0.572527 0.123478 0)
(0.550625 0.137362 0)
(0.527418 0.152116 0)
(0.502455 0.167581 0)
(0.475576 0.183626 0)
(0.44729 0.199978 0)
(0.417517 0.216266 0)
(0.386048 0.232189 0)
(0.352808 0.247399 0)
(0.317317 0.261487 0)
(0.280314 0.274052 0)
(0.242805 0.284935 0)
(0.203676 0.294464 0)
(0.161351 0.302798 0)
(0.117255 0.309097 0)
(0.0684749 0.312693 0)
(0.0254986 0.311928 0)
(3 3.39032e-07 0)
(2.99999 5.08131e-07 0)
(2.99999 1.4429e-06 0)
(2.99996 3.09907e-06 0)
(2.99992 9.69438e-06 0)
(2.99974 1.52865e-05 0)
(2.99955 5.91187e-05 0)
(2.99846 9.93449e-05 0)
(2.99735 0.000286519 0)
(2.99077 0.000693893 0)
(2.9859 0.00101316 0)
(2.93345 0.00236008 0)
(2.88375 0.00460036 0)
(2.54841 0.00423288 0)
(1.4208 0.0482562 0)
(0.775384 0.0979349 0)
(0.576257 0.0844805 0)
(0.647739 0.0676275 0)
(0.719382 0.0550749 0)
(0.743187 0.0479123 0)
(0.74402 0.0429649 0)
(0.736361 0.0408509 0)
(0.72592 0.0407495 0)
(0.718415 0.0424336 0)
(0.712175 0.0459694 0)
(0.704827 0.0513639 0)
(0.695254 0.058386 0)
(0.683419 0.0668032 0)
(0.669678 0.0764017 0)
(0.654338 0.0870114 0)
(0.637597 0.0985478 0)
(0.619566 0.110967 0)
(0.600281 0.124271 0)
(0.579722 0.138499 0)
(0.557854 0.153689 0)
(0.534713 0.169855 0)
(0.509897 0.186669 0)
(0.483335 0.204226 0)
(0.455414 0.22213 0)
(0.426024 0.240029 0)
(0.394947 0.257665 0)
(0.362049 0.274705 0)
(0.326792 0.290723 0)
(0.289729 0.305309 0)
(0.251787 0.318217 0)
(0.212016 0.329808 0)
(0.168717 0.340234 0)
(0.123067 0.348513 0)
(0.0722287 0.353668 0)
(0.0269624 0.353496 0)
(3 1.71449e-10 0)
(2.99999 2.84004e-08 0)
(2.99999 6.41525e-07 0)
(2.99996 2.9171e-06 0)
(2.99993 3.79785e-06 0)
(2.99977 9.02716e-06 0)
(2.99961 4.0785e-05 0)
(2.99865 6.57723e-05 0)
(2.99772 0.000349936 0)
(2.99144 0.000404551 0)
(2.98611 0.00146325 0)
(2.93409 0.000570078 0)
(2.8839 0.00537008 0)
(2.54633 0.0010956 0)
(1.46184 0.0481022 0)
(0.799382 0.103657 0)
(0.568527 0.0888621 0)
(0.644558 0.0698011 0)
(0.72254 0.0556421 0)
(0.750364 0.0481023 0)
(0.752817 0.0432666 0)
(0.74588 0.0415716 0)
(0.735181 0.0423895 0)
(0.727024 0.045305 0)
(0.720108 0.0503081 0)
(0.712128 0.0572407 0)
(0.701995 0.0657596 0)
(0.689736 0.0755581 0)
(0.675727 0.0863981 0)
(0.660294 0.0981393 0)
(0.643605 0.11075 0)
(0.625718 0.124236 0)
(0.606657 0.138652 0)
(0.586402 0.154066 0)
(0.564918 0.170563 0)
(0.542074 0.188056 0)
(0.517683 0.206306 0)
(0.491777 0.225376 0)
(0.464489 0.244847 0)
(0.435767 0.264415 0)
(0.405367 0.283879 0)
(0.373079 0.302942 0)
(0.338305 0.321183 0)
(0.301374 0.338181 0)
(0.263093 0.353545 0)
(0.222693 0.36773 0)
(0.178318 0.380817 0)
(0.130847 0.391713 0)
(0.0773667 0.399019 0)
(0.0289902 0.399793 0)
(3 -1.63435e-07 0)
(2.99999 -3.888e-08 0)
(2.99999 -1.1756e-07 0)
(2.99996 -3.50856e-07 0)
(2.99993 1.61248e-06 0)
(2.99977 -1.60857e-06 0)
(2.9996 2.30583e-05 0)
(2.99875 3.5622e-05 0)
(2.99765 0.000206254 0)
(2.99179 0.000141707 0)
(2.98613 0.0011422 0)
(2.93634 0.00185366 0)
(2.88456 0.00637336 0)
(2.54764 0.00866962 0)
(1.50329 0.0551207 0)
(0.827841 0.109687 0)
(0.565329 0.0898846 0)
(0.643284 0.0691842 0)
(0.725473 0.0551309 0)
(0.755735 0.0478729 0)
(0.758525 0.0435653 0)
(0.751646 0.0425595 0)
(0.740444 0.0445371 0)
(0.731625 0.0488502 0)
(0.724246 0.0554063 0)
(0.715977 0.0638424 0)
(0.705723 0.0737361 0)
(0.693527 0.0847587 0)
(0.679757 0.0967027 0)
(0.664697 0.109507 0)
(0.648459 0.123159 0)
(0.631064 0.137718 0)
(0.612525 0.153277 0)
(0.592853 0.169936 0)
(0.571937 0.187721 0)
(0.549666 0.20652 0)
(0.526044 0.226285 0)
(0.501048 0.246852 0)
(0.474708 0.267918 0)
(0.446983 0.289238 0)
(0.417604 0.310677 0)
(0.386277 0.331999 0)
(0.352352 0.352808 0)
(0.315848 0.372693 0)
(0.277458 0.391063 0)
(0.236568 0.408574 0)
(0.191061 0.425141 0)
(0.141397 0.439624 0)
(0.0844525 0.450051 0)
(0.0318535 0.452453 0)
(3 1.61899e-07 0)
(2.99999 2.35127e-07 0)
(2.99999 6.41397e-07 0)
(2.99996 -3.41322e-07 0)
(2.99993 4.60607e-06 0)
(2.99979 4.84853e-06 0)
(2.99965 2.968e-05 0)
(2.99882 6.04048e-05 0)
(2.99783 4.90885e-05 0)
(2.99235 0.000142515 0)
(2.98776 0.000902707 0)
(2.93872 0.000347115 0)
(2.8918 0.00727014 0)
(2.57606 0.0163475 0)
(1.5608 0.0559402 0)
(0.860166 0.112829 0)
(0.555263 0.0904396 0)
(0.637497 0.0686387 0)
(0.725686 0.0546569 0)
(0.758898 0.047595 0)
(0.762295 0.0440956 0)
(0.755514 0.0440505 0)
(0.743858 0.047311 0)
(0.734497 0.0531487 0)
(0.7269 0.06124 0)
(0.718631 0.0710377 0)
(0.70856 0.0821011 0)
(0.696686 0.0941835 0)
(0.68335 0.107146 0)
(0.66878 0.120954 0)
(0.653044 0.13564 0)
(0.636189 0.151295 0)
(0.618268 0.168049 0)
(0.599259 0.185943 0)
(0.579054 0.204976 0)
(0.557673 0.225142 0)
(0.535135 0.246333 0)
(0.511368 0.268368 0)
(0.486354 0.291049 0)
(0.460022 0.314209 0)
(0.432086 0.337778 0)
(0.402162 0.361638 0)
(0.369558 0.385407 0)
(0.333902 0.408702 0)
(0.295815 0.430837 0)
(0.25475 0.452593 0)
(0.208232 0.473837 0)
(0.156181 0.493504 0)
(0.094809 0.508718 0)
(0.0362329 0.514045 0)
(3 5.05241e-08 0)
(2.99999 7.42559e-08 0)
(2.99999 5.45478e-07 0)
(2.99996 2.67824e-07 0)
(2.99993 3.51043e-06 0)
(2.9998 4.32343e-06 0)
(2.99965 2.30031e-05 0)
(2.99876 1.77687e-05 0)
(2.99773 0.000108018 0)
(2.99264 0.000174867 0)
(2.98626 0.00102633 0)
(2.94276 0.000240496 0)
(2.90091 0.00891515 0)
(2.58641 0.0204693 0)
(1.61888 0.0577044 0)
(0.897772 0.117178 0)
(0.550153 0.0914938 0)
(0.635775 0.0674316 0)
(0.729169 0.0530737 0)
(0.764656 0.0466483 0)
(0.767773 0.04472 0)
(0.760304 0.046034 0)
(0.748001 0.0506241 0)
(0.738112 0.0579264 0)
(0.730184 0.0673569 0)
(0.721705 0.07836 0)
(0.711593 0.0905691 0)
(0.699849 0.103748 0)
(0.686732 0.117774 0)
(0.672459 0.13262 0)
(0.65714 0.148355 0)
(0.640867 0.165105 0)
(0.623646 0.182973 0)
(0.605451 0.202018 0)
(0.586302 0.222252 0)
(0.566191 0.243676 0)
(0.545098 0.266166 0)
(0.522967 0.289614 0)
(0.499719 0.313905 0)
(0.475236 0.338964 0)
(0.449251 0.364797 0)
(0.421296 0.391467 0)
(0.390616 0.418603 0)
(0.356509 0.445896 0)
(0.319423 0.47282 0)
(0.278827 0.499965 0)
(0.231894 0.527631 0)
(0.17751 0.554934 0)
(0.110529 0.578043 0)
(0.0432805 0.588961 0)
(3 -4.99105e-08 0)
(2.99999 -9.00076e-08 0)
(2.99999 1.21901e-07 0)
(2.99997 8.46579e-07 0)
(2.99994 2.35932e-06 0)
(2.99981 9.27128e-06 0)
(2.99966 1.97531e-05 0)
(2.99892 2.24253e-05 0)
(2.998 0.000184705 0)
(2.9933 0.000312163 0)
(2.98792 0.00103152 0)
(2.9466 0.00181344 0)
(2.91261 0.00884402 0)
(2.60693 0.0172778 0)
(1.67643 0.0606065 0)
(0.938065 0.123704 0)
(0.544032 0.0913516 0)
(0.634577 0.0652498 0)
(0.733807 0.0513076 0)
(0.771874 0.0463749 0)
(0.774896 0.04642 0)
(0.766655 0.0493951 0)
(0.753719 0.0554812 0)
(0.742883 0.0641831 0)
(0.733789 0.0748234 0)
(0.724266 0.0868903 0)
(0.71342 0.100063 0)
(0.7013 0.114112 0)
(0.688212 0.128956 0)
(0.674339 0.144646 0)
(0.659733 0.16126 0)
(0.644386 0.178938 0)
(0.628284 0.19778 0)
(0.611417 0.217844 0)
(0.593776 0.239151 0)
(0.575379 0.261668 0)
(0.556202 0.285348 0)
(0.536171 0.310146 0)
(0.515169 0.33603 0)
(0.493043 0.363035 0)
(0.469607 0.39128 0)
(0.444304 0.420928 0)
(0.416318 0.451879 0)
(0.384852 0.483664 0)
(0.349905 0.516281 0)
(0.311007 0.550633 0)
(0.265132 0.587202 0)
(0.209531 0.625777 0)
(0.136158 0.662448 0)
(0.0558978 0.68589 0)
(3 -1.90468e-08 0)
(2.99999 -9.54691e-09 0)
(2.99999 -8.30562e-08 0)
(2.99997 -2.45402e-08 0)
(2.99994 3.38231e-07 0)
(2.99982 2.18068e-06 0)
(2.99967 1.08888e-05 0)
(2.99894 3.63437e-06 0)
(2.99804 4.29726e-05 0)
(2.99353 0.000288942 0)
(2.98783 0.000147171 0)
(2.9511 0.00109022 0)
(2.91737 0.0058644 0)
(2.63241 0.0126371 0)
(1.7562 0.0564213 0)
(0.981308 0.124937 0)
(0.539392 0.0893318 0)
(0.635077 0.0633474 0)
(0.739541 0.0502929 0)
(0.779941 0.0465785 0)
(0.782347 0.048588 0)
(0.772835 0.0538278 0)
(0.758847 0.0620593 0)
(0.746804 0.072516 0)
(0.736507 0.0844599 0)
(0.726012 0.0973929 0)
(0.714549 0.111086 0)
(0.702218 0.125496 0)
(0.689333 0.140709 0)
(0.676013 0.15688 0)
(0.662242 0.174105 0)
(0.648021 0.192491 0)
(0.633272 0.21212 0)
(0.617975 0.233029 0)
(0.602163 0.255224 0)
(0.585828 0.2787 0)
(0.568948 0.303463 0)
(0.551425 0.329533 0)
(0.533127 0.356968 0)
(0.513919 0.385915 0)
(0.493629 0.41669 0)
(0.471818 0.449307 0)
(0.447441 0.484012 0)
(0.41989 0.52113 0)
(0.389415 0.560654 0)
(0.35469 0.603841 0)
(0.31251 0.652354 0)
(0.259113 0.707549 0)
(0.181546 0.76801 0)
(0.0817667 0.822654 0)
(3 -2.44078e-08 0)
(2.99999 6.02558e-08 0)
(2.99999 -1.44552e-07 0)
(2.99997 3.15594e-08 0)
(2.99994 -5.15408e-07 0)
(2.99982 -1.11268e-06 0)
(2.99967 -3.654e-06 0)
(2.99895 -1.04022e-05 0)
(2.99832 -5.88279e-06 0)
(2.9934 0.000119483 0)
(2.98877 0.000329757 0)
(2.95287 0.000607262 0)
(2.92488 0.00499013 0)
(2.66172 0.0114646 0)
(1.8425 0.0503585 0)
(1.03092 0.115861 0)
(0.532339 0.0841366 0)
(0.63498 0.0614713 0)
(0.744746 0.0504148 0)
(0.786908 0.0485803 0)
(0.788444 0.052973 0)
(0.776911 0.060586 0)
(0.761249 0.0707574 0)
(0.748002 0.0825778 0)
(0.73707 0.0953624 0)
(0.726433 0.108736 0)
(0.715192 0.122615 0)
(0.703331 0.137132 0)
(0.691118 0.152523 0)
(0.678622 0.168914 0)
(0.665823 0.186488 0)
(0.652767 0.20535 0)
(0.639465 0.225513 0)
(0.62592 0.247022 0)
(0.612128 0.269874 0)
(0.598112 0.294124 0)
(0.583828 0.319795 0)
(0.569153 0.346968 0)
(0.553963 0.375851 0)
(0.538255 0.406553 0)
(0.521666 0.439394 0)
(0.503855 0.474907 0)
(0.484826 0.513633 0)
(0.463616 0.556324 0)
(0.439849 0.603254 0)
(0.413044 0.655807 0)
(0.380531 0.718856 0)
(0.338362 0.798178 0)
(0.269787 0.903833 0)
(0.142937 1.06305 0)
(3 1.53461e-07 0)
(2.99999 2.65166e-07 0)
(2.99999 1.11576e-07 0)
(2.99997 1.76338e-07 0)
(2.99994 -3.69029e-07 0)
(2.99981 6.36161e-07 0)
(2.99966 -5.73e-06 0)
(2.99893 1.81228e-05 0)
(2.99815 7.72117e-06 0)
(2.99403 -6.2141e-05 0)
(2.98826 0.000788147 0)
(2.95734 0.000255105 0)
(2.93125 0.00562953 0)
(2.67977 0.00943293 0)
(1.92109 0.0424546 0)
(1.08157 0.0959245 0)
(0.530337 0.0716596 0)
(0.635843 0.0566079 0)
(0.748518 0.0507089 0)
(0.792384 0.0536397 0)
(0.792642 0.0620639 0)
(0.778696 0.072524 0)
(0.76142 0.0843517 0)
(0.747367 0.0969437 0)
(0.736352 0.109984 0)
(0.72612 0.123368 0)
(0.715613 0.137231 0)
(0.704787 0.15177 0)
(0.693734 0.167247 0)
(0.682574 0.183797 0)
(0.671488 0.201544 0)
(0.660478 0.220606 0)
(0.649545 0.241029 0)
(0.638731 0.262866 0)
(0.628113 0.286169 0)
(0.617667 0.310984 0)
(0.607291 0.337426 0)
(0.597011 0.365546 0)
(0.586575 0.395576 0)
(0.575856 0.428004 0)
(0.565444 0.463292 0)
(0.555558 0.502134 0)
(0.545765 0.545193 0)
(0.535835 0.593104 0)
(0.526089 0.647224 0)
(0.518862 0.709385 0)
(0.51705 0.78554 0)
(0.528369 0.88448 0)
(0.581813 1.01766 0)
(0.648967 1.2096 0)
(3 4.35283e-07 0)
(2.99999 3.43704e-07 0)
(2.99999 2.77131e-07 0)
(2.99997 2.05747e-08 0)
(2.99994 -1.43949e-06 0)
(2.99981 -3.73383e-06 0)
(2.9997 -8.14451e-06 0)
(2.99898 -9.76013e-06 0)
(2.99822 1.61611e-05 0)
(2.99459 2.84012e-05 0)
(2.9894 0.000360359 0)
(2.96014 0.000568959 0)
(2.93971 0.00257538 0)
(2.69658 0.00634032 0)
(1.99661 0.0226721 0)
(1.13484 0.0642398 0)
(0.53527 0.0531844 0)
(0.637537 0.0514762 0)
(0.748673 0.0543518 0)
(0.793252 0.0638295 0)
(0.791846 0.0763925 0)
(0.775671 0.0890241 0)
(0.757593 0.101602 0)
(0.743656 0.114214 0)
(0.733186 0.126884 0)
(0.723785 0.139814 0)
(0.714414 0.153209 0)
(0.705016 0.167301 0)
(0.695788 0.18229 0)
(0.686729 0.198433 0)
(0.677963 0.215797 0)
(0.669574 0.234482 0)
(0.661568 0.254587 0)
(0.653989 0.276178 0)
(0.646793 0.299366 0)
(0.640023 0.324109 0)
(0.633533 0.350573 0)
(0.627268 0.379089 0)
(0.62178 0.409938 0)
(0.617367 0.443553 0)
(0.613869 0.480413 0)
(0.611576 0.520891 0)
(0.611235 0.565593 0)
(0.613843 0.615444 0)
(0.620751 0.671703 0)
(0.635764 0.736074 0)
(0.665034 0.810947 0)
(0.717455 0.90172 0)
(0.825241 1.00907 0)
(0.96886 1.12172 0)
(3 5.15671e-07 0)
(2.99999 -1.38502e-06 0)
(2.99999 -4.25572e-07 0)
(2.99996 -8.10189e-06 0)
(2.99993 -3.36101e-06 0)
(2.9998 -3.38109e-05 0)
(2.99965 -1.56103e-05 0)
(2.99897 -9.98662e-05 0)
(2.99822 -0.000115305 0)
(2.99461 -0.000143178 0)
(2.98916 -0.000291177 0)
(2.961 -0.00024143 0)
(2.94069 0.000763303 0)
(2.70056 0.00282208 0)
(2.03977 0.0102576 0)
(1.17583 0.0298014 0)
(0.542152 0.0337399 0)
(0.637087 0.0475747 0)
(0.743376 0.0632844 0)
(0.788359 0.0799495 0)
(0.78572 0.0948537 0)
(0.768586 0.107899 0)
(0.751012 0.119957 0)
(0.738126 0.131696 0)
(0.728856 0.143419 0)
(0.720841 0.15538 0)
(0.713046 0.167865 0)
(0.705523 0.181143 0)
(0.698513 0.19534 0)
(0.691997 0.21068 0)
(0.685967 0.227346 0)
(0.680524 0.245386 0)
(0.675616 0.264909 0)
(0.671279 0.285985 0)
(0.667366 0.308745 0)
(0.663917 0.333307 0)
(0.661427 0.359781 0)
(0.660057 0.388502 0)
(0.659728 0.419737 0)
(0.660674 0.453576 0)
(0.663365 0.490305 0)
(0.668489 0.530434 0)
(0.677135 0.574468 0)
(0.690873 0.622904 0)
(0.711916 0.676238 0)
(0.743167 0.73505 0)
(0.790483 0.798726 0)
(0.859772 0.86748 0)
(0.968103 0.936967 0)
(1.09835 0.987244 0)
(3 1.71301e-07 0)
(2.99999 -1.74275e-06 0)
(2.99998 -8.13206e-07 0)
(2.99996 -1.09182e-05 0)
(2.9999 -5.26029e-06 0)
(2.99979 -6.28111e-05 0)
(2.99959 -3.90293e-05 0)
(2.99881 -0.000323529 0)
(2.99814 -0.00032611 0)
(2.9943 -0.00171887 0)
(2.98924 -0.000870605 0)
(2.96194 -0.000833242 0)
(2.94448 -0.00319693 0)
(2.70885 -0.00283661 0)
(2.05927 -0.000357262 0)
(1.20169 -0.00178261 0)
(0.552173 0.0223564 0)
(0.637296 0.0486212 0)
(0.739982 0.0762793 0)
(0.781729 0.0972576 0)
(0.776901 0.11286 0)
(0.760006 0.126198 0)
(0.743699 0.137982 0)
(0.732526 0.149083 0)
(0.725025 0.159897 0)
(0.718894 0.170617 0)
(0.713298 0.181758 0)
(0.708066 0.193619 0)
(0.703403 0.206453 0)
(0.699456 0.220436 0)
(0.696105 0.235812 0)
(0.693338 0.252711 0)
(0.691205 0.27125 0)
(0.689807 0.291544 0)
(0.68919 0.31366 0)
(0.689367 0.337796 0)
(0.690579 0.364048 0)
(0.693068 0.392406 0)
(0.697013 0.422958 0)
(0.702779 0.455894 0)
(0.710949 0.491398 0)
(0.72234 0.52969 0)
(0.738102 0.570931 0)
(0.759786 0.615157 0)
(0.789457 0.662123 0)
(0.829172 0.711224 0)
(0.882943 0.761242 0)
(0.953127 0.809347 0)
(1.0489 0.852292 0)
(1.15618 0.875981 0)
(3 -1.05948e-08 0)
(2.99999 1.65024e-07 0)
(2.99997 5.23937e-07 0)
(2.99995 -5.32748e-07 0)
(2.99985 -4.43808e-07 0)
(2.99974 -2.08516e-05 0)
(2.99921 -2.06021e-05 0)
(2.99849 -0.0002244 0)
(2.99589 -0.00020552 0)
(2.99369 -0.00158784 0)
(2.99068 -0.00054106 0)
(2.95669 -0.00156216 0)
(2.93782 -0.00143014 0)
(2.70283 0.00146771 0)
(2.02457 0.00240337 0)
(1.16424 4.75034e-05 0)
(0.537889 0.0441675 0)
(0.635867 0.0748986 0)
(0.745218 0.098648 0)
(0.781413 0.114829 0)
(0.77465 0.12735 0)
(0.757918 0.138946 0)
(0.74189 0.14953 0)
(0.731542 0.159704 0)
(0.724876 0.169657 0)
(0.719878 0.179494 0)
(0.715825 0.189692 0)
(0.71244 0.200553 0)
(0.709828 0.212404 0)
(0.708009 0.225405 0)
(0.706954 0.239808 0)
(0.706631 0.255794 0)
(0.707059 0.273524 0)
(0.708278 0.293119 0)
(0.710369 0.314607 0)
(0.7135 0.338035 0)
(0.717877 0.363437 0)
(0.723713 0.390819 0)
(0.73131 0.420147 0)
(0.74109 0.451504 0)
(0.753614 0.484892 0)
(0.769666 0.520285 0)
(0.790231 0.557537 0)
(0.816609 0.596341 0)
(0.850297 0.63607 0)
(0.892956 0.675652 0)
(0.946676 0.713838 0)
(1.01295 0.747566 0)
(1.09539 0.774995 0)
(1.18322 0.787729 0)
(3 -5.99116e-08 0)
(2.99999 2.05467e-06 0)
(2.99998 4.26803e-06 0)
(2.99996 1.52267e-05 0)
(2.99986 2.49436e-05 0)
(2.99976 9.39209e-05 0)
(2.99925 0.000158874 0)
(2.9985 0.000545867 0)
(2.99588 0.000985239 0)
(2.99374 0.00318847 0)
(2.98946 0.00455014 0)
(2.9602 0.0088311 0)
(2.94981 0.0349583 0)
(2.70634 -0.0427377 0)
(2.02228 0.0584933 0)
(1.18054 -0.0756298 0)
(0.587588 0.00796073 0)
(0.663183 0.077364 0)
(0.756795 0.121015 0)
(0.787528 0.143273 0)
(0.779585 0.156675 0)
(0.763008 0.165999 0)
(0.747242 0.173682 0)
(0.737275 0.180643 0)
(0.730796 0.187331 0)
(0.726028 0.194243 0)
(0.722541 0.201616 0)
(0.719984 0.209911 0)
(0.718378 0.219442 0)
(0.71778 0.23039 0)
(0.718159 0.242946 0)
(0.719444 0.257276 0)