/*--------------------------------*- C++ -*----------------------------------*\
| =========                 |                                                 |
| \\      /  F ield         | OpenFOAM: The Open Source CFD Toolbox           |
|  \\    /   O peration     | Version:  2412                                  |
|   \\  /    A nd           | Website:  www.openfoam.com                      |
|    \\/     M anipulation  |                                                 |
\*---------------------------------------------------------------------------*/
FoamFile
{
    version     2.0;
    format      ascii;
    arch        "LSB;label=32;scalar=64";
    class       volScalarField;
    location    "19.5";
    object      Ma;
}
// * * * * * * * * * * * * * * * * * * * * * * * * * * * * * * * * * * * * * //

dimensions      [0 0 0 0 0 0 0];

internalField   nonuniform List<scalar> 
7000
(
2.25607
0.994334
0.300635
0.338442
0.401069
0.442406
0.450616
0.446146
0.439791
0.434882
0.432035
0.429763
0.427164
0.424076
0.420605
0.416829
0.412763
0.408384
0.403673
0.398612
0.39319
0.387393
0.381206
0.374614
0.3676
0.360147
0.352237
0.343851
0.334969
0.325571
0.315636
0.305144
0.294074
0.282404
0.270117
0.257193
0.243619
0.229381
0.214472
0.198889
0.182639
0.165732
0.148195
0.130058
0.111372
0.092196
0.0725937
0.05285
0.0319247
0.0155251
2.25613
0.994396
0.300432
0.338276
0.400914
0.442258
0.450468
0.446002
0.439653
0.43475
0.431908
0.42964
0.427044
0.42396
0.420493
0.416724
0.412662
0.408289
0.403584
0.398531
0.393116
0.387326
0.381148
0.374566
0.367563
0.360121
0.352224
0.343851
0.334985
0.325603
0.315687
0.305215
0.294167
0.282521
0.270261
0.257366
0.243824
0.229622
0.214753
0.199215
0.183016
0.16617
0.148706
0.130665
0.112107
0.0931205
0.0738219
0.0546586
0.0351588
0.0220582
2.25626
0.994593
0.300565
0.338311
0.400944
0.442291
0.450502
0.446042
0.439711
0.434819
0.431991
0.429726
0.427142
0.424064
0.420611
0.416849
0.412803
0.40844
0.403752
0.39871
0.393316
0.387542
0.381388
0.374824
0.367849
0.360432
0.352568
0.344226
0.335399
0.326056
0.316188
0.305764
0.294773
0.283188
0.270998
0.258181
0.244726
0.230622
0.215865
0.200457
0.184409
0.167746
0.150505
0.132749
0.114569
0.0961198
0.0776366
0.0598426
0.0430426
0.0335736
2.25643
0.994899
0.300836
0.338389
0.401025
0.44239
0.450605
0.446159
0.439841
0.434977
0.43216
0.429915
0.427337
0.424282
0.420839
0.417103
0.41307
0.408736
0.404064
0.399056
0.393681
0.387947
0.381817
0.3753
0.368356
0.360994
0.353169
0.344893
0.336116
0.32685
0.317045
0.306714
0.295804
0.284331
0.272244
0.259562
0.246241
0.232304
0.217724
0.20253
0.186725
0.170352
0.153467
0.136152
0.118559
0.100899
0.0835534
0.0674604
0.0533048
0.0461823
2.25668
0.99533
0.301185
0.338458
0.40111
0.442511
0.450734
0.446309
0.440003
0.435181
0.432374
0.430162
0.427593
0.424572
0.421144
0.417447
0.413433
0.409141
0.404494
0.399532
0.394191
0.388509
0.382423
0.375965
0.369077
0.361782
0.35403
0.345831
0.337145
0.327971
0.31828
0.308057
0.29729
0.285948
0.274037
0.261519
0.248417
0.23469
0.220386
0.205471
0.190022
0.174043
0.157644
0.140925
0.124076
0.107412
0.0913749
0.0770323
0.0651106
0.0594966
2.25701
0.995902
0.301629
0.338529
0.401206
0.442656
0.450904
0.44648
0.440233
0.435416
0.432669
0.430455
0.427943
0.424923
0.421559
0.417866
0.413923
0.409641
0.405072
0.400128
0.394874
0.389218
0.383231
0.376813
0.370036
0.362798
0.355171
0.34705
0.338508
0.329439
0.319911
0.309829
0.299248
0.288091
0.276399
0.264119
0.251278
0.23786
0.223877
0.209366
0.194338
0.178899
0.163093
0.147121
0.13117
0.115616
0.100987
0.0883007
0.0781905
0.0736225
2.25743
0.996629
0.302172
0.338605
0.401313
0.442834
0.451108
0.446712
0.440495
0.435728
0.433009
0.430839
0.428352
0.425382
0.422047
0.418414
0.414504
0.410291
0.405761
0.400899
0.395691
0.390134
0.384203
0.377903
0.371197
0.3641
0.35656
0.348609
0.340177
0.33131
0.321924
0.31208
0.301684
0.290806
0.279356
0.267404
0.254881
0.241853
0.228288
0.214253
0.199779
0.184944
0.169893
0.154756
0.139838
0.125483
0.112238
0.101082
0.0924477
0.0886283
2.25794
0.99752
0.302824
0.338686
0.401433
0.443045
0.451355
0.446993
0.440814
0.436103
0.433423
0.431303
0.428854
0.425937
0.422648
0.419075
0.415221
0.411077
0.406615
0.401831
0.396707
0.391241
0.385414
0.379219
0.372642
0.365668
0.358289
0.350483
0.342251
0.333557
0.324418
0.314784
0.304692
0.294076
0.282996
0.271376
0.259299
0.2467
0.233673
0.220199
0.206382
0.192289
0.178054
0.163901
0.150058
0.136962
0.125078
0.115267
0.107846
0.104626
2.25856
0.99859
0.303594
0.338774
0.401569
0.44329
0.451652
0.447322
0.441204
0.436544
0.433924
0.431849
0.429458
0.426593
0.423372
0.41986
0.416083
0.412011
0.407638
0.402941
0.397922
0.392562
0.386859
0.380795
0.374365
0.367552
0.360349
0.352742
0.344719
0.336272
0.327383
0.318055
0.308262
0.298026
0.287306
0.276159
0.264528
0.25251
0.240049
0.227283
0.214195
0.200963
0.187676
0.174552
0.161901
0.150032
0.139457
0.130893
0.124496
0.12172
2.25928
0.99985
0.304491
0.338872
0.401723
0.443579
0.452
0.447723
0.441656
0.437076
0.434504
0.432502
0.430163
0.427377
0.424217
0.420795
0.41709
0.41312
0.408835
0.404256
0.399346
0.394123
0.388554
0.382653
0.376387
0.36977
0.362769
0.355396
0.347622
0.339456
0.330875
0.321887
0.312475
0.302648
0.292402
0.281747
0.270705
0.259283
0.247553
0.23552
0.223328
0.211007
0.198792
0.186799
0.175343
0.164789
0.155444
0.147995
0.142494
0.140149
2.26012
1.00131
0.305524
0.33898
0.401899
0.443912
0.452411
0.448179
0.442206
0.437683
0.4352
0.433251
0.431002
0.428278
0.425218
0.42187
0.418279
0.414398
0.410243
0.405774
0.401013
0.395927
0.390534
0.384802
0.378745
0.372336
0.365585
0.358468
0.350993
0.343144
0.334924
0.326326
0.31735
0.308004
0.298288
0.288225
0.277826
0.267136
0.256181
0.245046
0.233788
0.222552
0.211445
0.20071
0.190524
0.181228
0.17317
0.166812
0.162139
0.160104
2.26108
1.00299
0.306702
0.339104
0.4021
0.444299
0.452887
0.448732
0.442828
0.438411
0.435989
0.434141
0.431956
0.429342
0.426359
0.423133
0.419633
0.415892
0.411847
0.40754
0.402916
0.39802
0.392795
0.387287
0.381439
0.375296
0.368802
0.362004
0.354848
0.34738
0.339554
0.331414
0.322926
0.314132
0.305018
0.295624
0.285966
0.276082
0.266036
0.255866
0.245705
0.235606
0.225778
0.216334
0.207546
0.199614
0.192769
0.187495
0.183636
0.182029
2.26216
1.00488
0.308032
0.339247
0.40233
0.444739
0.45344
0.449357
0.443571
0.439239
0.436921
0.435151
0.433075
0.430549
0.427688
0.424564
0.421203
0.417582
0.4137
0.409538
0.405106
0.400386
0.39539
0.390097
0.384522
0.378642
0.372476
0.366001
0.359239
0.352168
0.344817
0.337166
0.329253
0.32106
0.312642
0.303987
0.295168
0.286191
0.27715
0.268085
0.259105
0.250324
0.241838
0.233872
0.226521
0.220071
0.214651
0.210551
0.207575
0.206272
2.26337
1.007
0.309515
0.339401
0.402603
0.445235
0.454075
0.450087
0.444419
0.440203
0.437982
0.436318
0.434344
0.431938
0.429191
0.426205
0.422975
0.419514
0.415788
0.411815
0.407569
0.403076
0.398304
0.393283
0.38798
0.382429
0.376595
0.370515
0.364159
0.357565
0.350712
0.343638
0.336335
0.328841
0.321172
0.313364
0.30546
0.297508
0.289575
0.28174
0.274086
0.266737
0.259813
0.25343
0.247788
0.242937
0.23903
0.236295
0.234373
0.23372
2.2647
1.00934
0.311154
0.339561
0.402929
0.445794
0.454804
0.45093
0.445396
0.441313
0.439196
0.437651
0.435789
0.433515
0.430898
0.428059
0.424981
0.421689
0.418144
0.41437
0.410343
0.406085
0.40158
0.39684
0.391863
0.386647
0.38121
0.375536
0.369662
0.363561
0.357294
0.350821
0.344228
0.337475
0.330662
0.323767
0.316896
0.310065
0.303375
0.296895
0.290727
0.284978
0.279773
0.275244
0.271487
0.268675
0.266703
0.26573
0.265199
0.265164
2.26617
1.01191
0.312958
0.339759
0.403293
0.44644
0.455648
0.451902
0.446546
0.442584
0.440602
0.439166
0.437448
0.435297
0.432841
0.430142
0.427249
0.424123
0.420794
0.41722
0.413449
0.409435
0.405233
0.400793
0.396176
0.391329
0.386321
0.381101
0.375739
0.3702
0.364544
0.358765
0.352908
0.347007
0.341088
0.335235
0.329459
0.323891
0.318554
0.313595
0.309085
0.305164
0.301936
0.299532
0.29809
0.29759
0.298087
0.299516
0.301161
0.302686
2.26775
1.01471
0.314919
0.339987
0.403713
0.447193
0.456631
0.453036
0.447883
0.444054
0.442214
0.440897
0.439331
0.437317
0.43503
0.432491
0.429787
0.426854
0.423744
0.420406
0.416892
0.413165
0.40927
0.405179
0.400928
0.396507
0.391939
0.387237
0.382409
0.377495
0.372493
0.367467
0.362418
0.357423
0.352506
0.347744
0.343212
0.33897
0.335162
0.331842
0.32919
0.327324
0.326403
0.326526
0.327927
0.330667
0.334533
0.339638
0.344738
0.348736
2.26943
1.0177
0.317023
0.340253
0.404202
0.44808
0.457781
0.454382
0.449428
0.445777
0.444057
0.442896
0.441459
0.439622
0.437482
0.435143
0.432612
0.42991
0.427009
0.423943
0.420687
0.417283
0.413703
0.409996
0.406134
0.402169
0.398079
0.393919
0.38968
0.385414
0.381138
0.376893
0.372734
0.368692
0.364863
0.361283
0.358077
0.355322
0.353135
0.3517
0.351075
0.351521
0.353213
0.356423
0.361341
0.368081
0.376913
0.387646
0.399381
0.409986
2.2712
1.02085
0.319247
0.340569
0.404783
0.449125
0.459139
0.45596
0.451238
0.447762
0.446174
0.445161
0.443876
0.442211
0.440248
0.438102
0.43578
0.433301
0.430653
0.42785
0.424899
0.421809
0.418599
0.415269
0.411853
0.408342
0.40479
0.401181
0.397589
0.393997
0.390496
0.387081
0.383852
0.380839
0.378137
0.375835
0.374013
0.372858
0.372437
0.372938
0.374602
0.377719
0.382641
0.389509
0.398937
0.411265
0.426961
0.447122
0.471005
0.498614
2.27302
1.0241
0.321526
0.340949
0.405493
0.450387
0.460784
0.457848
0.453413
0.450081
0.44864
0.447745
0.446631
0.445113
0.443348
0.441373
0.43928
0.437015
0.434638
0.432103
0.429475
0.426716
0.42389
0.420967
0.418006
0.414993
0.411982
0.408982
0.406036
0.403185
0.400462
0.397948
0.395669
0.39375
0.392223
0.39126
0.390901
0.39133
0.392714
0.3954
0.399606
0.405702
0.413908
0.425068
0.439635
0.459174
0.485099
0.520613
0.571947
0.664926
2.27509
1.02782
0.324049
0.341214
0.406287
0.45198
0.462931
0.460367
0.456281
0.453177
0.451894
0.451221
0.450322
0.449081
0.447562
0.445901
0.444095
0.442197
0.440168
0.438067
0.435859
0.433614
0.431296
0.428982
0.426637
0.424348
0.422083
0.419942
0.417902
0.416073
0.414455
0.413161
0.412234
0.411791
0.411933
0.412705
0.414267
0.417033
0.421224
0.426915
0.434607
0.444577
0.457849
0.474835
0.497623
0.527631
0.569614
0.631172
0.729855
0.881518
2.2773
1.0318
0.327058
0.342167
0.408018
0.454849
0.46652
0.464336
0.460568
0.457522
0.456282
0.455699
0.45496
0.453895
0.452596
0.451161
0.449636
0.448034
0.446365
0.444638
0.442878
0.441094
0.43932
0.437564
0.435873
0.434254
0.432771
0.431432
0.430324
0.429457
0.42895
0.428818
0.429183
0.430065
0.431702
0.434291
0.438004
0.442922
0.449488
0.457812
0.468611
0.482326
0.499832
0.522645
0.551815
0.59138
0.643938
0.718065
0.829019
0.967197
2.27859
1.03411
0.328931
0.343227
0.410181
0.458595
0.471246
0.46956
0.46612
0.463095
0.46189
0.461425
0.460851
0.459965
0.458854
0.457626
0.456335
0.454998
0.453629
0.452239
0.450854
0.449491
0.448181
0.446945
0.445823
0.444842
0.444051
0.443489
0.44322
0.443308
0.443767
0.444671
0.446256
0.448662
0.451884
0.456173
0.461607
0.468599
0.477214
0.488182
0.501516
0.518515
0.539235
0.565792
0.599072
0.641741
0.697405
0.767794
0.864215
0.967552
2.27974
1.03623
0.332245
0.346926
0.415046
0.465011
0.478258
0.476443
0.472654
0.46928
0.468001
0.46764
0.46723
0.466519
0.465613
0.464615
0.46361
0.462583
0.461571
0.46056
0.459596
0.458676
0.457853
0.45713
0.456564
0.456175
0.456029
0.456142
0.45656
0.45737
0.458743
0.460725
0.463375
0.466864
0.471257
0.47686
0.483699
0.492287
0.502639
0.515424
0.530908
0.549739
0.572863
0.600727
0.63535
0.677132
0.72896
0.791
0.868919
0.949994
2.27618
1.02984
0.334395
0.356836
0.427475
0.479844
0.49335
0.490553
0.485553
0.481304
0.479646
0.47909
0.478517
0.477648
0.476587
0.475494
0.47443
0.473405
0.472428
0.471516
0.47069
0.46998
0.469401
0.469002
0.468805
0.468843
0.469114
0.469782
0.470861
0.472464
0.474558
0.477347
0.480795
0.485191
0.490502
0.497096
0.504999
0.514577
0.526107
0.539813
0.556378
0.575938
0.599504
0.627396
0.660618
0.700091
0.74637
0.800752
0.864262
0.928854
2.28211
1.02268
0.358852
0.382381
0.4485
0.498399
0.510317
0.506567
0.500826
0.496443
0.494741
0.494051
0.493352
0.492402
0.491336
0.490259
0.489227
0.488229
0.487291
0.48641
0.485633
0.484959
0.484445
0.484061
0.483931
0.484085
0.48463
0.485495
0.486885
0.488731
0.491282
0.494426
0.498511
0.503374
0.509486
0.516611
0.52538
0.535485
0.547731
0.561853
0.578668
0.598207
0.621084
0.647822
0.678677
0.71463
0.755601
0.802483
0.855684
0.909253
1.87636
0.772075
0.273359
0.344128
0.41773
0.441223
0.441144
0.437166
0.433522
0.433427
0.435603
0.438491
0.441493
0.444537
0.447678
0.450927
0.454246
0.45759
0.46093
0.464246
0.467522
0.470701
0.473845
0.476985
0.480178
0.483359
0.48665
0.489971
0.493593
0.497402
0.501703
0.506395
0.511827
0.517928
0.525046
0.533185
0.542631
0.553576
0.566109
0.580756
0.597327
0.616722
0.638489
0.663821
0.6921
0.724577
0.760569
0.801046
0.845861
0.890613
1.86893
0.771459
0.282257
0.355364
0.428316
0.447786
0.443327
0.435974
0.430314
0.428416
0.428327
0.42873
0.429331
0.430235
0.431584
0.433366
0.435625
0.438233
0.44131
0.444738
0.448623
0.452692
0.45717
0.461817
0.466849
0.472006
0.477544
0.483276
0.489365
0.495693
0.502423
0.509498
0.517055
0.525195
0.533989
0.543741
0.55434
0.566365
0.579554
0.594628
0.611275
0.630258
0.651299
0.67506
0.701399
0.730712
0.763028
0.798158
0.836565
0.874248
1.86796
0.770148
0.284392
0.365081
0.443606
0.463693
0.45752
0.448152
0.441143
0.438408
0.437507
0.436908
0.43632
0.435917
0.435829
0.4361
0.436729
0.437733
0.439266
0.44125
0.443738
0.446656
0.450173
0.454182
0.45881
0.46396
0.469683
0.475942
0.48273
0.490106
0.497978
0.506571
0.515656
0.525613
0.53603
0.547478
0.559534
0.572809
0.586976
0.602654
0.61958
0.638316
0.658733
0.681236
0.705773
0.732585
0.76163
0.792837
0.826456
0.85899
1.86945
0.773427
0.290185
0.367297
0.443678
0.46429
0.459081
0.450569
0.443988
0.441621
0.441144
0.440966
0.440748
0.440637
0.440722
0.441027
0.441615
0.442522
0.44371
0.445193
0.446996
0.449231
0.451872
0.455083
0.458769
0.46315
0.468063
0.473785
0.480059
0.487257
0.495003
0.503765
0.51307
0.523444
0.534455
0.546591
0.5595
0.573602
0.588598
0.604855
0.622218
0.640959
0.661046
0.682697
0.705883
0.730733
0.757185
0.785283
0.815076
0.843731
1.87255
0.780102
0.297863
0.361252
0.429049
0.450297
0.448024
0.441965
0.436354
0.434477
0.434513
0.435044
0.435631
0.436346
0.437238
0.43841
0.439871
0.441555
0.443426
0.445534
0.447878
0.450541
0.4535
0.45687
0.460607
0.464885
0.469601
0.475011
0.480938
0.487711
0.49509
0.503416
0.512454
0.522502
0.533371
0.545285
0.55811
0.572029
0.586969
0.603072
0.620298
0.638784
0.65843
0.679375
0.701498
0.724974
0.749586
0.775313
0.802333
0.828175
1.88113
0.786684
0.300117
0.349036
0.412174
0.441232
0.444213
0.43953
0.434379
0.432094
0.431848
0.432371
0.433089
0.434009
0.435105
0.436438
0.438035
0.439891
0.442004
0.444401
0.447076
0.450083
0.453394
0.457094
0.461132
0.46565
0.470556
0.476058
0.482018
0.488693
0.495939
0.503998
0.512765
0.522423
0.532911
0.544379
0.556756
0.570177
0.584573
0.600066
0.616583
0.634233
0.652934
0.672786
0.693689
0.715676
0.738602
0.762429
0.78725
0.810903
2.26317
1.10617
0.407319
0.399218
0.459389
0.508091
0.519387
0.514497
0.507574
0.501523
0.498004
0.495531
0.493417
0.491397
0.489368
0.487395
0.485669
0.484179
0.48303
0.482181
0.481752
0.481702
0.482156
0.483088
0.484568
0.486633
0.489317
0.492678
0.496718
0.501528
0.507086
0.513501
0.520744
0.528938
0.538033
0.548161
0.55925
0.57142
0.584595
0.598881
0.614173
0.63057
0.647948
0.666359
0.685716
0.706009
0.727137
0.749019
0.771735
0.793346
2.2726
1.12808
0.391796
0.377156
0.450018
0.510744
0.52915
0.528271
0.524049
0.520245
0.518802
0.518425
0.518408
0.518368
0.517952
0.517322
0.516648
0.516018
0.515449
0.514972
0.514604
0.514408
0.514405
0.514676
0.515258
0.516228
0.517623
0.519554
0.522017
0.525168
0.528955
0.533568
0.538928
0.545211
0.552352
0.560482
0.569579
0.579732
0.590931
0.603204
0.616578
0.631
0.646499
0.662979
0.680409
0.698724
0.717827
0.737626
0.758186
0.777754
2.29751
1.1768
0.434375
0.384021
0.447112
0.503412
0.521896
0.522927
0.521103
0.519919
0.520338
0.52157
0.523365
0.525167
0.526575
0.527775
0.528898
0.530046
0.531194
0.532374
0.53356
0.534803
0.536095
0.537497
0.53901
0.540706
0.542602
0.544774
0.547265
0.550142
0.553474
0.557312
0.561751
0.566826
0.572652
0.579242
0.586713
0.595054
0.604359
0.614607
0.62584
0.638032
0.651208
0.665355
0.680443
0.696444
0.71326
0.730736
0.74896
0.766346
1.90077
0.805064
0.305872
0.316885
0.373998
0.414885
0.42917
0.433001
0.435827
0.439481
0.444415
0.450165
0.456605
0.463103
0.469283
0.475282
0.48125
0.487215
0.493161
0.499048
0.504872
0.510612
0.516286
0.521874
0.527411
0.532874
0.53833
0.54375
0.549227
0.554751
0.560394
0.566202
0.572237
0.578568
0.585246
0.592371
0.599968
0.608159
0.616932
0.626422
0.636585
0.647559
0.659256
0.67178
0.685019
0.698987
0.713622
0.728949
0.744965
0.760283
2.30602
1.19394
0.449723
0.386671
0.440684
0.49226
0.509265
0.509328
0.506181
0.503703
0.502445
0.502259
0.502714
0.50311
0.503433
0.503937
0.504762
0.506039
0.507735
0.509894
0.512468
0.51551
0.518973
0.5229
0.527215
0.531974
0.53706
0.542564
0.548325
0.554461
0.560847
0.567588
0.574567
0.581907
0.589499
0.597482
0.605772
0.614499
0.623604
0.633201
0.643259
0.653861
0.664991
0.676682
0.688943
0.701756
0.715129
0.728973
0.743377
0.757098
2.31127
1.20392
0.433022
0.369754
0.438392
0.500661
0.522121
0.523536
0.521317
0.519846
0.519973
0.521104
0.522833
0.524337
0.525362
0.526208
0.527042
0.52799
0.529065
0.530353
0.531861
0.533676
0.535783
0.538268
0.541116
0.544392
0.548087
0.552242
0.556855
0.561939
0.567496
0.57351
0.579991
0.58691
0.594304
0.602108
0.610379
0.619037
0.628164
0.637664
0.647641
0.657987
0.668823
0.680026
0.691717
0.703771
0.716284
0.729118
0.742401
0.755004
2.31399
1.20975
0.437197
0.371795
0.44152
0.505384
0.527769
0.529453
0.527289
0.525941
0.526414
0.52793
0.530201
0.532394
0.534113
0.535642
0.537168
0.5388
0.540531
0.542392
0.54438
0.546526
0.548847
0.551376
0.554144
0.557177
0.560518
0.56418
0.568216
0.572625
0.577465
0.582721
0.588452
0.594626
0.601295
0.608421
0.616048
0.624131
0.632701
0.641719
0.651198
0.661115
0.671456
0.682213
0.693346
0.704868
0.716709
0.728886
0.741389
0.753281
2.31697
1.21747
0.463574
0.387864
0.447121
0.506254
0.528821
0.532055
0.531178
0.530808
0.5317
0.533629
0.536167
0.538466
0.540493
0.542396
0.544354
0.546395
0.548573
0.550854
0.553285
0.555836
0.558561
0.561433
0.56451
0.567769
0.571271
0.574997
0.57901
0.583295
0.587913
0.592858
0.598179
0.603876
0.609981
0.616499
0.623445
0.630836
0.638666
0.646956
0.655674
0.66485
0.674434
0.684452
0.694841
0.705618
0.716711
0.72812
0.739865
0.751042
1.90564
0.813609
0.324769
0.323677
0.376473
0.414366
0.427256
0.430301
0.432594
0.435936
0.440709
0.446622
0.453352
0.460172
0.466884
0.473547
0.480283
0.48708
0.493947
0.500828
0.507728
0.514608
0.521486
0.528336
0.535182
0.542011
0.548851
0.555698
0.562577
0.569499
0.576481
0.583553
0.590727
0.598046
0.605513
0.613184
0.621051
0.629173
0.637537
0.646186
0.65511
0.664338
0.673851
0.683676
0.693787
0.704193
0.71487
0.725807
0.737054
0.74773
2.31207
1.20877
0.46509
0.40354
0.466236
0.527429
0.549363
0.550293
0.546149
0.542315
0.540108
0.538734
0.538138
0.53774
0.537005
0.536282
0.535715
0.535561
0.535748
0.536435
0.537549
0.539161
0.541243
0.543831
0.546891
0.550448
0.554463
0.558959
0.56388
0.56925
0.575012
0.581173
0.587682
0.59455
0.601735
0.609245
0.617049
0.625153
0.633533
0.642199
0.651136
0.66035
0.669832
0.679579
0.689576
0.699813
0.710275
0.720939
0.731867
0.742232
2.29411
1.16973
0.460186
0.422741
0.48584
0.546242
0.566135
0.566176
0.562455
0.559218
0.55846
0.558863
0.559949
0.561212
0.562083
0.562721
0.563311
0.563968
0.564703
0.565525
0.566445
0.567508
0.568759
0.570243
0.57199
0.574048
0.576431
0.579174
0.582292
0.585807
0.589722
0.594061
0.598824
0.604024
0.609653
0.615713
0.622191
0.629081
0.636368
0.644038
0.652072
0.660452
0.669156
0.67817
0.687486
0.697074
0.70693
0.717018
0.727389
0.737243
1.88784
0.805091
0.340839
0.355379
0.406349
0.443127
0.452862
0.452692
0.451757
0.45261
0.455925
0.460551
0.466093
0.47216
0.478252
0.484376
0.490595
0.496917
0.503295
0.509685
0.516048
0.522375
0.528653
0.534884
0.541061
0.547196
0.553296
0.559389
0.56549
0.571635
0.577846
0.584147
0.590566
0.597128
0.603857
0.610772
0.617895
0.625237
0.632815
0.640633
0.648708
0.657036
0.665628
0.674466
0.683547
0.692862
0.702395
0.712136
0.722124
0.731618
1.87402
0.796334
0.339572
0.356673
0.398323
0.426959
0.434873
0.434827
0.433821
0.433309
0.434041
0.435675
0.438232
0.441441
0.444933
0.448767
0.453024
0.457745
0.462907
0.468492
0.474459
0.480784
0.487424
0.494355
0.501533
0.508933
0.516512
0.524254
0.53212
0.540099
0.548163
0.556326
0.564556
0.572878
0.581267
0.589754
0.598321
0.607
0.615786
0.624684
0.633692
0.642829
0.652094
0.661501
0.671047
0.680741
0.690578
0.700553
0.710706
0.720319
1.88891
0.806067
0.345087
0.373673
0.430946
0.466907
0.47364
0.469586
0.464502
0.461397
0.460443
0.460412
0.461003
0.461966
0.463004
0.464177
0.465608
0.467369
0.469494
0.471997
0.4749
0.478211
0.481962
0.486144
0.490777
0.495844
0.501355
0.507279
0.513619
0.520336
0.527434
0.534866
0.542632
0.550685
0.559019
0.567589
0.576392
0.585385
0.594562
0.60391
0.613425
0.623084
0.632885
0.642802
0.652842
0.662983
0.673231
0.683563
0.694049
0.703943
2.34079
1.12441
0.469145
0.447626
0.513185
0.574933
0.595558
0.594951
0.589652
0.584346
0.581334
0.579422
0.577855
0.576481
0.574926
0.57319
0.571415
0.5697
0.568088
0.566608
0.565282
0.564148
0.563232
0.562581
0.562224
0.562212
0.562561
0.563333
0.564518
0.566156
0.568277
0.570886
0.574011
0.577631
0.581774
0.586409
0.591553
0.597168
0.603266
0.609799
0.616766
0.624123
0.631853
0.639948
0.648363
0.657083
0.666068
0.675306
0.684805
0.693863
1.88937
0.807255
0.346217
0.36349
0.415832
0.456093
0.468566
0.469573
0.469026
0.469005
0.471293
0.474812
0.47902
0.483755
0.48858
0.493394
0.498236
0.503165
0.508141
0.513154
0.518144
0.523122
0.528047
0.532946
0.537788
0.542612
0.547391
0.552169
0.556946
0.561753
0.566597
0.571512
0.576497
0.581604
0.586832
0.592233
0.597797
0.603579
0.60956
0.615796
0.622258
0.628996
0.635982
0.643228
0.650721
0.658474
0.666466
0.674696
0.683179
0.691286
1.88911
0.807402
0.347528
0.364557
0.416105
0.454595
0.465045
0.463982
0.461107
0.458546
0.458079
0.45892
0.460504
0.462711
0.465131
0.467721
0.47059
0.473819
0.477413
0.481357
0.485624
0.490197
0.495054
0.500177
0.505544
0.511131
0.516917
0.522878
0.528995
0.535267
0.541672
0.548206
0.554858
0.56162
0.568486
0.575452
0.58252
0.58969
0.596967
0.604352
0.611854
0.619467
0.627207
0.635067
0.643064
0.651188
0.659454
0.667847
0.676413
0.684548
2.34281
1.1281
0.472827
0.449692
0.51644
0.580686
0.603143
0.603248
0.598168
0.593098
0.590314
0.588757
0.587627
0.586773
0.58577
0.584603
0.583376
0.582249
0.58121
0.580351
0.579609
0.579098
0.578751
0.57869
0.578846
0.579326
0.580089
0.581176
0.582603
0.584376
0.586506
0.58899
0.591829
0.595022
0.598567
0.602464
0.606706
0.611284
0.616191
0.621418
0.62695
0.632781
0.638892
0.645278
0.651919
0.65881
0.665931
0.673275
0.680846
0.688088
1.88982
0.808794
0.353493
0.38144
0.439696
0.479651
0.489614
0.487935
0.48489
0.483503
0.48493
0.487605
0.490954
0.494788
0.49869
0.502641
0.506705
0.510934
0.515298
0.519781
0.524344
0.528978
0.533661
0.538392
0.543163
0.547967
0.552808
0.557686
0.562611
0.567585
0.572618
0.577725
0.582906
0.588182
0.593553
0.59904
0.604639
0.61037
0.61623
0.622232
0.628382
0.634688
0.641152
0.647778
0.654567
0.661523
0.668642
0.675915
0.683371
0.69047
1.87525
0.799755
0.351209
0.378126
0.427539
0.459451
0.467102
0.465974
0.464292
0.463577
0.464103
0.465302
0.467201
0.469485
0.471837
0.474318
0.477026
0.48001
0.483279
0.486829
0.490651
0.494739
0.499083
0.503676
0.508507
0.513567
0.51884
0.524316
0.529981
0.535821
0.541826
0.547977
0.55428
0.560713
0.567284
0.57397
0.580786
0.587713
0.594763
0.601919
0.609191
0.616562
0.624044
0.631624
0.639314
0.6471
0.654994
0.662983
0.671116
0.678817
1.87422
0.799383
0.351729
0.375371
0.422434
0.454102
0.462318
0.461857
0.46074
0.46012
0.460389
0.461213
0.462695
0.46453
0.466377
0.468278
0.470335
0.47259
0.475063
0.477753
0.48067
0.483817
0.487205
0.490834
0.494711
0.498833
0.503207
0.507826
0.512694
0.517803
0.523156
0.528744
0.534564
0.540606
0.546864
0.553326
0.559987
0.566831
0.573859
0.581056
0.588422
0.595944
0.603623
0.611441
0.619394
0.62747
0.635678
0.64401
0.652497
0.660555
1.88906
0.809131
0.354919
0.36268
0.413307
0.452104
0.463047
0.462635
0.460846
0.459599
0.459634
0.460444
0.461982
0.463884
0.46571
0.467517
0.469434
0.471525
0.47381
0.476284
0.47895
0.481808
0.484864
0.48812
0.49158
0.495245
0.499121
0.503208
0.50751
0.512026
0.516761
0.521712
0.526884
0.532272
0.537878
0.543698
0.549732
0.555974
0.562425
0.569075
0.575923
0.582958
0.590175
0.597571
0.605144
0.612887
0.620791
0.628846
0.637071
0.644895
2.31238
1.20479
0.485527
0.431522
0.492612
0.556848
0.582846
0.586343
0.583679
0.580947
0.579658
0.579342
0.579829
0.580658
0.581195
0.581485
0.581716
0.581998
0.582373
0.58284
0.583405
0.584067
0.584843
0.585737
0.586766
0.587933
0.589256
0.590736
0.59239
0.59422
0.596242
0.598457
0.600881
0.603512
0.606366
0.609441
0.612749
0.616286
0.620066
0.624081
0.628342
0.632841
0.637586
0.642567
0.647794
0.653248
0.658934
0.664827
0.670959
0.676854
2.32261
1.22891
0.466211
0.405403
0.481476
0.557548
0.588725
0.593409
0.590777
0.587915
0.586926
0.587378
0.588667
0.590481
0.592163
0.59356
0.594891
0.596303
0.597856
0.599536
0.601338
0.603249
0.605277
0.607416
0.609677
0.612054
0.614557
0.617178
0.619929
0.622804
0.625814
0.628952
0.632231
0.635644
0.639204
0.642905
0.646758
0.650759
0.654918
0.65923
0.663706
0.66834
0.673144
0.678112
0.68325
0.68855
0.694018
0.699639
0.705438
0.710977
2.31278
1.20629
0.486757
0.432583
0.494385
0.55985
0.586918
0.591072
0.589022
0.58691
0.586339
0.586996
0.588503
0.590492
0.592291
0.593885
0.595459
0.597142
0.59897
0.600945
0.603053
0.605298
0.607675
0.610193
0.612849
0.61565
0.618592
0.621683
0.624917
0.628301
0.631829
0.63551
0.639336
0.643315
0.64744
0.651719
0.656144
0.660723
0.665448
0.670328
0.675352
0.68053
0.685852
0.691327
0.696943
0.702711
0.708616
0.714667
0.720875
0.726814
1.88896
0.809186
0.356118
0.364326
0.416398
0.457015
0.469115
0.469134
0.467548
0.466533
0.467177
0.468803
0.471285
0.474241
0.477175
0.480141
0.48325
0.486579
0.490123
0.493885
0.49784
0.501995
0.506331
0.510859
0.515559
0.520442
0.525487
0.530706
0.536077
0.541613
0.547293
0.553128
0.559098
0.565215
0.571459
0.577844
0.584347
0.590984
0.597733
0.604611
0.611594
0.6187
0.625907
0.63323
0.640646
0.648176
0.655798
0.663533
0.671395
0.678883
1.8742
0.800018
0.35534
0.380495
0.428591
0.460137
0.467658
0.466492
0.464751
0.463867
0.464084
0.464935
0.466475
0.468355
0.470187
0.472037
0.474001
0.47614
0.478451
0.480945
0.483609
0.486459
0.489487
0.492707
0.49611
0.499712
0.503501
0.507492
0.511673
0.516057
0.520632
0.52541
0.530377
0.535546
0.5409
0.546453
0.552187
0.558114
0.564216
0.570505
0.576963
0.583598
0.590395
0.59736
0.604476
0.611752
0.61917
0.626738
0.634464
0.641828
1.87704
0.803113
0.359425
0.395174
0.451572
0.484577
0.490502
0.48697
0.482785
0.480836
0.480824
0.48162
0.483029
0.484693
0.48629
0.487911
0.489654
0.491566
0.49364
0.495878
0.498269
0.500823
0.503534
0.506414
0.509456
0.512671
0.516052
0.51961
0.523338
0.527245
0.531324
0.535584
0.540019
0.544635
0.549426
0.5544
0.559547
0.564875
0.570375
0.576055
0.581903
0.587927
0.594116
0.600475
0.606994
0.613677
0.620511
0.627499
0.634645
0.641458
1.19166
1.04926
0.497886
0.190622
0.0103604
0.108649
0.159899
0.208291
0.229935
0.234347
0.22273
0.211299
0.200997
0.191459
0.179422
0.164966
0.147633
0.127704
0.105879
0.0827427
0.0589165
0.0352158
0.0158372
0.0233072
0.0470748
0.0713539
0.0955304
0.119228
0.142566
0.165471
0.187988
0.210068
0.231718
0.252865
0.272891
0.291997
0.311549
0.331928
0.351909
0.371083
0.389613
0.407617
0.425154
0.442216
0.45881
0.474917
0.490548
0.505682
0.520329
0.534468
0.548104
0.561214
0.573797
0.585826
0.597293
0.608167
0.618434
0.628058
0.637021
0.645282
0.652818
0.659589
0.665571
0.670727
0.675038
0.678479
0.681052
0.682758
0.683623
0.683845
0.683709
0.683219
0.682
0.679618
0.67631
0.67277
0.669147
0.665487
0.661844
0.658312
0.654981
0.651936
0.649236
0.646928
0.645032
0.643561
0.642508
0.641852
0.641572
0.641592
0.641792
0.642171
0.642854
0.643993
0.645427
0.64698
0.648561
0.650251
0.651902
0.656673
1.12205
1.03625
0.806479
0.549528
0.502612
0.431479
0.381428
0.340624
0.31028
0.291722
0.26048
0.230288
0.210729
0.209004
0.216135
0.226696
0.239159
0.253091
0.268228
0.284102
0.300488
0.316977
0.333312
0.349505
0.366249
0.383251
0.400425
0.417539
0.434647
0.451592
0.468456
0.485099
0.501607
0.517854
0.533523
0.548449
0.563458
0.579188
0.595067
0.610303
0.625037
0.63942
0.653518
0.667305
0.68078
0.693911
0.706703
0.719132
0.731204
0.742893
0.754204
0.765105
0.775601
0.785652
0.795262
0.804385
0.813021
0.821121
0.828679
0.835643
0.842006
0.847714
0.85276
0.857091
0.860709
0.863568
0.865687
0.86704
0.867676
0.867738
0.867483
0.866881
0.865633
0.863368
0.860236
0.856829
0.853334
0.849824
0.846355
0.84301
0.839869
0.837011
0.83449
0.83235
0.830609
0.829276
0.828339
0.827783
0.827598
0.827668
0.827882
0.828261
0.828872
0.829887
0.831139
0.832518
0.83387
0.835308
0.83651
0.840315
1.07473
1.07568
1.00826
0.899969
0.831358
0.78119
0.745239
0.71514
0.690318
0.672239
0.657205
0.642913
0.632911
0.627811
0.626307
0.626589
0.628131
0.630574
0.633988
0.638286
0.643423
0.649218
0.655592
0.66244
0.67
0.678169
0.686937
0.696097
0.705664
0.715469
0.725575
0.735825
0.746308
0.756856
0.767234
0.777178
0.787245
0.798027
0.809388
0.820487
0.831293
0.841916
0.852432
0.862836
0.873115
0.883234
0.893182
0.902931
0.912474
0.921784
0.930855
0.939656
0.948178
0.956388
0.964275
0.971801
0.978953
0.985689
0.991994
0.997824
1.00316
1.00796
1.01221
1.01585
1.01889
1.02128
1.02303
1.0241
1.02453
1.02446
1.02414
1.02351
1.02229
1.0202
1.01731
1.01414
1.01084
1.00756
1.00432
1.00123
0.998334
0.995725
0.993426