/*--------------------------------*- C++ -*----------------------------------*\
| =========                 |                                                 |
| \\      /  F ield         | OpenFOAM: The Open Source CFD Toolbox           |
|  \\    /   O peration     | Version:  2412                                  |
|   \\  /    A nd           | Website:  www.openfoam.com                      |
|    \\/     M anipulation  |                                                 |
\*---------------------------------------------------------------------------*/
FoamFile
{
    version     2.0;
    format      ascii;
    arch        "LSB;label=32;scalar=64";
    class       volScalarField;
    location    "19.5";
    object      p;
}
// * * * * * * * * * * * * * * * * * * * * * * * * * * * * * * * * * * * * * //

dimensions      [1 -1 -2 0 0 0 0];

internalField   nonuniform List<scalar> 
7000
(
1.63879
3.75616
11.4542
11.5278
11.0974
10.6878
10.569
10.5836
10.6246
10.6643
10.6861
10.6999
10.7144
10.7321
10.7525
10.7747
10.7985
10.824
10.8512
10.8802
10.911
10.9437
10.9782
11.0145
11.0528
11.0928
11.1347
11.1783
11.2237
11.2708
11.3194
11.3695
11.4209
11.4735
11.5271
11.5813
11.6358
11.6905
11.7447
11.7981
11.8501
11.9001
11.9476
11.9918
12.032
12.0676
12.0979
12.1224
12.14
12.153
1.6391
3.75487
11.4537
11.5272
11.0969
10.6874
10.5687
10.5833
10.6242
10.6639
10.6857
10.6994
10.7139
10.7316
10.752
10.7741
10.7979
10.8233
10.8505
10.8795
10.9103
10.9429
10.9774
11.0137
11.0519
11.0919
11.1338
11.1774
11.2227
11.2698
11.3184
11.3684
11.4198
11.4724
11.5259
11.5801
11.6347
11.6893
11.7435
11.797
11.849
11.8991
11.9467
11.9909
12.0313
12.067
12.0975
12.1221
12.1397
12.1528
1.63899
3.75394
11.4518
11.5263
11.0962
10.6867
10.568
10.5825
10.6234
10.663
10.6847
10.6984
10.7129
10.7305
10.7508
10.7729
10.7966
10.822
10.8491
10.878
10.9087
10.9412
10.9756
11.0119
11.0499
11.0899
11.1316
11.1751
11.2203
11.2672
11.3156
11.3656
11.4168
11.4692
11.5226
11.5766
11.6311
11.6856
11.7397
11.793
11.845
11.895
11.9425
11.9868
12.0272
12.0629
12.0933
12.118
12.1355
12.1485
1.63886
3.75265
11.4485
11.5253
11.0952
10.6856
10.5668
10.5813
10.6221
10.6616
10.6831
10.6968
10.7112
10.7287
10.7489
10.7709
10.7945
10.8198
10.8468
10.8756
10.9062
10.9386
10.9728
11.0089
11.0468
11.0865
11.1281
11.1714
11.2164
11.263
11.3113
11.3609
11.412
11.4641
11.5172
11.571
11.6252
11.6795
11.7334
11.7866
11.8384
11.8883
11.9357
11.9798
12.0202
12.0559
12.0863
12.1109
12.1284
12.1413
1.63869
3.75078
11.4438
11.5239
11.0939
10.6839
10.5651
10.5796
10.6203
10.6595
10.681
10.6945
10.7087
10.7262
10.7463
10.7682
10.7916
10.8167
10.8435
10.8721
10.9025
10.9348
10.9688
11.0046
11.0423
11.0818
11.123
11.166
11.2108
11.2571
11.305
11.3543
11.405
11.4568
11.5095
11.563
11.6168
11.6707
11.7243
11.7771
11.8287
11.8784
11.9256
11.9697
12.0099
12.0456
12.076
12.1006
12.118
12.131
1.63847
3.74826
11.4375
11.5221
11.0923
10.6819
10.5628
10.5772
10.6178
10.6569
10.6781
10.6914
10.7056
10.7229
10.7428
10.7645
10.7877
10.8126
10.8392
10.8676
10.8978
10.9297
10.9635
10.999
11.0364
11.0755
11.1164
11.159
11.2033
11.2492
11.2967
11.3455
11.3957
11.447
11.4992
11.5521
11.6055
11.6589
11.7121
11.7645
11.8156
11.865
11.9119
11.9558
11.9959
12.0315
12.0619
12.0866
12.1039
12.117
1.6382
3.74502
11.4296
11.5198
11.0903
10.6792
10.5599
10.5743
10.6146
10.6535
10.6745
10.6876
10.7016
10.7186
10.7383
10.7598
10.7828
10.8075
10.8338
10.8619
10.8917
10.9233
10.9567
10.9919
11.0288
11.0675
11.1079
11.1501
11.1938
11.2392
11.286
11.3343
11.3838
11.4345
11.486
11.5383
11.591
11.6437
11.6962
11.748
11.7987
11.8475
11.8941
11.9377
11.9775
12.013
12.0434
12.068
12.0854
12.0987
1.63789
3.74103
11.4199
11.5171
11.0877
10.676
10.5563
10.5706
10.6107
10.6493
10.67
10.6829
10.6966
10.7134
10.7328
10.754
10.7768
10.8011
10.8271
10.8548
10.8843
10.9155
10.9484
10.9831
11.0195
11.0577
11.0975
11.139
11.1821
11.2268
11.2729
11.3204
11.3691
11.4189
11.4696
11.521
11.5728
11.6248
11.6764
11.7275
11.7773
11.8256
11.8716
11.9147
11.9542
11.9895
12.0197
12.0444
12.0618
12.0753
1.63752
3.73623
11.4083
11.5138
11.0848
10.6722
10.552
10.5661
10.606
10.6442
10.6646
10.6772
10.6906
10.7072
10.7263
10.7471
10.7695
10.7934
10.819
10.8463
10.8753
10.906
10.9384
10.9725
11.0083
11.0458
11.0849
11.1257
11.168
11.2118
11.257
11.3035
11.3513
11.4001
11.4497
11.5
11.5508
11.6016
11.6522
11.7022
11.7511
11.7984
11.8436
11.8861
11.9251
11.9601
11.9901
12.0148
12.0322
12.046
1.63709
3.73056
11.3948
11.5099
11.0812
10.6677
10.5469
10.5608
10.6003
10.6381
10.6582
10.6705
10.6835
10.6997
10.7184
10.7389
10.7608
10.7843
10.8094
10.8362
10.8646
10.8948
10.9265
10.96
10.995
11.0317
11.07
11.1098
11.1512
11.194
11.2381
11.2835
11.33
11.3776
11.4259
11.4749
11.5243
11.5737
11.623
11.6716
11.7192
11.7654
11.8095
11.851
11.8893
11.9237
11.9533
11.978
11.9954
12.0095
1.6366
3.72397
11.379
11.5054
11.0771
10.6624
10.5409
10.5546
10.5937
10.631
10.6507
10.6625
10.6752
10.691
10.7092
10.7292
10.7507
10.7737
10.7982
10.8244
10.8522
10.8816
10.9126
10.9453
10.9795
11.0152
11.0525
11.0913
11.1315
11.1731
11.2159
11.26
11.3051
11.3511
11.3979
11.4452
11.4929
11.5406
11.5881
11.6351
11.681
11.7255
11.7682
11.8084
11.8455
11.879
11.9081
11.9324
11.9497
11.9644
1.63605
3.71644
11.361
11.5003
11.0724
10.6563
10.5339
10.5474
10.586
10.6228
10.6419
10.6534
10.6656
10.6809
10.6986
10.7181
10.739
10.7613
10.7852
10.8107
10.8378
10.8664
10.8966
10.9283
10.9615
10.9962
11.0323
11.0698
11.1087
11.1489
11.1902
11.2326
11.276
11.3202
11.3651
11.4105
11.4561
11.5017
11.547
11.5918
11.6355
11.6779
11.7185
11.7568
11.7923
11.8244
11.8525
11.8763
11.8934
11.9084
1.63543
3.70791
11.3407
11.4944
11.067
10.6495
10.5259
10.5391
10.5771
10.6133
10.6319
10.6428
10.6545
10.6692
10.6864
10.7053
10.7255
10.7472
10.7703
10.795
10.8213
10.849
10.8781
10.9088
10.9408
10.9743
11.0091
11.0452
11.0826
11.1211
11.1606
11.2012
11.2426
11.2846
11.3273
11.3702
11.4133
11.4563
11.4989
11.5408
11.5818
11.6213
11.6591
11.6947
11.7277
11.7577
11.784
11.8066
11.8232
11.8389
1.63476
3.69834
11.318
11.4876
11.0608
10.6417
10.5169
10.5297
10.5668
10.6024
10.6204
10.6307
10.6418
10.6559
10.6725
10.6906
10.7102
10.7311
10.7534
10.7772
10.8025
10.8292
10.8572
10.8867
10.9174
10.9495
10.9828
11.0172
11.0528
11.0894
11.1269
11.1653
11.2043
11.2439
11.2838
11.3239
11.364
11.4038
11.443
11.4813
11.5186
11.5543
11.5882
11.62
11.6493
11.676
11.6995
11.7201
11.7353
11.7512
1.63403
3.68771
11.293
11.48
11.0539
10.6331
10.5066
10.519
10.5552
10.59
10.6073
10.617
10.6275
10.6409
10.6567
10.6741
10.6928
10.7129
10.7343
10.7571
10.7813
10.8068
10.8336
10.8617
10.891
10.9215
10.953
10.9856
11.0192
11.0536
11.0888
11.1246
11.1609
11.1976
11.2344
11.2711
11.3075
11.3433
11.3783
11.4122
11.4447
11.4754
11.504
11.5304
11.5541
11.5754
11.5939
11.6107
11.6234
11.6396
1.63324
3.67611
11.2656
11.4716
11.0462
10.6234
10.4951
10.5068
10.542
10.5759
10.5925
10.6015
10.6112
10.6239
10.6389
10.6555
10.6733
10.6924
10.7128
10.7345
10.7575
10.7818
10.8072
10.8337
10.8614
10.8901
10.9197
10.9502
10.9815
11.0135
11.046
11.079
11.1121
11.1454
11.1784
11.2111
11.2432
11.2743
11.3042
11.3324
11.3587
11.3828
11.4042
11.4228
11.4384
11.4512
11.4617
11.4711
11.4784
11.4932
1.63238
3.66356
11.2358
11.4625
11.0378
10.6126
10.4821
10.4931
10.527
10.56
10.5758
10.5841
10.593
10.6048
10.619
10.6346
10.6515
10.6696
10.6889
10.7094
10.731
10.7539
10.7777
10.8026
10.8284
10.8551
10.8826
10.9108
10.9396
10.9688
10.9983
11.028
11.0576
11.0869
11.1157
11.1437
11.1706
11.196
11.2196
11.2408
11.2594
11.2746
11.2863
11.294
11.2971
11.2964
11.293
11.2887
11.2847
11.2954
1.63148
3.65019
11.2039
11.4527
11.0287
10.6007
10.4675
10.4777
10.5101
10.542
10.557
10.5645
10.5725
10.5835
10.5967
10.6114
10.6272
10.6441
10.6622
10.6814
10.7017
10.7229
10.7451
10.7681
10.792
10.8165
10.8416
10.8672
10.8932
10.9193
10.9454
10.9714
10.997
11.0219
11.0458
11.0684
11.0892
11.1079
11.1239
11.1365
11.1453
11.1492
11.1476
11.1406
11.1257
11.1038
11.0759
11.0452
11.015
11.0113
1.63055
3.63617
11.1705
11.4422
11.0188
10.5874
10.4511
10.4604
10.4911
10.5218
10.536
10.5426
10.5498
10.5598
10.572
10.5857
10.6004
10.6161
10.6329
10.6506
10.6693
10.6889
10.7092
10.7303
10.7519
10.7741
10.7966
10.8193
10.8422
10.8649
10.8874
10.9092
10.9303
10.9502
10.9686
10.985
10.9989
11.0097
11.0168
11.0188
11.0159
11.0064
10.987
10.9579
10.9171
10.8628
10.7936
10.7116
10.6211
10.5657
1.62959
3.62177
11.1363
11.4311
11.008
10.5726
10.4324
10.4406
10.4691
10.4987
10.5121
10.518
10.5243
10.5333
10.5445
10.557
10.5706
10.585
10.6004
10.6167
10.6337
10.6515
10.6698
10.6887
10.708
10.7275
10.7472
10.7669
10.7864
10.8054
10.8237
10.8411
10.8572
10.8715
10.8837
10.8932
10.8994
10.9008
10.8981
10.8891
10.8705
10.8423
10.8015
10.7452
10.6684
10.5653
10.4273
10.2464
10.0126
9.75817
1.62881
3.60344
11.0957
11.4179
10.9943
10.5532
10.4076
10.4142
10.44
10.4682
10.4808
10.4857
10.4909
10.4986
10.5085
10.5197
10.5317
10.5446
10.5582
10.5725
10.5874
10.6029
10.6187
10.6349
10.6511
10.6674
10.6835
10.6993
10.7144
10.7287
10.7419
10.7535
10.7632
10.7705
10.7747
10.7746
10.7717
10.7629
10.7449
10.7181
10.6803
10.6282
10.5575
10.4614
10.3305
10.148
9.88502
9.47981
8.78146
7.25923
1.62801
3.58396
11.0526
11.4007
10.9752
10.5249
10.3713
10.376
10.3985
10.4259
10.4384
10.4428
10.4471
10.4537
10.4622
10.472
10.4825
10.4935
10.5051
10.5172
10.5297
10.5424
10.5553
10.5681
10.5808
10.5932
10.605
10.6161
10.6261
10.6347
10.6417
10.6465
10.6483
10.6473
10.6431
10.6332
10.6162
10.5917
10.558
10.5123
10.4518
10.3715
10.2651
10.1228
9.92971
9.66204
9.27819
8.70924
7.86691
6.48054
1.62755
3.57269
11.0277
11.3891
10.9597
10.4966
10.3322
10.3344
10.3532
10.3804
10.3929
10.3966
10.3997
10.405
10.4122
10.4205
10.4293
10.4385
10.448
10.4578
10.4677
10.4776
10.4874
10.4969
10.5059
10.5142
10.5216
10.5278
10.5326
10.5354
10.5356
10.5341
10.5293
10.519
10.5036
10.4822
10.4533
10.4151
10.3655
10.3015
10.219
10.1132
9.97585
9.79716
9.56181
9.2486
8.82832
8.26075
7.52886
6.55582
1.62692
3.56349
11.0044
11.3677
10.9316
10.4512
10.2772
10.2794
10.2997
10.3304
10.3443
10.3479
10.3501
10.3543
10.3605
10.3676
10.3749
10.3823
10.3897
10.3972
10.4045
10.4116
10.4183
10.4244
10.4297
10.434
10.437
10.4384
10.4379
10.4358
10.4306
10.4211
10.4077
10.3894
10.3652
10.334
10.294
10.2436
10.1802
10.1007
10.0013
9.87676
9.72028
9.52307
9.27398
8.95921
8.56413
8.07302
7.49262
6.76349
1.62762
3.59789
11.0658
11.365
10.9042
10.3855
10.2002
10.2055
10.2337
10.2715
10.288
10.2915
10.2932
10.2969
10.3025
10.3087
10.3147
10.3206
10.3263
10.3318
10.3368
10.3414
10.3452
10.3483
10.3502
10.3507
10.35
10.3477
10.3426
10.3344
10.323
10.3077
10.2878
10.2626
10.2307
10.1911
10.142
10.0817
10.0078
9.91751
9.80726
9.67269
9.50849
9.30833
9.06494
8.77056
8.41796
7.99996
7.51899
6.96789
1.5899
3.70839
11.0707
11.2738
10.8234
10.3041
10.1311
10.1412
10.1777
10.2176
10.2341
10.2379
10.2399
10.2435
10.2484
10.2533
10.2578
10.2618
10.2654
10.2685
10.271
10.2727
10.2735
10.2733
10.2722
10.2693
10.264
10.2568
10.247
10.2341
10.2176
10.197
10.1714
10.14
10.1017
10.0552
9.99924
9.93181
9.85099
9.75427
9.63876
9.50103
9.33722
9.143
8.91393
8.64555
8.33451
7.97816
7.57848
7.13078
1.55497
4.81579
11.2219
10.9525
10.3119
10.0548
10.0503
10.0769
10.1243
10.1508
10.1605
10.1647
10.169
10.174
10.1792
10.1837
10.1876
10.1907
10.1931
10.1947
10.1953
10.195
10.194
10.1916
10.1871
10.1811
10.1734
10.1633
10.1502
10.1337
10.1132
10.0882
10.058
10.0217
9.97851
9.92712
9.86632
9.79452
9.70994
9.61055
9.49406
9.35789
9.19932
9.01544
8.80356
8.56123
8.287
7.98086
7.64414
7.26961
1.55586
4.82279
11.1718
10.8834
10.2392
9.99981
10.0099
10.0523
10.1008
10.1225
10.1285
10.1311
10.1341
10.1373
10.1399
10.1415
10.1422
10.1421
10.1414
10.1396
10.1365
10.1326
10.1277
10.1214
10.1134
10.1035
10.0913
10.0766
10.059
10.0383
10.0139
9.98523
9.9515
9.91163
9.86467
9.8098
9.74578
9.67138
9.58521
9.48561
9.37085
9.23902
9.08823
8.91651
8.72225
8.50404
8.26116
7.99311
7.70619
7.39011
1.56602
4.8419
11.2344
10.9033
10.1829
9.92237
9.93741
9.99205
10.0494
10.0738
10.0802
10.0829
10.0863
10.0896
10.092
10.093
10.0928
10.0919
10.0895
10.0853
10.0802
10.0739
10.0662
10.0568
10.0456
10.0324
10.0168
9.99873
9.97775
9.95349
9.92528
9.89248
9.85453
9.81103
9.76124
9.70412
9.63874
9.56368
9.47773
9.37963
9.26823
9.14203
8.99988
8.84042
8.6627
8.46603
8.25072
8.01656
7.76743
7.49697
1.55634
4.8201
11.1585
10.8515
10.1589
9.89757
9.90959
9.95878
10.015
10.0392
10.0448
10.0463
10.0483
10.0502
10.0509
10.0505
10.0489
10.0455
10.0406
10.0347
10.0276
10.0192
10.0091
9.99725
9.98343
9.96743
9.94898
9.92789
9.90375
9.87626
9.84488
9.80919
9.76871
9.72274
9.67064
9.61149
9.54459
9.46912
9.38427
9.28896
9.18226
9.06291
8.92993
8.78249
8.62029
8.44329
8.25166
8.04481
7.82638
7.59162
1.52715
4.7625
10.9509
10.7268
10.1503
9.90216
9.90303
9.93236
9.98102
10.0043
10.0101
10.0108
10.0115
10.0117
10.0112
10.0096
10.0059
10.0008
9.99458
9.98718
9.97835
9.96796
9.95581
9.94181
9.9257
9.90741
9.88658
9.86307
9.83644
9.80646
9.77274
9.73484
9.69229
9.64452
9.59104
9.53117
9.46428
9.38964
9.30655
9.21417
9.11169
8.99857
8.87428
8.73836
8.59032
8.42985
8.25705
8.07408
7.88135
7.67534
1.51108
4.71699
10.8677
10.7319
10.2335
9.94076
9.88889
9.90721
9.94663
9.97073
9.97747
9.9772
9.97603
9.97372
9.97082
9.96699
9.96191
9.95554
9.94789
9.93891
9.92842
9.91633
9.90245
9.88672
9.86887
9.84879
9.82615
9.80082
9.77242
9.7407
9.70532
9.6659
9.62211
9.57343
9.51938
9.45946
9.39319
9.31999
9.2393
9.15049
9.05302
8.9464
8.83025
8.70423
8.56822
8.42233
8.26687
8.10253
7.93054
7.74793
1.66802
3.29222
10.5058
11.0124
10.5966
10.0767
9.88856
9.89251
9.91775
9.95081
9.96152
9.96036
9.9564
9.95005
9.94421
9.93828
9.93137
9.92311
9.91346
9.90238
9.88982
9.87561
9.85958
9.84178
9.82189
9.79975
9.77508
9.74774
9.71741
9.68388
9.64683
9.60593
9.56081
9.5111
9.45642
9.39641
9.33073
9.25893
9.18058
9.09524
9.00243
8.90183
8.7932
8.67629
8.55108
8.41773
8.27653
8.12798
7.97324
7.80984
1.67593
3.16857
10.4399
11.1642
10.7155
10.1117
9.86679
9.85392
9.87165
9.90383
9.91427
9.9124
9.90639
9.89704
9.88941
9.88288
9.87593
9.86772
9.85805
9.84691
9.83422
9.81988
9.80372
9.78557
9.7653
9.74272
9.71756
9.68968
9.65878
9.62471
9.58715
9.5459
9.50071
9.45129
9.3974
9.33861
9.27452
9.2048
9.12913
9.0471
8.95848
8.8631
8.76094
8.65213
8.53649
8.41409
8.28514
8.15008
8.00988
7.86241
1.64112
3.05403
9.91111
11.0081
10.6482
10.1093
9.88606
9.86517
9.87614
9.89446
9.89612
9.89217
9.88201
9.86865
9.85747
9.84777
9.83797
9.82721
9.81524
9.802
9.78743
9.7714
9.75372
9.73424
9.71276
9.68912
9.66312
9.63451
9.60303
9.56851
9.53075
9.48953
9.44459
9.39567
9.34249
9.28476
9.22221
9.15456
9.08159
9.00319
8.91925
8.82955
8.73389
8.63213
8.52417
8.41038
8.29158
8.16809
8.04039
7.90652
1.43587
4.5488
10.3353
10.5115
10.2191
9.92451
9.81654
9.81391
9.82219
9.83269
9.8326
9.82907
9.82002
9.80806
9.7978
9.78868
9.77918
9.76857
9.75666
9.74346
9.72891
9.71286
9.69514
9.67558
9.65406
9.63038
9.60441
9.57585
9.54457
9.51045
9.47326
9.43273
9.38866
9.34086
9.28908
9.2331
9.17271
9.10772
9.03796
8.9633
8.88361
8.79877
8.70873
8.61348
8.51344
8.40868
8.29911
8.18495
8.06719
7.94439
1.63346
3.00258
9.72602
10.8958
10.5811
10.0808
9.86128
9.82699
9.83234
9.83881
9.83605
9.8269
9.81021
9.79441
9.7808
9.76824
9.75541
9.74158
9.72655
9.71045
9.69326
9.67478
9.65481
9.63319
9.60975
9.58438
9.55689
9.52724
9.49527
9.46065
9.42319
9.38268
9.33897
9.2919
9.24125
9.18681
9.12837
9.0658
8.99895
8.92769
8.85194
8.77167
8.68687
8.59759
8.50397
8.40614
8.30424
8.19865
8.08999
7.97699
1.64232
2.93444
9.72736
11.0208
10.6396
10.0485
9.79125
9.75771
9.76786
9.78351
9.78243
9.77529
9.75933
9.74223
9.72839
9.71626
9.70401
9.69092
9.6768
9.66142
9.64466
9.62645
9.6067
9.58528
9.56209
9.53695
9.50973
9.48028
9.44846
9.4141
9.37704
9.33717
9.29429
9.24818
9.19871
9.14577
9.08924
9.02899
8.96491
8.89694
8.825
8.74903
8.66904
8.58509
8.49725
8.40566
8.31053
8.21232
8.11144
8.00664
1.64063
2.91514
9.67288
10.9993
10.6145
10.0084
9.74178
9.70664
9.71778
9.73611
9.73561
9.72936
9.71439
9.69679
9.68267
9.6706
9.65851
9.64545
9.63118
9.61563
9.59875
9.58045
9.56065
9.53921
9.51602
9.49094
9.46384
9.4346
9.40309
9.36917
9.33271
9.29358
9.25163
9.20671
9.1587
9.10749
9.05299
8.99513
8.93382
8.869
8.80061
8.72861
8.65304
8.57394
8.49144
8.40568
8.31672
8.22491
8.13072
8.03301
1.62626
2.92371
9.5048
10.8587
10.5489
9.99783
9.74218
9.69427
9.69897
9.70726
9.70494
9.6964
9.67918
9.66246
9.64814
9.63505
9.62183
9.60778
9.59267
9.57642
9.55897
9.5402
9.52
9.49825
9.47483
9.44962
9.42249
9.39334
9.36205
9.3285
9.29254
9.25407
9.21296
9.16914
9.12252
9.07303
9.02053
8.96495
8.90622
8.84431
8.77919
8.71084
8.63929
8.56458
8.48683
8.40614
8.32276
8.23677
8.1485
8.0569
1.39411
4.48148
10.0345
10.3038
10.0232
9.7356
9.62773
9.61858
9.62398
9.63056
9.62949
9.62428
9.61295
9.60024
9.58879
9.57794
9.56659
9.55414
9.54041
9.52535
9.50895
9.49111
9.47178
9.45087
9.42828
9.40389
9.37761
9.34933
9.31898
9.28646
9.25166
9.21448
9.17483
9.13264
9.08781
9.04028
8.98995
8.93675
8.88068
8.82169
8.75979
8.695
8.62732
8.55678
8.48341
8.40732
8.32872
8.24767
8.16453
8.07833
1.63149
2.94742
9.59213
10.842
10.4981
9.90921
9.63566
9.59327
9.60356
9.62401
9.6256
9.62093
9.60853
9.59121
9.57629
9.56317
9.54995
9.53569
9.52013
9.50323
9.4851
9.46558
9.44469
9.42243
9.39873
9.37346
9.34647
9.31766
9.28693
9.25416
9.21935
9.18247
9.14343
9.10213
9.05849
9.0124
8.96383
8.9127
8.85897
8.80255
8.74344
8.68163
8.61715
8.55007
8.48049
8.4085
8.33423
8.25775
8.1793
8.09795
1.64173
3.07696
9.86512
10.7739
10.3916
9.77963
9.51766
9.49748
9.5148
9.54761
9.55709
9.55442
9.54607
9.53184
9.51935
9.50848
9.49741
9.48512
9.47136
9.45623
9.43988
9.42225
9.40312
9.38238
9.35991
9.3357
9.30975
9.282
9.25238
9.22088
9.18741
9.15188
9.11421
9.07433
9.03219
8.98772
8.94089
8.89165
8.83998
8.78586
8.7293
8.67035
8.60901
8.54525
8.47914
8.41077
8.34023
8.26762
8.19317
8.11599
1.40425
4.5454
10.1032
10.1586
9.85296
9.54563
9.44608
9.45139
9.47077
9.49075
9.49649
9.49498
9.48994
9.48049
9.47116
9.4621
9.45233
9.44123
9.42865
9.41463
9.39919
9.38227
9.36381
9.34373
9.32199
9.29858
9.27346
9.24658
9.21788
9.18729
9.15483
9.12042
9.08403
9.04556
9.00499
8.96226
8.91733
8.87017
8.82076
8.76908
8.71512
8.65887
8.60038
8.53973
8.47694
8.41206
8.34517
8.2763
8.20563
8.13236
1.3882
4.55514
9.99957
10.0247
9.78302
9.55087
9.4685
9.46585
9.47202
9.48143
9.48312
9.48105
9.47511
9.46508
9.45478
9.44436
9.43316
9.42077
9.40709
9.39212
9.37586
9.35828
9.33933
9.31895
9.29707
9.27365
9.24865
9.222
9.1937
9.16368
9.13184
9.09814
9.06252
9.02493
8.98535
8.94372
8.90001
8.85416
8.80627
8.7564
8.7045
8.65051
8.59444
8.53631
8.47615
8.41398
8.34989
8.284
8.21647
8.14653
1.42136
4.56858
10.2115
10.1816
9.79782
9.4624
9.3692
9.38116
9.41237
9.43686
9.44379
9.44242
9.43782
9.42922
9.42027
9.41116
9.4012
9.38992
9.37717
9.36298
9.34734
9.33024
9.31167
9.29162
9.27007
9.24699
9.22233
9.19607
9.1682
9.13867
9.10742
9.07441
9.03958
9.00295
8.96451
8.92422
8.88208
8.83811
8.79219
8.74425
8.69431
8.64242
8.58861
8.53289
8.47528
8.41582
8.35458
8.2916
8.22698
8.15991
1.53222
3.35178
9.88756
10.7062
10.3186
9.67631
9.39237
9.36651
9.38415
9.42003
9.4342
9.43317
9.42853
9.41876
9.4083
9.39831
9.38786
9.37622
9.36314
9.34862
9.33272
9.31546
9.2968
9.27669
9.2551
9.23199
9.20726
9.18091
9.15304
9.12355
9.09239
9.05951
9.02497
8.98873
8.95078
8.91109
8.86967
8.82647
8.78149
8.7347
8.68613
8.63583
8.58367
8.52971
8.47403
8.4167
8.35776
8.29725
8.23528
8.17115
1.39657
4.5339
10.0651
10.0944
9.79142
9.46638
9.34439
9.34283
9.35423
9.3757
9.38453
9.38384
9.38033
9.37268
9.36373
9.35498
9.34579
9.33544
9.32365
9.3104
9.29574
9.27968
9.26218
9.24321
9.22274
9.20073
9.17716
9.15202
9.12535
9.09711
9.06728
9.03587
9.00284
8.96811
8.93166
8.89348
8.85356
8.81192
8.76853
8.7234
8.67652
8.62788
8.5776
8.52571
8.4722
8.41709
8.36043
8.30227
8.24274
8.1813
1.39396
4.53101
10.0477
10.0815
9.77484
9.447
9.3268
9.3271
9.33967
9.36243
9.37183
9.37095
9.3669
9.35832
9.34866
9.33918
9.32922
9.31811
9.30561
9.29173
9.27653
9.26002
9.24221
9.22306
9.20254
9.18064
9.15735
9.13266
9.10646
9.07869
9.04935
9.0184
8.98588
8.95179
8.91614
8.8789
8.84005
8.79956
8.75744
8.71369
8.6683
8.6213
8.5727
8.52254
8.47081
8.41754
8.36278
8.30656
8.24896
8.18951
1.5304
3.33978
9.84814
10.6871
10.301
9.6365
9.33261
9.29685
9.3134
9.3482
9.36342
9.36253
9.35797
9.34814
9.33733
9.32737
9.31732
9.30627
9.29385
9.28009
9.26498
9.24858
9.23084
9.21176
9.19129
9.16934
9.14608
9.12137
9.09517
9.06747
9.03826
9.00753
8.97531
8.9416
8.90638
8.86964
8.83137
8.79156
8.7502
8.70731
8.66289
8.61695
8.5695
8.52056
8.47015
8.41832
8.36507
8.31047
8.25463
8.19711
1.40798
4.54747
10.1175
10.0914
9.70616
9.35329
9.24309
9.25234
9.28162
9.31061
9.32022
9.31931
9.31542
9.30738
9.29873
9.29026
9.28123
9.27102
9.25945
9.24654
9.23232
9.21681
9.20001
9.18187
9.16239
9.14152
9.11929
9.09565
9.07059
9.04407
9.01608
8.98666
8.95579
8.92345
8.88961
8.85427
8.81743
8.77909
8.73927
8.69793
8.65505
8.61066
8.56477
8.5174
8.46859
8.41834
8.36668
8.3137
8.25947
8.2036
1.39293
4.55527
10.0066
9.98093
9.66812
9.38779
9.29929
9.3023
9.31447
9.32528
9.32584
9.32334
9.31675
9.30666
9.29664
9.28672
9.27621
9.26467
9.25198
9.23811
9.22309
9.2069
9.18954
9.17098
9.15118
9.13013
9.1078
9.08418
9.05924
9.03297
9.00537
8.97637
8.94596
8.91409
8.88079
8.84602
8.80978
8.77208
8.73292
8.69232
8.6503
8.60687
8.562
8.51572
8.46804
8.41896
8.36855
8.31679
8.26372
8.2089
1.38496
4.54758
9.95796
9.94668
9.65822
9.38653
9.29425
9.29356
9.29971
9.30743
9.30749
9.30524
9.2991
9.2892
9.27928
9.26948
9.25914
9.24784
9.23546
9.22198
9.2074
9.19168
9.17478
9.15668
9.13735
9.11677
9.09492
9.07178
9.04733
9.02155
8.99443
8.96593
8.93606
8.90479
8.87213
8.83807
8.80263
8.76578
8.72751
8.68783
8.64672
8.60419
8.56025
8.51493
8.46825
8.42028
8.37097
8.32029
8.26827
8.21446
1.37705
4.50902
9.91833
10.0307
9.7305
9.40266
9.28142
9.27739
9.28599
9.29834
9.30045
9.2981
9.29142
9.28038
9.26968
9.25954
9.24906
9.23766
9.22514
9.2115
9.19676
9.18089
9.16388
9.1457
9.12633
9.10576
9.08395
9.06091
9.03659
9.011
8.98412
8.95592
8.92639
8.89553
8.86332
8.82975
8.79482
8.75853
8.72086
8.68181
8.6414
8.59964
8.55654
8.51214
8.46638
8.41926
8.37083
8.32112
8.27018
8.21765
1.62609
2.9686
9.52048
10.617
10.2726
9.64683
9.33731
9.27145
9.27901
9.29721
9.30467
9.30241
9.29489
9.28052
9.26733
9.25602
9.24516
9.23362
9.22099
9.20722
9.19236
9.17642
9.1594
9.14125
9.12194
9.10144
9.07974
9.05681
9.03263
9.00719
8.98047
8.95246
8.92313
8.89249
8.86052
8.82721
8.79256
8.75656
8.71922
8.68054
8.64052
8.59918
8.55651
8.51254
8.46728
8.42074
8.37298
8.32408
8.27408
8.22269
1.63541
2.85328
9.48273
10.8207
10.4144
9.67619
9.30897
9.23096
9.24151
9.26747
9.28213
9.28092
9.2748
9.26143
9.24731
9.23574
9.22531
9.21439
9.20232
9.18902
9.17459
9.15908
9.14249
9.12479
9.10594
9.08591
9.0647
9.04228
9.01863
8.99373
8.96758
8.94015
8.91144
8.88143
8.85011
8.81748
8.78352
8.74824
8.71164
8.67371
8.63446
8.59389
8.55202
8.50882
8.46434
8.4186
8.37165
8.32352
8.2743
8.22373
1.62646
2.96173
9.50517
10.6075
10.2631
9.63071
9.31312
9.24545
9.25383
9.27444
9.28462
9.28274
9.2757
9.26131
9.24745
9.23574
9.22479
9.2133
9.20073
9.18705
9.17231
9.15655
9.13975
9.12189
9.10293
9.08284
9.0616
9.03919
9.01559
8.99078
8.96474
8.93745
8.90891
8.8791
8.84801
8.81563
8.78195
8.74697
8.71069
8.67309
8.6342
8.594
8.55252
8.50975
8.4657
8.42041
8.37389
8.32615
8.27726
8.22682
1.37402
4.50568
9.89895
10.0111
9.70667
9.36462
9.23594
9.23149
9.24101
9.25556
9.2587
9.25648
9.24998
9.23902
9.22842
9.21849
9.20831
9.19726
9.18514
9.17197
9.15776
9.14252
9.12624
9.10889
9.09043
9.07086
9.05014
9.02825
9.00518
8.98091
8.95543
8.9287
8.90073
8.8715
8.84099
8.8092
8.77612
8.74174
8.70606
8.66908
8.6308
8.59121
8.55032
8.50814
8.46469
8.41998
8.37401
8.32677
8.27827
8.22802
1.3798
4.54095
9.92352
9.90613
9.60647
9.32945
9.24156
9.24386
9.25456
9.26454
9.26478
9.2622
9.25526
9.24443
9.23383
9.22356
9.21286
9.20128
9.18869
9.1751
9.16052
9.14494
9.12834
9.11069
9.09196
9.07213
9.05118
9.02909
9.00584
8.98141
8.95579
8.92895
8.90089
8.87159
8.84103
8.80922
8.77614
8.74178
8.70614
8.66922
8.63102
8.59154
8.55078
8.50875
8.46547
8.42094
8.37519
8.32821
8.28003
8.23033
1.40399
4.56219
10.0539
9.98665
9.59151
9.27546
9.19263
9.20424
9.23396
9.25438
9.25695
9.2543
9.24729
9.23691
9.22697
9.21729
9.20703
9.19577
9.18344
9.17009
9.15573
9.14037
9.12397
9.10651
9.08798
9.06835
9.0476
9.0257
9.00265
8.97841
8.95299
8.92635
8.89848
8.86938
8.83902
8.8074
8.77452
8.74035
8.70491
8.66819
8.63018
8.59089
8.55032
8.50849
8.4654
8.42107
8.37551
8.32876
8.28085
8.23157
3.04362
2.45788
3.0024
4.17957
4.12567
4.10923
4.04844
4.01077
3.99784
4.00053
4.02805
4.07155
4.10862
4.13933
4.17333
4.21605
4.2677
4.32578
4.38742
4.45032
4.51274
4.57349
4.63206
4.68901
4.74
4.78538
4.82505
4.8595
4.88863
4.91268
4.93165
4.94575
4.95507
4.95984
4.96025
4.95862
4.95329
4.942
4.92654
4.90876
4.88873
4.86638
4.84184
4.81537
4.78724
4.75773
4.72707
4.69553
4.66333
4.63069
4.59782
4.56495
4.53226
4.49997
4.46827
4.43737
4.40745
4.37871
4.35136
4.32559
4.30159
4.27956
4.25966
4.24207
4.22695
4.21441
4.20456
4.19743
4.193
4.19128
4.19145
4.19242
4.19519
4.20142
4.21294
4.22582
4.23904
4.25248
4.26597
4.27922
4.29188
4.30363
4.3142
4.32341
4.33113
4.33732
4.34198
4.34514
4.34692
4.34749
4.34741
4.34702
4.34596
4.3436
4.33961
4.3352
4.33066
4.32597
4.32097
4.31663
4.09594
3.55346
3.75587
4.23398
4.15151
4.095
4.03582
3.99549
3.98376
3.9959
4.03688
4.08721
4.11897
4.14095
4.17001
4.21093
4.2622
4.32021
4.38172
4.44452
4.50686
4.56774
4.62659
4.68328
4.73434
4.77972
4.81953
4.85409
4.88337
4.90755
4.92663
4.94084
4.95023
4.95503
4.95525
4.95407
4.94981
4.93981
4.92283
4.90442
4.88455
4.86253
4.83824
4.81194
4.78393
4.75453
4.72399
4.69256
4.66046
4.62792
4.59515
4.56236
4.52975
4.49753
4.46589
4.43504
4.40517
4.37648
4.34916
4.32342
4.29944
4.27742
4.25755
4.23998
4.22489
4.21239
4.20261
4.19557
4.19134
4.19012
4.19037
4.19142
4.19423
4.20038
4.21191
4.22507
4.23867
4.25239
4.26609
4.27951
4.29231
4.30418
4.31484
4.32412
4.33187
4.33807
4.34271
4.34583
4.34756
4.34804
4.34795
4.34755
4.34649
4.34417
4.34005
4.33551
4.3309
4.32628
4.32151
4.31879
5.2253
4.46414
4.23563
4.26743
4.24825
4.19587
4.114
4.06108
4.04095
4.04338
4.05578
4.0849
4.12018
4.15158
4.18471
4.22538
4.27434
4.3299
4.38927
4.4502
4.51097
4.57044
4.62776
4.6823
4.73251
4.77738
4.81677
4.85085
4.8797
4.90346
4.92219
4.93602
4.94506
4.94943
4.94935
4.94826
4.94462
4.93599
4.91871
4.89931
4.87883
4.8567
4.83254
4.80638
4.7785
4.74921
4.71877
4.68745
4.65547
4.62305
4.5904
4.55772
4.52523
4.49311
4.46157
4.43081
4.40103
4.37242
4.34519
4.31952
4.29562
4.27368
4.25388
4.2364
4.2214
4.20903
4.19941
4.19264
4.18882
4.18827
4.1886
4.18978
4.19275
4.19908
4.21055
4.22395
4.23804
4.2523
4.26645
4.28022
4.29331
4.3054
4.31623
4.3256
4.33341
4.33961
4.34419
4.34722
4.34887
4.34914
4.34901
4.34854
4.34738
4.3449
4.3407
4.33601
4.33128
4.32672
4.32214
4.32114
5.82873
5.09559
4.66284
4.46628
4.42751
4.36184
4.26973
4.1894
4.13752
4.11709
4.11937
4.13036
4.15641
4.19341
4.22697
4.26187
4.30273
4.35046
4.40351
4.45958
4.51664
4.57318
4.62797
4.6803
4.72874
4.77252
4.81112
4.84445
4.87261
4.89576
4.91393
4.92725
4.93582
4.93962
4.93945
4.93832
4.93495
4.92717
4.91128
4.89117
4.86981
4.84724
4.82306
4.79711
4.7695
4.74048
4.71031
4.67924
4.64752
4.61535
4.58294
4.55051
4.51824
4.48635
4.45503
4.42448
4.3949
4.36649
4.33945
4.31398
4.29026
4.2685
4.24888
4.23159
4.2168
4.20466
4.19531
4.18894
4.18575
4.18578
4.18623
4.18766
4.191
4.19794
4.2092
4.22265
4.2372
4.25211
4.26689
4.28116
4.29462
4.30698
4.31799
4.32747
4.33532
4.3415
4.34602
4.34897
4.35043
4.35043
4.35025
4.34966
4.34829
4.34546
4.34125
4.33651
4.33168
4.32714
4.3228
4.32289
6.23175
5.59672
5.12208
4.83289
4.6841
4.57127
4.45999
4.35855
4.28106
4.23352
4.21364
4.21457
4.22083
4.23718
4.26969
4.30249
4.33876
4.38005
4.42619
4.47594
4.52775
4.58006
4.63142
4.68068
4.7268
4.76884
4.80618
4.83837
4.86553
4.88785
4.90523
4.91782
4.92574
4.92877
4.92851
4.92726
4.9239
4.91646
4.90141
4.88165
4.85985
4.83672
4.81224
4.7863
4.7589
4.73016
4.7003
4.66956
4.63814
4.60628
4.57418
4.54205
4.51008
4.47849
4.44746
4.41721
4.38793
4.35981
4.33306
4.30788
4.28446
4.26299
4.24367
4.22668
4.21222
4.20043
4.19154
4.18568
4.18325
4.18339
4.18409
4.18591
4.18984
4.19772
4.20871
4.22203
4.23683
4.25226
4.26763
4.28242
4.29626
4.30887
4.32003
4.32959
4.33745
4.34358
4.34802
4.35085
4.35198
4.35191
4.35159
4.35077
4.34901
4.34582
4.34164
4.33691
4.332
4.32747
4.32347
4.32378
6.53882
6.00369
5.54903
5.20523
4.97225
4.80591
4.66891
4.54973
4.45169
4.37958
4.33425
4.31233
4.3121
4.31528
4.32595
4.34909
4.38144
4.41742
4.45619
4.4981
4.54275
4.58902
4.63543
4.68072
4.72373
4.76344
4.79903
4.82997
4.85609
4.87746
4.89392
4.90575
4.91301
4.91525
4.91492
4.91357
4.91012
4.90271
4.88811
4.86918
4.84751
4.82406
4.79926
4.77322
4.74595
4.71752
4.68806
4.65773
4.62674
4.59529
4.5636
4.53188
4.50033
4.46916
4.43856
4.40873
4.37988
4.3522
4.32589
4.30114
4.27816
4.25714
4.23827
4.22172
4.20774
4.19649
4.18816
4.18284
4.18122
4.18146
4.18238
4.18463
4.18935
4.19785
4.20895
4.22221
4.23704
4.25269
4.2684
4.28355
4.29769
4.3105
4.32177
4.33135
4.33919
4.34528
4.34964
4.3523
4.35307
4.35295
4.35251
4.35147
4.3493
4.34589
4.34164
4.33689
4.33196
4.32746
4.32372
4.32413
6.78305
6.3325
5.91489
5.55577
5.27518
5.06347
4.8958
4.7559
4.63885
4.54538
4.47669
4.43192
4.40842
4.40255
4.40417
4.41085
4.4266
4.45505
4.48682
4.52208
4.56008
4.59995
4.64065
4.6812
4.7205
4.75739
4.7909
4.82033
4.84529
4.86564
4.88133
4.89239
4.89892
4.90039
4.89999
4.89852
4.8949
4.88727
4.87313
4.85489
4.83361
4.81019
4.78525
4.75913
4.73197
4.70381
4.67474
4.64487
4.61437
4.58341
4.55223
4.52101
4.48996
4.45931
4.42923
4.39995
4.37164
4.34452
4.31877
4.2946
4.27221
4.25179
4.23351
4.21763
4.20425
4.19359
4.18586
4.18114
4.18037
4.1807
4.18182
4.18447
4.18998
4.19905
4.21041
4.22364
4.23833
4.25389
4.26958
4.2848
4.29902
4.3119
4.3232
4.33278
4.34059
4.3466
4.35082
4.35332
4.35378