/*--------------------------------*- C++ -*----------------------------------*\
| =========                 |                                                 |
| \\      /  F ield         | OpenFOAM: The Open Source CFD Toolbox           |
|  \\    /   O peration     | Version:  2412                                  |
|   \\  /    A nd           | Website:  www.openfoam.com                      |
|    \\/     M anipulation  |                                                 |
\*---------------------------------------------------------------------------*/
FoamFile
{
    version     2.0;
    format      ascii;
    arch        "LSB;label=32;scalar=64";
    class       surfaceScalarField;
    location    "19.5";
    object      phi;
}
// * * * * * * * * * * * * * * * * * * * * * * * * * * * * * * * * * * * * * //

dimensions      [1 0 -1 0 0 0 0];

oriented        oriented;

internalField   nonuniform List<scalar> 
13790
(
0.00292375
-1.97166e-07
0.00274462
9.30934e-07
0.00280401
3.25348e-06
0.00280526
5.58929e-06
0.00279923
6.47642e-06
0.00279209
7.16833e-06
0.00278414
7.96105e-06
0.00277522
8.91117e-06
0.00276523
9.99889e-06
0.00275399
1.12434e-05
0.00274141
1.25756e-05
0.00272745
1.39569e-05
0.00271207
1.53897e-05
0.00269518
1.6891e-05
0.0026767
1.84733e-05
0.00265656
2.01424e-05
0.00263466
2.19014e-05
0.00261091
2.3755e-05
0.0025852
2.57091e-05
0.00255743
2.77712e-05
0.00252748
2.99494e-05
0.00249523
3.22524e-05
0.00246054
3.46894e-05
0.00242327
3.72705e-05
0.00238326
4.00057e-05
0.00234036
4.29061e-05
0.00229438
4.59825e-05
0.00224513
4.9246e-05
0.00219242
5.27073e-05
0.00213605
5.63762e-05
0.00207579
6.02621e-05
0.00201142
6.43714e-05
0.00194271
6.87094e-05
0.00186943
7.32759e-05
0.00179136
7.8069e-05
0.00170829
8.30765e-05
0.00162001
8.82844e-05
0.00152634
9.3662e-05
0.00142717
9.91767e-05
0.0013224
0.000104772
0.00121201
0.000110392
0.00109606
0.000115946
0.000974707
0.000121356
0.000848209
0.000126499
0.000716916
0.000131293
0.000581309
0.000135608
0.000441836
0.000139474
0.000299161
0.000142674
0.000152278
0.000146883
0.000152278
0.00303217
2.04148e-08
0.00284629
8.42455e-07
0.00290648
8.61679e-06
0.0029078
1.12918e-05
0.00290193
1.28146e-05
0.00289475
1.43818e-05
0.00288656
1.61549e-05
0.00287732
1.81577e-05
0.00286692
2.03975e-05
0.00285525
2.29135e-05
0.00284222
2.56059e-05
0.00282777
2.84113e-05
0.00281183
3.133e-05
0.00279433
3.43906e-05
0.00277519
3.76141e-05
0.00275432
4.10136e-05
0.00273163
4.45953e-05
0.00270701
4.83702e-05
0.00268037
5.23491e-05
0.00265159
5.65488e-05
0.00262056
6.09839e-05
0.00258714
6.56741e-05
0.00255119
7.06364e-05
0.00251257
7.58928e-05
0.00247112
8.14626e-05
0.00242665
8.73698e-05
0.002379
9.3635e-05
0.00232797
0.000100282
0.00227334
0.000107332
0.00221491
0.000114807
0.00215245
0.000122724
0.00208572
0.000131097
0.0020145
0.00013994
0.00193852
0.000149248
0.00185757
0.000159024
0.00177141
0.000169238
0.00167983
0.000179868
0.00158264
0.000190847
0.00147971
0.000202116
0.00137092
0.000213555
0.00125626
0.000225056
0.00113578
0.000236433
0.0010096
0.000247528
0.000878008
0.000258097
0.000741357
0.000267945
0.00060011
0.000276855
0.000454841
0.000284744
0.000306087
0.000291428
0.000154199
0.00029877
0.000306478
0.00314488
9.21434e-08
0.00295181
1.21232e-06
0.00301443
1.38901e-05
0.00301571
1.72801e-05
0.00300972
1.93007e-05
0.00300241
2.17287e-05
0.00299398
2.4579e-05
0.00298443
2.77106e-05
0.00297367
3.11636e-05
0.00296158
3.49972e-05
0.0029481
3.90894e-05
0.00293315
4.33602e-05
0.00291666
4.78202e-05
0.00289856
5.24948e-05
0.00287875
5.74226e-05
0.00285716
6.26107e-05
0.00283367
6.80833e-05
0.0028082
7.38426e-05
0.00278063
7.99221e-05
0.00275085
8.6329e-05
0.00271873
9.31056e-05
0.00268414
0.00010026
0.00264694
0.000107842
0.00260697
0.00011586
0.00256406
0.000124371
0.00251805
0.000133381
0.00246873
0.000142956
0.00241592
0.000153097
0.00235938
0.000163874
0.0022989
0.00017528
0.00223424
0.000187386
0.00216517
0.00020017
0.00209141
0.000213696
0.00201274
0.000227919
0.00192889
0.000242881
0.00183962
0.000258505
0.0017447
0.000274786
0.00164394
0.000291607
0.00153718
0.000308885
0.00142428
0.00032645
0.00130524
0.000344102
0.00118004
0.000361633
0.00104889
0.000378681
0.00091194
0.000395044
0.000769662
0.000410224
0.000622491
0.000424027
0.000471052
0.000436184
0.000316164
0.000446315
0.000158592
0.000456342
0.00046507
0.00326181
1.16175e-07
0.00306156
1.66976e-06
0.00312674
1.90927e-05
0.00312807
2.34728e-05
0.00312189
2.59942e-05
0.00311441
2.92469e-05
0.00310578
3.3211e-05
0.00309595
3.7546e-05
0.00308483
4.22827e-05
0.00307235
4.74819e-05
0.00305843
5.30095e-05
0.00304299
5.87956e-05
0.00302597
6.4844e-05
0.00300727
7.11957e-05
0.00298681
7.78809e-05
0.0029645
8.49268e-05
0.00294024
9.2346e-05
0.00291391
0.000100166
0.00288543
0.000108406
0.00285465
0.000117106
0.00282147
0.000126289
0.00278573
0.000136005
0.00274729
0.000146276
0.00270599
0.000157166
0.00266167
0.000168693
0.00261411
0.000180936
0.00256317
0.000193902
0.00250858
0.000207686
0.00245017
0.00022228
0.00238766
0.000237793
0.00232086
0.000254189
0.00224944
0.00027159
0.00217322
0.000289917
0.00209184
0.000309297
0.00200514
0.000329586
0.00191274
0.000350902
0.00181452
0.000373012
0.00171013
0.000395996
0.0015995
0.000419512
0.0014824
0.000443551
0.00135883
0.000467674
0.00122879
0.000491673
0.00109236
0.000515119
0.000949923
0.000537479
0.000801611
0.000558536
0.000648235
0.000577404
0.000490304
0.000594116
0.000328667
0.00060795
0.000164759
0.00062025
0.00062983
0.00338305
1.39595e-07
0.00317539
2.15914e-06
0.00324315
2.43221e-05
0.0032446
2.97975e-05
0.00323828
3.28615e-05
0.00323062
3.69447e-05
0.00322182
4.20228e-05
0.00321171
4.76526e-05
0.00320026
5.37329e-05
0.0031874
6.0342e-05
0.00317307
6.7344e-05
0.00315717
7.46957e-05
0.00313963
8.23811e-05
0.00312036
9.04699e-05
0.00309927
9.89675e-05
0.00307626
0.000107936
0.00305125
0.000117361
0.0030241
0.000127312
0.00299473
0.000137778
0.002963
0.000148845
0.00292878
0.000160508
0.00289192
0.000172865
0.00285228
0.000185911
0.00280969
0.000199758
0.00276398
0.000214405
0.00271495
0.000229968
0.0026624
0.000246452
0.00260612
0.000263971
0.00254586
0.000282539
0.0024814
0.000302253
0.00241245
0.000323138
0.00233879
0.000345252
0.00226008
0.000368632
0.00217611
0.000393266
0.00208649
0.0004192
0.00199109
0.000446307
0.00188945
0.000474648
0.00178155
0.000503904
0.00166691
0.000534154
0.00154564
0.000564818
0.00141735
0.000595965
0.0012823
0.000626727
0.00114039
0.000657031
0.000991911
0.000685957
0.00083746
0.000712989
0.000677144
0.00073772
0.000512228
0.000759032
0.000343474
0.000776703
0.000172034
0.000791691
0.000801864
0.00350881
1.63311e-07
0.00329346
2.65492e-06
0.00336391
2.95954e-05
0.00336552
3.6225e-05
0.00335907
3.98894e-05
0.00335125
4.48052e-05
0.0033422
5.10753e-05
0.00333189
5.796e-05
0.00332017
6.54528e-05
0.00330698
7.35324e-05
0.00329225
8.20815e-05
0.00327591
9.1029e-05
0.00325787
0.000100424
0.00323806
0.000110282
0.00321635
0.000120676
0.00319269
0.000131598
0.00316693
0.000143122
0.00313901
0.000155233
0.00310876
0.000168028
0.00307612
0.000181492
0.00304088
0.000195749
0.00300297
0.000210776
0.00296215
0.000226726
0.00291835
0.000243562
0.00287129
0.00026147
0.00282086
0.000280394
0.00276676
0.000300553
0.00270887
0.000321865
0.00264683
0.000344577
0.0025805
0.000368581
0.00250951
0.000394134
0.00243366
0.000421099
0.00235258
0.000449715
0.00226603
0.000479815
0.00217365
0.000511576
0.00207516
0.000544802
0.00197028
0.000579532
0.00185864
0.000615545
0.00174015
0.000652639
0.00161438
0.000690592
0.00148153
0.000728812
0.00134107
0.000767189
0.00119356
0.000804544
0.00103875
0.000840772
0.000877298
0.000874439
0.000709973
0.000905046
0.000537033
0.000931973
0.000360121
0.000953614
0.000180622
0.00097119
0.000982486
0.00363925
1.87367e-07
0.00341591
3.15249e-06
0.00348917
3.49079e-05
0.00349098
4.27301e-05
0.00348445
4.70281e-05
0.00347649
5.28055e-05
0.00346729
6.02756e-05
0.00345676
6.84906e-05
0.00344479
7.74287e-05
0.00343128
8.70414e-05
0.00341619
9.71737e-05
0.00339943
0.000107786
0.00338093
0.000118923
0.00336059
0.000130629
0.00333831
0.000142951
0.003314
0.000155917
0.00328755
0.000169566
0.00325885
0.000183937
0.0032278
0.000199082
0.00319423
0.000215058
0.00315806
0.000231923
0.00311908
0.000249755
0.00307719
0.000268612
0.00303216
0.000288597
0.00298387
0.000309758
0.00293204
0.000332233
0.00287654
0.000356046
0.00281703
0.000381376
0.00275341
0.000408207
0.00268522
0.000436765
0.00261239
0.000466969
0.0025344
0.000499091
0.00245115
0.000532961
0.00236209
0.000568874
0.00226711
0.000606557
0.00216566
0.000646261
0.00205757
0.000687615
0.00194239
0.000730734
0.00181989
0.00077514
0.0016898
0.000820678
0.00155183
0.000866784
0.00140621
0.000912814
0.00125241
0.000958343
0.00109119
0.001002
0.000922291
0.00104334
0.000746698
0.00108064
0.000565538
0.00111313
0.000379438
0.00113971
0.000190149
0.00116048
0.00117264
0.00377454
2.11576e-07
0.00354291
3.64915e-06
0.00361912
4.02426e-05
0.00362116
4.92835e-05
0.00361459
5.42386e-05
0.00360653
6.09068e-05
0.00359722
6.95946e-05
0.00358652
7.91908e-05
0.00357432
8.96275e-05
0.00356054
0.000100818
0.00354513
0.000112587
0.00352801
0.000124913
0.00350908
0.000137849
0.00348826
0.000151453
0.00346544
0.000165765
0.00344054
0.000180823
0.00341344
0.000196665
0.00338404
0.000213344
0.00335221
0.000230914
0.00331782
0.000249445
0.00328074
0.000269007
0.00324081
0.000289682
0.00319787
0.000311553
0.00315175
0.000334716
0.00310224
0.000359267
0.00304917
0.000385307
0.00299226
0.000412953
0.00293134
0.000442296
0.00286607
0.000473479
0.00279628
0.00050656
0.00272153
0.000541715
0.00264169
0.000578934
0.00255621
0.000618443
0.00246499
0.000660098
0.00236736
0.00070418
0.00226327
0.000750357
0.00215199
0.000798892
0.00203347
0.000849257
0.00190705
0.000901566
0.00177262
0.000955107
0.00162977
0.00100963
0.00147827
0.00106432
0.00131842
0.0011182
0.00114975
0.00117067
0.000973223
0.00121986
0.000788851
0.00126501
0.000597621
0.00130437
0.00040135
0.00133598
0.000201557
0.00136027
0.00137419
0.00391489
2.35799e-07
0.00367461
4.14162e-06
0.00375394
4.55694e-05
0.00375626
5.58473e-05
0.00374969
6.14826e-05
0.00374159
6.90618e-05
0.00373217
7.90169e-05
0.00372136
8.99973e-05
0.00370901
0.000101985
0.00369501
0.000114813
0.00367932
0.000128275
0.00366187
0.000142366
0.00364257
0.000157156
0.00362131
0.000172708
0.00359801
0.000189066
0.00357257
0.000206268
0.00354487
0.000224361
0.00351482
0.000243399
0.00348228
0.000263452
0.00344713
0.000284594
0.00340923
0.000306909
0.00336842
0.000330488
0.00332455
0.00035543
0.00327742
0.000381843
0.00322685
0.000409837
0.00317262
0.000439537
0.00311451
0.000471062
0.00305226
0.000504549
0.00298562
0.000540117
0.00291427
0.000577912
0.00283795
0.000618037
0.00275624
0.000660646
0.00266891
0.000705776
0.0025754
0.000753605
0.00247556
0.000804021
0.00236867
0.000857249
0.00225466
0.00091291
0.00213265
0.000971263
0.00200267
0.00103155
0.00186382
0.00109396
0.00171614
0.00115731
0.00155902
0.00122144
0.00139231
0.00128491
0.00121644
0.00134654
0.0010308
0.00140549
0.000836916
0.0014589
0.000635282
0.001506
0.000427023
0.00154424
0.000214244
0.00157305
0.00158844
0.00406046
2.59689e-07
0.00381121
4.6259e-06
0.00389383
5.08413e-05
0.00389648
6.23702e-05
0.00388999
6.87e-05
0.00388188
7.72189e-05
0.00387247
8.84361e-05
0.00386158
0.000100883
0.00384911
0.000114461
0.00383495
0.000128971
0.00381905
0.000144177
0.00380133
0.000160089
0.0037817
0.000176783
0.00376007
0.00019434
0.00373635
0.000212792
0.00371042
0.000232195
0.0036822
0.000252583
0.00365156
0.000274037
0.0036184
0.000296616
0.00358257
0.000320424
0.00354395
0.000345536
0.00350236
0.000372076
0.00345765
0.000400135
0.00340964
0.000429856
0.00335813
0.000461346
0.00330291
0.000494767
0.00324373
0.000530236
0.00318035
0.000567932
0.00311249
0.000607977
0.00303985
0.000650556
0.0029621
0.000695789
0.00287889
0.000743852
0.00278983
0.000794839
0.00269454
0.000848893
0.00259251
0.000906054
0.0024834
0.000966364
0.00236651
0.0010298
0.00224162
0.00109615
0.00210782
0.00116535
0.00196506
0.00123672
0.00181225
0.00131011
0.00164958
0.00138411
0.00147608
0.00145842
0.0012919
0.00153073
0.00109757
0.00159983
0.000892406
0.00166407
0.00067831
0.0017201
0.000456717
0.00176583
0.000229854
0.00179991
0.00181829
0.00421146
2.83008e-07
0.00395287
5.09601e-06
0.004039
5.59957e-05
0.00404206
6.87881e-05
0.00403569
7.58464e-05
0.00402765
8.53053e-05
0.00401824
9.78495e-05
0.00400739
0.000111728
0.00399491
0.000126951
0.00398067
0.000143211
0.00396462
0.000160229
0.0039467
0.000178011
0.00392681
0.000196669
0.00390488
0.000216273
0.00388079
0.000236878
0.00385447
0.000258518
0.0038258
0.000281258
0.00379467
0.00030516
0.00376097
0.000330321
0.00372457
0.000356824
0.00368532
0.000384786
0.00364309
0.000414314
0.00359768
0.000445542
0.00354894
0.0004786
0.00349665
0.000513639
0.0034406
0.000550814
0.00338055
0.000590286
0.00331625
0.000632235
0.0032474
0.000676824
0.0031737
0.000724254
0.00309482
0.000774678
0.00301036
0.000828307
0.00291995
0.000885257
0.00282311
0.000945733
0.00271939
0.00100977
0.00260823
0.00107753
0.00248913
0.0011489
0.00236137
0.00122391
0.0022245
0.00130223
0.0020776
0.00138362
0.00192036
0.00146736
0.00175168
0.00155279
0.00157158
0.00163852
0.00137893
0.00172338
0.00117401
0.00180475
0.000957727
0.00188035
0.000729832
0.00194799
0.000492301
0.00200336
0.000247507
0.00204471
0.0020658
0.00436808
3.03937e-07
0.0040998
5.54685e-06
0.00418967
6.09324e-05
0.00419323
7.50236e-05
0.00418706
8.28451e-05
0.00417919
9.32273e-05
0.00416996
0.000107081
0.00415919
0.000122495
0.00414674
0.000139409
0.00413248
0.000157469
0.00411637
0.000176343
0.00409832
0.000196063
0.00407826
0.000216724
0.0040561
0.000238439
0.00403175
0.000261226
0.0040051
0.000285165
0.00397609
0.000310277
0.00394456
0.000336685
0.00391045
0.000364437
0.00387358
0.000393691
0.00383386
0.000424507
0.0037911
0.000457076
0.00374517
0.000491471
0.00369585
0.000527919
0.00364299
0.000566504
0.00358632
0.000607487
0.00352564
0.000650961
0.00346066
0.00069722
0.00339112
0.000746365
0.00331666
0.000798713
0.00323697
0.000854366
0.00315163
0.000913648
0.00306024
0.000976655
0.0029623
0.00104367
0.00285728
0.00111479
0.00274464
0.00119017
0.00262366
0.00126988
0.00249376
0.00135381
0.002354
0.00144199
0.0022038
0.00153382
0.00204197
0.00162919
0.00186806
0.0017267
0.00168078
0.00182581
0.00147992
0.00192424
0.00126437
0.0020203
0.00103402
0.0021107
0.000790443
0.00219157
0.000534726
0.00225908
0.000270102
0.00230933
0.0023359
0.00453056
3.17046e-07
0.00425218
5.98275e-06
0.00434609
6.55042e-05
0.00435023
8.10034e-05
0.0043443
8.96527e-05
0.00433675
0.000100834
0.00432775
0.000116088
0.00431721
0.000133033
0.00430492
0.000151698
0.00429076
0.000171632
0.00427466
0.000192442
0.00425659
0.000214143
0.00423644
0.000236874
0.00421415
0.000260729
0.00418961
0.00028576
0.00416277
0.000312013
0.00413349
0.000339553
0.00410171
0.000368469
0.00406728
0.000398865
0.00403012
0.000430857
0.00399005
0.000464575
0.00394697
0.000500161
0.00390067
0.000537771
0.00385102
0.000577573
0.00379777
0.00061975
0.00374076
0.000664496
0.0036797
0.000712023
0.00361438
0.000762544
0.00354444
0.000816304
0.00346963
0.000873525
0.00338951
0.000934487
0.00330376
0.0009994
0.00321184
0.00106858
0.00311334
0.00114218
0.00300759
0.00122054
0.00289405
0.0013037
0.00277192
0.00139202
0.00264045
0.00148528
0.00249871
0.00158373
0.00234562
0.0016869
0.0021803
0.00179451
0.00200113
0.00190588
0.00180747
0.00201946
0.00159748
0.00213423
0.00137093
0.00224685
0.00112698
0.00235465
0.000865195
0.00245336
0.000587459
0.00253681
0.000296629
0.00260016
0.00263253
0.0046991
3.26983e-07
0.0044102
6.38565e-06
0.00450837
6.96891e-05
0.00451324
8.65622e-05
0.0045078
9.60326e-05
0.00450069
0.000108018
0.00449208
0.000124699
0.00448187
0.000143243
0.00446985
0.000163722
0.00445587
0.000185612
0.0044399
0.00020841
0.00442189
0.000232162
0.00440176
0.000257
0.00437943
0.000283057
0.00435484
0.000310351
0.00432789
0.000338967
0.00429851
0.000368938
0.00426657
0.000400403
0.00423201
0.000433427
0.00419468
0.000468191
0.00415447
0.000504779
0.00411123
0.00054341
0.00406481
0.000584185
0.00401502
0.000627364
0.0039617
0.00067307
0.0039046
0.000721597
0.00384353
0.000773101
0.00377817
0.000827901
0.00370828
0.000886194
0.0036335
0.000948309
0.00355348
0.0010145
0.0034678
0.00108508
0.00337599
0.00116038
0.00327753
0.00124064
0.0031718
0.00132627
0.0030581
0.0014174
0.00293567
0.00151445
0.00280352
0.00161744
0.00266069
0.00172656
0.00250586
0.00184173
0.00233775
0.00196262
0.00215485
0.00208878
0.00195513
0.00221918
0.00173734
0.00235202
0.00149873
0.00248546
0.0012386
0.00261478
0.000956586
0.00273537
0.000653271
0.00284013
0.000332519
0.00292091
0.00296505
0.00487394
3.46666e-07
0.00457409
6.70811e-06
0.00467665
7.35545e-05
0.00468249
9.14448e-05
0.00467793
0.000101622
0.00467136
0.000114664
0.00466332
0.000132743
0.0046536
0.000152963
0.00464194
0.000175388
0.00462826
0.000199286
0.00461253
0.000224141
0.0045947
0.000249999
0.00457469
0.000277004
0.00455246
0.000305294
0.00452792
0.000334894
0.004501
0.000365883
0.00447163
0.000398313
0.00443972
0.000432312
0.00440517
0.000467983
0.00436788
0.00050548
0.00432771
0.00054495
0.00428456
0.00058656
0.00423823
0.00063051
0.00418863
0.000676971
0.00413549
0.000726214
0.00407869
0.000778399
0.0040179
0.000833887
0.00395299
0.000892813
0.00388354
0.000955646
0.00380936
0.00102249
0.00372995
0.00109392
0.00364504
0.00117
0.003554
0.00125142
0.00345642
0.00133823
0.00335156
0.00143113
0.00323874
0.00153023
0.00311708
0.00163611
0.00298551
0.001749
0.00284289
0.00186918
0.00268772
0.0019969
0.00251831
0.00213203
0.00233273
0.00227436
0.00212878
0.00242314
0.00190364
0.00257717
0.00165514
0.00273396
0.00137938
0.00289054
0.00107442
0.00304033
0.000739548
0.003175
0.000377696
0.00328276
0.00334275
0.00505529
3.61119e-07
0.00474407
6.97064e-06
0.00485157
7.67008e-05
0.00485855
9.55052e-05
0.00485494
0.000106352
0.00484921
0.000120471
0.0048419
0.000140064
0.00483283
0.000162029
0.00482173
0.00018649
0.00480851
0.0002125
0.00479314
0.000239518
0.0047756
0.000267534
0.00475584
0.000296773
0.00473382
0.000327315
0.00470944
0.000359265
0.00468271
0.00039262
0.00465349
0.000427532
0.00462177
0.000464033
0.0045874
0.000502351
0.00455035
0.000542531
0.00451045
0.000584858
0.00446762
0.000629383
0.00442169
0.00067645
0.00437254
0.000726122
0.00431995
0.000778802
0.00426377
0.000834575
0.00420377
0.000893895
0.00413969
0.000956891
0.00407129
0.00102405
0.0039982
0.00109558
0.00392015
0.00117196
0.0038366
0.00125355
0.00374727
0.00134076
0.00365137
0.00143413
0.00354851
0.00153399
0.00343766
0.00164108
0.00331816
0.00175562
0.00318872
0.00187844
0.00304811
0.0020098
0.00289468
0.00215033
0.0027264
0.00230032
0.00254074
0.00246002
0.00233472
0.00262916
0.00210495
0.00280694
0.00184633
0.00299258
0.00155516
0.00318172
0.00122622
0.00336927
0.000855742
0.00354548
0.000444108
0.00369439
0.00378686
0.00524339
3.69286e-07
0.0049204
7.14368e-06
0.0050333
7.88406e-05
0.00504175
9.84116e-05
0.00503939
0.00010993
0.00503478
0.000125163
0.00502842
0.000146431
0.0050202
0.000170244
0.00500984
0.000196851
0.00499722
0.000225129
0.00498233
0.000254407
0.00496519
0.000284667
0.0049458
0.000316173
0.0049241
0.000349013
0.00490006
0.000383308
0.00487362
0.000419055
0.00484475
0.000456404
0.00481337
0.000495416
0.00477942
0.000536299
0.0047428
0.000579155
0.00470344
0.000624219
0.00466118
0.000671637
0.00461597
0.000721663
0.00456759
0.000774506
0.00451596
0.000830428
0.00446082
0.000889719
0.00440207
0.000952644
0.00433938
0.00101959
0.0042726
0.00109083
0.00420132
0.00116685
0.00412533
0.00124796
0.00404414
0.00133474
0.00395734
0.00142756
0.00386442
0.00152706
0.00376463
0.00163378
0.00365739
0.00174832
0.0035415
0.00187151
0.00341613
0.00200381
0.00327958
0.00214635
0.00313025
0.00229966
0.00296604
0.00246453
0.00278386
0.0026422
0.00258001
0.00283301
0.00235066
0.00303629
0.00208921
0.00325403
0.00178646
0.00348447
0.00143336
0.00372238
0.00101964
0.0039592
0.000538146
0.00417588
0.004325
0.00543847
3.70273e-07
0.0051033
7.19685e-06
0.00522216
7.9603e-05
0.00523254
9.97119e-05
0.00523187
0.000111919
0.00522876
0.000128374
0.00522371
0.000151477
0.00521657
0.000177384
0.00520708
0.000206339
0.00519516
0.000237052
0.00518089
0.000268683
0.00516428
0.000301279
0.00514537
0.00033508
0.00512411
0.000370273
0.00510052
0.000406898
0.00507453
0.000445049
0.00504615
0.000484783
0.00501529
0.00052628
0.00498194
0.000569646
0.00494599
0.000615113
0.0049074
0.00066281
0.00486602
0.000713011
0.00482181
0.000765876
0.0047746
0.000821722
0.00472427
0.000880753
0.00467067
0.000943324
0.00461361
0.00100971
0.00455291
0.00108028
0.00448832
0.00115543
0.00441963
0.00123554
0.00434646
0.00132114
0.00426858
0.00141262
0.00418542
0.00151071
0.00409667
0.00161581
0.00400159
0.00172886
0.00389953
0.00185038
0.00378965
0.00198139
0.00367059
0.00212287
0.00354141
0.00227553
0.00339941
0.00244166
0.00324348
0.00262046
0.0030714
0.00281427
0.00287662
0.0030278
0.00265176
0.00326115
0.00239136
0.00351443
0.00208588
0.00378995
0.00171797
0.00409029
0.00126607
0.0044111
0.000701233
0.00474072
0.00502624
0.00564082
3.50228e-07
0.00529303
7.1022e-06
0.0054186
7.84254e-05
0.00543151
9.87955e-05
0.00543309
0.000111779
0.00543189
0.000129676
0.00542846
0.000154909
0.00542266
0.000183184
0.00541417
0.000214831
0.00540307
0.000248153
0.00538949
0.000282263
0.00537354
0.000317235
0.00535523
0.000353389
0.00533458
0.000390922
0.00531158
0.0004299
0.00528625
0.000470383
0.00525853
0.000512497
0.00522845
0.00055636
0.00519592
0.000602177
0.00516095
0.000650091
0.0051234
0.000700361
0.00508327
0.000753137
0.00504041
0.000808743
0.00499479
0.00086734
0.00494622
0.000929328
0.00489466
0.000994884
0.00483987
0.0010645
0.00478178
0.00113837
0.00472013
0.00121709
0.00465475
0.00130092
0.00458537
0.00139052
0.00451168
0.00148631
0.0044334
0.00158899
0.00434999
0.00169922
0.00426114
0.0018177
0.00416597
0.00194556
0.00406413
0.00208322
0.00395405
0.00223295
0.00383568
0.0023939
0.00370878
0.00256857
0.00356677
0.00276248
0.0034058
0.00297524
0.00322577
0.00320783
0.00302103
0.00346589
0.00278107
0.00375439
0.00249009
0.00408093
0.00212833
0.00445205
0.0016543
0.00488513
0.000999271
0.00539575
0.00602551
0.00585084
1.98072e-07
0.00548956
7.15617e-06
0.00562301
7.44608e-05
0.00563952
9.45781e-05
0.00564404
0.000108819
0.00564544
0.000128396
0.00564403
0.000156316
0.00563976
0.000187456
0.00563242
0.000222176
0.00562218
0.000258385
0.00560934
0.000295113
0.00559404
0.000332528
0.00557635
0.000371081
0.00555633
0.000410941
0.00553398
0.000452251
0.00550935
0.000495017
0.00548243
0.000539418
0.00545324
0.000585553
0.00542174
0.000633676
0.00538792
0.000683916
0.00535172
0.000736557
0.0053131
0.000791759
0.005272
0.000849839
0.00522833
0.000911007
0.00518206
0.000975605
0.00513302
0.00104392
0.00508119
0.00111632
0.00502636
0.0011932
0.00496851
0.00127493
0.00490734
0.00136209
0.00484284
0.00145502
0.00477461
0.00155454
0.00470259
0.00166101
0.00462631
0.0017755
0.00454552
0.0018985
0.00445931
0.00203177
0.00436858
0.00217395
0.00427376
0.00232778
0.00416937
0.00249829
0.00405333
0.00268461
0.00392862
0.00288718
0.00379284
0.00311103
0.00364118
0.00335949
0.00346863
0.00363844
0.00326845
0.00395457
0.00302847
0.00432091
0.00272147
0.00475906
0.00229833
0.00530827
0.00164577
0.00604831
0.00767128
0.00846017
1.37987e-07
0.00793531
6.22937e-06
0.00813426
6.47977e-05
0.00816372
8.30591e-05
0.00817637
9.84752e-05
0.00818335
0.00012159
0.00818558
0.000154087
0.00818289
0.000190131
0.00817529
0.000229784
0.0081633
0.000270383
0.00814753
0.000310877
0.00812832
0.00035174
0.00810586
0.000393542
0.0080802
0.000436607
0.00805148
0.000480973
0.00801973
0.000526767
0.00798508
0.000574074
0.00794749
0.000623143
0.00790706
0.00067411
0.00786371
0.00072727
0.00781751
0.000782758
0.00776836
0.000840912
0.00771631
0.000901882
0.00766126
0.000966061
0.00760324
0.00103363
0.00754214
0.00110503
0.00747797
0.00118049
0.00741064
0.00126054
0.0073401
0.00134547
0.00726633
0.00143586
0.00718918
0.00153217
0.00710871
0.00163501
0.00702456
0.00174516
0.00693727
0.0018628
0.00684741
0.00198836
0.00675537
0.00212382
0.00665648
0.00227284
0.00655055
0.00243371
0.00644169
0.00260716
0.00633059
0.00279571
0.0062137
0.00300407
0.00609252
0.00323221
0.00596533
0.00348668
0.00583389
0.00376988
0.00570029
0.00408818
0.00557198
0.00444922
0.0054823
0.00484874
0.00550616
0.00528441
0.00591265
0.00564182
0.00547751
0.00810641
0.00846197
1.06533e-07
0.00793473
3.8652e-06
0.00814841
4.23505e-05
0.00818868
6.09141e-05
0.00821064
7.88501e-05
0.00822461
0.000107794
0.00823091
0.000147794
0.00823048
0.000190552
0.00822379
0.000236477
0.00821266
0.000281518
0.00819808
0.000325457
0.00818038
0.000369448
0.00815965
0.000414275
0.00813606
0.000460197
0.00810975
0.00050728
0.0080809
0.000555621
0.00804957
0.000605406
0.00801587
0.00065685
0.00797979
0.000710189
0.00794143
0.000765634
0.00790075
0.000823437
0.00785785
0.000883814
0.00781267
0.000947061
0.00776534
0.0010134
0.00771577
0.00108319
0.00766412
0.00115668
0.00761032
0.0012343
0.00755456
0.0013163
0.00749676
0.00140326
0.00743717
0.00149546
0.00737557
0.00159376
0.00731318
0.00169741
0.00725063
0.00180771
0.00718636
0.00192707
0.00711886
0.00205587
0.0070492
0.00219347
0.00698152
0.00234052
0.00691577
0.00249946
0.00685169
0.00267124
0.00679006
0.00285734
0.00673536
0.00305878
0.00668805
0.00327952
0.00665826
0.00351647
0.00664921
0.00377893
0.0066817
0.00405569
0.00677851
0.00435241
0.00698554
0.00464171
0.00738546
0.0048845
0.00800246
0.00502482
0.00467578
0.00880419
0.00846269
1.53298e-07
0.00793442
7.47029e-07
0.00816342
5.51704e-06
0.00822208
2.04732e-05
0.0082592
4.40883e-05
0.00828284
8.43282e-05
0.0082942
0.000136434
0.00829473
0.000190011
0.00828894
0.000242272
0.00827925
0.000291214
0.00826631
0.000338397
0.00825022
0.000385544
0.00823115
0.000433342
0.00820939
0.000481964
0.00818518
0.000531487
0.00815875
0.000582052
0.00813021
0.000633946
0.00809968
0.000687386
0.00806722
0.000742645
0.00803295
0.00079991
0.00799692
0.000859466
0.00795924
0.000921501
0.00791998
0.000986323
0.00787925
0.00105413
0.00783718
0.00112526
0.0077939
0.00119996
0.00774959
0.00127861
0.00770435
0.00136154
0.00765865
0.00144896
0.00761332
0.00154079
0.00756906
0.00163803
0.00752356
0.00174291
0.00747689
0.00185439
0.00743175
0.0019722
0.00739025
0.00209737
0.00735188
0.00223185
0.00731763
0.00237477
0.00728813
0.00252896
0.00726688
0.00269249
0.00725469
0.00286953
0.00725675
0.00305672
0.00727782
0.00325845
0.00732456
0.00346974
0.00741255
0.00369094
0.00755106
0.00391719
0.0077705
0.00413297
0.00808348
0.00432873
0.00850983
0.00445815
0.00902981
0.00450483
0.00424753
0.00945806
0.0084613
1.2998e-06
0.00794069
-9.85049e-06
0.00821696
-7.84859e-05
0.00830511
-4.94843e-05
0.00835091
6.67804e-07
0.00837142
6.39881e-05
0.00837574
0.00013212
0.00837149
0.000194256
0.00836379
0.000249974
0.00835439
0.000300613
0.00834244
0.000350348
0.0083276
0.000400394
0.00831019
0.000450743
0.00829056
0.000501601
0.0082691
0.000552951
0.00824594
0.000605215
0.00822114
0.000658747
0.00819478
0.000713748
0.00816693
0.000770496
0.00813767
0.000829171
0.00810707
0.000890069
0.00807521
0.000953359
0.00804222
0.00101932
0.00800821
0.00108814
0.00797339
0.00116009
0.00793786
0.0012355
0.00790227
0.0013142
0.00786724
0.00139657
0.0078326
0.00148361
0.00779717
0.00157622
0.00776173
0.00167347
0.00772912
0.00177552
0.00770016
0.00188335
0.00767451
0.00199786
0.00765347
0.00211841
0.0076384
0.00224692
0.00763109
0.00238209
0.00763379
0.00252626
0.00764826
0.00267802
0.00767944
0.00283835
0.00772889
0.00300728
0.00780547
0.00318186
0.00791185
0.00336337
0.00805997
0.00354281
0.00825799
0.00371917
0.00851385
0.00387711
0.00883816
0.00400443
0.00921574
0.00408057
0.00966965
0.00405092
0.00392817
0.00998901
0.00845144
9.93292e-06
0.00798012
-6.57279e-05
0.00836227
-0.000271078
0.00854396
-0.000213053
0.00858701
-4.00784e-05
0.00857791
7.32625e-05
0.00856124
0.000148798
0.00854548
0.000210001
0.00853286
0.000262601
0.00851984
0.000313631
0.00850374
0.000366457
0.00848473
0.000419399
0.00846363
0.00047184
0.00844129
0.000523943
0.00841763
0.00057661
0.00839276
0.000630094
0.00836683
0.000684676
0.00833998
0.000740597
0.00831235
0.00079812
0.00828407
0.000857459
0.00825526
0.000918879
0.00822602
0.000982599
0.00819651
0.00104883
0.00816699
0.00111765
0.008138
0.00118908
0.00810994
0.00126357
0.00808183
0.00134231
0.00805361
0.0014248
0.00802643
0.00151079
0.00800198
0.00160067
0.00798021
0.00169525
0.00796127
0.00179445
0.00794588
0.00189875
0.00793562
0.00200812
0.00793087
0.00212316
0.00793434
0.00224345
0.00794635
0.00237008
0.00797129
0.00250132
0.00800973
0.00263958
0.00806714
0.00278094
0.00814624
0.00292818
0.00825219
0.00307592
0.00839118
0.00322438
0.00856611
0.00336788
0.00878551
0.00349977
0.00904796
0.00361466
0.00935655
0.00369584
0.00970185
0.00373527
0.0100488
0.00370401
0.00359517
0.0103818
0.00851922
1.56498e-05
0.00824798
-0.000394676
0.00879268
-0.000604689
0.00889083
-0.000291152
0.00887223
-1.85047e-05
0.00880429
0.000141424
0.00877233
0.000180761
0.00875241
0.000229907
0.00874272
0.000272307
0.00872818
0.000328163
0.00870922
0.000385424
0.00868816
0.000440456
0.00866614
0.00049386
0.00864312
0.000546959
0.00861914
0.000600598
0.00859408
0.000655151
0.00856793
0.000710823
0.00854078
0.000767751
0.00851273
0.000826166
0.00848395
0.000886237
0.0084545
0.000948328
0.00842475
0.00101235
0.00839519
0.00107839
0.00836606
0.00114679
0.00833657
0.00121856
0.00830742
0.00129272
0.00828035
0.00136938
0.00825628
0.00144886
0.00823483
0.00153225
0.00821688
0.00161862
0.00820266
0.00170946
0.00819355
0.00180357
0.00818961
0.00190268
0.00819265
0.00200508
0.00820295
0.00211287
0.00822255
0.00222384
0.00825251
0.00234012
0.00829477
0.00245906
0.00835243
0.00258192
0.00842666
0.00270672
0.00852298
0.00283186
0.00864198
0.00295692
0.00879059
0.00307577
0.00896902
0.00318946
0.0091822
0.00328659
0.00942904
0.00336782
0.00970718
0.00341771
0.010012
0.00343048
0.0103153
0.0034007
0.00330264