/*--------------------------------*- C++ -*----------------------------------*\
| =========                 |                                                 |
| \\      /  F ield         | OpenFOAM: The Open Source CFD Toolbox           |
|  \\    /   O peration     | Version:  2412                                  |
|   \\  /    A nd           | Website:  www.openfoam.com                      |
|    \\/     M anipulation  |                                                 |
\*---------------------------------------------------------------------------*/
FoamFile
{
    version     2.0;
    format      ascii;
    arch        "LSB;label=32;scalar=64";
    class       volVectorField;
    location    "19.5";
    object      U;
}
// * * * * * * * * * * * * * * * * * * * * * * * * * * * * * * * * * * * * * //

dimensions      [0 1 -1 0 0 0 0];

internalField   nonuniform List<vector> 
7000
(
(2.59114 -7.25121e-05 0)
(1.62073 0.000178402 0)
(0.495793 0.000208937 0)
(0.553001 0.00035076 0)
(0.654694 0.00044659 0)
(0.719904 0.000524649 0)
(0.732791 0.0005925 0)
(0.725898 0.000662802 0)
(0.715836 0.000741272 0)
(0.708137 0.000831699 0)
(0.703669 0.000930355 0)
(0.700101 0.00103358 0)
(0.696016 0.00114056 0)
(0.69116 0.00125223 0)
(0.685696 0.00136963 0)
(0.679749 0.00149334 0)
(0.673336 0.00162363 0)
(0.666425 0.00176084 0)
(0.65898 0.00190538 0)
(0.650974 0.00205784 0)
(0.642386 0.00221879 0)
(0.633192 0.00238892 0)
(0.623366 0.00256892 0)
(0.612882 0.00275957 0)
(0.601711 0.00296169 0)
(0.589821 0.00317616 0)
(0.577182 0.00340387 0)
(0.56376 0.0036458 0)
(0.549518 0.00390292 0)
(0.534423 0.0041762 0)
(0.518435 0.00446661 0)
(0.501518 0.00477504 0)
(0.483633 0.00510238 0)
(0.464743 0.00544923 0)
(0.444811 0.00581621 0)
(0.423805 0.00620339 0)
(0.401695 0.00661082 0)
(0.378456 0.00703769 0)
(0.354072 0.00748305 0)
(0.328534 0.00794472 0)
(0.301846 0.00842033 0)
(0.274028 0.00890577 0)
(0.245113 0.00939712 0)
(0.215155 0.009888 0)
(0.184228 0.0103739 0)
(0.152424 0.0108478 0)
(0.119825 0.0113139 0)
(0.0868537 0.0117559 0)
(0.0514936 0.0123446 0)
(0.0221153 0.0131969 0)
(2.59127 -4.8115e-05 0)
(1.62089 0.00034748 0)
(0.495481 0.000828067 0)
(0.55274 0.00113982 0)
(0.654455 0.00137501 0)
(0.719679 0.00159709 0)
(0.732566 0.00180513 0)
(0.725677 0.00202045 0)
(0.715624 0.00225799 0)
(0.707935 0.0025278 0)
(0.703473 0.00282063 0)
(0.699909 0.00312692 0)
(0.695827 0.00344447 0)
(0.690976 0.00377556 0)
(0.685517 0.00412283 0)
(0.679576 0.00448766 0)
(0.673169 0.00487078 0)
(0.666264 0.00527288 0)
(0.658825 0.00569505 0)
(0.650826 0.00613854 0)
(0.642245 0.00660488 0)
(0.633058 0.00709554 0)
(0.623241 0.00761226 0)
(0.612765 0.00815667 0)
(0.601602 0.0087307 0)
(0.589722 0.00933605 0)
(0.577092 0.00997473 0)
(0.563679 0.0106484 0)
(0.549447 0.0113589 0)
(0.534361 0.0121074 0)
(0.518382 0.0128957 0)
(0.501473 0.013724 0)
(0.483596 0.0145932 0)
(0.464711 0.0155021 0)
(0.444784 0.01645 0)
(0.423778 0.0174333 0)
(0.401665 0.0184489 0)
(0.378417 0.0194899 0)
(0.354017 0.0205489 0)
(0.328455 0.0216148 0)
(0.301734 0.0226749 0)
(0.273869 0.0237128 0)
(0.244893 0.0247107 0)
(0.214857 0.0256474 0)
(0.183832 0.0265025 0)
(0.151911 0.0272562 0)
(0.119167 0.0279064 0)
(0.0860681 0.0284268 0)
(0.0505476 0.0290776 0)
(0.021189 0.0298278 0)
(2.5914 4.76336e-05 0)
(1.62119 0.000392334 0)
(0.495688 0.00160507 0)
(0.552792 0.00198073 0)
(0.654497 0.00230501 0)
(0.719721 0.00267069 0)
(0.732608 0.00304016 0)
(0.725731 0.00341904 0)
(0.715699 0.00382919 0)
(0.708031 0.00428717 0)
(0.703583 0.00478192 0)
(0.700029 0.00530062 0)
(0.695957 0.00584034 0)
(0.691117 0.00640393 0)
(0.685671 0.00699539 0)
(0.679743 0.0076167 0)
(0.67335 0.00826951 0)
(0.66646 0.00895489 0)
(0.659037 0.00967507 0)
(0.651055 0.010432 0)
(0.642491 0.0112285 0)
(0.633323 0.012067 0)
(0.623526 0.0129509 0)
(0.613072 0.0138827 0)
(0.601932 0.0148662 0)
(0.590077 0.0159042 0)
(0.577472 0.0170005 0)
(0.564086 0.0181578 0)
(0.549883 0.01938 0)
(0.534826 0.0206691 0)
(0.518878 0.0220283 0)
(0.501999 0.0234587 0)
(0.484151 0.0249619 0)
(0.465295 0.0265366 0)
(0.445393 0.0281817 0)
(0.424411 0.0298927 0)
(0.402315 0.0316634 0)
(0.379078 0.0334843 0)
(0.354679 0.0353418 0)
(0.329107 0.0372197 0)
(0.30236 0.0390948 0)
(0.274453 0.0409425 0)
(0.245413 0.0427299 0)
(0.215289 0.0444253 0)
(0.184148 0.0459917 0)
(0.152088 0.0473941 0)
(0.119173 0.0486202 0)
(0.0859315 0.0496304 0)
(0.0502718 0.0506829 0)
(0.0207493 0.0516762 0)
(2.59157 5.41121e-05 0)
(1.62163 0.00053581 0)
(0.496115 0.00235117 0)
(0.552915 0.00281464 0)
(0.654619 0.00323741 0)
(0.719864 0.0037575 0)
(0.732756 0.0043039 0)
(0.725893 0.00485989 0)
(0.71589 0.00545268 0)
(0.708254 0.00610501 0)
(0.70383 0.00680662 0)
(0.700292 0.0075436 0)
(0.696237 0.00831217 0)
(0.691417 0.00911543 0)
(0.685993 0.00995796 0)
(0.680088 0.0108426 0)
(0.673719 0.0117716 0)
(0.666854 0.0127469 0)
(0.659458 0.0137714 0)
(0.651504 0.0148481 0)
(0.642972 0.0159808 0)
(0.633836 0.0171733 0)
(0.624074 0.0184299 0)
(0.613657 0.0197548 0)
(0.602557 0.0211527 0)
(0.590743 0.0226285 0)
(0.578184 0.0241868 0)
(0.564845 0.0258326 0)
(0.55069 0.0275701 0)
(0.535684 0.0294041 0)
(0.519788 0.0313375 0)
(0.502963 0.033374 0)
(0.485168 0.035514 0)
(0.466365 0.0377588 0)
(0.446514 0.0401044 0)
(0.425577 0.0425478 0)
(0.403521 0.0450783 0)
(0.380314 0.0476857 0)
(0.355935 0.0503496 0)
(0.330365 0.0530492 0)
(0.303602 0.0557524 0)
(0.275653 0.0584229 0)
(0.246545 0.0610185 0)
(0.216321 0.0634881 0)
(0.185048 0.0657873 0)
(0.152821 0.0678597 0)
(0.119704 0.0696769 0)
(0.0862792 0.0711851 0)
(0.050421 0.0726104 0)
(0.0206053 0.0737668 0)
(2.59182 6.77432e-05 0)
(1.62227 0.000716345 0)
(0.496667 0.00310397 0)
(0.553025 0.00368007 0)
(0.654747 0.0042119 0)
(0.720036 0.0048861 0)
(0.732942 0.00560959 0)
(0.726097 0.00634977 0)
(0.716131 0.00713398 0)
(0.708536 0.00798686 0)
(0.704144 0.00890054 0)
(0.700634 0.00986216 0)
(0.696605 0.0108669 0)
(0.691814 0.0119183 0)
(0.686422 0.0130207 0)
(0.680551 0.0141783 0)
(0.674218 0.0153934 0)
(0.66739 0.0166695 0)
(0.660034 0.0180094 0)
(0.652123 0.0194182 0)
(0.643636 0.0208997 0)
(0.63455 0.0224601 0)
(0.62484 0.0241037 0)
(0.614478 0.0258374 0)
(0.603438 0.0276662 0)
(0.591687 0.0295975 0)
(0.579194 0.0316365 0)
(0.565926 0.0337907 0)
(0.551845 0.036065 0)
(0.536916 0.0384662 0)
(0.521099 0.0409981 0)
(0.504355 0.0436657 0)
(0.486641 0.0464701 0)
(0.467918 0.0494125 0)
(0.448144 0.0524893 0)
(0.42728 0.0556952 0)
(0.405287 0.059019 0)
(0.382133 0.0624446 0)
(0.357789 0.0659506 0)
(0.332235 0.0695049 0)
(0.30546 0.0730729 0)
(0.277468 0.0766012 0)
(0.248278 0.0800382 0)
(0.217931 0.0833139 0)
(0.18649 0.0863622 0)
(0.154053 0.0891174 0)
(0.120675 0.0915206 0)
(0.0869993 0.0934948 0)
(0.0508527 0.0952327 0)
(0.0206231 0.0964817 0)
(2.59216 8.00281e-05 0)
(1.62311 0.000900445 0)
(0.497366 0.00385585 0)
(0.55314 0.00455811 0)
(0.65489 0.00520525 0)
(0.720246 0.00603387 0)
(0.733179 0.0069399 0)
(0.72636 0.00786935 0)
(0.716437 0.00885361 0)
(0.708892 0.00991591 0)
(0.704543 0.0110501 0)
(0.701068 0.0122441 0)
(0.697075 0.0134935 0)
(0.692323 0.0148016 0)
(0.686972 0.0161731 0)
(0.681146 0.0176126 0)
(0.67486 0.0191234 0)
(0.668082 0.0207094 0)
(0.660779 0.022375 0)
(0.652925 0.0241257 0)
(0.644498 0.0259671 0)
(0.635476 0.0279057 0)
(0.625836 0.0299485 0)
(0.615549 0.0321026 0)
(0.604587 0.0343759 0)
(0.592921 0.0367759 0)
(0.580518 0.0393113 0)
(0.567344 0.0419893 0)
(0.553364 0.0448188 0)
(0.538539 0.047806 0)
(0.522831 0.0509586 0)
(0.506197 0.0542804 0)
(0.488597 0.057776 0)
(0.469985 0.061445 0)
(0.45032 0.065286 0)
(0.429559 0.0692908 0)
(0.407658 0.0734487 0)
(0.384582 0.0777387 0)
(0.360295 0.0821359 0)
(0.334773 0.0866008 0)
(0.307994 0.0910884 0)
(0.279958 0.0955396 0)
(0.250673 0.0998827 0)
(0.220177 0.104036 0)
(0.188525 0.107904 0)
(0.155818 0.111397 0)
(0.122106 0.114435 0)
(0.0880704 0.116905 0)
(0.0515135 0.118956 0)
(0.0207745 0.120276 0)
(2.59259 9.26893e-05 0)
(1.62419 0.00108671 0)
(0.498222 0.00461551 0)
(0.553261 0.00545169 0)
(0.655048 0.00622062 0)
(0.720498 0.0072074 0)
(0.73347 0.00830354 0)
(0.726683 0.00942675 0)
(0.716815 0.0106178 0)
(0.709329 0.011898 0)
(0.705032 0.0132608 0)
(0.701603 0.0146949 0)
(0.697656 0.0161968 0)
(0.692953 0.0177697 0)
(0.687656 0.019419 0)
(0.681886 0.0211492 0)
(0.675659 0.0229649 0)
(0.668944 0.0248704 0)
(0.661708 0.0268715 0)
(0.653925 0.0289742 0)
(0.645574 0.0311862 0)
(0.636635 0.0335145 0)
(0.627082 0.035968 0)
(0.616889 0.0385551 0)
(0.606028 0.0412856 0)
(0.59447 0.0441686 0)
(0.582181 0.0472147 0)
(0.569128 0.0504331 0)
(0.555276 0.0538342 0)
(0.540585 0.0574268 0)
(0.525016 0.0612196 0)
(0.508526 0.0652193 0)
(0.491072 0.0694307 0)
(0.472608 0.073856 0)
(0.453087 0.078493 0)
(0.432463 0.0833346 0)
(0.41069 0.0883678 0)
(0.387723 0.0935705 0)
(0.363522 0.0989125 0)
(0.33805 0.104349 0)
(0.311283 0.109825 0)
(0.283203 0.115269 0)
(0.253817 0.120597 0)
(0.223142 0.125707 0)
(0.191236 0.13048 0)
(0.15819 0.134798 0)
(0.124048 0.13854 0)
(0.0895454 0.141562 0)
(0.0524205 0.143972 0)
(0.0210219 0.145397 0)
(2.59312 0.000105467 0)
(1.62551 0.00127349 0)
(0.499249 0.00538095 0)
(0.553391 0.00635482 0)
(0.655224 0.00724914 0)
(0.720794 0.00839829 0)
(0.73382 0.0096871 0)
(0.727075 0.0110113 0)
(0.717272 0.0124175 0)
(0.709857 0.0139236 0)
(0.705622 0.0155226 0)
(0.702251 0.0172045 0)
(0.698361 0.018967 0)
(0.693719 0.0208133 0)
(0.688487 0.0227489 0)
(0.682785 0.024779 0)
(0.676631 0.0269086 0)
(0.669993 0.0291432 0)
(0.662839 0.0314895 0)
(0.655144 0.0339547 0)
(0.646888 0.0365474 0)
(0.638049 0.0392766 0)
(0.628604 0.0421523 0)
(0.618528 0.0451848 0)
(0.607791 0.0483854 0)
(0.596365 0.0517656 0)
(0.584218 0.0553372 0)
(0.571315 0.0591124 0)
(0.55762 0.0631027 0)
(0.543096 0.0673201 0)
(0.5277 0.0717745 0)
(0.51139 0.0764752 0)
(0.49412 0.081429 0)
(0.475841 0.0866392 0)
(0.456504 0.0921063 0)
(0.436058 0.0978224 0)
(0.414451 0.103776 0)
(0.391631 0.109942 0)
(0.367549 0.116288 0)
(0.342158 0.122764 0)
(0.31542 0.129308 0)
(0.287308 0.135836 0)
(0.25781 0.142241 0)
(0.226934 0.14841 0)
(0.194722 0.154189 0)
(0.161267 0.159429 0)
(0.126587 0.16398 0)
(0.0914633 0.167641 0)
(0.0536175 0.170469 0)
(0.0214116 0.172031 0)
(2.59376 0.00011831 0)
(1.62709 0.00145988 0)
(0.500462 0.00614951 0)
(0.553533 0.00726341 0)
(0.655422 0.00828634 0)
(0.721141 0.00960207 0)
(0.734239 0.0110891 0)
(0.727545 0.0126198 0)
(0.717821 0.0142484 0)
(0.710487 0.0159883 0)
(0.706326 0.0178316 0)
(0.703023 0.0197695 0)
(0.699203 0.0218007 0)
(0.694634 0.0239288 0)
(0.68948 0.0261594 0)
(0.683861 0.028498 0)
(0.677794 0.0309504 0)
(0.671249 0.0335229 0)
(0.664193 0.0362234 0)
(0.656603 0.0390603 0)
(0.64846 0.0420436 0)
(0.639743 0.0451837 0)
(0.630429 0.0484921 0)
(0.620492 0.0519812 0)
(0.609905 0.055664 0)
(0.598639 0.0595539 0)
(0.586663 0.0636653 0)
(0.573942 0.0680121 0)
(0.560441 0.0726091 0)
(0.546119 0.0774697 0)
(0.530935 0.0826074 0)
(0.514846 0.0880331 0)
(0.497801 0.093757 0)
(0.479752 0.0997839 0)
(0.460644 0.106117 0)
(0.440422 0.11275 0)
(0.419026 0.119672 0)
(0.396398 0.126858 0)
(0.372476 0.134274 0)
(0.347203 0.141867 0)
(0.320525 0.149565 0)
(0.292395 0.157278 0)
(0.262788 0.164879 0)
(0.231687 0.172229 0)
(0.199119 0.179154 0)
(0.165166 0.185452 0)
(0.129837 0.190929 0)
(0.0939407 0.195337 0)
(0.0551469 0.198675 0)
(0.0219194 0.20043 0)
(2.59451 0.000131081 0)
(1.62896 0.00164462 0)
(0.501874 0.00691606 0)
(0.55369 0.00817145 0)
(0.655648 0.00932522 0)
(0.721547 0.0108111 0)
(0.734734 0.0125003 0)
(0.728104 0.0142434 0)
(0.718474 0.016102 0)
(0.711234 0.0180839 0)
(0.707158 0.0201798 0)
(0.703936 0.0223822 0)
(0.700198 0.0246905 0)
(0.695716 0.0271087 0)
(0.690654 0.0296427 0)
(0.685132 0.0322983 0)
(0.679167 0.0350819 0)
(0.672731 0.0380011 0)
(0.665791 0.0410645 0)
(0.658325 0.044282 0)
(0.650316 0.0476648 0)
(0.641742 0.0512251 0)
(0.632582 0.054976 0)
(0.622811 0.0589318 0)
(0.612402 0.0631075 0)
(0.601327 0.0675188 0)
(0.589554 0.0721824 0)
(0.577051 0.0771149 0)
(0.563779 0.0823337 0)
(0.549701 0.0878551 0)
(0.534773 0.0936959 0)
(0.51895 0.0998701 0)
(0.502181 0.106391 0)
(0.484413 0.113267 0)
(0.465588 0.120504 0)
(0.445644 0.128099 0)
(0.424516 0.136042 0)
(0.402133 0.144312 0)
(0.378426 0.152872 0)
(0.353316 0.161671 0)
(0.326739 0.170628 0)
(0.29862 0.179645 0)
(0.268912 0.188582 0)
(0.237576 0.19727 0)
(0.204604 0.205504 0)
(0.170067 0.213042 0)
(0.133934 0.219628 0)
(0.0970662 0.224938 0)
(0.057108 0.2289 0)
(0.0226249 0.230906 0)
(2.59538 0.000143654 0)
(1.63112 0.00182594 0)
(0.503501 0.00767318 0)
(0.553866 0.00907152 0)
(0.655904 0.0103585 0)
(0.722019 0.0120166 0)
(0.735315 0.0139132 0)
(0.728765 0.0158734 0)
(0.719245 0.0179688 0)
(0.712112 0.0202014 0)
(0.708133 0.0225589 0)
(0.705006 0.0250344 0)
(0.701364 0.0276282 0)
(0.696984 0.030345 0)
(0.692028 0.0331906 0)
(0.686618 0.0361714 0)
(0.680772 0.0392944 0)
(0.674462 0.042568 0)
(0.667657 0.0460023 0)
(0.660336 0.0496084 0)
(0.652482 0.053399 0)
(0.644076 0.0573877 0)
(0.635096 0.0615898 0)
(0.625518 0.0660213 0)
(0.615317 0.0706996 0)
(0.604465 0.0756426 0)
(0.592932 0.0808698 0)
(0.580683 0.0864005 0)
(0.567683 0.0922552 0)
(0.553893 0.0984537 0)
(0.539269 0.105016 0)
(0.523764 0.111961 0)
(0.507326 0.119304 0)
(0.489899 0.127061 0)
(0.471419 0.135238 0)
(0.45182 0.143841 0)
(0.431027 0.152861 0)
(0.40896 0.162284 0)
(0.385534 0.172072 0)
(0.360657 0.182176 0)
(0.334235 0.192513 0)
(0.306177 0.202977 0)
(0.276392 0.213418 0)
(0.244819 0.223641 0)
(0.211405 0.233406 0)
(0.17619 0.242408 0)
(0.139119 0.250326 0)
(0.101048 0.256757 0)
(0.0595864 0.261528 0)
(0.0235147 0.263884 0)
(2.59638 0.00015568 0)
(1.6336 0.00200188 0)
(0.505356 0.00840957 0)
(0.554067 0.00995451 0)
(0.656198 0.0113782 0)
(0.722565 0.0132069 0)
(0.735994 0.0153145 0)
(0.729539 0.0174972 0)
(0.720149 0.0198377 0)
(0.713139 0.0223302 0)
(0.709272 0.0249587 0)
(0.706252 0.0277161 0)
(0.702721 0.030604 0)
(0.698457 0.0336276 0)
(0.693623 0.0367928 0)
(0.688342 0.0401064 0)
(0.682632 0.0435763 0)
(0.676466 0.0472117 0)
(0.669816 0.0510239 0)
(0.662661 0.0550255 0)
(0.654986 0.0592307 0)
(0.646772 0.0636549 0)
(0.638 0.0683153 0)
(0.628646 0.0732299 0)
(0.618685 0.0784186 0)
(0.608092 0.083902 0)
(0.596836 0.089702 0)
(0.584885 0.0958416 0)
(0.572203 0.102344 0)
(0.55875 0.109234 0)
(0.544484 0.116535 0)
(0.529356 0.12427 0)
(0.513312 0.132461 0)
(0.496292 0.141127 0)
(0.478232 0.150283 0)
(0.459055 0.15994 0)
(0.43868 0.170096 0)
(0.417015 0.180742 0)
(0.393959 0.191849 0)
(0.3694 0.20337 0)
(0.34322 0.215228 0)
(0.315293 0.227308 0)
(0.285492 0.239456 0)
(0.253702 0.251451 0)
(0.219827 0.26302 0)
(0.183842 0.273809 0)
(0.145639 0.283394 0)
(0.106107 0.29125 0)
(0.0627964 0.29707 0)
(0.0247288 0.29991 0)
(2.5975 0.000164805 0)
(1.63641 0.00217207 0)
(0.50745 0.00910751 0)
(0.554301 0.0108076 0)
(0.656534 0.0123759 0)
(0.723192 0.014366 0)
(0.736783 0.0166896 0)
(0.730444 0.0191012 0)
(0.721208 0.0216955 0)
(0.714336 0.0244582 0)
(0.710594 0.0273675 0)
(0.707696 0.0304162 0)
(0.704291 0.0336069 0)
(0.700159 0.0369454 0)
(0.695463 0.040438 0)
(0.690327 0.0440917 0)
(0.684771 0.0479152 0)
(0.678769 0.0519188 0)
(0.672294 0.0561151 0)
(0.665329 0.060518 0)
(0.657857 0.0651434 0)
(0.649862 0.0700086 0)
(0.641327 0.0751326 0)
(0.632228 0.0805359 0)
(0.622544 0.0862407 0)
(0.612248 0.0922705 0)
(0.601311 0.0986503 0)
(0.589703 0.105407 0)
(0.577389 0.112566 0)
(0.564329 0.120158 0)
(0.55048 0.128211 0)
(0.535794 0.136754 0)
(0.520215 0.145813 0)
(0.503683 0.155418 0)
(0.486126 0.165588 0)
(0.467464 0.176344 0)
(0.447608 0.187694 0)
(0.426452 0.199639 0)
(0.40388 0.21216 0)
(0.379759 0.225221 0)
(0.353936 0.238754 0)
(0.326253 0.252649 0)
(0.296528 0.266748 0)
(0.264588 0.280819 0)
(0.230267 0.294545 0)
(0.193466 0.307513 0)
(0.153974 0.319203 0)
(0.112637 0.328935 0)
(0.0669433 0.336204 0)
(0.0262953 0.339752 0)
(2.59876 0.000170147 0)
(1.63955 0.00233385 0)
(0.509781 0.00975479 0)
(0.554576 0.0116129 0)
(0.656912 0.0133301 0)
(0.723899 0.0154734 0)
(0.737692 0.0180231 0)
(0.731491 0.0206701 0)
(0.722434 0.0235273 0)
(0.715721 0.0265708 0)
(0.712119 0.0297714 0)
(0.709357 0.0331208 0)
(0.706094 0.036623 0)
(0.702109 0.0402844 0)
(0.697568 0.0441115 0)
(0.692595 0.0481117 0)
(0.687212 0.0522943 0)
(0.681394 0.0566711 0)
(0.675117 0.0612557 0)
(0.668364 0.0660639 0)
(0.661122 0.071113 0)
(0.653376 0.0764226 0)
(0.645108 0.0820133 0)
(0.6363 0.0879086 0)
(0.626928 0.0941326 0)
(0.61697 0.100712 0)
(0.606399 0.107676 0)
(0.595184 0.115053 0)
(0.583291 0.122876 0)
(0.570684 0.131178 0)
(0.55732 0.139993 0)
(0.543149 0.149356 0)
(0.528117 0.159302 0)
(0.512161 0.169868 0)
(0.495207 0.181084 0)
(0.477171 0.19298 0)
(0.457953 0.205581 0)
(0.437441 0.218899 0)
(0.415497 0.232935 0)
(0.391968 0.247666 0)
(0.366669 0.263044 0)
(0.339395 0.278975 0)
(0.30991 0.295311 0)
(0.277951 0.311821 0)
(0.243255 0.328171 0)
(0.205602 0.343881 0)
(0.164655 0.358305 0)
(0.121178 0.370565 0)
(0.0725109 0.37987 0)
(0.0284952 0.384481 0)
(2.60016 0.000178186 0)
(1.64302 0.00247602 0)
(0.512349 0.0103558 0)
(0.554895 0.0123517 0)
(0.657338 0.0142 0)
(0.724698 0.0165133 0)
(0.738742 0.0192873 0)
(0.732702 0.02218 0)
(0.723854 0.0253168 0)
(0.717319 0.0286541 0)
(0.713871 0.0321566 0)
(0.71126 0.0358168 0)
(0.708153 0.0396397 0)
(0.704333 0.0436325 0)
(0.699963 0.0478013 0)
(0.695171 0.0521545 0)
(0.689979 0.0567017 0)
(0.684366 0.0614563 0)
(0.678309 0.0664328 0)
(0.671794 0.071649 0)
(0.664809 0.0771237 0)
(0.657341 0.0828786 0)
(0.649375 0.0889365 0)
(0.640892 0.0953235 0)
(0.631875 0.102066 0)
(0.622299 0.109195 0)
(0.612141 0.116742 0)
(0.601372 0.12474 0)
(0.589962 0.133227 0)
(0.577873 0.14224 0)
(0.565066 0.15182 0)
(0.551492 0.16201 0)
(0.537099 0.172853 0)
(0.521821 0.184395 0)
(0.505585 0.196681 0)
(0.488303 0.209753 0)
(0.46987 0.223654 0)
(0.450163 0.238415 0)
(0.429032 0.254061 0)
(0.406298 0.270598 0)
(0.381746 0.288004 0)
(0.35512 0.30622 0)
(0.326118 0.325123 0)
(0.294387 0.344509 0)
(0.259523 0.364044 0)
(0.221135 0.383217 0)
(0.178643 0.401255 0)
(0.132612 0.417061 0)
(0.0800936 0.429401 0)
(0.0315273 0.435751 0)
(2.60169 0.000188042 0)
(1.64683 0.00259334 0)
(0.515182 0.010887 0)
(0.555263 0.012995 0)
(0.657837 0.0149554 0)
(0.725631 0.017455 0)
(0.739962 0.0204589 0)
(0.734126 0.0236093 0)
(0.72552 0.0270423 0)
(0.719178 0.0306875 0)
(0.715897 0.0345035 0)
(0.71345 0.0384837 0)
(0.710515 0.0426346 0)
(0.706873 0.0469642 0)
(0.702692 0.0514791 0)
(0.698097 0.056188 0)
(0.693114 0.0611017 0)
(0.687726 0.0662349 0)
(0.681912 0.0716037 0)
(0.675659 0.0772275 0)
(0.668957 0.083127 0)
(0.661797 0.089326 0)
(0.654165 0.0958495 0)
(0.646046 0.102726 0)
(0.637422 0.109985 0)
(0.628274 0.11766 0)
(0.61858 0.125786 0)
(0.608315 0.134402 0)
(0.597449 0.143548 0)
(0.58595 0.153269 0)
(0.573779 0.163613 0)
(0.560892 0.174629 0)
(0.547237 0.186372 0)
(0.532753 0.198898 0)
(0.517366 0.212267 0)
(0.500988 0.226539 0)
(0.483512 0.241776 0)
(0.464809 0.258037 0)
(0.444719 0.275378 0)
(0.423045 0.293844 0)
(0.399541 0.313457 0)
(0.373905 0.334218 0)
(0.345759 0.356058 0)
(0.314641 0.378827 0)
(0.279984 0.40229 0)
(0.24113 0.42591 0)
(0.197199 0.448802 0)
(0.148342 0.469694 0)
(0.0910119 0.486711 0)
(0.0361567 0.496121 0)
(2.60333 0.000194142 0)
(1.65097 0.0026832 0)
(0.518264 0.0112983 0)
(0.555683 0.0135027 0)
(0.658422 0.0155698 0)
(0.726726 0.0182553 0)
(0.741394 0.021513 0)
(0.735799 0.0249376 0)
(0.727471 0.0286838 0)
(0.721339 0.0326579 0)
(0.718235 0.0368074 0)
(0.715964 0.0411244 0)
(0.713213 0.0456173 0)
(0.709765 0.0502952 0)
(0.705786 0.0551653 0)
(0.701405 0.0602365 0)
(0.69665 0.0655208 0)
(0.691507 0.0710338 0)
(0.685958 0.0767939 0)
(0.679992 0.0828217 0)
(0.673602 0.0891406 0)
(0.666781 0.095776 0)
(0.659518 0.102756 0)
(0.6518 0.110111 0)
(0.643613 0.117875 0)
(0.634941 0.126083 0)
(0.625763 0.134775 0)
(0.61606 0.143994 0)
(0.605805 0.153785 0)
(0.59497 0.1642 0)
(0.58352 0.175293 0)
(0.571416 0.187122 0)
(0.558611 0.199753 0)
(0.545047 0.213256 0)
(0.530655 0.227705 0)
(0.515351 0.243183 0)
(0.499032 0.259774 0)
(0.481568 0.277572 0)
(0.462797 0.296671 0)
(0.442511 0.31717 0)
(0.420452 0.339143 0)
(0.396273 0.362702 0)
(0.369524 0.387872 0)
(0.339682 0.414533 0)
(0.30596 0.442728 0)
(0.267309 0.472045 0)
(0.222426 0.501647 0)
(0.170706 0.53009 0)
(0.107368 0.5549 0)
(0.0434838 0.570081 0)
(2.60509 0.00019679 0)
(1.65538 0.00273405 0)
(0.521572 0.0115406 0)
(0.556169 0.0138264 0)
(0.659119 0.0159948 0)
(0.728025 0.0188686 0)
(0.743089 0.0223981 0)
(0.737776 0.0261147 0)
(0.729769 0.0301917 0)
(0.723867 0.034508 0)
(0.720951 0.0389982 0)
(0.718865 0.0436544 0)
(0.716309 0.0484893 0)
(0.713067 0.0535142 0)
(0.709304 0.0587379 0)
(0.70515 0.0641697 0)
(0.700638 0.0698231 0)
(0.695757 0.0757148 0)
(0.690492 0.0818649 0)
(0.684836 0.0882956 0)
(0.678784 0.0950321 0)
(0.672332 0.102101 0)
(0.665471 0.109534 0)
(0.658192 0.117362 0)
(0.650484 0.125622 0)
(0.642334 0.134354 0)
(0.633728 0.143599 0)
(0.624647 0.153406 0)
(0.615071 0.163825 0)
(0.604978 0.174913 0)
(0.594339 0.186732 0)
(0.58312 0.199351 0)
(0.571281 0.212845 0)
(0.558775 0.227298 0)
(0.545539 0.242804 0)
(0.5315 0.259466 0)
(0.516564 0.277398 0)
(0.500613 0.296733 0)
(0.483496 0.317603 0)
(0.464996 0.34022 0)
(0.444886 0.364647 0)
(0.422817 0.391086 0)
(0.398178 0.419918 0)
(0.370523 0.4512 0)
(0.33896 0.485067 0)
(0.301915 0.52153 0)
(0.257462 0.560255 0)
(0.203865 0.600028 0)
(0.133825 0.638311 0)
(0.0565614 0.666354 0)
(2.60693 0.000195272 0)
(1.66002 0.0027348 0)
(0.525072 0.0115397 0)
(0.556744 0.0138915 0)
(0.659962 0.0161689 0)
(0.729574 0.0192592 0)
(0.745104 0.0231099 0)
(0.740118 0.027178 0)
(0.732466 0.031652 0)
(0.726801 0.0363639 0)
(0.724071 0.0412352 0)
(0.722174 0.0462616 0)
(0.719822 0.0514613 0)
(0.716798 0.0568489 0)
(0.713265 0.0624331 0)
(0.709354 0.0682247 0)
(0.705105 0.0742393 0)
(0.700507 0.0804963 0)
(0.695551 0.0870182 0)
(0.690231 0.0938303 0)
(0.684545 0.10096 0)
(0.678493 0.108437 0)
(0.672069 0.116294 0)
(0.665267 0.124567 0)
(0.658081 0.133295 0)
(0.650501 0.142519 0)
(0.642518 0.152287 0)
(0.63412 0.162649 0)
(0.625293 0.173662 0)
(0.61602 0.185388 0)
(0.60628 0.197896 0)
(0.59605 0.211264 0)
(0.5853 0.225577 0)
(0.573994 0.240935 0)
(0.562084 0.257449 0)
(0.549513 0.275245 0)
(0.536209 0.294454 0)
(0.522066 0.315301 0)
(0.507009 0.337871 0)
(0.490761 0.362414 0)
(0.473072 0.389361 0)
(0.453933 0.418939 0)
(0.432721 0.451632 0)
(0.408635 0.487939 0)
(0.380866 0.528312 0)
(0.347868 0.573477 0)
(0.306997 0.624257 0)
(0.25502 0.680985 0)
(0.180398 0.743031 0)
(0.0832325 0.803191 0)
(2.60882 0.000139656 0)
(1.66479 0.00273201 0)
(0.528665 0.0112033 0)
(0.557435 0.0135497 0)
(0.66101 0.0159225 0)
(0.731472 0.0192124 0)
(0.747571 0.0233865 0)
(0.742977 0.0278097 0)
(0.735725 0.0326844 0)
(0.730293 0.0377856 0)
(0.727737 0.0430253 0)
(0.72602 0.0484116 0)
(0.72387 0.0539732 0)
(0.721063 0.0597269 0)
(0.717758 0.0656812 0)
(0.714093 0.0718461 0)
(0.710109 0.0782373 0)
(0.705804 0.0848751 0)
(0.70117 0.0917833 0)
(0.696205 0.0989882 0)
(0.690909 0.106518 0)
(0.685285 0.114405 0)
(0.679331 0.122683 0)
(0.673045 0.13139 0)
(0.666424 0.140566 0)
(0.659465 0.150258 0)
(0.652161 0.160514 0)
(0.644509 0.171391 0)
(0.6365 0.182948 0)
(0.628127 0.195254 0)
(0.61938 0.208385 0)
(0.610245 0.222427 0)
(0.600708 0.237477 0)
(0.590749 0.253642 0)
(0.580341 0.271063 0)
(0.569433 0.289919 0)
(0.558045 0.310229 0)
(0.546011 0.332273 0)
(0.533224 0.356438 0)
(0.519861 0.382926 0)
(0.505643 0.412259 0)
(0.490273 0.444872 0)
(0.473498 0.481255 0)
(0.454825 0.522394 0)
(0.433612 0.569463 0)
(0.408685 0.624283 0)
(0.377655 0.689749 0)
(0.336613 0.770936 0)
(0.27095 0.878195 0)
(0.146443 1.04343 0)
(2.61119 7.91054e-05 0)
(1.67057 0.00260192 0)
(0.532393 0.0103787 0)
(0.557939 0.012815 0)
(0.662141 0.0154323 0)
(0.733817 0.0191867 0)
(0.750742 0.0239854 0)
(0.746699 0.0290455 0)
(0.739982 0.0345635 0)
(0.734843 0.0402322 0)
(0.732519 0.045962 0)
(0.731072 0.0517884 0)
(0.729237 0.0577621 0)
(0.726772 0.0639097 0)
(0.723828 0.0702461 0)
(0.720547 0.0767855 0)
(0.71698 0.0835487 0)
(0.713129 0.0905614 0)
(0.70899 0.0978519 0)
(0.704567 0.10545 0)
(0.699865 0.113388 0)
(0.694889 0.1217 0)
(0.689644 0.130421 0)
(0.684135 0.139593 0)
(0.678364 0.149257 0)
(0.672336 0.159462 0)
(0.666055 0.170258 0)
(0.659525 0.181705 0)
(0.652753 0.193865 0)
(0.645743 0.206812 0)
(0.638502 0.220625 0)
(0.631037 0.235395 0)
(0.623352 0.25125 0)
(0.615472 0.268274 0)
(0.60746 0.286559 0)
(0.599089 0.306355 0)
(0.590409 0.327889 0)
(0.581898 0.351344 0)
(0.573412 0.377149 0)
(0.56473 0.405667 0)
(0.555971 0.437245 0)
(0.547222 0.472592 0)
(0.538673 0.512547 0)
(0.53055 0.558395 0)
(0.523395 0.611919 0)
(0.518384 0.675883 0)
(0.518238 0.754751 0)
(0.531162 0.855951 0)
(0.587136 0.990666 0)
(0.657216 1.18535 0)
(2.6137 5.92486e-05 0)
(1.67672 0.001942 0)
(0.536914 0.00776253 0)
(0.559575 0.00992397 0)
(0.664786 0.0125061 0)
(0.738207 0.0166817 0)
(0.75621 0.0222129 0)
(0.752768 0.0280533 0)
(0.746511 0.0343852 0)
(0.741441 0.0407743 0)
(0.739133 0.0471521 0)
(0.737787 0.0535946 0)
(0.736132 0.0601667 0)
(0.73389 0.0668949 0)
(0.731199 0.07379 0)
(0.728207 0.080867 0)
(0.724974 0.0881491 0)
(0.721508 0.095665 0)
(0.71781 0.103445 0)
(0.713883 0.11152 0)
(0.709738 0.119926 0)
(0.705382 0.128696 0)
(0.700826 0.137871 0)
(0.696079 0.147492 0)
(0.69115 0.157605 0)
(0.686051 0.16826 0)
(0.680795 0.179511 0)
(0.675397 0.191419 0)
(0.669876 0.204049 0)
(0.664251 0.217481 0)
(0.658541 0.231819 0)
(0.652812 0.247079 0)
(0.647042 0.26338 0)
(0.641156 0.280939 0)
(0.635394 0.299884 0)
(0.629968 0.320353 0)
(0.624769 0.342689 0)
(0.619865 0.36709 0)
(0.615486 0.393746 0)
(0.611786 0.423112 0)
(0.609041 0.455708 0)
(0.607727 0.492187 0)
(0.608511 0.533465 0)
(0.612487 0.580693 0)
(0.621477 0.635534 0)
(0.638802 0.700146 0)
(0.67047 0.777446 0)
(0.725492 0.870868 0)
(0.836652 0.980441 0)
(0.984519 1.09501 0)
(2.61516 7.00888e-05 0)
(1.68027 0.00130421 0)
(0.539771 0.0054572 0)
(0.561324 0.007909 0)
(0.668137 0.0111019 0)
(0.743971 0.0164647 0)
(0.763421 0.023263 0)
(0.76071 0.0301984 0)
(0.754923 0.0372604 0)
(0.749847 0.0440676 0)
(0.747549 0.0507432 0)
(0.746339 0.0574644 0)
(0.744889 0.0643113 0)
(0.74287 0.0713044 0)
(0.740416 0.0784501 0)
(0.737686 0.0857716 0)
(0.734753 0.0933023 0)
(0.731632 0.101077 0)
(0.728327 0.109129 0)
(0.724845 0.117491 0)
(0.721199 0.126198 0)
(0.717405 0.135285 0)
(0.713478 0.144789 0)
(0.709433 0.154751 0)
(0.705288 0.165214 0)
(0.701063 0.176227 0)
(0.696782 0.187838 0)
(0.692467 0.200117 0)
(0.688157 0.213116 0)
(0.683922 0.226865 0)
(0.679668 0.241476 0)
(0.67543 0.257097 0)
(0.671543 0.273786 0)
(0.668043 0.291708 0)
(0.664849 0.311058 0)
(0.662118 0.331919 0)
(0.660022 0.354463 0)
(0.658739 0.378954 0)
(0.658549 0.405684 0)
(0.659819 0.434996 0)
(0.663016 0.467346 0)
(0.668885 0.503253 0)
(0.678493 0.543378 0)
(0.693318 0.588485 0)
(0.715745 0.63943 0)
(0.74923 0.697057 0)
(0.799363 0.761636 0)
(0.871744 0.832216 0)
(0.984684 0.903838 0)
(1.12034 0.956672 0)
(2.61636 3.8904e-05 0)
(1.68334 -0.00153022 0)
(0.545133 -0.00484591 0)
(0.567295 -0.00304858 0)
(0.675907 0.000996746 0)
(0.754108 0.00904985 0)
(0.774436 0.0185841 0)
(0.771502 0.0278689 0)
(0.765119 0.0364566 0)
(0.759451 0.0442593 0)
(0.756974 0.0517524 0)
(0.755849 0.0592317 0)
(0.754566 0.0667748 0)
(0.752732 0.0744015 0)
(0.750489 0.0821067 0)
(0.748028 0.0899266 0)
(0.745426 0.0979063 0)
(0.742694 0.106087 0)
(0.739831 0.114507 0)
(0.736844 0.123204 0)
(0.733746 0.132215 0)
(0.730554 0.141581 0)
(0.727285 0.151341 0)
(0.723962 0.161536 0)
(0.720608 0.172214 0)
(0.717248 0.183433 0)
(0.713932 0.195215 0)
(0.710678 0.207602 0)
(0.707447 0.220698 0)
(0.704363 0.234579 0)
(0.701639 0.249297 0)
(0.699243 0.265018 0)
(0.697188 0.28183 0)
(0.695641 0.299752 0)
(0.694706 0.318935 0)
(0.694545 0.339538 0)
(0.695379 0.361729 0)
(0.697463 0.385707 0)
(0.701154 0.411699 0)
(0.706882 0.439958 0)
(0.715253 0.470767 0)
(0.72708 0.504455 0)
(0.743497 0.541303 0)
(0.765999 0.58159 0)
(0.796642 0.625397 0)
(0.838116 0.672446 0)
(0.894058 0.721681 0)
(0.967163 0.770511 0)
(1.06836 0.814717 0)
(1.18139 0.840277 0)
(2.61204 0.00229094 0)
(1.67332 -0.00676769 0)
(0.549689 -0.0137868 0)
(0.583088 -0.00801372 0)
(0.696148 -0.000386438 0)
(0.777917 0.00988838 0)
(0.798527 0.0200826 0)
(0.794108 0.0297299 0)
(0.785778 0.0382445 0)
(0.778735 0.0461061 0)
(0.775619 0.0537877 0)
(0.774138 0.0614456 0)
(0.772553 0.0691146 0)
(0.770413 0.0768265 0)
(0.767878 0.084634 0)
(0.765188 0.09259 0)
(0.762428 0.100739 0)
(0.7596 0.109118 0)
(0.756704 0.117761 0)
(0.753753 0.126701 0)
(0.750764 0.13597 0)
(0.747757 0.145601 0)
(0.744753 0.155628 0)
(0.741778 0.166082 0)
(0.738886 0.176976 0)
(0.736057 0.188367 0)
(0.733289 0.200336 0)
(0.730745 0.212901 0)
(0.728519 0.226127 0)
(0.726593 0.240122 0)
(0.725031 0.254917 0)
(0.723939 0.270539 0)
(0.723403 0.287099 0)
(0.72357 0.304688 0)
(0.724602 0.323412 0)
(0.726681 0.343403 0)
(0.730056 0.364778 0)
(0.735008 0.387691 0)
(0.741911 0.412275 0)
(0.751232 0.438681 0)
(0.763568 0.467036 0)
(0.779693 0.497447 0)
(0.800581 0.529932 0)
(0.827481 0.564376 0)
(0.861918 0.600434 0)
(0.905724 0.637345 0)
(0.961183 0.673774 0)
(1.0299 0.707386 0)
(1.11627 0.735255 0)
(1.20912 0.749004 0)
(2.60376 0.00791328 0)
(1.6431 -0.0735214 0)
(0.585 -0.0725689 0)
(0.623967 -0.0457595 0)
(0.731406 -0.00576662 0)
(0.809035 0.0165222 0)
(0.82704 0.026626 0)
(0.821084 0.0352883 0)
(0.811571 0.0426552 0)
(0.804211 0.0507719 0)
(0.800836 0.0593033 0)
(0.798977 0.0677367 0)
(0.796995 0.0759483 0)
(0.794553 0.0840182 0)
(0.791828 0.0920833 0)
(0.788996 0.100222 0)
(0.786116 0.108484 0)
(0.783186 0.116909 0)
(0.780208 0.12554 0)
(0.777193 0.134424 0)
(0.774163 0.143609 0)
(0.771144 0.15312 0)
(0.768158 0.162974 0)
(0.765198 0.173224 0)
(0.762341 0.183935 0)
(0.75973 0.195117 0)
(0.75735 0.206826 0)
(0.755201 0.21912 0)
(0.753402 0.232019 0)
(0.752027 0.245579 0)
(0.751151 0.259872 0)
(0.750885 0.274961 0)
(0.751357 0.290908 0)
(0.75272 0.307793 0)
(0.755151 0.325675 0)
(0.758846 0.344642 0)
(0.764057 0.364763 0)
(0.771086 0.386118 0)
(0.780279 0.408776 0)