/*--------------------------------*- C++ -*----------------------------------*\
| =========                 |                                                 |
| \\      /  F ield         | OpenFOAM: The Open Source CFD Toolbox           |
|  \\    /   O peration     | Version:  2412                                  |
|   \\  /    A nd           | Website:  www.openfoam.com                      |
|    \\/     M anipulation  |                                                 |
\*---------------------------------------------------------------------------*/
FoamFile
{
    version     2.0;
    format      ascii;
    arch        "LSB;label=32;scalar=64";
    class       volScalarField;
    location    "4.5";
    object      Ma;
}
// * * * * * * * * * * * * * * * * * * * * * * * * * * * * * * * * * * * * * //

dimensions      [0 0 0 0 0 0 0];

internalField   nonuniform List<scalar> 
7000
(
3.00001
3.00001
3.00001
3.00001
3.00001
3.00001
3.00001
3
2.99999
2.99999
2.99992
2.99991
2.9995
2.99945
2.99701
2.99592
2.9826
2.98987
2.92237
3.11763
2.81456
2.41878
1.57304
0.831414
0.341683
0.387368
0.438434
0.463385
0.457778
0.4392
0.41376
0.390935
0.372278
0.354703
0.336544
0.31755
0.298135
0.278425
0.258342
0.237925
0.217006
0.195675
0.173969
0.151865
0.129528
0.106944
0.0838282
0.0604306
0.0363084
0.0179289
3.00001
3.00001
3.00001
3.00001
3.00001
3.00001
3.00001
3.00001
2.99999
2.99999
2.99993
2.99992
2.99956
2.99948
2.9973
2.99598
2.98284
2.98996
2.9225
3.11763
2.81489
2.41949
1.57421
0.832461
0.342656
0.388183
0.438804
0.46331
0.457513
0.439024
0.413719
0.390998
0.372415
0.354888
0.336767
0.317811
0.298432
0.278762
0.258725
0.238365
0.217523
0.196287
0.174693
0.152724
0.130547
0.108178
0.0854066
0.0626767
0.0401788
0.0253939
3.00001
3.00001
3.00001
3.00001
3.00001
3.00001
3.00001
3.00001
3
3
2.99996
2.99997
2.99974
3.00018
2.99804
2.99803
2.98353
2.99067
2.92285
3.11741
2.81559
2.42063
1.57634
0.834509
0.344132
0.38871
0.438273
0.462208
0.456438
0.438494
0.413634
0.39124
0.372881
0.355507
0.337515
0.318685
0.299435
0.279888
0.259982
0.239774
0.219115
0.198111
0.176798
0.155177
0.13345
0.111697
0.0898617
0.0687417
0.0493447
0.038586
3.00001
3.00001
3.00001
3.00001
3.00001
3.00001
3.00001
3.00001
3.00001
3.00001
3
3.00002
2.99993
3.00044
2.99882
2.99849
2.98456
2.99113
2.92325
3.1185
2.81836
2.42251
1.57858
0.836264
0.343835
0.388255
0.437412
0.461141
0.455932
0.438551
0.414183
0.392123
0.373967
0.356736
0.338896
0.320235
0.301147
0.28178
0.262078
0.242122
0.22176
0.201091
0.180204
0.159108
0.138054
0.117209
0.0966897
0.0775768
0.0612262
0.0530904
3.00001
3.00001
3.00001
3.00001
3.00001
3.00001
3.00001
3.00001
3.00001
3.00002
3.00002
3.00009
3.00002
3.00051
2.99916
2.99877
2.98554
2.99223
2.92444
3.12203
2.82165
2.42173
1.58018
0.834965
0.346649
0.390641
0.438215
0.461381
0.456372
0.439371
0.415409
0.393615
0.375668
0.358604
0.34093
0.322472
0.303623
0.284528
0.265131
0.24551
0.225536
0.205348
0.184997
0.164586
0.144398
0.12467
0.105669
0.0886154
0.0748239
0.0683805
3.00001
3.00001
3.00001
3.00001
3.00001
3.00001
3.00001
3.00001
3.00001
3.00002
3.00003
3.00011
3.00006
3.00052
2.99931
2.99888
2.98648
2.99365
2.92623
3.12445
2.82587
2.42635
1.58773
0.842809
0.351315
0.393603
0.439571
0.462331
0.45742
0.440735
0.417094
0.39557
0.377826
0.360982
0.343553
0.325377
0.306885
0.28816
0.269205
0.25004
0.230551
0.210925
0.191288
0.171692
0.152513
0.134061
0.116656
0.101542
0.089829
0.0845682
3.00001
3.00001
3.00001
3.00001
3.00001
3.00001
3.00001
3.00001
3.00001
3.00002
3.00003
3.0001
3.00007
3.00048
2.9994
2.999
2.98758
2.99521
2.92818
3.12768
2.83092
2.43385
1.59885
0.854081
0.357044
0.396672
0.441274
0.463785
0.458987
0.44252
0.419093
0.397848
0.380404
0.363871
0.346791
0.329007
0.310926
0.292717
0.274263
0.255694
0.236881
0.217937
0.199085
0.180464
0.162423
0.14531
0.129496
0.116154
0.106131
0.101721
3.00001
3.00001
3.00001
3.00001
3.00001
3.00001
3.00001
3.00001
3.00001
3.00002
3.00002
3.00009
3.00005
3.00042
2.99939
2.99908
2.98876
2.99641
2.93116
3.12843
2.8363
2.44455
1.61496
0.868547
0.364408
0.399775
0.443023
0.465615
0.461006
0.444677
0.421508
0.400639
0.383581
0.367419
0.350777
0.333481
0.315908
0.298229
0.280414
0.262535
0.244445
0.226401
0.208466
0.190891
0.174084
0.15837
0.144106
0.132335
0.123692
0.119943
3.00001
3.00001
3.00001
3.00001
3.00001
3.00001
3.00001
3.00001
3.00001
3.00002
3.00002
3.00007
3.00002
3.00036
2.99939
2.99911
2.98968
2.99785
2.9343
3.12948
2.8425
2.45766
1.63495
0.887339
0.374902
0.40278
0.445054
0.468028
0.463763
0.447636
0.424743
0.40425
0.387595
0.371887
0.355735
0.338993
0.322004
0.304913
0.287732
0.270632
0.253435
0.236328
0.219507
0.203076
0.187521
0.173213
0.16039
0.150031
0.142542
0.139321
3.00001
3.00001
3.00001
3.00001
3.00001
3.00001
3.00001
3.00001
3.00001
3.00001
3.00001
3.00003
2.99998
3.00027
2.99938
2.99914
2.99066
2.99936
2.93774
3.13023
2.84958
2.47293
1.65948
0.910597
0.388027
0.405833
0.448054
0.471526
0.467568
0.451639
0.429061
0.408941
0.392668
0.377339
0.361684
0.345481
0.329149
0.312773
0.296324
0.280026
0.263811
0.247749
0.23208
0.216967
0.202782
0.189873
0.178468
0.169358
0.162871
0.160113
3.00001
3.00001
3.00001
3.00001
3.00001
3.00001
3.00001
3.00001
3.00001
3.00001
3
3.00001
2.99996
3.00019
2.99939
2.99923
2.99218
3.00093
2.94123
3.13018
2.85733
2.49055
1.68903
0.939043
0.405114
0.409312
0.451776
0.47578
0.472244
0.456494
0.43424
0.414424
0.398608
0.383745
0.368604
0.353046
0.337426
0.321865
0.306332
0.29097
0.275765
0.260903
0.246452
0.232623
0.219853
0.208342
0.198292
0.19046
0.184864
0.182461
3.00001
3.00001
3.00001
3.00001
3.00001
3.00001
3.00001
3.00001
3
3
2.99999
2.99999
2.99992
3.00006
2.99937
2.99927
2.99345
3.00275
2.94537
3.12984
2.86581
2.51071
1.72306
0.972981
0.424665
0.414304
0.455579
0.48059
0.477656
0.462224
0.44028
0.420815
0.40538
0.391108
0.376541
0.361681
0.346831
0.332121
0.317553
0.303277
0.289232
0.275655
0.262644
0.250288
0.238956
0.228927
0.220221
0.213474
0.208823
0.206851
3.00001
3.00001
3.00001
3.00001
3.00001
3.00001
3.00001
3.00001
3.00001
3
3
2.99999
2.9999
2.99994
2.99938
2.99943
2.99553
3.0036
2.94966
3.1286
2.87496
2.53362
1.76243
1.01301
0.447704
0.420316
0.460097
0.486155
0.483865
0.468702
0.447145
0.428018
0.413054
0.399353
0.385547
0.371503
0.357578
0.343897
0.33037
0.317276
0.304462
0.29216
0.280611
0.2698
0.260114
0.251616
0.244386
0.238958
0.235122
0.233549
3.00001
3.00001
3.00001
3.00001
3.00001
3.00001
3.00001
3.00001
3.00001
3
3
2.99998
2.99994
2.99986
2.99954
2.99943
2.9966
3.00491
2.95444
3.12692
2.88476
2.55868
1.80728
1.05926
0.474056
0.426978
0.465229
0.492224
0.490626
0.475771
0.454704
0.435985
0.421588
0.40848
0.395392
0.382251
0.369289
0.356785
0.344528
0.332767
0.321503
0.310731
0.300786
0.291616
0.283567
0.276897
0.271267
0.267126
0.264526
0.263508
3.00001
3.00001
3.00001
3.00001
3.00001
3.00001
3.00001
3.00001
3.00001
3.00001
3
2.99999
2.99995
2.9999
2.99959
2.99981
2.99765
3.00617
2.95939
3.12418
2.89497
2.58581
1.8583
1.11251
0.504057
0.434567
0.470989
0.4986
0.497645
0.483209
0.462587
0.444436
0.430658
0.418464
0.406318
0.394184
0.382369
0.370993
0.360135
0.349784
0.340066
0.331062
0.322991
0.315846
0.309734
0.304888
0.301375
0.299032
0.297621
0.297363
3.00001
3.00001
3.00001
3.00001
3.00001
3.00001
3.00001
3.00001
3.00001
3.00001
3.00001
3.00001
3
3.00003
2.99989
3.0004
2.99858
3.00689
2.96406
3.11966
2.90512
2.61451
1.91627
1.17387
0.53793
0.443874
0.477772
0.505079
0.504875
0.490994
0.471034
0.453401
0.440297
0.428826
0.417806
0.406884
0.396418
0.386593
0.377236
0.368672
0.360685
0.353561
0.347447
0.342505
0.338914
0.336514
0.335161
0.335316
0.336211
0.337276
3.00001
3.00001
3.00001
3.00001
3.00001
3.00001
3.00001
3.00001
3.00001
3.00001
3.00001
3.00002
3.00001
3.0001
3.00008
3.00072
2.99938
3.00736
2.9687
3.11487
2.91551
2.64254
1.98093
1.24195
0.57194
0.454374
0.484236
0.509411
0.510319
0.497455
0.47856
0.461902
0.44988
0.439532
0.42968
0.420103
0.411113
0.402854
0.395344
0.388644
0.382928
0.378103
0.374437
0.37195
0.371048
0.371989
0.374285
0.377698
0.381751
0.385429
3.00001
3.00001
3.00001
3.00001
3.00001
3.00001
3.00001
3.00001
3.00001
3.00001
3.00001
3.00001
3
3.00003
3.00003
3.0002
2.99934
3.00183
2.99068
3.02993
2.95148
2.76653
2.09786
1.33554
0.584924
0.454966
0.481994
0.505439
0.508542
0.498022
0.48146
0.466849
0.456701
0.448359
0.440485
0.432974
0.426037
0.419938
0.414468
0.410042
0.406552
0.404472
0.40379
0.404603
0.407229
0.411894
0.418983
0.428278
0.438821
0.448307
3.00001
3.00001
3.00001
3.00001
3.00001
3.00001
3.00001
3.00001
3.00001
3.00001
3
3
2.99995
2.99994
2.99975
2.99959
2.99872
2.99955
2.99337
3.0174
2.93648
2.81906
2.1504
1.41455
0.630272
0.459327
0.477964
0.497571
0.502839
0.494781
0.480754
0.4685
0.460497
0.454429
0.448938
0.443974
0.439638
0.436335
0.43376
0.432171
0.431705
0.432353
0.434921
0.439783
0.447403
0.458124
0.471815
0.489578
0.511568
0.537388
3.00001
3.00001
3.00001
3.00001
3.00001
3.00001
3.00001
3.00001
3
3
2.99998
2.99997
2.99983
2.99978
2.99892
2.99842
2.99385
2.99545
2.96932
3.03728
2.92987
2.6248
2.28631
1.56611
0.724807
0.489652
0.489625
0.503561
0.50752
0.498909
0.485754
0.473997
0.466909
0.461835
0.457823
0.454774
0.452683
0.451876
0.452344
0.453972
0.456889
0.461435
0.468114
0.477679
0.490451
0.508146
0.532241
0.565419
0.613517
0.700626
3.00001
3.00001
3.00001
3.00001
3.00001
3.00001
3.00001
3.00001
3.00001
3
3
2.99998
2.99996
2.99983
2.99974
2.99895
2.99848
2.99384
2.99119
2.95995
2.94302
2.79342
2.46442
1.80732
0.867704
0.543545
0.51787
0.528029
0.530519
0.521692
0.508674
0.495797
0.487135
0.481465
0.477433
0.475017
0.47416
0.475133
0.477782
0.48246
0.489799
0.499944
0.513295
0.529645
0.551372
0.579265
0.618831
0.676224
0.769089
0.915588
3.00001
3.00001
3.00001
3.00001
3.00001
3.00001
3.00001
3.00001
3.00001
3
3
2.99997
2.99997
2.99984
2.99975
2.99905
2.99864
2.99521
2.99167
2.97471
2.93919
2.83752
2.59727
2.02796
1.07502
0.662384
0.556402
0.555457
0.558098
0.555108
0.544822
0.532528
0.521761
0.514298
0.509219
0.506256
0.504979
0.505803
0.50902
0.515367
0.525168
0.538602
0.55604
0.57883
0.607921
0.647209
0.697811
0.769486
0.872843
1.00088
3.00001
3.00001
3.00001
3.00001
3.00001
3.00001
3.00001
3.00001
3.00001
3
3
2.99998
2.99998
2.99988
2.99985
2.99932
2.99918
2.99621
2.99504
2.9793
2.96976
2.87711
2.73565
2.30092
1.46832
0.900393
0.630549
0.604444
0.61071
0.615843
0.606213
0.592099
0.578093
0.566359
0.557903
0.551715
0.548228
0.547534
0.550929
0.557843
0.567866
0.581681
0.600725
0.626052
0.658793
0.701748
0.757487
0.827379
0.921283
1.01333
3.00001
3.00001
3.00001
3.00001
3.00001
3.00001
3.00001
3.00001
3.00001
3.00001
3
3
2.99999
2.99999
2.99994
3.00022
2.99926
2.99913
2.99101
2.99767
2.94253
3.11226
2.85919
2.52256
1.79461
1.09198
0.64765
0.613783
0.633833
0.651822
0.653274
0.643755
0.632284
0.620505
0.610754
0.603136
0.597854
0.596661
0.59892
0.60532
0.615094
0.629389
0.648429
0.673587
0.705649
0.746109
0.797632
0.858487
0.937214
1.01121
3.00001
3.00001
3.00001
3.00001
3.00001
3.00001
3.00001
3.00001
3.00001
3.00001
3
3
2.99999
2.99999
2.99993
3.00005
3.00008
3.00126
3.00047
3.00815
2.97214
3.11255
2.92319
2.67529
2.03887
1.32133
0.701189
0.602616
0.627571
0.654651
0.66842
0.668015
0.661994
0.655098
0.649292
0.644594
0.641814
0.64212
0.645607
0.651534
0.661597
0.675336
0.694874
0.718725
0.749609
0.785927
0.83093
0.881323
0.943718
1.00629
3.00001
3.00001
3.00001
3.00001
3.00001
3.00001
3.00001
3.00001
3.00001
3.00001
3
3
2.99997
2.99996
2.99979
2.99974
2.99888
2.99799
2.99304
2.99364
2.96606
3.02635
2.92736
2.66885
2.30737
1.62036
0.848991
0.645039
0.640682
0.662959
0.679351
0.682815
0.679975
0.67642
0.674143
0.673185
0.674238
0.6783
0.684562
0.692106
0.702803
0.716797
0.73534
0.758867
0.787058
0.82144
0.860135
0.905375
0.954373
1.00557
3.00001
3.00001
3.00001
3.00001
3.00001
3.00001
3.00001
3.00001
3.00001
3.00001
3.00001
3
3
2.99997
2.99997
2.99983
2.99977
2.99906
2.99872
2.99415
3.00153
2.95408
3.11015
2.88237
2.58972
1.9036
1.18627
0.71633
0.667429
0.681927
0.698541
0.704669
0.703432
0.700893
0.698945
0.698665
0.701862
0.708326
0.716336
0.725788
0.737534
0.752218
0.770074
0.792308
0.818489
0.849573
0.88514
0.924861
0.969597
1.0132
3.00001
3.00001
3.00001
3.00001
3.00001
3.00001
3.00001
3.00001
3.00001
3.00001
3.00001
3
3
2.99998
2.99997
2.99979
2.99976
2.99893
2.99849
2.99577
2.99956
2.97872
3.05051
2.93095
2.78896
2.1603
1.48122
0.822873
0.690414
0.693848
0.711344
0.723303
0.724535
0.722822
0.721936
0.723601
0.728689
0.735981
0.744279
0.75415
0.766063
0.781078
0.79888
0.820024
0.844469
0.872696
0.904392
0.940088
0.979296
1.01913
3.00001
3.00001
3.00001
3.00001
3.00001
3.00001
3.00001
3.00001
3.00001
3.00001
3.00001
3.00001
3
3
2.99997
2.99996
2.99982
2.99972
2.99925
2.99799
2.99496
2.9889
2.96688
2.93798
2.75998
2.55064
1.91071
1.07315
0.775093
0.728951
0.734244
0.741995
0.745644
0.745584
0.745789
0.749279
0.755557
0.763616
0.772427
0.782313
0.793329
0.807022
0.823354
0.843189
0.865683
0.891745
0.920266
0.952588
0.987175
1.0225
3.00001
3.00001
3.00001
3.00001
3.00001
3.00001
3.00001
3.00001
3.00001
3.00001
3.00001
3.00001
3
3
2.99998
2.99997
2.99985
2.99984
2.99917
2.99907
2.99568
2.99464
2.97726
2.96737
2.87697
2.72339
2.31146
1.45615
0.997224
0.80637
0.778441
0.778683
0.780825
0.780369
0.780041
0.781417
0.78588
0.79259
0.800636
0.81061
0.821909
0.834697
0.848941
0.865592
0.88501
0.908054
0.933297
0.96146
0.992079
1.0232
3.00001
3.00001
3.00001
3.00001
3.00001
3.00001
3.00001
3.00001
3.00001
3.00001
3.00001
3.00001
3.00001
3
3
2.99996
2.99995
2.99972
2.99966
2.99839
2.99776
2.99071
2.99638
2.95034
3.09298
2.8787
2.59382
1.96473
1.29635
0.873075
0.808995
0.806569
0.812388
0.818158
0.820035
0.820675
0.822397
0.826281
0.832268
0.839932
0.850124
0.86194
0.875679
0.890865
0.907178
0.925637
0.946505
0.970362
0.996588
1.0231
3.00001
3.00001
3.00001
3.00001
3.00001
3.00001
3.00001
3.00001
3.00001
3.00001
3.00001
3.00001
3.00001
3.00001
3
3
2.99998
2.99993
2.99984
2.99934
2.99893
2.99478
2.99641
2.96871
3.03483
2.92258
2.65831
2.36079
1.65782
1.01339
0.840498
0.821452
0.833078
0.845042
0.851963
0.854317
0.855284
0.857789
0.861866
0.868146
0.875953
0.886728
0.898386
0.91324
0.928108
0.945572
0.96259
0.982054
1.00335
1.02506
3.00001
3.00001
3.00001
3.00001
3.00001
3.00001
3.00001
3.00001
3.00001
3.00001
3.00001
3.00001
3.00001
3.00001
3.00001
3.00001
3.00001
3.00003
3.00005
3.00015
3.00022
3.00094
2.9999
3.00731
2.97072
3.10995
2.91592
2.68931
2.07142
1.38502
0.904501
0.847294
0.852279
0.864058
0.874801
0.878685
0.880076
0.881866
0.885288
0.891049
0.897752
0.907184
0.917291
0.929775
0.943092
0.958122
0.974678
0.992854
1.01105
1.02695
3.00001
3.00001
3.00001
3.00001
3.00001
3.00001
3.00001
3.00001
3.00001
3.00001
3.00001
3.00001
3.00001
3.00001
3.00001
3
3
2.99998
2.99997
2.99984
2.99975
2.99892
2.99834
2.99291
2.98977
2.95904
2.94056
2.77986
2.50969
1.93144
1.13868
0.908314
0.879762
0.886234
0.89473
0.900709
0.902802
0.903602
0.905731
0.910154
0.91591
0.923461
0.932018
0.942156
0.953919
0.967423
0.981897
0.996357
1.00985
1.01993
3.00001
3.00001
3.00001
3.00001
3.00001
3.00001
3.00001
3.00001
3.00001
3.00001
3.00001
3.00001
3.00001
3.00001
3.00001
3.00001
3
2.99999
2.99999
2.99993
2.9999
2.99949
2.99928
2.99669
2.99518
2.98198
2.96415
2.88452
2.74406
2.36685
1.60617
1.12973
0.956203
0.930683
0.929145
0.930755
0.933042
0.933918
0.934673
0.936134
0.93862
0.941989
0.947486
0.954646
0.963273
0.972737
0.982277
0.991094
0.997285
0.999522
3.00001
3.00001
3.00001
3.00001
3.00001
3.00001
3.00001
3.00001
3.00001
3.00001
3.00001
3.00001
3.00001
3.00001
3.00001
3.00001
3
3
2.99998
2.99997
2.99984
2.99979
2.99909
2.99881
2.99519
2.99212
2.97075
2.95448
2.83002
2.67396
2.14483
1.47257
1.10665
0.990009
0.969807
0.965359
0.964799
0.965544
0.965893
0.965785
0.965899
0.967238
0.969184
0.971143
0.973294
0.975287
0.975994
0.973714
0.969201
0.963304
3.00001
3.00001
3.00001
3.00001
3.00001
3.00001
3.00001
3.00001
3.00001
3.00001
3.00001
3.00001
3.00001
3.00001
3.00001
3.00001
3.00001
3
3
2.99997
2.99997
2.99982
2.99975
2.99897
2.99849
2.99403
2.99146
2.96682
2.93886
2.78881
2.5896
2.04876
1.37162
1.1005
1.02222
1.0034
0.99809
0.996017
0.994274
0.991669
0.988568
0.985754
0.982727
0.978878
0.97319
0.965404
0.955231
0.942898
0.929638
0.918333
3.00001
3.00001
3.00001
3.00001
3.00001
3.00001
3.00001
3.00001
3.00001
3.00001
3.00001
3.00001
3.00001
3.00001
3.00001
3.00001
3.00001
3.00001
3.00001
3.00002
3.00003
3.0001
3.00006
3.00053
2.99935
2.9988
2.98626
2.98864
2.93324
3.07162
2.83945
2.55489
1.90659
1.38009
1.10529
1.04764
1.03393
1.02645
1.01959
1.01172
1.00238
0.992583
0.981495
0.967869
0.950594
0.931815
0.913661
0.898165
0.886936
0.880726
3.00001
3.00001
3.00001
3.00001
3.00001
3.00001
3.00001
3.00001
3.00001
3.00001
3.00001
3.00001
3.00001
3.00001
3.00001
3.00001
3.00001
3.00001
3.00001
3
2.99999
2.99999
2.99993
2.99993
2.9996
2.99951
2.9966
2.99616
2.98314
2.99664
2.91934
2.84294
2.4144
1.89954
1.29335
1.098
1.05538
1.04151
1.02803
1.01199
0.993111
0.971359
0.946847
0.920419
0.895926
0.877011
0.864772
0.859489
0.859289
0.863017
3.00001
3.00001
3.00001
3.00001
3.00001
3.00001
3.00001
3.00001
3.00001
3.00001
3.00001
3.00001
3.00001
3.00001
3.00001
3.00001
3.00001
3.00001
3.00001
3
3
2.99999
2.99998
2.99989
2.99986
2.99929
2.99912
2.99611
2.99483
2.98002
2.96972
2.88543
2.76782
2.42262
1.79713
1.31728
1.11857
1.05726
1.01858
0.983235
0.94746
0.911126
0.878789
0.855221
0.841789
0.836988
0.837751
0.843082
0.853506
0.866503
3.00001
3.00001
3.00001
3.00001
3.00001
3.00001
3.00001
3.00001
3.00001
3.00001
3.00001
3.00001
3.00001
3.00001
3.00001
3.00001
3.00001
3.00001
3.00001
3.00001
3
3
2.99998
2.99998
2.99987
2.99984
2.99926
2.99896
2.9959
2.99379
2.97803
2.9636
2.89337
2.73689
2.36255
1.73415
1.28143
1.05617
0.952186
0.894214
0.858292
0.836702
0.829118
0.829294
0.833814
0.843608
0.856552
0.869548
0.88271
0.894868
3.00001
3.00001
3.00001
3.00001
3.00001
3.00001
3.00001
3.00001
3.00001
3.00001
3.00001
3.00001
3.00001
3.00001
3.00001
3.00001
3.00001
3.00001
3.00001
3.00001
3.00001
3
3
2.99998
2.99997
2.99984
2.9998
2.99911
2.99884
2.9954
2.99286
2.97823
2.95067
2.84634
2.69994
2.21712
1.54279
1.05079
0.786234
0.743851
0.759928
0.780788
0.807261
0.833796
0.854259
0.870942
0.885342
0.899082
0.912082
0.9238
3.00001
3.00001
3.00001
3.00001
3.00001
3.00001
3.00001
3.00001
3.00001
3.00001
3.00001
3.00001
3.00001
3.00001
3.00001
3.00001
3.00001
3.00001
3.00001
3.00001
3.00001
3.00001
3
3
2.99998
2.99997
2.99985
2.99981
2.99857
2.99806
2.98934
2.99672
2.93745
3.11595
2.83526
2.47285
1.70895
0.99383
0.527333
0.531776
0.611301
0.690018
0.752536
0.798074
0.83224
0.859648
0.882149
0.901147
0.917473
0.931294
3.00001
3.00001
3.00001
3.00001
3.00001
3.00001
3.00001
3.00001
3.00001
3.00001
3.00001
3.00001
3.00001
3.00001
3.00001
3.00001
3.00001
3.00001
3.00001
3.00001
3.00001
3.00001
3.00001
3
3
2.99995
2.99993
2.99976
2.99946
2.99826
2.99397
2.99125
2.96145
2.95031
2.7664
2.56501
1.87684
0.879569
0.446954
0.391213
0.482201
0.582663
0.662168
0.720312
0.763715
0.798748
0.828652
0.855544
0.87988
0.900242
3.00001
3.00001
3.00001
3.00001
3.00001
3.00001
3.00001
3.00001
3.00001
3.00001
3.00001
3.00001
3.00001
3.00001
3.00001
3.00001
3.00001
3.00001
3.00001
3.00001
3.00001
3.00001
3.00001
3
2.99999
2.99995
2.99994
2.99972
2.99928
2.99856
2.99482
2.9922
2.96745
2.95703
2.80517
2.6174
1.96588
0.971788
0.483123
0.347705
0.426092
0.516649
0.578047
0.622421
0.661516
0.698849
0.734887
0.76791
0.798431
0.82508
3.00001
3.00001
3.00001
3.00001
3.00001
3.00001
3.00001
3.00001
3.00001
3.00001
3.00001
3.00001
3.00001
3.00001
3.00001
3.00001
3.00001
3.00001
3.00001
3.00001
3.00001
3.00001
3.00001
3
2.99999
2.99995
2.99993
2.99978
2.99942
2.99884
2.9956
2.993
2.97082
2.96314
2.82766
2.67846
2.06397
1.0972
0.556321
0.352081
0.414713
0.488154
0.526775
0.55025
0.576032
0.606462
0.640116
0.674036
0.707358
0.738582
3.00001
3.00001
3.00001
3.00001
3.00001
3.00001
3.00001
3.00001
3.00001
3.00001
3.00001
3.00001
3.00001
3.00001
3.00001
3.00001
3.00001
3.00001
3.00001
3.00001
3.00001
3.00001
3.00001
3.00001
3
3
2.99999
3.00002
3.00003
3.00064
3.00012
3.00525
2.98994
3.08899
2.90066
2.71668
1.94075
1.14497
0.406148
0.292483
0.369745
0.44165
0.475832
0.494746
0.513952
0.536844
0.562994
0.592258
0.622597
0.652329
3.00001
3.00001
3.00001
3.00001
3.00001
3.00001
3.00001
3.00001
3.00001
3.00001
3.00001
3.00001
3.00001
3.00001
3.00001
3.00001
3.00001
3.00001
3.00001
3.00001
3.00001
3.00001
3.00001
3
3
2.99995
2.99993
2.99958
2.99956
2.99766
2.99703
2.98949
2.98537
2.95697
2.87456
2.71971
2.12973
1.21845
0.616018
0.346473
0.400901
0.467703
0.494478
0.501419
0.506065
0.514658
0.527807
0.544239
0.56423
0.584835
3.00001
3.00001
3.00001
3.00001
3.00001
3.00001
3.00001
3.00001
3.00001
3.00001
3.00001
3.00001
3.00001
3.00001
3.00001
3.00001
3.00001
3.00001
3.00001
3.00001
3.00001
3.00001
3.00001
3
3
2.99998
2.99996
2.99973
2.99968
2.99793
2.99712
2.98514
2.99291
2.91927
3.0635
2.78309
2.28194
1.35813
0.67294
0.310066
0.391634
0.471184
0.501449
0.508438
0.509408
0.511411
0.517149
0.52586
0.537645
0.550879
3.00001
3.00001
3.00001
3.00001
3.00001
3.00001
3.00001
3.00001
3.00001
3.00001
3.00001
3.00001
3.00001
3.00001
3.00001
3.00001
3.00001
3.00001
3.00001
3.00001
3.00001
3.00001
3.00001
3
3
2.99999
2.99997
2.99986
2.99976
2.99888
2.99817
2.9937
2.98753
2.96651
2.9313
2.8551
2.19298
1.40405
0.498626
0.261189
0.363533
0.449221
0.486599
0.501443
0.508364
0.514275
0.521148
0.529317
0.537959
0.54662
3.00001
3.00001
3.00001
3.00001
3.00001
3.00001
3.00001
3.00001
3.00001
3.00001
3.00001
3.00001
3.00001
3.00001
3.00001
3.00001
3.00001
3.00001
3.00001
3.00001
3.00001
3.00001
3.00001
3.00001
3.00001
3
2.99999
2.9999
2.99985
2.99895
2.99874
2.99109
3.00154
2.93085
3.13811
2.80602
2.36494
1.47378
0.751642
0.315008
0.382379
0.453583
0.491722
0.50481
0.509126
0.513427
0.520124
0.528784
0.537464
0.545306
3.00001
3.00001
3.00001
3.00001
3.00001
3.00001
3.00001
3.00001
3.00001
3.00001
3.00001
3.00001
3.00001
3.00001
3.00001
3.00001
3.00001
3.00001
3.00001
3.00001
3.00001
3.00001
3.00001
3.00001
3.00001
3
3.00001
2.99998
3.00001
2.99978
2.99987
2.99492
3.00581
2.94125
3.14373
2.83859
2.41923
1.56931
0.808787
0.296032
0.370708
0.44017
0.483295
0.498098
0.502763
0.507773
0.515797
0.52663
0.538169
0.548436
3.00001
3.00001
3.00001
3.00001
3.00001
3.00001
3.00001
3.00001
3.00001
3.00001
3.00001
3.00001
3.00001
3.00001
3.00001
3.00001
3.00001
3.00001
3.00001
3.00001
3.00001
3.00001
3.00001
3.00001
3.00001
3
3.00001
2.99996
3.0001
3.00008
3.00064
2.99729
3.00792
2.94716
3.14438
2.85595
2.46046
1.63029
0.855726
0.315911
0.366324
0.42485
0.470148
0.488041
0.495723
0.504243
0.515999
0.530124
0.544209
0.556458
3.00001
3.00001
3.00001
3.00001
3.00001
3.00001
3.00001
3.00001
3.00001
3.00001
3.00001
3.00001
3.00001
3.00001
3.00001
3.00001
3.00001
3.00001
3.00001
3.00001
3.00001
3.00001
3.00001
3.00001
3.00001
3.00001
3.00004
3.00005
3.0003
3.00047
3.00187
3.00048
3.01097
2.95632
3.15226
2.87147
2.50626
1.68968
0.904475
0.341554
0.358147
0.408997
0.457462
0.479467
0.489256
0.499154
0.512218
0.526853
0.541299
0.553592
3.00001
3.00001
3.00001
3.00001
3.00001
3.00001
3.00001
3.00001
3.00001
3.00001
3.00001
3.00001
3.00001
3.00001
3.00001
3.00001
3.00001
3.00001
3.00001
3.00001
3.00001
3.00001
3.00001
3.00001
2.99999
2.99999
2.99994
2.99993
2.99966
2.99956
2.99837
2.99696
2.991
2.9691
2.95468
2.81511
2.58191
1.87333
0.850384
0.424709
0.363357
0.419971
0.483138
0.5112
0.517191
0.517811
0.520054
0.525045
0.531049
0.536821
3.00001
3.00001
3.00001
3.00001
3.00001
3.00001
3.00001
3.00001
3.00001
3.00001
3.00001
3.00001
3.00001
3.00001
3.00001
3.00001
3.00001
3.00001
3.00001
3.00001
3.00001
3.00001
3.00001
3.00001
3
3
2.99993
2.99992
2.99949
2.99944
2.99713
2.99607
2.9854
2.98251
2.93048
2.89128
2.65167
2.00282
0.995771
0.511358
0.333386
0.407969
0.492215
0.526824
0.530389
0.52382
0.518316
0.51638
0.516721
0.518699
3.00001
3.00001
3.00001
3.00001
3.00001
3.00001
3.00001
3.00001
3.00001
3.00001
3.00001
3.00001
3.00001
3.00001
3.00001
3.00001
3.00001
3.00001
3.00001
3.00001
3.00001
3.00001
3.00001
3.00001
3.00001
3.00001
3
3.00003
2.99993
3.00026
2.99944
2.99812
2.99119
2.97925
2.95756
2.85188
2.69405
2.02825
1.11645
0.561045
0.333242
0.414407
0.499692
0.529462
0.527585
0.51851
0.512127
0.510492
0.511523
0.514283
3.00001
3.00001
3.00001
3.00001
3.00001
3.00001
3.00001
3.00001
3.00001
3.00001
3.00001
3.00001
3.00001
3.00001
3.00001
3.00001
3.00001
3.00001
3.00001
3.00001
3.00001
3.00001
3.00001
3.00001
3
3
2.99999
2.99996
2.99992
2.99971
2.99941
2.9982
3.00086
2.98858
3.0707
2.90298
2.7388
1.96418
1.16315
0.393383
0.287388
0.370687
0.448353
0.478968
0.488099
0.493428
0.500338
0.508962
0.518537
0.527118
3.00001
3.00001
3.00001
3.00001
3.00001
3.00001
3.00001
3.00001
3.00001
3.00001
3.00001
3.00001
3.00001
3.00001
3.00001
3.00001
3.00001
3.00001
3.00001
3.00001
3.00001
3.00001
3.00001
3.00001
3
3
2.99997
2.99996
2.9998
2.99971
2.99906
2.99804
2.99699
2.99036
3.01334
2.93599
2.79025
2.05097
1.23167
0.410614
0.294989
0.37007
0.442102
0.472638
0.485582
0.495575
0.506017
0.51634
0.526294
0.534523
3.00001
3.00001
3.00001
3.00001
3.00001
3.00001
3.00001
3.00001
3.00001
3.00001
3.00001
3.00001
3.00001
3.00001
3.00001
3.00001
3.00001
3.00001
3.00001
3.00001
3.00001
3.00001
3.00001
3.00001
3
3
2.99997
2.99995
2.99989
2.99958
2.99941
2.99677
2.99791
2.97805
3.06628
2.89893
2.712
2.0008
1.21425
0.425536
0.304311
0.385076
0.461464
0.49213
0.502787
0.510307
0.518379
0.525824
0.532988
0.539455
1.16036
0.752777
0.261615
0.250017
0.381774
0.448835
0.493491
0.544659
0.601419
0.646997
0.684435
0.72091
0.751063
0.763605
0.764698
0.758287
0.742114
0.713063
0.673529
0.62623
0.57583
0.524375
0.474603
0.42732
0.38215
0.3393
0.298036
0.258225
0.218964
0.180571
0.143676
0.108127
0.0740769
0.042384
0.0216875
0.0384259
0.0661819
0.0961793
0.125127
0.153005
0.17937
0.204346
0.230368
0.257053
0.282872
0.307487
0.331462
0.354742
0.377591
0.399702
0.421467
0.442579
0.463348
0.483463
0.503397
0.522576
0.541746
0.560088
0.578537
0.596143
0.613855
0.630773
0.647794
0.663982
0.680339
0.69575
0.711407
0.726035
0.740915
0.754743
0.768772
0.781744
0.794894
0.806968
0.819215
0.830378
0.841684
0.851937
0.862247
0.871625
0.880952
0.889497
0.897769
0.90554
0.912937
0.920011
0.926802
0.933536
0.940233
0.946967
0.953736
0.960609
0.967732
0.974939
0.982563
0.989968
0.997717
1.0047
1.01051
1.01634
1.09392
0.868895
0.487103
0.358814
0.208333
0.0701707
0.147236
0.242197
0.328848
0.387244
0.424861
0.461151
0.494953
0.510919
0.508086
0.497162
0.478591
0.4468
0.404086
0.35689
0.308671
0.261284
0.21708
0.175907
0.137308
0.101412
0.0691438
0.0461986
0.0442405
0.0655907
0.0925888
0.121486
0.150053
0.178038
0.204715
0.230045
0.25544
0.280809
0.305843
0.330265
0.353611
0.375832
0.398061
0.421343
0.444034
0.465869
0.486871
0.507563
0.527703
0.547562
0.566914
0.585958
0.604558
0.622796
0.640746
0.658224
0.675533
0.692325
0.709048
0.725211
0.741399
0.756975
0.772651
0.787688
0.802828
0.817342
0.831936
0.845909
0.859931
0.873309
0.886642
0.899289
0.911786
0.923589
0.935165
0.94609
0.956666
0.966649
0.976152
0.985152
0.993557
1.00157
1.00912
1.01616
1.02286
1.02916
1.03527
1.04129
1.0473
1.05339
1.05967
1.06616
1.07276
1.07945
1.08639
1.09311
1.10011
1.10632
1.11159
1.11664
1.0718
0.986447
0.838846
0.714833
0.595071
0.457755
0.343103
0.251704
0.164596
0.0845165
0.0625079
0.12354
0.189842
0.221073
0.207245
0.185421
0.166003
0.135801
0.105972
0.0853379
0.0786194
0.0882333
0.10868
0.132569
0.158275
0.184486
0.210625
0.236316
0.260789
0.284946
0.308917
0.332725
0.3562
0.378972
0.401149
0.422367
0.443534
0.464313
0.485116
0.50531
0.524964
0.543274
0.561539
0.580292
0.599422
0.617564
0.635126
0.652195
0.669009
0.685503
0.701757
0.717735
0.733481
0.749005
0.76428
0.779355
0.794185
0.808831
0.823239
0.837462
0.851446
0.865237
0.878782
0.892113
0.905199
0.91807
0.930701
0.94311
0.955274
0.967231
0.978989
0.990586
1.00202
1.0133
1.0244
1.03531
1.046
1.05643
1.06663
1.07651
1.08601
1.09522
1.10419
1.11275
1.12081
1.12836
1.13555
1.14244
1.1492
1.15561
1.16164
1.16696
1.17261
1.17744
1.18295
1.18749
1.19274
1.19664
1.20032
1.20274
1.07952
1.06474
1.00668
0.93827
0.864426
0.773318
0.674371
0.593401
0.515686
0.436287
0.363755
0.300985
0.245305
0.200708
0.173037
0.179022
0.20502
0.241692
0.28223
0.31619
0.341948
0.362271
0.38102
0.399345
0.417958
0.436745
0.455501
0.473867
0.491947
0.509421
0.526985
0.543995
0.561031
0.577445
0.593918
0.609848
0.626102
0.642146
0.658553
0.674797
0.690887
0.705893
0.720733
0.735907
0.751838
0.767135
0.781793
0.795852
0.809586
0.823019
0.836147
0.848997
0.8615
0.873785
0.885749
0.897565
0.909106
0.920565
0.931807
0.943034
0.954103
0.965179
0.976122
0.987065
0.997837
1.0085
1.01896
1.02923
1.03931
1.04914
1.05881
1.06824
1.07759
1.08682
1.09599
1.10515
1.11433
1.12349
1.13275
1.14204
1.1513
1.16062
1.16992
1.17907
1.18816
1.19716
1.20606
1.21468
1.22317
1.23134
1.23925
1.24676
1.25394
1.26072
1.26719
1.27311
1.27866
1.28336
1.28704
1.29006
1.08159
1.10203
1.09126
1.06633
1.02718
0.980018
0.920578
0.862177
0.798194
0.731066
0.660983
0.602607
0.556317
0.523123
0.509914
0.515244
0.533868
0.559863
0.587692
0.614784
0.635318
0.647161
0.657591
0.66692
0.676144
0.685542
0.695089
0.704544
0.713681
0.722596
0.731723
0.741173
0.750986
0.76081
0.770896
0.78093
0.791481
0.802176
0.813447
0.824791
0.836293
0.847113
0.857953
0.869272
0.881779
0.894515
0.90682
0.91876
0.930279
0.941787
0.952862
0.964084
0.974909
0.985952
0.996582
1.00738
1.01773
1.02817
1.0381
1.04804
1.05745
1.0668
1.07565
1.08444
1.09284
1.10121
1.10934
1.11734
1.12536
1.13303
1.14082
1.14816
1.15548
1.16247
1.16933
1.17603
1.18269
1.18937
1.19626
1.20335
1.21079
1.21862
1.22679
1.23531
1.24421
1.2533
1.26262
1.27183
1.2811
1.2899
1.29865
1.30674
1.31475
1.32191
1.32904
1.33506
1.34107
1.34578
1.34929
1.35281
1.07863
1.1148
1.13059
1.1347
1.12429
1.10474
1.07659
1.04021
0.998522
0.948946
0.8981
0.845419
0.800752
0.771055
0.759358
0.767921
0.788891
0.818386
0.849449
0.876829
0.898882
0.907838
0.909033
0.907079
0.904176
0.902245
0.901074
0.901826
0.903075
0.904868
0.906705
0.90899
0.912293