/*--------------------------------*- C++ -*----------------------------------*\
| =========                 |                                                 |
| \\      /  F ield         | OpenFOAM: The Open Source CFD Toolbox           |
|  \\    /   O peration     | Version:  2412                                  |
|   \\  /    A nd           | Website:  www.openfoam.com                      |
|    \\/     M anipulation  |                                                 |
\*---------------------------------------------------------------------------*/
FoamFile
{
    version     2.0;
    format      ascii;
    arch        "LSB;label=32;scalar=64";
    class       volScalarField;
    location    "4.5";
    object      p;
}
// * * * * * * * * * * * * * * * * * * * * * * * * * * * * * * * * * * * * * //

dimensions      [1 -1 -2 0 0 0 0];

internalField   nonuniform List<scalar> 
7000
(
1
1
1
1
1
1
1
1
1
1.00002
1.00003
1.00014
1.00017
1.00085
1.00095
1.00498
1.00692
1.03038
1.01855
1.06672
1.14613
1.05872
2.8622
4.70164
10.4544
10.2917
9.92897
9.63004
9.6194
9.67878
9.81528
9.95012
10.0516
10.1372
10.2215
10.3068
10.3913
10.4732
10.5517
10.6269
10.6982
10.7652
10.8273
10.8838
10.9343
10.9782
11.0145
11.0438
11.0651
11.0802
1
1
1
1
1
1
1
1
1
1.00002
1.00003
1.00012
1.00015
1.00073
1.00092
1.00451
1.00673
1.03024
1.01849
1.06652
1.14563
1.05793
2.86079
4.69433
10.4479
10.2851
9.92527
9.6287
9.61929
9.67837
9.81425
9.94879
10.0502
10.1359
10.2202
10.3056
10.3901
10.472
10.5506
10.6258
10.6971
10.7642
10.8263
10.8829
10.9336
10.9776
11.0141
11.0435
11.0648
11.08
1
1
1
1
1
1
1
1
1
1.00001
1.00002
1.00007
1.00007
1.00042
1.00027
0.999691
1.0121
1.03016
1.01927
1.066
1.14441
1.05591
2.85877
4.67902
10.4333
10.2699
9.91657
9.62525
9.61761
9.67607
9.81072
9.9447
10.0459
10.1316
10.216
10.3014
10.3858
10.4675
10.5459
10.6211
10.6923
10.7593
10.8214
10.8779
10.9286
10.9726
11.0092
11.0387
11.0599
11.0751
1
1
1
1
1
1
1
1
1
1
1
1.00001
0.999985
1.00008
0.999816
0.999012
1.01143
1.0275
1.01847
1.06601
1.1426
1.05173
2.85808
4.65737
10.4168
10.2405
9.90071
9.61926
9.6137
9.67145
9.8049
9.93824
10.0392
10.1248
10.2092
10.2944
10.3786
10.4601
10.5384
10.6133
10.6843
10.7511
10.8131
10.8695
10.9202
10.9642
11.0008
11.0303
11.0514
11.0666
1
1
1
1
1
1
1
1
1
0.999994
0.999983
0.999971
0.999845
0.99994
0.999642
0.998879
1.01047
1.02568
1.01642
1.06363
1.13902
1.04249
2.8653
4.62791
10.3809
10.2091
9.88361
9.61099
9.60692
9.66423
9.79656
9.92911
10.0296
10.1151
10.1994
10.2844
10.3683
10.4494
10.5274
10.602
10.6727
10.7393
10.801
10.8573
10.9079
10.9519
10.9886
11.0181
11.0391
11.0544
1
1
1
1
1
1
1
1
1
0.999991
0.999977
0.999959
0.999823
0.999889
0.999598
0.998888
1.00968
1.02415
1.01453
1.06046
1.13406
1.03493
2.85602
4.57676
10.3389
10.1816
9.86626
9.59951
9.59662
9.65364
9.78526
9.91704
10.017
10.1022
10.1862
10.2709
10.3543
10.435
10.5125
10.5867
10.657
10.7232
10.7846
10.8407
10.8911
10.9351
10.9718
11.0014
11.0224
11.0379
1
1
1
1
1
1
1
1
1
0.99999
0.999977
0.999958
0.999829
0.999886
0.999621
0.998954
1.00895
1.02154
1.01329
1.05655
1.12747
1.02413
2.84189
4.50605
10.2837
10.1561
9.8489
9.58447
9.58232
9.63934
9.77073
9.90178
10.0011
10.0858
10.1693
10.2535
10.3364
10.4164
10.4933
10.5669
10.6366
10.7023
10.7633
10.819
10.8693
10.9132
10.9499
10.9796
11.0006
11.0164
1
1
1
1
1
1
1
1
1
0.999992
0.999979
0.999964
0.999846
0.99991
0.999686
0.999138
1.00784
1.02028
1.01023
1.0533
1.12108
1.01686
2.81586
4.42422
10.2024
10.1325
9.8324
9.56632
9.56387
9.62103
9.75261
9.88297
9.98146
10.0655
10.1485
10.2319
10.314
10.3933
10.4693
10.5421
10.6111
10.6761
10.7365
10.7917
10.8416
10.8854
10.9219
10.9518
10.9728
10.9889
1
1
1
1
1
1
1
1
0.999998
0.999997
0.999984
0.999977
0.999899
0.999948
0.999768
0.999305
1.00708
1.01869
1.00818
1.04915
1.11341
1.00841
2.78352
4.32827
10.0899
10.1091
9.81591
9.54568
9.54163
9.59881
9.7304
9.86023
9.95788
10.0412
10.1232
10.2058
10.2868
10.365
10.44
10.5118
10.5798
10.6438
10.7033
10.7579
10.8073
10.8508
10.8872
10.9171
10.9382
10.9546
1
1
1
1
1
1
1
1
0.999999
0.999999
0.999994
0.999991
0.99995
1.00001
0.999867
0.999484
1.00628
1.01695
1.00611
1.04469
1.10499
0.999194
2.74637
4.21199
9.94731
10.0841
9.79771
9.52244
9.5158
9.57277
9.70386
9.83325
9.9301
10.0123
10.0933
10.1746
10.2543
10.3312
10.4048
10.4752
10.5419
10.6047
10.6632
10.7167
10.7653
10.8082
10.8444
10.8742
10.8953
10.912
1
1
1
1
1
1
1
1
1
1
1
1.00001
1
1.00006
0.999965
0.999681
1.00525
1.01342
1.00426
1.04036
1.09614
0.989642
2.70428
4.07321
9.77045
10.0568
9.7783
9.49686
9.48604
9.54236
9.67263
9.80156
9.89748
9.97849
10.0581
10.1378
10.2159
10.291
10.363
10.4317
10.4967
10.5578
10.6148
10.667
10.7145
10.7565
10.7921
10.8217
10.8427
10.8598
1
1
1
1
1
1
1
1
1
1
1.00001
1.00002
1.00002
1.00013
1.00009
0.999896
1.00425
1.01123
1.00181
1.03542
1.08637
0.979637
2.65375
3.92214
9.55487
10.0221
9.75887
9.46875
9.452
9.50747
9.63659
9.76492
9.85973
9.93928
10.0172
10.0951
10.1711
10.2442
10.3139
10.3804
10.4432
10.5021
10.557
10.6073
10.6531
10.6938
10.7284
10.7574
10.7782
10.7956
1
1
1
1
1
1
1
1
1
1
1.00001
1
1.00007
1.0002
1.00019
1.00012
1.00277
1.00705
0.999678
1.03081
1.07647
0.969997
2.59608
3.75524
9.29737
9.97984
9.73666
9.43736
9.41379
9.46821
9.59582
9.72323
9.81655
9.89422
9.97002
10.0456
10.1192
10.1896
10.2566
10.3203
10.3803
10.4364
10.4885
10.5362
10.5795
10.6181
10.6509
10.6788
10.6989
10.7168
1
1
1
1
1
1
1
1
1
1
1.00001
1.00002
1.00002
1.00015
1.00026
1.00068
1.00142
1.00475
0.997008
1.02556
1.06593
0.960486
2.53133
3.57067
8.99687
9.92678
9.70813
9.40117
9.37108
9.42442
9.55042
9.67647
9.76779
9.84303
9.91628
9.98918
10.0597
10.1269
10.1904
10.2505
10.3068
10.3591
10.4074
10.4514
10.491
10.5263
10.5563
10.582
10.6007
10.6187
1
1
1
1
1
1
1
1
1
1
1
1.00002
1.00002
1.00012
1.00021
1.00067
1.00071
1.00262
0.994557
1.0204
1.0554
0.951833
2.45995
3.3683
8.64918
9.86136
9.6703
9.35825
9.32265
9.37521
9.49993
9.62457
9.71341
9.78549
9.85542
9.92494
9.99191
10.0551
10.1144
10.17
10.2215
10.2689
10.3119
10.3505
10.3849
10.4149
10.4403
10.4621
10.4782
10.4961
1
1
1
1
1
1
1
1
1
1
1
1
1
1.00002
1
1.00008
0.999839
1.00114
0.992924
1.01599
1.04563
0.945208
2.38208
3.14809
8.251
9.77356
9.61374
9.30749
9.26764
9.31925
9.4428
9.56659
9.65305
9.72154
9.78741
9.85269
9.91518
9.97354
10.0276
10.0774
10.1229
10.1637
10.1998
10.2309
10.2574
10.2793
10.2968
10.3114
10.3219
10.3382
1
1
1
1
1
1
1
1
1
0.999999
0.999997
0.999996
0.999978
0.999979
0.999978
0.999618
0.999113
0.999924
0.991706
1.0119
1.03624
0.94122
2.29884
2.9158
7.83258
9.64891
9.52252
9.2516
9.20888
9.25858
9.37972
9.50234
9.58622
9.65074
9.71195
9.77225
9.82942
9.88199
9.92955
9.97227
10.0099
10.042
10.0687
10.0893
10.1041
10.1136
10.1174
10.1189
10.1187
10.1301
1
1
1
1
1
1
1
1
1
1
1
1
1
1.00001
0.999991
0.999972
1.00005
1.00116
0.999156
1.00909
0.99659
0.961867
2.22505
2.41774
7.52316
9.51386
9.41192
9.18147
9.14553
9.19403
9.31315
9.43259
9.51301
9.57312
9.62899
9.68341
9.73414
9.77968
9.81947
9.85352
9.88129
9.90228
9.91625
9.92207
9.91978
9.91014
9.89091
9.86736
9.8425
9.83997
1
1
1
1
1
1
1
1
1
1
1
1.00002
1.00002
1.00008
1.00011
1.00045
1.00063
1.00175
1.00033
1.00864
1.00809
0.96119
2.11549
2.24705
6.89558
9.318
9.28318
9.13784
9.09459
9.13724
9.24717
9.36058
9.43567
9.49015
9.53983
9.58745
9.63055
9.66758
9.69784
9.72123
9.73682
9.74363
9.74099
9.72836
9.70049
9.65852
9.60179
9.53192
9.4521
9.40165
1
1
1
1
1
1
1
1
1
1.00001
1.00001
1.00005
1.00005
1.00031
1.00035
1.00177
1.00274
1.01044
1.00722
1.03148
1.06589
1.01632
1.87629
2.06431
6.02467
9.21837
9.27526
9.13892
9.06249
9.09486
9.18467
9.28809
9.35651
9.40448
9.44646
9.4854
9.51926
9.54619
9.56511
9.57579
9.57559
9.5672
9.54373
9.50096
9.43845
9.35183
9.23232
9.07342
8.86725
8.64388
1
1
1
1
1
1
1
1
1
1
1.00001
1.00001
1.00006
1.00007
1.00033
1.00039
1.00192
1.00223
1.01153
1.0159
1.07137
1.05222
1.63325
1.71915
4.82373
8.88455
9.29524
9.16996
9.05478
9.06468
9.11571
9.20307
9.26423
9.30393
9.33536
9.36254
9.3838
9.3967
9.39955
9.39478
9.37781
9.34101
9.28429
9.20372
9.0915
8.93211
8.70181
8.34461
7.73428
6.41488
1
1
1
1
1
1
1
1
1
1
1.00001
1.00001
1.00006
1.00006
1.00032
1.00037
1.0017
1.00156
1.00957
1.01041
1.05823
1.06015
1.46116
1.52373
4.02353
7.7459
9.23924
9.21672
9.09467
9.03134
9.04596
9.09182
9.14734
9.18261
9.20372
9.21801
9.22478
9.22298
9.21287
9.18652
9.13731
9.07033
8.97996
8.85603
8.68483
8.44616
8.10339
7.59723
6.85324
5.64905
1
1
1
1
1
1
1
1
1
1
1.00001
1.00001
1.00004
1.00004
1.00022
1.00023
1.00118
1.00127
1.00653
1.00771
1.03581
1.05029
1.27205
1.27459
3.02436
5.6727
9.06195
9.3844
9.24241
9.02778
8.97874
8.99152
9.02364
9.05169
9.0639
9.06403
9.05966
9.04489
9.01183
8.95896
8.88881
8.79542
8.67134
8.50873
8.29347
8.00794
7.62528
7.11426
6.47065
5.66199
1
1
1
1
1
1
1
1
1
1
1
1.00001
1.00001
1.00003
1.00002
1.00008
0.999946
0.999547
1.00631
1.01624
1.0078
1.04453
1.09869
1.00519
2.55851
3.64319
8.57947
9.39532
9.24871
8.97848
8.85769
8.85646
8.86917
8.89515
8.90455
8.90097
8.88744
8.85613
8.80149
8.73114
8.64299
8.52976
8.38339
8.19812
7.96266
7.66614
7.29831
6.84442
6.32558
5.71869
1
1
1
1
1
1
1
1
1
1
1
1.00001
1.00001
1.00003
1.00003
1.00008
1.00013
0.999163
0.998185
0.998734
0.990385
1.00875
1.02887
0.933201
2.25263
2.67065
7.24638
9.16144
9.09159
8.86708
8.68872
8.66769
8.68213
8.71327
8.72602
8.72128
8.7028
8.66025
8.59176
8.50905
8.40831
8.28236
8.1258
7.93286
7.69772
7.41366
7.08117
6.68832
6.25834
5.77817
1
1
1
1
1
1
1
1
1
1
1
1.00001
1.00001
1.00006
1.00009
1.00034
1.00044
1.00208
1.00324
1.01171
1.01003
1.03899
1.06853
1.00897
1.85368
1.98239
5.66317
8.72263
8.94092
8.79567
8.57932
8.51869
8.527
8.54824
8.55414
8.54688
8.52208
8.46733
8.38955
8.29822
8.18972
8.0577
7.89804
7.70725
7.48206
7.22003
6.92036
6.58401
6.22057
5.81042
1
1
1
1
1
1
1
1
1
1
1
1
1.00001
1.00001
1.00006
1.00006
1.0003
1.0004
1.00148
1.00251
1.00967
1.00183
1.03029
1.06933
0.984132
2.39654
3.22375
7.83877
8.86698
8.7641
8.55438
8.42715
8.40572
8.40996
8.40903
8.39697
8.36139
8.28907
8.20238
8.10456
7.99186
7.85876
7.70106
7.51689
7.30434
7.06293
6.79306
6.49563
6.17753
5.83119
1
1
1
1
1
1
1
1
1
1
1
1
1.00001
1.00001
1.00001
1.00015
1.00032
1.00047
1.0016
1.00188
1.00408
1.00045
1.01041
1.02529
0.988972
2.04535
2.27804
6.03265
8.48559
8.61981
8.50066
8.32124
8.26562
8.26511
8.26142
8.24401
8.20036
8.12246
8.03089
7.92915
7.81381
7.68112
7.5287
7.35377
7.15564
6.93477
6.69142
6.42566
6.14321
5.83587
1
1
1
1
1
1
1
1
1
1
1
1
1
1.00001
1.00001
1.00007
1.00007
1.0003
1.00034
1.0018
1.00254
1.01082
1.0151
1.06533
1.1042
1.50107
1.68554
4.06891
7.64234
8.47635
8.43013
8.29987
8.18846
8.15304
8.13498
8.1005
8.04364
7.96775
7.88008
7.7816
7.6669
7.53373
7.3824
7.2148
7.03024
6.82707
6.60489
6.36682
6.11619
5.84576
1
1
1
1
1
1
1
1
1
1
1
1
1
1.00001
1.00001
1.00005
1.00006
1.00026
1.00029
1.00138
1.0014
1.00731
1.00824
1.03818
1.04718
1.28708
1.22455
3.11899
5.58632
8.01683
8.40086
8.33138
8.18133
8.08575
8.03026
7.97709
7.9108
7.83284
7.74371
7.64352
7.53073
7.40506
7.26365
7.10464
6.92761
6.73847
6.53798
6.32483
6.10066
5.85858
1
1
1
1
1
1
1
1
1
1
1
1
1
1
1.00002
1.00002
1.00009
1.00009
1.00049
1.00058
1.00267
1.00402
1.01577
1.00917
1.03889
1.08187
0.99948
2.31955
2.94847
6.98915
8.27612
8.26977
8.17248
8.00824
7.90636
7.84021
7.77559
7.7013
7.61649
7.52021
7.41202
7.29126
7.15748
7.01164
6.85398
6.6803
6.49232
6.29835
6.10214
5.88556
1
1
1
1
1
1
1
1
1
1
1
1
1
1
1
1.00001
1.00002
1.00004
1.00021
1.00017
1.00151
1.00221
1.00997
1.00789
1.03613
1.07153
1.06874
1.7399
1.99792
4.97875
7.7307
8.16003
8.09413
7.92367
7.77758
7.69717
7.63951
7.57647
7.5008
7.41235
7.31129
7.19809
7.07287
6.93699
6.79055
6.63477
6.47429
6.30254
6.11719
5.92465
1
1
1
1
1
1
1
1
1
1
1
1
1
1
0.999999
0.999999
0.999993
0.999992
0.999968
0.999931
0.999885
0.999536
0.999024
0.999834
0.992274
1.01156
1.03226
0.945467
2.23093
2.49288
6.58049
7.93382
7.94218
7.85838
7.68307
7.5773
7.5173
7.46587
7.40137
7.32318
7.23058
7.12718
7.01355
6.89066
6.75954
6.62411
6.47851
6.32007
6.15698
6.00018
1
1
1
1
1
1
1
1
1
1
1
1
1
1
1
1
1.00001
1.00001
1.00005
1.00005
1.00032
1.0004
1.00207
1.0031
1.01196
1.01944
1.06983
1.06324
1.60799
1.51953
4.15543
7.14744
7.78263
7.75375
7.65863
7.53069
7.44795
7.39165
7.32969
7.2556
7.16925
7.07604
6.97641
6.87242
6.76107
6.636
6.50449
6.36992
6.24222
6.13046
1
1
1
1
1
1
1
1
1
1
1
1
1
1
1
1
1
1.00001
1.00002
1.00002
1.00015
1.00017
1.00091
1.00149
1.00529
1.00727
1.03986
1.03766
1.28028
1.23461
2.85711
4.94337
7.187
7.64813
7.62667
7.54323
7.43982
7.36155
7.29515
7.22597
7.14979
7.06798
6.9794
6.88338
6.78334
6.68024
6.57603
6.48298
6.41045
6.36162
1
1
1
1
1
1
1
1
1
1
1
1
1
1
1
1
1
1.00001
1.00001
1.00005
1.00006
1.00028
1.00034
1.00158
1.00163
1.00927
1.0122
1.05273
1.07249
1.36811
1.4567
3.14236
5.60048
7.21434
7.52782
7.50885
7.43852
7.343
7.26472
7.20111
7.14437
7.07875
7.00667
6.93214
6.85966
6.79545
6.74163
6.72444
6.73117
6.7524
1
1
1
1
1
1
1
1
1
1
1
1
1
1
1
1
1
1
1.00001
1.00001
1.00006
1.00006
1.00032
1.00042
1.00174
1.00288
1.00894
1.0162
1.06564
1.06206
1.50486
1.46209
3.54512
6.03649
7.19527
7.42093
7.40276
7.33912
7.2626
7.2084
7.16673
7.12747
7.08959
7.05871
7.04541
7.0529
7.08059
7.14115
7.23285
7.32133
1
1
1
1
1
1
1
1
1
1
1
1
1
1
1
1
0.999999
0.999999
0.999996
0.999996
0.999975
0.999962
0.999835
0.999887
0.999568
0.998802
1.01033
1.02434
1.02056
1.06832
1.13094
1.07061
2.26115
3.34162
6.20939
7.19667
7.34734
7.33246
7.29217
7.26106
7.2598
7.26903
7.29489
7.34676
7.43491
7.56138
7.69836
7.82644
7.92989
7.98816
1
1
1
1
1
1
1
1
1
1
1
1
1
1
1
1
1
1
1
1
1.00001
1.00003
1.00002
1.00014
1.00013
1.00011
1.00239
1.00588
1.00688
1.0194
1.04889
1.01355
1.72649
1.71969
3.90955
6.40453
7.17373
7.34573
7.39406
7.43912
7.52005
7.63133
7.77223
7.96075
8.17861
8.37089
8.50784
8.5731
8.5658
8.53001
1
1
1
1
1
1
1
1
1
1
1
1
1
1
1
1
1
1
1
1
1.00001
1.00001
1.00004
1.00004
1.00021
1.00023
1.00122
1.00138
1.00665
1.00764
1.03552
1.05117
1.24196
1.25722
2.44941
4.10116
6.43977
7.32253
7.69011
7.92574
8.15332
8.42974
8.73268
8.9772
9.13118
9.17113
9.15246
9.09271
8.96782
8.79063
1
1
1
1
1
1
1
1
1
1
1
1
1
1
1
1
1
1
1
1
1
1.00001
1.00001
1.00004
1.00005
1.00024
1.00024
1.0013
1.00173
1.00728
1.00885
1.03995
1.04571
1.27694
1.31192
2.61666
4.31446
6.92407
8.35333
9.02318
9.4479
9.73223
9.85197
9.83834
9.77924
9.64438
9.43475
9.2271
9.02448
8.82372
1
1
1
1
1
1
1
1
1
1
1
1
1
1
1
1
1
1
1
1
1
1
1.00001
1.00001
1.00005
1.00007
1.00025
1.00042
1.00143
1.00193
1.00842
1.00719
1.05366
1.07583
1.33301
1.406
3.00364
5.42343
9.46213
10.8081
10.8334
10.7286
10.4659
10.1243
9.83863
9.61596
9.40373
9.19837
9.00281
8.81289
1
1
1
1
1
1
1
1
1
1
1
1
1
1
1
1
1
1
1
1
1
1
1
1
1.00001
1.00005
1.00008
1.00006
1.00107
1.00252
1.00487
1.02067
1.01062
1.0544
1.12419
1.03798
2.75589
4.22086
10.228
11.5564
11.3285
10.8183
10.3608
10.011
9.73899
9.50489
9.30492
9.12621
8.9649
8.81306
1
1
1
1
1
1
1
1
1
1
1
1
1
1
1
1
1
1
1
1
1
1
1
1.00001
1.00002
1.00002
1.0001
1.00013
1.00042
1.00177
1.00224
1.01117
1.01656
1.06424
1.08685
1.54338
1.6199
4.98023
9.93084
11.3339
11.0652
10.4915
10.0307
9.74102
9.55154
9.40671
9.27557
9.14015
8.99874
8.85986
1
1
1
1
1
1
1
1
1
1
1
1
1
1
1
1
1
1
1
1
1
1
1
1.00001
1.00002
1.00004
1.00003
1.00027
1.00021
1.00178
1.00149
1.01023
1.01285
1.05656
1.06935
1.46702
1.53722
4.53227
9.2125
11.097
10.7722
10.1395
9.77193
9.60733
9.51434
9.42171
9.31091
9.19526
9.08192
8.96699
1
1
1
1
1
1
1
1
1
1
1
1
1
1
1
1
1
1
1
1
1
1
1
1
1.00002
1.00003
1.00007
1.00016
1.00028
1.00125
1.0017
1.00812
1.01223
1.04861
1.0618
1.38599
1.41815
4.13737
8.4512
10.9961
10.6876
10.0588
9.7407
9.63556
9.56848
9.49062
9.39939
9.3008
9.19929
9.09137
1
1
1
1
1
1
1
1
1
1
1
1
1
1
1
1
1
1
1
1
1
1
1
1
1
1.00001
1.00001
0.999994
0.999969
0.999601
0.998753
0.999058
0.989865
1.0002
1.02551
0.92669
2.48651
3.2154
9.20424
10.8329
10.4257
9.89795
9.66187
9.59758
9.5517
9.48752
9.4096
9.32831
9.24371
9.15352
1
1
1
1
1
1
1
1
1
1
1
1
1
1
1
1
1
1
1
1
1
1
1
1
1.00002
1.00002
1.00012
1.00014
1.00071
1.00082
1.00361
1.0039
1.01368
1.03495
1.06537
1.32237
1.39167
3.75913
7.72516
10.9792
10.6567
9.9675
9.64198
9.55294
9.51825
9.47061
9.40396
9.33054
9.25635
9.17961
1
1
1
1
1
1
1
1
1
1
1
1
1
1
1
1
1
1
1
1
1
1
1
1
1.00001
1.00001
1.00007
1.00007
1.00058
1.00063
1.00403
1.00695
1.02607
1.02547
1.10582
1.21826
1.2105
3.26021
6.40129
11.1686
10.7962
9.98961
9.60865
9.49997
9.47281
9.44259
9.3942
9.33402
9.26949
9.20064
1
1
1
1
1
1
1
1
1
1
1
1
1
1
1
1
1
1
1
1
1
1
1
1
1.00001
1.00001
1.00002
1.00009
1.00036
1.00035
1.00207
1.00278
1.01159
1.02336
1.05356
0.928693
2.13766
2.2347
7.70203
11.0132
10.5476
9.86107
9.54427
9.45113
9.43718
9.42622
9.39741
9.34602
9.28882
9.22848
1
1
1
1
1
1
1
1
1
1
1
1
1
1
1
1
1
1
1
1
1
1
1
1
1
1.00001
1.00002
1.00003
1.00028
1.00034
1.00221
1.0037
1.01804
1.00772
1.05965
1.15437
1.08988
3.07168
5.56187
11.0439
10.7043
9.99551
9.59567
9.46126
9.44147
9.43392
9.414
9.37083
9.31386
9.25352
1
1
1
1
1
1
1
1
1
1
1
1
1
1
1
1
1
1
1
1
1
1
1
1
1
1
1
1
1.00004
1.00007
1.00089
1.00179
1.01071
1.00067
1.04254
1.11814
1.02113
2.92945
4.81942
11.0477
10.6905
10.0751
9.63631
9.47462
9.45198
9.44955
9.43733
9.40438
9.34501
9.28049
1
1
1
1
1
1
1
1
1
1
1
1
1
1
1
1
1
1
1
1
1
1
1
1
1
1
1.00001
1.00001
1.00002
0.999943
0.99994
1.00042
1.00502
0.996241
1.03403
1.09871
0.996531
2.84683
4.49966
10.7964
10.5697
10.1068
9.67578
9.50999
9.48386
9.47933
9.46374
9.4263
9.36763
9.30327
1
1
1
1
1
1
1
1
1
1
1
1
1
1
1
1
1
1
1
1
1
1
1
1
1
0.999993
0.999995
0.999924
0.999916
0.999488
0.999004
0.997288
0.998835
0.989627
1.02375
1.07859
0.977349
2.75626
4.25969
10.5804
10.6147
10.2018
9.74723
9.54355
9.49227
9.48154
9.4595
9.41778
9.36335
9.30005
1
1
1
1
1
1
1
1
1
1
1
1
1
1
1
1
1
1
1
1
1
1
1
1
1
1.00002
1.00003
1.00011
1.00011
1.00054
1.00063
1.00211
1.00884
1.01272
1.05984
1.05344
1.51745
1.61726
4.87037
9.84296
10.7711
10.4125
9.83806
9.55255
9.47781
9.47124
9.45449
9.41754
9.36186
9.29693
1
1
1
1
1
1
1
1
1
1
1
1
1
1
1
1
1
1
1
1
1
1
1
1
1
1
1.00005
1.00014
1.00018
1.00086
1.00096
1.00443
1.00652
1.02191
1.03633
1.10114
1.42731
1.32518
4.63389
9.12074
11.2654
10.797
9.99264
9.58524
9.47277
9.45847
9.43752
9.39771
9.33934
9.27757
1
1
1
1
1
1
1
1
1
1
1
1
1
1
1
1
1
1
1
1
1
1
1
1
1
1
0.999998
1
0.999995
1.00007
1
0.999967
1.007
1.01044
1.04456
1.07373
1.34524
1.49328
4.08933
8.59369
11.5663
11.0536
10.1185
9.64834
9.51298
9.48262
9.45421
9.40777
9.34721
9.28669
1
1
1
1
1
1
1
1
1
1
1
1
1
1
1
1
1
1
1
1
1
1
1
1
1
1
1.00002
1.00004
1.00005
1.00022
1.00058
1.00052
1.00225
0.994787
0.997615
1.01676
0.914481
2.50644
3.05919
9.58912
11.1087
10.5888
9.89742
9.57013
9.47578
9.44506
9.41558
9.37272
9.32049
9.26745
1
1
1
1
1
1
1
1
1
1
1
1
1
1
1
1
1
1
1
1
1
1
1
1
1
1.00001
1.00001
1.00007
1.00007
1.00029
1.0006
1.00112
1.00403
1.00011
1.00649
0.983892
0.877454
2.45014
2.76205
9.3504
10.9625
10.4538
9.80982
9.52383
9.44326
9.41724
9.39585
9.36488
9.32269
9.27563
1
1
1
1
1
1
1
1
1
1
1
1
1
1
1
1
1
1
1
1
1
1
1
1
1
1.00001
1.00001
1.00004
1.00011
1.00025
1.00011
1.00265
1.00643
0.999347
1.00885
1.01054
0.885959
2.46687
2.90945
9.30882
11.0477
10.5101
9.79701
9.4765
9.39077
9.37095
9.35845
9.34199
9.31559
9.27313
2.76991
2.86455
3.92504
3.69219
3.5169
3.42449
3.33126
3.19497
3.06452
2.96413
2.87414
2.77137
2.7149
2.69231
2.68716
2.70119
2.74983
2.83011
2.93758
3.0627
3.19462
3.32505
3.44951
3.56568
3.67406
3.77487
3.86895
3.95637
4.03876
4.11424
4.18188
4.24142
4.29354
4.33858
4.37798
4.4141
4.44239
4.46199
4.47504
4.48252
4.48408
4.48211
4.47535
4.46163
4.4437
4.42276
4.39844
4.37106
4.34072
4.30798
4.27284
4.23584
4.19708
4.15702
4.11568
4.07359
4.03065
3.98737
3.9436
3.89979
3.8558
3.81198
3.76824
3.72487
3.68184
3.63949
3.59778
3.55702
3.51725
3.47876
3.44166
3.40622
3.37259
3.34103
3.31166
3.28471
3.26028
3.23851
3.21963
3.2035
3.19012
3.17937
3.17117
3.16528
3.16128
3.15877
3.15729
3.1558
3.15362
3.15029
3.14549
3.13876
3.12952
3.11734
3.10226
3.08455
3.06489
3.04425
3.02505
3.01301
3.6564
3.70504
3.90715
3.68775
3.52573
3.45851
3.36307
3.19226
3.03663
2.92881
2.85804
2.78115
2.71929
2.69129
2.68399
2.6958
2.74202
2.82098
2.92876
3.0544
3.18629
3.31529
3.43956
3.55598
3.664
3.76435
3.85799
3.94369
4.02852
4.10495
4.17336
4.2332
4.28565
4.33123
4.37082
4.40633
4.43438
4.4546
4.46789
4.47543
4.47716
4.47566
4.46998
4.45705
4.4379
4.41667
4.39294
4.36604
4.3362
4.30374
4.26903
4.23234
4.19395
4.15415
4.11315
4.07125
4.02857
3.98542
3.94188
3.89818
3.85439
3.81071
3.7672
3.72403
3.68134
3.63927
3.59794
3.55756
3.51827
3.48022
3.44363
3.40868
3.37553
3.34443
3.31549
3.28887
3.26468
3.24302
3.22396
3.20743
3.19359
3.18195
3.17268
3.16553
3.16003
3.15576
3.15236
3.14923
3.14548
3.14039
3.13397
3.12569
3.1155
3.10291
3.08809
3.07104
3.05247
3.03279
3.01444
3.00331
4.55732
4.208
4.00369
3.73557
3.54412
3.42244
3.31713
3.1712
3.03018
2.93276
2.86898
2.78705
2.71031
2.67012
2.66177
2.68329
2.73101
2.80506
2.90807
3.03309
3.16777
3.29835
3.42257
3.53939
3.64766
3.74858
3.84285
3.93081
4.01418
4.09087
4.15989
4.22088
4.27438
4.32099
4.36115
4.39592
4.42379
4.44454
4.45825
4.46601
4.46777
4.46665
4.46213
4.45109
4.43106
4.40912
4.3854
4.35901
4.32973
4.29782
4.26361
4.22742
4.18955
4.15024
4.10973
4.06824
4.02599
3.98318
3.93998
3.89659
3.85311
3.80973
3.76659
3.72391
3.68175
3.64027
3.59963
3.55998
3.5215
3.48441
3.44884
3.41497
3.38295
3.35292
3.325
3.29929
3.27585
3.25469
3.23579
3.21905
3.20435
3.19145
3.18023
3.17041
3.16163
3.15361
3.1459
3.13855
3.13105
3.12147
3.11172
3.10047
3.08835
3.07484
3.06
3.04388
3.02705
3.00912
2.99351
2.98398
4.94197
4.45755
4.16082
3.84718
3.60229
3.44467
3.31633
3.16436
3.02505
2.92441
2.84694
2.77407
2.71558
2.68467
2.67734
2.6881
2.72566
2.80027
2.89969
3.01635
3.14459
3.27411
3.39869
3.51656
3.62661
3.72922
3.82498
3.91431
3.99789
4.07496
4.14435
4.20593
4.25969
4.30652
4.34665
4.38091
4.40857
4.42955
4.44367
4.45165
4.45349
4.45263
4.44911
4.44012
4.42158
4.39856
4.37428
4.34825
4.31972
4.28864
4.25521
4.21973
4.18254
4.14391
4.10406
4.06322
4.0216
3.97939
3.93681
3.89403
3.85119
3.80848
3.76625
3.72442
3.68318
3.64272
3.60321
3.56479
3.52766
3.49196
3.45783
3.4254
3.3948
3.36608
3.33932
3.31454
3.29172
3.27078
3.25159
3.23397
3.21772
3.2026
3.18825
3.17448
3.1614
3.14833
3.13504
3.12156
3.10783
3.09356
3.07913
3.06439
3.0493
3.03392
3.01824
3.00232
2.98649
2.97051
2.95694
2.94965
5.14489
4.65692
4.30841
3.98718
3.7171
3.50739
3.34285
3.18957
3.05403
2.95553
2.87877
2.81306
2.76416
2.73604
2.72898
2.73599
2.76309
2.82269
2.90553
3.00187
3.10862
3.23071
3.35834
3.4822
3.59773
3.70406
3.80186
3.89201
3.97542
4.05219
4.1218
4.18399
4.23851
4.28588
4.32632
4.36047
4.38814
4.40933
4.42393
4.43236
4.43443
4.43375
4.43096
4.42373
4.4083
4.38514
4.36036
4.33439
4.30653
4.27636
4.24394
4.20956
4.17345
4.13591
4.09712
4.05732
4.0167
3.97548
3.93384
3.89198
3.85006
3.80855
3.76733
3.72671
3.68689
3.6479
3.61003
3.57338
3.53811
3.50432
3.47215
3.44162
3.4128
3.38568
3.36021
3.33634
3.31391
3.29278
3.27272
3.25349
3.23485
3.21653
3.19829
3.18022
3.16162
3.14227
3.12248
3.10245
3.08241
3.0625
3.04291
3.02372
3.00501
2.98685
2.96926
2.95239
2.93651
2.92186
2.90868
2.9055
5.27721
4.82668
4.45852
4.13091
3.84732
3.61446
3.417
3.25814
3.12784
3.02933
2.95985
2.91523
2.88665
2.87125
2.8715
2.87522
2.88622
2.90986
2.946
2.99884
3.06614
3.15038
3.27577
3.40976
3.53992
3.65883
3.76517
3.85974
3.9447
4.0215
4.09128
4.15403
4.20951
4.25793
4.29928
4.33394
4.36211
4.3839
4.39915
4.40821
4.41095
4.41043
4.40824
4.40253
4.3902
4.36859
4.3441
4.31825
4.2908
4.26152
4.23026
4.19711
4.16223
4.12601
4.08853
4.05002
4.01068
3.97078
3.93044
3.88995
3.84973
3.80976
3.77028
3.73147
3.69356
3.65664
3.62098
3.5866
3.55365
3.52218
3.49225
3.46383
3.43684
3.41117
3.38671
3.36325
3.34057
3.31842
3.29656
3.27471
3.25268
3.23025
3.20765
3.18385
3.15876
3.13319
3.1074
3.08154
3.05589
3.03064
3.0061
2.98238
2.95967
2.93807
2.91769
2.89879
2.88138
2.86661
2.85364
2.85135
5.37368
4.96211
4.60028
4.27449
3.98403
3.73977
3.53934
3.37535
3.25075
3.16462
3.12
3.10083
3.09417
3.09256
3.09025
3.08555
3.07567
3.05475
3.0314
3.03414
3.05198
3.0974
3.17527
3.28944
3.43095
3.57012
3.69699
3.8065
3.89998
3.98084
4.05199
4.11539
4.17171
4.22114
4.26341
4.29908
4.3285
4.35152
4.36814
4.37872
4.38289
4.38256
4.38099
4.37674
4.3674
4.34869
4.32552
4.3001
4.27325
4.24487
4.21482
4.18312
4.14984
4.11512
4.0792
4.04238
4.00481
3.9666
3.92797
3.8896
3.85128
3.81335
3.77601
3.73945
3.70391
3.66945
3.63637
3.60457
3.57417
3.54514
3.51743
3.49095
3.46549
3.44079
3.41663
3.39276
3.36891
3.3448
3.3202
3.29494
3.26887
3.24207
3.21342
3.18341
3.15307
3.12235
3.0915
3.0607
3.03025
3.00031
2.97122
2.94311
2.91631
2.89091
2.86719
2.84537
2.82559
2.80905
2.79483
2.79206
5.43949
5.07276
4.72906
4.4121
4.12707
3.88268
3.68282
3.52692
3.42062
3.36634
3.36215
3.36777
3.3841
3.39356
3.38843
3.37005
3.32603
3.23731
3.14665
3.08799
3.08265
3.09381
3.12952
3.20255
3.30152
3.43219
3.57629
3.70943
3.82419
3.92059
4.00088
4.06908
4.1279
4.17799
4.22115
4.25771
4.28831
4.31278
4.33106
4.34372
4.34994
4.34992
4.34903
4.34609
4.33917
4.32482
4.3036
4.27938
4.25333
4.22587
4.19705
4.16694
4.13548
4.10281
4.06909
4.03449
3.99906
3.96309
3.92727
3.89134
3.85566
3.82042
3.78588
3.75219
3.71956
3.68803
3.65775
3.62869
3.60076
3.57387
3.54787
3.52249
3.49749
3.47263
3.44759
3.42207
3.39582
3.36864
3.34039
3.3111
3.28031
3.2474
3.21345
3.17917
3.14453
3.10973
3.07488
3.04027
3.00598
2.97235
2.93953
2.90781
2.87742
2.84859
2.82157
2.79665
2.77402
2.75499
2.7385
2.73352
5.49621
5.16713
4.85181
4.55016
4.27881
4.04923
3.86151
3.73012
3.66588
3.66727
3.67884
3.70804
3.74657
3.74242
3.72193
3.66878
3.55968
3.41354
3.28538
3.19255
3.14081
3.13712
3.14565
3.1745
3.23695
3.31795
3.429
3.56444
3.69765
3.81893
3.92126
4.00497
4.07292
4.12753
4.17245
4.21018
4.24165
4.26742
4.28778
4.30278
4.31135
4.31397
4.31351
4.31166
4.30698
4.29703
4.27929
4.25732
4.2327
4.20649
4.1791
4.15072
4.12131
4.09095
4.05963
4.02751
3.99464
3.9619
3.92885
3.89588
3.86324
3.83112
3.79975
3.76924
3.73968
3.71114
3.68359
3.65694
3.63105
3.60569
3.5806
3.55546
3.52997
3.50383
3.47677
3.44855
3.41902
3.38812
3.3555
3.32079
3.28446
3.24753
3.21016
3.17241
3.1343
3.09622
3.0581
3.02041
2.98308
2.94659
2.91089
2.87641
2.84323
2.81165
2.78188
2.75423
2.72888
2.70722
2.68824
2.68016
5.54804
5.2584
4.97822
4.70926
4.46621
4.26607
4.11183
4.02948
4.02917
4.04059
4.07256
4.12515
4.12157
4.09991
4.0426
3.92035
3.74855
3.58392
3.44303
3.33356
3.25634
3.21209
3.2009
3.20544
3.22458
3.27046
3.33095
3.41562
3.53056
3.66237
3.78884
3.89929
3.98954
4.06012
4.11439
4.1566
4.18986
4.21681
4.23855
4.25544
4.26722
4.2732
4.27384
4.27315
4.27072
4.26485
4.25254
4.23356
4.21098
4.18653
4.16094
4.13457
4.10748
4.07972
4.05124
4.02198
3.99287
3.96329
3.93366
3.90412
3.87493
3.84624
3.81816
3.79081
3.76417
3.73822
3.71284
3.6878
3.66291
3.63786
3.61236
3.5861
3.55881
3.53022
3.50026
3.46859
3.43494
3.3991
3.36155
3.32295
3.28376
3.24404
3.20368
3.16314
3.12226
3.08161
3.04101
3.00103
2.9615
2.92297
2.88528
2.84892
2.81379
2.7803
2.74848
2.71875
2.69119
2.66698
2.64583
2.63448
5.60781
5.35546
5.1204
4.89506
4.69911
4.54773
4.45493
4.4512
4.46238
4.49211
4.53482
4.52926
4.49905
4.425
4.27885
4.09911
3.91949
3.75772
3.61837
3.50204
3.40805
3.33668
3.28887
3.26123
3.26189
3.26957
3.29331
3.34101
3.40342
3.49241
3.6136
3.73997
3.85695
3.95538
4.03245
4.09012
4.13292
4.16465
4.18868
4.20691
4.2205
4.22934
4.23325
4.23321
4.23232
4.22945
4.22267
4.20879
4.18923
4.16732
4.14408
4.12008
4.09559
4.07064
4.04506
4.01972
3.99392
3.96794
3.94191
3.91602
3.89039
3.86511
3.8402
3.81565
3.79139
3.76723
3.74299
3.71844
3.6933
3.66729
3.64012
3.61161
3.58156
3.54957
3.5154
3.47903
3.44105
3.40182
3.36174
3.32085
3.27907
3.23682
3.19402
3.15122
3.10824
3.06571
3.02339
2.9819
2.94098
2.9012
2.86231
2.82481
2.78851
2.75386
2.72075
2.68967
2.66058
2.63459
2.6115
2.59757
5.69015
5.48637
5.29934
5.13759
5.01664
4.94183
4.93438
4.94291
4.9653
4.97178
4.9575
4.90852
4.8012
4.62366
4.43763
4.25794
4.09172
3.94165
3.80746
3.68782
3.58248
3.49157
3.41672
3.3585
3.32076
3.30327
3.30574
3.31835
3.34798
3.39148
3.45946
3.55941
3.67878
3.79844
3.90443
3.99032
4.0551
4.10146
4.1338
4.15636
4.17246
4.1834
4.19038
4.19296
4.19288
4.19195
4.18906
4.18197
4.16747
4.14888
4.12871
4.10762
4.08615
4.06408
4.04244
4.0204
3.99824
3.97593
3.9536
3.93127
3.90896
3.88664
3.86425
3.84166
3.81871
3.79518
3.77085
3.74545
3.71883
3.69072
3.66084
3.62878
3.59453
3.55819
3.52037
3.4812
3.44104
3.39965
3.35729
3.31404
3.27017
3.22592
3.18135
3.13697
3.09262
3.04894
3.00562
2.96332
2.92166
2.88127
2.84179
2.80374
2.76686
2.73162
2.69784
2.66604
2.63606
2.60924
2.58452
2.56903
5.81625
5.6742
5.56754
5.4915
5.45701
5.45887
5.46718
5.46738
5.45564
5.41405
5.31941
5.15036
4.96746
4.7756
4.59526
4.42933
4.27743
4.13605
4.00354
3.87935
3.76391
3.65854
3.56492
3.48496
3.42002
3.37215
3.34196
3.33493
3.33901
3.3536
3.38363
3.43157
3.50743
3.61524
3.73087
3.84225
3.93768
4.01175
4.06461
4.10024
4.12361
4.13836
4.1481
4.15318
4.15558
4.15552
4.15472
4.15192
4.14527
4.13175
4.11543
4.09787
4.07966
4.06142
4.04296
4.02438
4.00569
3.98687
3.96788
3.94861
3.92899
3.90882
3.88796
3.8662
3.84334
3.81919
3.79356
3.7661
3.73659
3.7047
3.6708
3.63496
3.59778
3.55909
3.51922
3.47781
3.43534
3.39171
3.34739
3.30234
3.25694
3.21134
3.16575
3.12048
3.07552
3.03131
2.98765
2.94507
2.90323
2.86269
2.82308
2.78493
2.74793
2.71258
2.67861
2.64674
2.61644
2.58951
2.5646
2.54785
6.0176
5.95907
5.9562
5.96307
5.98039
5.99527
5.98618
5.95136
5.86741
5.69999
5.5107
5.30867
5.113
4.93014
4.7636
4.60928
4.46489
4.32652
4.19304
4.06477
3.94234
3.82753
3.72142
3.62614
3.54245
3.47248
3.41625
3.37738
3.35299
3.35244
3.35779
3.37321
3.40641
3.46192
3.54972
3.65904
3.77274
3.87581
3.95954
4.02121
4.06302
4.08879
4.10544
4.11434
4.11918
4.12147
4.12183
4.12144
4.1196
4.11459
4.10395
4.09052
4.07609
4.06139
4.04631
4.031
4.01544
3.99954
3.98314
3.96603
3.94799
3.9288
3.90826
3.88604
3.86193
3.83557
3.80692
3.77597
3.74308
3.70836
3.67217
3.63423
3.59485
3.55378
3.51157
3.46801
3.42369
3.37839
3.33269
3.28648
3.24025
3.194
3.14805
3.10251
3.0575
3.01327
2.96975
2.92726
2.88565