/*--------------------------------*- C++ -*----------------------------------*\
| =========                 |                                                 |
| \\      /  F ield         | OpenFOAM: The Open Source CFD Toolbox           |
|  \\    /   O peration     | Version:  2412                                  |
|   \\  /    A nd           | Website:  www.openfoam.com                      |
|    \\/     M anipulation  |                                                 |
\*---------------------------------------------------------------------------*/
FoamFile
{
    version     2.0;
    format      ascii;
    arch        "LSB;label=32;scalar=64";
    class       surfaceScalarField;
    location    "4.5";
    object      phi;
}
// * * * * * * * * * * * * * * * * * * * * * * * * * * * * * * * * * * * * * //

dimensions      [1 0 -1 0 0 0 0];

oriented        oriented;

internalField   nonuniform List<scalar> 
13790
(
0.00290515
-3.28833e-14
0.00290515
1.709e-12
0.00290515
3.39036e-12
0.00290515
1.40254e-11
0.00290515
2.45242e-11
0.00290515
8.98548e-11
0.00290515
1.54699e-10
0.00290515
5.54622e-10
0.00290515
9.53508e-10
0.00290515
3.3935e-09
0.00290514
5.60206e-09
0.00290512
1.97087e-08
0.00290509
3.42563e-08
0.00290496
1.24159e-07
0.00290478
1.80616e-07
0.00290388
8.84422e-07
0.00290327
5.9842e-07
0.00290246
7.40846e-07
0.00290167
6.68606e-07
0.00290029
9.04158e-07
0.00289868
1.09606e-06
0.00289639
1.48786e-06
0.0028918
4.09717e-06
0.00287419
1.41206e-05
0.00282933
4.33244e-05
0.0027648
6.32079e-05
0.00268472
7.57912e-05
0.00260404
7.85318e-05
0.00252363
7.89354e-05
0.00244351
8.05829e-05
0.00236124
8.41875e-05
0.0022755
8.81601e-05
0.00218533
9.19581e-05
0.00209058
9.54773e-05
0.00199135
9.89973e-05
0.00188799
0.000102728
0.00178084
0.000106848
0.00166924
0.000111279
0.00155326
0.000115879
0.00143244
0.000120615
0.0013067
0.00012526
0.00117662
0.00012984
0.00104211
0.00013425
0.000903695
0.000138376
0.000761326
0.000142254
0.000614837
0.000145559
0.000465733
0.000148231
0.000314661
0.000150973
0.000159922
0.000155299
0.000159798
0.00301309
-1.1471e-13
0.00301309
3.13372e-12
0.00301309
6.19667e-12
0.00301309
2.5662e-11
0.00301309
4.49712e-11
0.00301309
1.65293e-10
0.00301309
2.83904e-10
0.00301309
1.05602e-09
0.00301309
1.82635e-09
0.00301309
6.85442e-09
0.00301308
9.88662e-09
0.00301306
4.33695e-08
0.003013
8.95531e-08
0.00301284
2.8712e-07
0.00301238
6.42605e-07
0.00300995
3.29231e-06
0.00301092
-3.5226e-07
0.00301018
1.30004e-06
0.00300967
9.57551e-07
0.00300813
1.92516e-06
0.00300639
2.40514e-06
0.00300376
3.57837e-06
0.00299942
8.00663e-06
0.00298265
2.7529e-05
0.00293647
8.81072e-05
0.00286532
0.000132168
0.00278196
0.00015432
0.00269983
0.000158617
0.00261686
0.000160646
0.00253366
0.000164625
0.00244806
0.000171913
0.00235909
0.000179611
0.00226573
0.000187057
0.00216766
0.000194195
0.00206487
0.000201499
0.00195769
0.000209249
0.00184653
0.000217719
0.00173072
0.000226772
0.00161037
0.000236126
0.00148503
0.000245736
0.00135459
0.000255204
0.00121963
0.000264551
0.00108001
0.000273594
0.000936239
0.000282115
0.00078822
0.000290146
0.000635723
0.000297087
0.000480263
0.000302791
0.00032273
0.000308404
0.000162724
0.000315892
0.000322389
0.00312505
-2.18179e-13
0.00312505
3.82108e-12
0.00312505
7.24752e-12
0.00312505
3.05944e-11
0.00312505
4.79412e-11
0.00312505
1.8619e-10
0.00312505
3.18885e-10
0.00312505
1.1672e-09
0.00312504
1.96216e-09
0.00312505
8.11934e-09
0.00312503
1.7193e-08
0.00312503
5.88489e-08
0.00312494
1.02841e-07
0.00312495
3.22962e-07
0.00312513
5.68644e-07
0.00312721
1.25091e-06
0.00312546
1.33407e-06
0.00312385
2.5592e-06
0.00312177
2.30799e-06
0.00311958
3.15701e-06
0.00311767
4.14336e-06
0.00311418
7.12465e-06
0.00311135
1.07522e-05
0.00309629
3.89286e-05
0.00304494
0.000137216
0.00296049
0.000211979
0.00287472
0.000237122
0.00279319
0.000239899
0.0027102
0.000244274
0.00262524
0.000250766
0.00253727
0.000261382
0.00244562
0.000273029
0.00234936
0.000284472
0.00224819
0.00029569
0.00214207
0.000307265
0.00203129
0.000319451
0.00191621
0.000332608
0.00179617
0.000346497
0.00167134
0.000360801
0.00154131
0.000375475
0.00140603
0.000389923
0.00126603
0.000404294
0.00112113
0.000418207
0.000971822
0.000431378
0.000817959
0.000443885
0.00065923
0.000454808
0.000497303
0.000463779
0.000333324
0.000472273
0.000167519
0.000482295
0.000489768
0.00324116
5.6022e-14
0.00324116
1.89703e-12
0.00324116
4.28879e-12
0.00324116
1.48911e-11
0.00324116
3.10612e-11
0.00324116
9.52717e-11
0.00324116
1.83698e-10
0.00324116
6.7399e-10
0.00324116
1.02886e-09
0.00324116
7.00122e-09
0.00324116
1.72218e-08
0.00324119
3.62242e-08
0.00324117
1.16008e-07
0.00324132
1.80946e-07
0.00324162
3.02303e-07
0.00324248
4.29703e-07
0.00324385
1.01331e-06
0.00324451
2.08178e-06
0.00324688
2.93196e-06
0.00324091
4.81499e-06
0.00323765
5.9012e-06
0.00323163
1.12273e-05
0.00322923
1.25753e-05
0.00320511
5.57492e-05
0.00311219
0.000219907
0.00304534
0.00028807
0.00297073
0.000311975
0.00289224
0.000317978
0.00280917
0.000326803
0.00272212
0.0003373
0.00263176
0.000352449
0.00253733
0.000368669
0.00243791
0.000384616
0.00233346
0.000400314
0.00222394
0.000416524
0.00210936
0.000433461
0.00199015
0.000451509
0.00186574
0.000470473
0.00173646
0.000489908
0.00160179
0.000509916
0.00146146
0.000529645
0.00131624
0.000549193
0.00116582
0.000568319
0.00101069
0.000586447
0.000850717
0.000603708
0.000685536
0.000618928
0.000516901
0.000631441
0.000346133
0.000642946
0.000173885
0.000655188
0.00066351
0.00336158
-1.15888e-14
0.00336158
1.54192e-12
0.00336158
2.79755e-12
0.00336158
1.14383e-11
0.00336158
2.11334e-11
0.00336158
7.14214e-11
0.00336158
1.47485e-10
0.00336158
2.5753e-10
0.00336158
3.28839e-10
0.00336159
2.61017e-09
0.0033616
6.96164e-09
0.00336162
1.55281e-08
0.00336171
3.59062e-08
0.00336182
7.64609e-08
0.00336205
1.07384e-07
0.00336231
1.05795e-07
0.00336359
6.65828e-07
0.00336267
1.68186e-06
0.003367
2.81166e-06
0.00336269
5.52148e-06
0.00335986
7.11778e-06
0.00335856
1.12713e-05
0.0033425
2.80293e-05
0.00330628
8.78573e-05
0.0032258
0.000288456
0.00315657
0.000363861
0.00307813
0.000386953
0.0029984
0.000395792
0.00291374
0.000410134
0.00282484
0.000426222
0.00273182
0.000446293
0.00263435
0.000467219
0.00253163
0.000487855
0.00242359
0.000508217
0.0023103
0.000529251
0.00219184
0.000551152
0.00206862
0.000574386
0.00194
0.000598694
0.00180617
0.000623619
0.00166666
0.000649164
0.00152137
0.000674393
0.00137056
0.000699635
0.00121438
0.000724119
0.00105314
0.00074765
0.000886609
0.0007701
0.000714617
0.000789808
0.000538886
0.000806209
0.000360857
0.000820889
0.000181124
0.000835606
0.000844494
0.00348648
4.67266e-14
0.00348648
1.09092e-12
0.00348648
2.99276e-12
0.00348648
8.86303e-12
0.00348648
2.14277e-11
0.00348648
3.76089e-11
0.00348648
8.58025e-11
0.00348648
1.41063e-10
0.00348648
1.96317e-10
0.00348648
5.21264e-10
0.00348649
1.05742e-09
0.00348651
2.19811e-09
0.00348654
1.65392e-09
0.00348661
7.4192e-09
0.00348675
-1.53195e-09
0.00348691
-5.33307e-08
0.0034879
5.07023e-07
0.00348576
1.77251e-06
0.00348953
2.67437e-06
0.00348653
5.75584e-06
0.00348447
7.91406e-06
0.00348158
1.3009e-05
0.00347361
3.50897e-05
0.00344075
0.000115357
0.00334723
0.000377458
0.00326949
0.000439745
0.00319118
0.000462327
0.00311033
0.000475604
0.00302372
0.000496191
0.00293256
0.000517995
0.0028366
0.000542905
0.00273557
0.000568603
0.00262923
0.000593976
0.00251767
0.000619209
0.00240078
0.000645272
0.00227878
0.000672347
0.00215183
0.000701074
0.0020194
0.000731012
0.00188132
0.000761878
0.0017368
0.000793413
0.00158598
0.000824526
0.00142972
0.000855534
0.00126732
0.0008862
0.00109951
0.000915334
0.000926169
0.000943336
0.00074667
0.000968253
0.000563134
0.000988633
0.000377149
0.00100666
0.000189558
0.00102379
0.0010339
0.00361602
9.03299e-14
0.00361602
2.53306e-13
0.00361602
1.28415e-12
0.00361602
2.74244e-12
0.00361602
8.3742e-12
0.00361602
1.75438e-11
0.00361602
5.98056e-11
0.00361602
1.22824e-10
0.00361602
3.7648e-10
0.00361602
-4.79949e-10
0.00361603
-1.95458e-09
0.00361604
-5.65958e-09
0.00361606
-1.55389e-08
0.0036161
-3.13107e-08
0.00361622
-6.57679e-08
0.00361646
-1.50561e-07
0.00361588
4.1568e-07
0.00362257
1.41107e-06
0.00361681
2.53494e-06
0.00361592
5.0509e-06
0.00361551
7.50933e-06
0.00361714
1.08195e-05
0.00360754
4.42638e-05
0.0035862
0.000130787
0.00348247
0.000476236
0.00339305
0.000528556
0.00331118
0.000543274
0.00322737
0.000558894
0.00313812
0.000584995
0.0030439
0.00061206
0.00294435
0.000641837
0.00283982
0.000672569
0.00273035
0.000702869
0.00261582
0.000733128
0.00249582
0.000764501
0.00237033
0.000797037
0.00224001
0.000831316
0.00210375
0.000867366
0.0019616
0.000904273
0.0018128
0.000942418
0.00165652
0.000980164
0.00149402
0.00101756
0.0013254
0.00105434
0.00115068
0.00108996
0.000969718
0.00112411
0.000782217
0.00115449
0.000590205
0.00117952
0.000395448
0.0012013
0.000198689
0.00122132
0.00123246
0.00375038
2.43319e-14
0.00375038
-1.21185e-13
0.00375038
-2.22868e-13
0.00375038
-1.60831e-12
0.00375038
-4.24419e-15
0.00375038
2.79865e-12
0.00375038
2.06469e-11
0.00375038
6.70501e-11
0.00375038
9.49204e-10
0.00375038
-2.29524e-09
0.00375038
-4.17037e-09
0.00375039
-1.09315e-08
0.00375041
-3.72266e-08
0.00375044
-5.50331e-08
0.0037505
-9.76099e-08
0.00375049
-1.85869e-07
0.00375149
2.54663e-07
0.00374627
1.09022e-06
0.00375144
2.15746e-06
0.00375021
5.10547e-06
0.00374917
7.79303e-06
0.00374847
1.12464e-05
0.00374226
4.94102e-05
0.00372142
0.000146732
0.00362078
0.000571256
0.00352552
0.000623687
0.0034365
0.000631177
0.00334819
0.000645918
0.00325558
0.00067619
0.00315866
0.000707884
0.00305605
0.000743459
0.00294873
0.000779293
0.00283651
0.000814603
0.00271931
0.000849963
0.00259664
0.000886974
0.00246796
0.000925376
0.00233387
0.00096556
0.00219386
0.00100755
0.0020477
0.00105107
0.00189406
0.00109615
0.00173296
0.00114076
0.00156438
0.00118577
0.00138879
0.00122947
0.00120691
0.00127169
0.00101816
0.00131265
0.00082217
0.00134929
0.000620792
0.00137968
0.000416194
0.00140573
0.00020926
0.00142897
0.00144161
0.00388972
-1.74801e-13
0.00388972
-6.55007e-13
0.00388972
-2.77537e-12
0.00388972
-5.06601e-12
0.00388972
-1.87749e-11
0.00388972
-3.25516e-11
0.00388972
-1.16095e-10
0.00388972
-1.81877e-10
0.00388972
-6.33439e-10
0.00388972
-1.45754e-09
0.00388973
-6.60862e-09
0.00388973
-1.29278e-08
0.0038897
-4.24406e-08
0.00388975
-6.75872e-08
0.0038898
-1.1564e-07
0.00388974
-2.10826e-07
0.00389072
2.61632e-07
0.00388458
1.17044e-06
0.00388927
2.24778e-06
0.00388823
5.39768e-06
0.00388705
8.2729e-06
0.0038862
1.1853e-05
0.00388101
5.3474e-05
0.0038588
0.000163474
0.00376288
0.000660718
0.0036623
0.000721485
0.00356708
0.000724992
0.00347512
0.000737784
0.00338003
0.000770983
0.00328034
0.000806698
0.00317507
0.000848095
0.00306504
0.000889312
0.00295034
0.000929641
0.00283077
0.000970336
0.00270557
0.001013
0.00257388
0.00105739
0.00243584
0.00110391
0.00229117
0.00115227
0.00214055
0.00120211
0.00198254
0.00125444
0.00181616
0.00130679
0.00164215
0.00135931
0.00145953
0.00141148
0.00126947
0.00146138
0.00107219
0.0015097
0.000866598
0.00155384
0.000655081
0.00158993
0.000439503
0.00162108
0.000221067
0.00164803
0.00166259
0.00403424
4.38609e-15
0.00403424
-1.15231e-12
0.00403424
-2.21846e-12
0.00403424
-9.18929e-12
0.00403424
-1.83715e-11
0.00403424
-5.9839e-11
0.00403424
-1.341e-10
0.00403424
-3.6755e-10
0.00403424
-9.44407e-10
0.00403425
-2.34902e-09
0.00403425
-6.50134e-09
0.00403425
-1.53599e-08
0.00403429
-3.85156e-08
0.00403425
-6.01648e-08
0.00403428
-1.10188e-07
0.0040342
-2.13682e-07
0.00403498
4.03515e-07
0.00402797
1.83989e-06
0.00403218
2.51832e-06
0.00403177
5.59813e-06
0.00403078
8.69198e-06
0.00403017
1.22049e-05
0.00402515
5.74384e-05
0.00400332
0.000177907
0.00390974
0.000751616
0.00380875
0.000819174
0.00371005
0.000822729
0.00361416
0.000833503
0.00351542
0.00086978
0.0034127
0.000909647
0.00330474
0.000956415
0.00319183
0.00100304
0.00307361
0.00104843
0.00295062
0.00109402
0.00282203
0.00114231
0.00268701
0.00119265
0.00254554
0.00124577
0.00239653
0.00130107
0.00224083
0.001358
0.00207803
0.00141752
0.00190634
0.00147821
0.00172614
0.00153906
0.00153729
0.00159961
0.00133966
0.00165852
0.00113333
0.00171572
0.000917766
0.00176795
0.000694375
0.00181187
0.00046646
0.001849
0.000234985
0.0018805
0.00189755
0.00418414
1.31096e-14
0.00418414
-6.57861e-13
0.00418414
-1.2956e-12
0.00418414
-5.2385e-12
0.00418414
-9.64532e-12
0.00418414
-3.29823e-11
0.00418414
-6.27933e-11
0.00418414
-2.13909e-10
0.00418414
-3.61805e-10
0.00418414
-1.37356e-09
0.00418413
-2.41496e-09
0.00418412
-7.73978e-09
0.00418411
-1.63935e-08
0.00418411
-5.52177e-08
0.00418412
-1.06198e-07
0.00418419
-2.10395e-07
0.00418329
3.53406e-07
0.00418639
1.496e-06
0.00418325
2.7743e-06
0.00418235
6.0229e-06
0.00418149
9.10764e-06
0.00418129
1.24357e-05
0.00417519
6.22929e-05
0.00416215
0.000184263
0.00406891
0.000837516
0.00396412
0.000923816
0.00386346
0.000922772
0.00376318
0.000932858
0.0036599
0.00097218
0.00355324
0.00101589
0.00344171
0.0010679
0.00332592
0.00111965
0.0032049
0.00117012
0.0030785
0.0012209
0.0029467
0.00127461
0.00280855
0.00133111
0.00266394
0.00139076
0.00251177
0.00145323
0.0023519
0.00151799
0.00218392
0.00158565
0.00200708
0.00165458
0.00182049
0.00172539
0.0016238
0.00179555
0.00141789
0.00186405
0.00120191
0.00193144
0.000975289
0.00199304
0.000740228
0.00204544
0.000497799
0.00209109
0.000250634
0.00212863
0.00214821
0.0043396
4.11455e-17
0.0043396
-1.64451e-14
0.0043396
-6.54823e-14
0.0043396
-1.63622e-13
0.0043396
-4.63123e-13
0.0043396
-5.81833e-13
0.0043396
-1.28427e-11
0.0043396
-4.25007e-12
0.0043396
-3.89757e-12
0.0043396
2.49991e-11
0.0043396
-8.24635e-11
0.00433958
4.67307e-09
0.00433962
-1.35104e-08
0.00433956
-2.84744e-08
0.00433955
-6.80926e-08
0.00433959
-1.82469e-07
0.00433845
4.98999e-07
0.00434054
2.18061e-06
0.00433777
2.64673e-06
0.00433707
5.74745e-06
0.00433671
9.03205e-06
0.00433737
1.20769e-05
0.0043329
6.55433e-05
0.00432082
0.000189844
0.00423667
0.000912613
0.00412974
0.00103016
0.0040236
0.00102832
0.00391912
0.00103667
0.00381232
0.00107828
0.00370216
0.0011257
0.0035871
0.00118258
0.00346774
0.00123945
0.00334398
0.00129462
0.00321479
0.00135072
0.00307978
0.00140995
0.00293842
0.00147273
0.00279026
0.00153918
0.00263448
0.00160898
0.00247099
0.00168159
0.00229879
0.00175799
0.00211719
0.00183585
0.00192577
0.00191628
0.00172271
0.00199788
0.00150808
0.00207801
0.00128203
0.00215714
0.0010429
0.00223112
0.000792658
0.00229402
0.000535052
0.00234823
0.000270201
0.00239417
0.00241849
0.00450084
-7.57844e-15
0.00450084
5.2124e-13
0.00450084
8.3458e-13
0.00450084
3.26273e-12
0.00450084
4.6016e-12
0.00450084
1.577e-11
0.00450084
3.99586e-11
0.00450084
9.59646e-11
0.00450084
1.39817e-10
0.00450084
5.09013e-10
0.00450084
6.41911e-10
0.00450084
-1.9029e-09
0.00450082
1.52867e-08
0.00450075
2.08998e-08
0.00450071
-1.25489e-08
0.00450079
-2.16204e-07
0.0045007
4.91904e-07
0.00450124
1.39621e-06
0.00450119
2.62622e-06
0.00450031
5.64992e-06
0.00449988
8.87394e-06
0.00450055
1.15541e-05
0.00449741
6.73761e-05
0.00448767
0.000193245
0.00441359
0.000975884
0.0043061
0.00113681
0.00419461
0.00113953
0.00408471
0.00114613
0.00397339
0.00118884
0.00385938
0.00123903
0.00374076
0.00130046
0.00361797
0.00136214
0.00349116
0.0014222
0.00335995
0.00148292
0.00322318
0.00154766
0.0030799
0.00161658
0.00292973
0.00168995
0.00277098
0.00176794
0.00260394
0.00184877
0.00242735
0.00193465
0.00223993
0.00202282
0.00204236
0.00211335
0.00183273
0.00220684
0.00161048
0.00229942
0.00137402
0.00239263
0.00112244
0.00248086
0.000856889
0.00255823
0.000579055
0.00262571
0.000292957
0.00268108
0.00271156
0.00466806
-1.82421e-14
0.00466806
4.64943e-13
0.00466806
1.16895e-12
0.00466806
3.72389e-12
0.00466806
7.97326e-12
0.00466806
2.10057e-11
0.00466806
4.32048e-11
0.00466806
1.01536e-10
0.00466806
1.84541e-10
0.00466807
4.93868e-10
0.00466806
1.34746e-09
0.00466805
2.86686e-09
0.00466807
6.58848e-09
0.00466806
2.56406e-08
0.00466802
5.63456e-08
0.00466772
6.68608e-08
0.00466777
4.14716e-07
0.0046676
1.33952e-06
0.00466792
2.26091e-06
0.0046675
5.08337e-06
0.00466757
8.26926e-06
0.00466894
1.04194e-05
0.00466746
6.76178e-05
0.0046607
0.000193411
0.00459585
0.00102954
0.00448951
0.00124207
0.00437334
0.00125587
0.0042578
0.00126189
0.00414195
0.0013041
0.00402451
0.00135586
0.00390288
0.00142093
0.00377713
0.00148717
0.00364726
0.00155197
0.0035127
0.00161758
0.00337364
0.0016875
0.00322834
0.00176238
0.00307686
0.0018422
0.00291721
0.00192788
0.00274842
0.00201773
0.00257031
0.00211293
0.00237993
0.0022127
0.00217733
0.00231552
0.00196081
0.0024228
0.00172946
0.00253028
0.00148324
0.00263819
0.00121789
0.00274486
0.000933664
0.00284055
0.000635514
0.00292341
0.000322718
0.00299481
0.00303445
0.00484151
-2.01492e-14
0.00484151
7.47624e-13
0.00484151
1.38846e-12
0.00484151
5.80285e-12
0.00484151
9.69548e-12
0.00484151
3.67253e-11
0.00484151
5.94781e-11
0.00484151
2.20485e-10
0.00484151
3.74329e-10
0.00484151
1.247e-09
0.0048415
2.39746e-09
0.00484151
7.39867e-09
0.00484146
1.24312e-08
0.00484146
5.07364e-08
0.00484143
1.12176e-07
0.00484112
3.14304e-07
0.00484086
6.04918e-07
0.00484085
1.18972e-06
0.00484132
1.83439e-06
0.00484124
4.23906e-06
0.0048418
7.30538e-06
0.00484384
8.6797e-06
0.00484364
6.66188e-05
0.00483972
0.000190381
0.00478529
0.00107099
0.00468094
0.00134608
0.00455514
0.00138318
0.00443457
0.00138516
0.00431455
0.00142526
0.00419402
0.00147724
0.00406943
0.00154475
0.00394154
0.00161445
0.00381107
0.00168293
0.00367654
0.00175308
0.00353668
0.0018285
0.00339057
0.0019094
0.00323738
0.00199638
0.00307646
0.00208955
0.00290627
0.00218852
0.00272592
0.00229385
0.00253386
0.0024043
0.00232902
0.00252025
0.00210906
0.00264208
0.00187068
0.0027679
0.00161291
0.00289579
0.00133495
0.00302157
0.00103174
0.00314157
0.00070538
0.00324952
0.000360478
0.00334074
0.00339518
0.00502139
-1.77653e-14
0.00502139
9.87834e-14
0.00502139
9.92252e-14
0.00502139
7.93251e-13
0.00502139
1.83798e-12
0.00502139
5.95692e-12
0.00502139
1.88967e-11
0.00502139
4.59875e-11
0.00502139
1.62168e-10
0.00502139
3.89743e-10
0.00502139
1.30305e-09
0.0050214
2.88124e-09
0.0050214
1.02201e-08
0.00502142
2.06211e-08
0.00502148
3.22809e-08
0.00502155
2.151e-07
0.00502167
4.33201e-07
0.00502189
8.21548e-07
0.00502288
8.68547e-07
0.00502341
2.59737e-06
0.00502355
6.62807e-06
0.00502468
6.88928e-06
0.0050286
6.24498e-05
0.00502454
0.000186215
0.00499091
0.00108815
0.00488469
0.00145195
0.00474296
0.00152712
0.00461649
0.00151825
0.00449193
0.00155366
0.00436957
0.00160282
0.00424325
0.00167128
0.00411329
0.00174313
0.00398009
0.00181494
0.00384486
0.00188812
0.00370641
0.00196839
0.00356197
0.00205474
0.00341145
0.00214836
0.0032521
0.00224971
0.00308361
0.00235762
0.00290374
0.00247419
0.00271044
0.00259725
0.00250322
0.00272728
0.0022803
0.00286454
0.00203886
0.00300823
0.00177362
0.0031602
0.00147952
0.00331456
0.00115671
0.00346227
0.000802173
0.00360327
0.000414311
0.00372956
0.0038098
0.00520796
-4.41686e-14
0.00520796
-2.25601e-13
0.00520796
-1.0854e-12
0.00520796
-2.59171e-12
0.00520796
-8.10408e-12
0.00520796
-1.67832e-11
0.00520796
-5.33244e-11
0.00520796
-9.60756e-11
0.00520796
-3.44798e-10
0.00520797
-7.34921e-10
0.00520797
-1.86067e-09
0.00520798
-3.32171e-09
0.00520799
-9.92273e-09
0.00520803
-1.70073e-08
0.00520812
-2.60369e-08
0.00520835
-1.25133e-07
0.00520892
-3.20448e-07
0.00520992
-5.35956e-07
0.0052134
-2.5792e-06
0.00521532
-3.41936e-07
0.00521062
1.03589e-05
0.00519784
-5.93394e-07
0.00523045
4.76859e-05
0.00516134
0.000246582
0.00520386
0.0010267
0.00507871
0.00156966
0.00492362
0.00168014
0.00477975
0.00166994
0.00465086
0.00168913
0.00452938
0.00173084
0.00440735
0.00179649
0.00428162
0.0018699
0.00415162
0.00194438
0.00401803
0.00202102
0.00388151
0.00210522
0.00373978
0.00219708
0.00359198
0.00229708
0.00343668
0.00240597
0.00327209
0.00252271
0.0030976
0.00264924
0.00290946
0.00278532
0.00270516
0.00293135
0.00248188
0.00308744
0.00223756
0.00325196
0.00196958
0.0034273
0.00166905
0.00361386
0.00132415
0.00380552
0.000933243
0.00399355
0.000491013
0.00417274
0.0043012
0.00540147
8.87663e-14
0.00540147
-1.27847e-12
0.00540147
-1.73207e-12
0.00540147
-8.90234e-12
0.00540147
-1.23801e-11
0.00540147
-5.29815e-11
0.00540147
-7.58941e-11
0.00540147
-3.087e-10
0.00540147
-4.40988e-10
0.00540147
-1.60683e-09
0.00540147
-2.83288e-09
0.00540147
-9.37249e-09
0.00540147
-1.78665e-08
0.00540152
-5.15589e-08
0.00540177
-9.11434e-08
0.00540132
-3.28716e-07
0.00540042
-6.96708e-07
0.00540116
-1.45909e-06
0.0053936
-2.89191e-06
0.00541463
-4.29224e-06
0.00544641
-7.26627e-06
0.00503073
-1.64796e-05
0.00541886
5.00778e-05
0.00560583
0.000112644
0.00535538
0.00122407
0.00515832
0.00174441
0.00498863
0.00182468
0.00486353
0.00179379
0.00474535
0.00181145
0.00463702
0.00184796
0.00452738
0.001912
0.00441328
0.00198648
0.0042957
0.00206285
0.00417463
0.00214299
0.00405017
0.00223126
0.00391996
0.00232903
0.00378292
0.00243587
0.00363617
0.00255407
0.00347929
0.00268034
0.00331129
0.00281817
0.00313132
0.00296553
0.00293652
0.00312597
0.00272281
0.00330067
0.00248628
0.00348785
0.00221818
0.00369466
0.00191126
0.00391958
0.00155663
0.00415858
0.00113457
0.00441465
0.000622343
0.00468597
0.00492401
0.00560216
-5.34603e-14
0.00560216
-1.11111e-12
0.00560216
-2.12178e-12
0.00560216
-7.70395e-12
0.00560216
-1.40588e-11
0.00560216
-4.81201e-11
0.00560216
-8.46158e-11
0.00560216
-2.93957e-10
0.00560216
-5.07543e-10
0.00560216
-1.77961e-09
0.00560216
-3.10654e-09
0.00560217
-1.13705e-08
0.00560212
-1.78401e-08
0.00560223
-7.37084e-08
0.00560201
-1.19024e-07
0.00560228
-4.58553e-07
0.00560296
-9.12824e-07
0.00560679
-2.87295e-06
0.00560845
-4.00469e-06
0.00559157
-1.02151e-05
0.00562394
-2.31723e-05
0.00559904
-3.21883e-05
0.00555777
6.6198e-05
0.00586715
0.000128169
0.00542582
0.00136622
0.0052027
0.00195392
0.00506284
0.00197734
0.00493065
0.00192308
0.0048185
0.00192728
0.00471998
0.00195194
0.00462263
0.00201576
0.0045196
0.00209173
0.0044138
0.00216987
0.00430671
0.0022512
0.00419799
0.00234212
0.00408469
0.00244472
0.00396582
0.00255738
0.00383854
0.0026835
0.00369926
0.00282105
0.00354762
0.00297086
0.00338021
0.00313357
0.00320116
0.00330511
0.00300625
0.0034954
0.0027837
0.00370988
0.00253194
0.0039455
0.00223828
0.00421242
0.00188429
0.00451138
0.0014442
0.00485368
0.000864228
0.00526678
0.00578873
0.00581031
-5.08889e-13
0.00581031
6.99765e-13
0.00581031
-6.03443e-13
0.00581031
5.06818e-12
0.00581031
-1.9491e-12
0.00581031
2.93672e-11
0.00581031
-8.20455e-12
0.0058103
1.79e-10
0.0058103
-3.40699e-11
0.0058103
1.0607e-09
0.0058103
-3.84564e-11
0.00581028
5.90194e-09
0.00581027
-9.17789e-10
0.00581012
3.5603e-08
0.00581001
-2.94009e-09
0.00580953
1.93735e-07
0.00580852
7.53645e-08
0.005804
1.18756e-06
0.00580122
-8.34713e-07
0.00578741
1.06989e-06
0.0057453
-4.74491e-06
0.00568133
-2.1441e-05
0.00576072
7.93876e-05
0.00568019
0.000146667
0.00578539
0.00128358
0.00551792
0.00223035
0.00530033
0.00219926
0.00512294
0.00210482
0.00498988
0.00207079
0.00488504
0.00206764
0.00478354
0.00212571
0.00468144
0.00219856
0.004577
0.00227712
0.00447128
0.0023583
0.00436747
0.00244891
0.00426286
0.0025522
0.0041561
0.00266687
0.00404648
0.00279585
0.00392904
0.00294018
0.00380393
0.00309708
0.00366993
0.00326847
0.00351225
0.00346294
0.00333239
0.003675
0.00313769
0.00390409
0.00291971
0.00416271
0.00267169
0.00445954
0.00236719
0.00481499
0.00196653
0.00525315
0.00138012
0.00585383
0.00716945
0.00840003
-5.20806e-14
0.00840003
1.94481e-13
0.00840003
5.21221e-13
0.00840003
2.05588e-12
0.00840003
4.00075e-12
0.00840003
1.35941e-11
0.00840003
2.41993e-11
0.00840003
8.37488e-11
0.00840003
1.61729e-10
0.00840003
4.26071e-10
0.00840003
6.81935e-10
0.00840004
2.80812e-09
0.00840001
4.04497e-09
0.00840013
1.58097e-08
0.00839987
2.6923e-08
0.00840062
9.54376e-08
0.00839951
2.06867e-07
0.00840308
6.50544e-07
0.00839658
1.25593e-06
0.0083537
2.43471e-06
0.00840412
6.57706e-06
0.0081163
9.66356e-07
0.00823411
5.82244e-05
0.00867098
0.000108779
0.0088327
0.000794498
0.00846522
0.00254629
0.00804531
0.00263722
0.00770819
0.00245479
0.00751505
0.00227527
0.00731378
0.00227803
0.00714798
0.00229707
0.00697705
0.00237202
0.00681004
0.00244467
0.00664795
0.00252237
0.00649284
0.00260894
0.00634341
0.00270871
0.00619781
0.00281971
0.0060572
0.00294314
0.00592409
0.00307753
0.00579068
0.00323319
0.00564746
0.00341336
0.00550013
0.00361089
0.00534441
0.00383075
0.00517639
0.00407177
0.00499674
0.00434153
0.00481472
0.00464065
0.00466708
0.00496149
0.00461822
0.00530045
0.00492825
0.00554338
0.00529151
0.0068077
0.00840003
2.14033e-13
0.00840003
3.38586e-13
0.00840003
1.42836e-12
0.00840003
2.08567e-12
0.00840003
8.4507e-12
0.00840003
1.37069e-11
0.00840003
5.07274e-11
0.00840003
5.95006e-11
0.00840003
3.76136e-10
0.00840003
1.67399e-10
0.00840003
1.14238e-09
0.00840003
1.65455e-09
0.00840003
5.63711e-09
0.00840011
9.4151e-09
0.0083999
3.12061e-08
0.0084009
6.3917e-08
0.00839973
1.83636e-07
0.00840421
3.23112e-07
0.00840411
1.00944e-06
0.00840222
1.33787e-06
0.00841003
6.24203e-06
0.00849351
9.58562e-06
0.00836064
5.77407e-05
0.00857066
0.000118665
0.00828594
0.000673096
0.00864139
0.00228783
0.008387
0.00289503
0.00819546
0.00265003
0.00798116
0.0025048
0.00777422
0.00249779
0.00757501
0.00250517
0.0073972
0.00255122
0.00721751
0.00262462
0.00704195
0.00269943
0.00687402
0.00278028
0.00671458
0.00287324
0.00656478
0.00297588
0.00642417
0.00309
0.00628418
0.0032236
0.00614999
0.0033717
0.00603595
0.00352991
0.00594055
0.00370783
0.00586501
0.00390696
0.00580919
0.00412749
0.00578952
0.00436043
0.00581515
0.00461397
0.00593064
0.00484522
0.0062046
0.00502586
0.00665951
0.00508711
0.00472521
0.00722626
0.00840003
2.32435e-13
0.00840003
1.25782e-13
0.00840003
1.14345e-12
0.00840003
1.05363e-12
0.00840003
6.18245e-12
0.00840003
6.06263e-12
0.00840003
3.26954e-11
0.00840003
3.29134e-11
0.00840003
7.79964e-11
0.00840003
4.01908e-10
0.00840003
1.41339e-09
0.00840003
1.4761e-09
0.00840002
8.20333e-09
0.00840007
1.00817e-08
0.00839997
5.07434e-08
0.00840027
7.10495e-08
0.0083997
3.15092e-07
0.00839978
6.08406e-07
0.00839946
8.42065e-07
0.00839587
7.14341e-07
0.00840291
8.4176e-06
0.00838899
9.50823e-06
0.00841544
5.186e-05
0.00801104
0.000103794
0.00880106
0.000375467
0.00961722
0.00127731
0.00953409
0.00294684
0.0092432
0.00294997
0.00891018
0.00285948
0.0086183
0.0028056
0.0083664
0.00276386
0.00812487
0.00279651
0.00789186
0.00285649
0.00767007
0.00292063
0.00746291
0.00298804
0.00727719
0.0030609
0.00710703
0.00314904
0.00694931
0.00325163
0.00680744
0.00336939
0.00667914
0.00350328
0.00656567
0.00364634
0.00647725
0.00379846
0.00642545
0.00396025
0.00642081
0.00413273
0.00647556
0.00430546
0.00661448
0.00447426
0.00683492
0.00462314
0.00716063
0.00469993
0.00751581
0.00473086
0.00445101
0.00778964
0.00840003
3.8867e-14
0.00840003
1.01997e-13
0.00840003
2.24006e-13
0.00840003
5.16856e-13
0.00840003
1.06983e-12
0.00840003
5.12782e-12
0.00840003
9.95382e-13
0.00840003
3.31031e-12
0.00840003
-3.05612e-12
0.00840003
2.1951e-11
0.00840003
1.92317e-10
0.00840003
1.55153e-10
0.00840004
1.17594e-09
0.00840007
9.58665e-10
0.0084001
5.41379e-09
0.00840017
2.59055e-09
0.00840056
1.1163e-08
0.00840104
5.41594e-08
0.00840196
1.41909e-06
0.00838854
3.14349e-06
0.00840152
5.20955e-06
0.0083941
1.14261e-05
0.00842026
2.16069e-05
0.0084652
3.71871e-05
0.00865784
0.000200077
0.0093588
0.000536921
0.00979363
0.00248153
0.00956305
0.0031837
0.00925894
0.00317085
0.00909192
0.0029821
0.00888711
0.00296859
0.00866593
0.00301378
0.00844968
0.00306813
0.0082355
0.00313033
0.00803042
0.00319062
0.00783519
0.00325487
0.00765849
0.00332587
0.00750205
0.00340952
0.00736975
0.00350353
0.0072601
0.00361508
0.00716952
0.00373924
0.00710195
0.00386788
0.00706097
0.00400244
0.0070642
0.00413017
0.007117
0.0042529
0.0072415
0.00434971
0.00743692
0.00442663
0.00770197
0.00443406
0.00800833
0.00442423
0.00425304
0.00820583
0.00840003
-4.2329e-15
0.00840003
-5.85218e-14
0.00840003
-1.21002e-13
0.00840003
-3.97881e-13
0.00840003
-6.56825e-13
0.00840003
-6.0216e-12
0.00840003
-4.33049e-13
0.00840003
-1.37402e-11
0.00840003
-2.21009e-11
0.00840003
-7.973e-11
0.00840003
-1.77382e-10
0.00840003
-6.45206e-10
0.00840003
-1.17184e-09
0.00840004
-4.55206e-09
0.00840005
-1.07886e-08
0.00840018
-4.50713e-08
0.00840034
-7.48761e-08
0.00840075
-5.49168e-07
0.00840159
-7.98006e-07
0.00840556
-1.59482e-06
0.00841305
-3.39155e-06
0.00842453
-4.21431e-06
0.00844446
-2.64486e-06
0.00849646
-1.65147e-05
0.00854084
0.00015526
0.00873675
0.000313377
0.00914411
0.00205105
0.00921359
0.00310817
0.00916767
0.00321232
0.00901091
0.0031332
0.00887481
0.00309609
0.00874572
0.00313391
0.0086169
0.00318794
0.00848301
0.00325755
0.00834328
0.00332561
0.00820376
0.00339105
0.0080686
0.00345907
0.00794621
0.00353192
0.0078376
0.00361223
0.00775509
0.00369878
0.00769556
0.00380035
0.00766368
0.00390163
0.00765663
0.00401069
0.00767822
0.00410909
0.0077347
0.00419671
0.00782446
0.00425975
0.00796052
0.00429013
0.00812414
0.00426965
0.00834205
0.00420556
0.00406371
0.00853093
0.00840003
-8.09455e-14
0.00840003
1.95445e-13
0.00840003
3.20501e-14
0.00840003
1.34414e-12
0.00840003
4.9081e-13
0.00840003
7.08522e-12
0.00840003
3.8603e-12
0.00840003
4.94229e-11
0.00840003
2.77809e-11
0.00840003
2.95804e-10
0.00840003
1.80828e-10
0.00840003
1.64423e-09
0.00840003
1.26219e-09
0.00840003
9.34371e-09
0.00839981
9.81651e-09
0.00840025
4.65361e-08
0.00839826
3.08469e-08
0.00839846
1.78649e-07
0.00839859
7.21864e-08
0.00839628
9.40115e-07
0.00839278
-4.47409e-07
0.00838537
4.65702e-06
0.00840654
8.42404e-06
0.00856186
-1.00503e-05
0.00828586
0.000222092
0.00880427
9.96952e-05
0.00927784
0.00125609
0.00921888
0.00314678
0.0091469
0.00329191
0.00899212
0.00328479
0.00887319
0.00321144
0.0087783
0.00322496
0.00868145
0.0032791
0.0085869
0.00334648
0.00849638
0.00341133
0.00840816
0.00347508
0.00832409
0.00354025
0.00824667
0.00360848
0.00817911
0.00367891
0.00812709
0.0037511
0.00809768
0.00383068
0.00809104
0.00391004
0.00811516
0.00398798
0.00816206