/*--------------------------------*- C++ -*----------------------------------*\
| =========                 |                                                 |
| \\      /  F ield         | OpenFOAM: The Open Source CFD Toolbox           |
|  \\    /   O peration     | Version:  2412                                  |
|   \\  /    A nd           | Website:  www.openfoam.com                      |
|    \\/     M anipulation  |                                                 |
\*---------------------------------------------------------------------------*/
FoamFile
{
    version     2.0;
    format      ascii;
    arch        "LSB;label=32;scalar=64";
    class       volScalarField;
    location    "4.5";
    object      T;
}
// * * * * * * * * * * * * * * * * * * * * * * * * * * * * * * * * * * * * * //

dimensions      [0 0 0 1 0 0 0];

internalField   nonuniform List<scalar> 
7000
(
1
1
1
1
1
1
1
1
1.00001
1.00001
1.00004
1.00004
1.00026
1.00024
1.00152
1.0018
1.00869
1.00295
1.04666
0.909831
1.12062
1.28299
1.90775
2.56501
2.68111
2.64376
2.63529
2.62467
2.62891
2.63807
2.64549
2.65146
2.65488
2.65922
2.66419
2.67079
2.67659
2.68189
2.68746
2.69165
2.69722
2.70185
2.70594
2.7101
2.71225
2.71641
2.7244
2.72755
2.72178
2.71855
1
1
1
1
1
1
1
1
1.00001
1.00001
1.00004
1.00004
1.00023
1.00022
1.00137
1.00182
1.00855
1.00292
1.04659
0.909877
1.12044
1.28246
1.9072
2.5653
2.6806
2.64426
2.63576
2.6247
2.6289
2.63763
2.64483
2.65084
2.65443
2.65898
2.66409
2.6707
2.67649
2.68175
2.68728
2.69149
2.69705
2.70167
2.70575
2.70986
2.71199
2.71618
2.72411
2.72715
2.72124
2.71792
1
1
1
1
1
1
1
1
1
1
1.00002
1.00002
1.00014
0.999834
1.00132
1.00032
1.00776
1.00257
1.04633
0.910174
1.12018
1.28167
1.90651
2.56789
2.67839
2.64602
2.63679
2.62314
2.62651
2.63389
2.64175
2.64876
2.65331
2.65852
2.66386
2.67044
2.67605
2.68126
2.6868
2.69106
2.69676
2.70134
2.70542
2.70957
2.71168
2.71582
2.72381
2.72686
2.72089
2.71763
1
1
1
1
1
1
1
1
1
1
1
0.999991
1.00005
0.99972
1.00089
1.0001
1.00727
1.00245
1.0461
0.909749
1.11864
1.28033
1.90636
2.57442
2.67786
2.64672
2.63045
2.61788
2.62157
2.63063
2.6394
2.64702
2.65225
2.65796
2.66333
2.66975
2.67546
2.68074
2.68636
2.69045
2.69591
2.70075
2.70477
2.70891
2.7111
2.71528
2.72321
2.72626
2.72033
2.71684
1
1
1
1
1
1
1
1
1
0.999995
0.999995
0.999958
1.00001
0.999694
1.00069
0.999999
1.00682
1.00197
1.04553
0.908082
1.11715
1.28087
1.90836
2.61063
2.66627
2.63547
2.62573
2.6162
2.6202
2.62912
2.63742
2.64533
2.65077
2.65684
2.66263
2.66924
2.67501
2.68017
2.68563
2.68974
2.69527
2.69957
2.70399
2.70804
2.71005
2.71429
2.7222
2.72506
2.71895
2.71609
1
1
1
1
1
1
1
0.999999
1
0.999993
0.999993
0.99995
0.999986
0.9997
1.00059
0.999991
1.00639
1.00131
1.04468
0.90724
1.1149
1.27774
1.90538
2.61207
2.66734
2.6349
2.62553
2.6151
2.61874
2.62687
2.63499
2.64328
2.6496
2.65608
2.66216
2.66902
2.67441
2.67951
2.68418
2.68808
2.694
2.6988
2.70247
2.7068
2.709
2.7128
2.7207
2.72383
2.71792
2.7144
1
1
1
1
1
1
1
0.999999
1
0.999993
0.999992
0.999952
0.999982
0.999725
1.00052
0.999984
1.00591
1.00061
1.04379
0.906104
1.11235
1.27239
1.90162
2.61339
2.67009
2.63186
2.62374
2.61295
2.61644
2.6244
2.63342
2.64252
2.64924
2.65577
2.66166
2.66839
2.67403
2.67826
2.68312
2.68639
2.69123
2.69665
2.70116
2.705
2.70703
2.71108
2.71927
2.72249
2.71656
2.71323
1
1
1
1
1
1
1
0.999999
1
0.999994
0.999994
0.999957
0.99999
0.999753
1.00051
1
1.00533
1.00012
1.04209
0.90635
1.10931
1.26526
1.89244
2.6119
2.67035
2.62419
2.62191
2.61151
2.6154
2.62389
2.63311
2.64225
2.64879
2.6553
2.66072
2.66697
2.67264
2.67731
2.68155
2.6844
2.68972
2.69377
2.69893
2.70348
2.70533
2.70899
2.71656
2.71983
2.71392
2.71044
1
1
1
1
1
1
1
0.999999
0.999999
0.999995
0.999995
0.999971
1
0.999787
1.00049
1.00003
1.00491
0.999441
1.04037
0.906592
1.10581
1.2566
1.88087
2.60896
2.66691
2.62245
2.62181
2.61153
2.6148
2.62283
2.63207
2.64108
2.64747
2.65335
2.65825
2.6638
2.66918
2.6745
2.67973
2.68229
2.68669
2.69098
2.69469
2.69996
2.7029
2.70641
2.71448
2.7176
2.71197
2.70858
1
1
1
1
1
1
1
1
1
0.999998
0.999999
0.999986
1.00002
0.999832
1.00047
1.00007
1.00445
0.998738
1.03848
0.907098
1.10179
1.24663
1.86685
2.60646
2.65845
2.62529
2.61908
2.60875
2.61187
2.61978
2.62877
2.63731
2.64371
2.65018
2.65489
2.66074
2.66574
2.67086
2.67687
2.68047
2.6843
2.6888
2.69273
2.69671
2.69907
2.70251
2.70981
2.71411
2.70866
2.70434
1
1
1
1
1
1
1
1
1
1
1
1
1.00003
0.999879
1.00044
1.0001
1.00378
0.998091
1.03654
0.908103
1.09733
1.23525
1.84996
2.60245
2.63779
2.63221
2.61511
2.60487
2.60797
2.61655
2.6254
2.63429
2.63994
2.64642
2.65156
2.6571
2.66201
2.66661
2.6717
2.67571
2.68034
2.68387
2.68853
2.69375
2.69591
2.69973
2.70716
2.70919
2.7043
2.70142
1
1
1
1
1
1
1
1
1
1
1.00001
1.00001
1.00004
0.999944
1.00043
1.00014
1.00319
0.99725
1.03427
0.909397
1.09245
1.22267
1.82923
2.59229
2.62764
2.62774
2.61367
2.60237
2.60496
2.613
2.62205
2.63077
2.63697
2.64248
2.64808
2.6536
2.65874
2.66368
2.66882
2.6725
2.67716
2.68028
2.68314
2.68737
2.69024
2.6934
2.70128
2.70572
2.69919
2.69485
1
1
1
1
1
1
1
1
1
1
1.00001
1
1.00005
1.00001
1.00039
1.00014
1.00224
0.997139
1.03179
0.911192
1.08709
1.20868
1.80458
2.5767
2.61876
2.62168
2.61046
2.59876
2.60096
2.60925
2.61799
2.62699
2.63319
2.63886
2.64351
2.64865
2.65314
2.65722
2.6628
2.66628
2.67165
2.67658
2.67952
2.68363
2.68502
2.68837
2.69542
2.69813
2.69442
2.69041
1
1
1
1
1
1
1
1
1
1
1
1.00001
1.00003
1.00006
1.00024
1.00022
1.0018
0.996646
1.02912
0.913341
1.08132
1.19384
1.77603
2.55545
2.6082
2.61679
2.60536
2.59374
2.59562
2.60451
2.61265
2.62194
2.62773
2.63428
2.63985
2.64499
2.65005
2.65307
2.65768
2.66081
2.66389
2.66853
2.67163
2.67655
2.67958
2.68052
2.68725
2.69234
2.68544
2.68044
1
1
1
1
1
1
1
1
1
1
1
1.00001
1.00003
1.00005
1.00022
1.00003
1.00133
0.996169
1.02631
0.916109
1.07521
1.17825
1.74312
2.52804
2.59391
2.61099
2.59929
2.58803
2.58979
2.59872
2.60789
2.61681
2.62278
2.62755
2.63267
2.63805
2.643
2.64774
2.65166
2.65566
2.65928
2.66275
2.66467
2.66723
2.67065
2.67417
2.67678
2.68084
2.67812
2.67307
1
1
1
1
1
1
1
1
1
1
1
1
1.00001
0.999988
1.00007
0.999748
1.00089
0.995931
1.02357
0.919823
1.06895
1.16238
1.70522
2.49261
2.57498
2.6018
2.59015
2.57944
2.58094
2.59016
2.59915
2.60904
2.61553
2.62227
2.62636
2.63134
2.63571
2.63867
2.64302
2.64511
2.64945
2.65341
2.65674
2.65883
2.65872
2.66103
2.66806
2.66976
2.66273
2.6572
1
1
1
1
1
1
1
1
1
0.999999
1
0.999993
1
0.999942
0.999988
0.999626
1.00051
0.995823
1.02082
0.923691
1.0625
1.14807
1.66153
2.44839
2.54999
2.59009
2.57894
2.57242
2.57443
2.58448
2.59311
2.60233
2.60762
2.61408
2.61903
2.6244
2.6292
2.63312
2.63641
2.639
2.64011
2.64257
2.64477
2.64881
2.6503
2.64742
2.64902
2.65371
2.64996
2.64225
1
1
1
1
1
1
1
1
1
1
1
0.999999
1.00001
0.999984
0.999996
0.999905
1.00043
0.998918
1.00576
0.979591
1.03812
1.05765
1.61074
2.44291
2.5214
2.56566
2.55303
2.55328
2.55856
2.57362
2.58459
2.59554
2.60203
2.60741
2.61157
2.61533
2.61925
2.62174
2.6262
2.6284
2.63164
2.63175
2.6315
2.63182
2.6327
2.63479
2.63394
2.63116
2.62151
2.6131
1
1
1
1
1
1
1
1
1
1
1.00001
1.00001
1.00003
1.00003
1.00012
1.00019
1.00062
1.00006
1.00367
0.987219
1.0465
1.02916
1.58439
2.35446
2.48099
2.53864
2.52752
2.531
2.53545
2.54906
2.56324
2.57807
2.58961
2.59805
2.60425
2.60861
2.6128
2.61347
2.61513
2.61602
2.61766
2.62092
2.62038
2.61867
2.61448
2.60817
2.60717
2.60563
2.59364
2.57197
1
1
1
1
1
1
1
1
1
1
1.00002
1.00001
1.00009
1.0001
1.00055
1.0007
1.00306
1.00163
1.01747
0.967955
1.04392
1.20771
1.44851
2.12474
2.43564
2.54062
2.53275
2.52939
2.52929
2.53618
2.54327
2.55476
2.5632
2.57466
2.58513
2.59359
2.60133
2.60527
2.60588
2.60514
2.60306
2.60125
2.60141
2.59989
2.5976
2.58876
2.57528
2.56038
2.53217
2.46347
1
1
1
1
1
1
1
1
1
1
1
1.00002
1.00002
1.00009
1.00012
1.00052
1.00072
1.00305
1.00398
1.02017
1.02835
1.0891
1.32722
1.86362
2.31521
2.52163
2.52249
2.52081
2.51679
2.52354
2.52685
2.53318
2.53934
2.54592
2.55514
2.56427
2.57482
2.58407
2.5905
2.59214
2.59024
2.58588
2.57599
2.56992
2.55709
2.54956
2.5294
2.50233
2.44489
2.31553
1
1
1
1
1
1
1
1
1
1
1
1.00002
1.00002
1.00008
1.00012
1.00047
1.00064
1.00229
1.00395
1.01144
1.03172
1.07153
1.23734
1.62088
2.18477
2.48134
2.5257
2.52031
2.51465
2.51153
2.51281
2.51324
2.51421
2.51506
2.51772
2.52108
2.52876
2.53684
2.54713
2.55891
2.5662
2.56533
2.55971
2.54636
2.5301
2.4984
2.47391
2.42462
2.36682
2.28026
1
1
1
1
1
1
1
1
1
1
1
1.00001
1.00001
1.00006
1.00007
1.00034
1.00036
1.0019
1.00222
1.01035
1.01363
1.05933
1.1561
1.38999
1.90884
2.3527
2.53454
2.53174
2.52642
2.51088
2.51324
2.5127
2.5111
2.50908
2.50481
2.50247
2.4978
2.49846
2.49903
2.50237
2.51021
2.52013
2.52414
2.51961
2.50743
2.47986
2.43859
2.38983
2.31081
2.26153
1
1
1
1
1
1
1
1
1
1
1
1
1.00001
1
1.00004
0.999854
1.00054
1.00007
1.00428
0.999796
1.03504
0.918288
1.09428
1.22202
1.76946
2.46723
2.52348
2.53062
2.52028
2.51048
2.50503
2.51094
2.51106
2.5103
2.50755
2.50197
2.4962
2.4863
2.48022
2.46928
2.4642
2.46163
2.46331
2.46276
2.45938
2.44788
2.41822
2.38294
2.30924
2.26195
1
1
1
1
1
1
1
1
1
1
1
1
1.00001
1.00001
1.00004
0.999951
1.00001
0.999394
0.999979
0.995552
1.01893
0.926029
1.05819
1.12666
1.62592
2.38397
2.48031
2.52926
2.51289
2.50777
2.50205
2.50369
2.50935
2.50993
2.50858
2.50483
2.49785
2.48882
2.47606
2.46371
2.44619
2.43432
2.41747
2.41041
2.39762
2.39055
2.372
2.35653
2.31249
2.26798
1
1
1
1
1
1
1
1
1
1
1
1
1.00002
1.00002
1.00011
1.00012
1.00055
1.00092
1.00346
1.00254
1.01896
0.974055
1.04442
1.17249
1.43721
2.05796
2.37213
2.47368
2.47632
2.47078
2.47189
2.4756
2.48576
2.4957
2.50072
2.50021
2.49676
2.48867
2.4755
2.46321
2.4449
2.42671
2.40533
2.38254
2.36355
2.34037
2.32491
2.30039
2.28535
2.25956
1
1
1
1
1
1
1
1
1
1
1
1
1
1.00002
1.00002
1.00009
1.0001
1.00048
1.00054
1.00295
0.998118
1.0286
0.922672
1.0805
1.17994
1.71186
2.42351
2.46768
2.47644
2.46445
2.45195
2.45031
2.45294
2.45878
2.46752
2.47633
2.48079
2.47898
2.47203
2.46115
2.44534
2.42576
2.40503
2.37918
2.35404
2.32568
2.29793
2.27065
2.24189
2.22
1
1
1
1
1
1
1
1
1
1
1
1
1
1.00002
1.00001
1.0001
1.0001
1.00053
1.00066
1.00208
0.999438
1.01258
0.963782
1.04733
1.05519
1.56717
2.24897
2.39805
2.45884
2.45563
2.44511
2.43449
2.43251
2.43398
2.43799
2.4413
2.44485
2.44926
2.45213
2.44944
2.44162
2.42544
2.40595
2.38211
2.35601
2.32668
2.2977
2.26573
2.23556
2.2038
1
1
1
1
1
1
1
1
1
1
1
1
1
1
1.00002
1.00002
1.00009
1.00013
1.00033
1.00102
1.00232
1.00554
1.01578
1.0307
1.12444
1.2594
1.75396
2.1862
2.42993
2.44171
2.43339
2.42675
2.42073
2.41508
2.41381
2.40942
2.40587
2.40349
2.40414
2.40601
2.41046
2.40827
2.39991
2.38154
2.36032
2.33277
2.30548
2.27132
2.24076
2.20704
1
1
1
1
1
1
1
1
1
1
1
1
1
1
1.00001
1.00001
1.00008
1.00007
1.00042
1.0004
1.00217
1.00233
1.01152
1.01494
1.05812
1.16592
1.377
1.93216
2.27413
2.41115
2.41809
2.41692
2.41261
2.40859
2.40262
2.39848
2.39054
2.38191
2.37651
2.37034
2.36683
2.36497
2.36535
2.36258
2.35355
2.33355
2.3116
2.28439
2.25628
2.22469
1
1
1
1
1
1
1
1
1
1
1
1
1
1
1
1.00003
1.00002
1.00015
1.00015
1.00082
1.00099
1.00464
1.00054
1.03003
0.931435
1.08062
1.18422
1.65011
2.30639
2.37559
2.40135
2.40001
2.395
2.3908
2.38509
2.3796
2.37386
2.36567
2.35637
2.34892
2.33871
2.33089
2.32339
2.31796
2.31622
2.31278
2.30395
2.28512
2.26433
2.24104
1
1
1
1
1
1
1
1
1
1
1
1
1
1
1
1
1.00002
1.00004
1.00009
1.00033
1.00049
1.00267
1.00128
1.01809
0.969651
1.04683
1.18879
1.39246
2.02498
2.27534
2.37812
2.39214
2.38568
2.38085
2.37649
2.37108
2.36736
2.35978
2.3518
2.34111
2.33217
2.31766
2.30853
2.2925
2.28553
2.27304
2.26947
2.26246
2.25493
2.23965
1
1
1
1
1
1
1
1
1
1
1
1
1
1
1
0.999997
0.999998
0.999987
0.999984
0.999929
0.999921
0.999533
1.00025
0.995943
1.01963
0.927286
1.06195
1.11591
1.61013
2.2962
2.33382
2.36023
2.35102
2.3526
2.35319
2.35602
2.35634
2.35425
2.34972
2.34006
2.33292
2.31858
2.30812
2.29285
2.28016
2.26643
2.25422
2.24187
2.23224
2.22457
1
1
1
1
1
1
1
1
1
1
1
1
1
1
1
1
1
1.00001
1.00002
1.00008
1.00012
1.00054
1.00077
1.00361
1.00465
1.02079
1.02986
1.10169
1.294
1.72873
2.16609
2.3413
2.33901
2.32846
2.32413
2.32345
2.32568
2.331
2.33466
2.33275
2.32899
2.32025
2.31079
2.29854
2.28532
2.27059
2.25645
2.24433
2.23384
2.22777
1
1
1
1
1
1
1
1
1
1
1
1
1
1
1
1
1
1.00001
1.00001
1.00004
1.00005
1.00026
1.00032
1.00169
1.00229
1.00856
1.01783
1.05425
1.14872
1.34286
1.81262
2.19769
2.31786
2.3163
2.30796
2.30279
2.29498
2.2921
2.29333
2.2971
2.30099
2.30524
2.30387
2.29895
2.29084
2.28152
2.27207
2.26066
2.25285
2.2488
1
1
1
1
1
1
1
1
1
1
1
1
1
1
1
1
1
1
1.00001
1.00002
1.00008
1.0001
1.00046
1.00053
1.00234
1.00366
1.01458
1.02186
1.08475
1.18176
1.53581
1.89022
2.21639
2.30188
2.30286
2.29959
2.29307
2.28414
2.27629
2.27174
2.27073
2.27029
2.27171
2.27562
2.27866
2.2802
2.28091
2.28448
2.29023
2.29467
1
1
1
1
1
1
1
1
1
1
1
1
1
1
1
1
1
1
1
1.00002
1.00002
1.00009
1.00011
1.00052
1.00069
1.00303
1.00394
1.016
1.0316
1.10436
1.23577
1.61559
1.97997
2.21759
2.26665
2.28087
2.28334
2.28163
2.27732
2.27262
2.27046
2.26929
2.27032
2.27336
2.27926
2.28766
2.29935
2.31195
2.32701
2.33929
1
1
1
1
1
1
1
1
1
1
1
1
1
1
1
1
1
0.999999
0.999999
0.999992
0.999991
0.999952
0.999985
0.999698
1.00057
1
1.00648
1.00421
1.03868
0.938894
1.10063
1.21799
1.64203
2.06652
2.22536
2.26064
2.26291
2.26853
2.27345
2.27698
2.28103
2.28353
2.28668
2.2931
2.30538
2.32006
2.337
2.35191
2.36385
2.37358
1
1
1
1
1
1
1
1
1
1
1
1
1
1
1
1
1
1
1
1
1.00001
1.00001
1.00004
1.00003
1.00025
1.00011
1.00161
1.00161
1.0088
0.996785
1.05108
1.04414
1.35383
1.75255
2.06972
2.23634
2.25663
2.26092
2.27217
2.28491
2.29866
2.31494
2.33281
2.35306
2.3714
2.38518
2.39384
2.39645
2.39493
2.39024
1
1
1
1
1
1
1
1
1
1
1
1
1
1
1
1
1
1
1
1
1
1.00001
1.00001
1.00006
1.00007
1.00036
1.00039
1.00195
1.00233
1.00992
1.01379
1.05607
1.1319
1.3164
1.68153
2.07049
2.22619
2.26592
2.28774
2.31418
2.34381
2.37562
2.40594
2.42954
2.44285
2.44782
2.44776
2.44364
2.43445
2.42152
1
1
1
1
1
1
1
1
1
1
1
1
1
1
1
1
1
1
1
1
1
1
1.00001
1.00001
1.00007
1.00007
1.00037
1.00047
1.00204
1.00294
1.01085
1.01722
1.04749
1.14933
1.35672
1.74012
2.10004
2.29029
2.36445
2.40389
2.43056
2.44591
2.44691
2.44565
2.44278
2.43724
2.42755
2.41699
2.4067
2.3982
1
1
1
1
1
1
1
1
1
1
1
1
1
1
1
1
1
1
1
1
1
1
1
1.00001
1.00001
1.00008
1.00009
1.00046
1.00053
1.00226
1.0034
1.00975
1.02433
1.07625
1.17022
1.473
1.86655
2.28201
2.5154
2.55632
2.54198
2.53519
2.52117
2.49398
2.46846
2.44634
2.43075
2.41519
2.40128
2.38733
1
1
1
1
1
1
1
1
1
1
1
1
1
1
1
1
1
1
1
1
1
1
1
1
1.00001
1.00001
1.0001
1.00005
1.0007
1.00079
1.00532
1.00018
1.03828
0.914787
1.1102
1.25029
1.85015
2.54324
2.7013
2.69419
2.62607
2.55973
2.51798
2.49171
2.4713
2.451
2.432
2.41431
2.39908
2.38599
1
1
1
1
1
1
1
1
1
1
1
1
1
1
1
1
1
1
1
1
1
1
1
1.00001
1.00001
1.00003
1.00003
1.00013
1.00021
1.00091
1.00297
1.00396
1.01976
1.02317
1.11987
1.25485
1.76855
2.3037
2.6963
2.74346
2.70894
2.65374
2.59156
2.54076
2.50787
2.48444
2.46687
2.44957
2.4319
2.41649
1
1
1
1
1
1
1
1
1
1
1
1
1
1
1
1
1
1
1
1
1
1
1
1.00001
1.00001
1.00003
1.00002
1.00015
1.00033
1.00072
1.00253
1.00358
1.01642
1.02017
1.09656
1.21908
1.68675
2.21208
2.65103
2.73619
2.72401
2.71423
2.69437
2.66177
2.62286
2.58923
2.55802
2.53409
2.51231
2.49382
1
1
1
1
1
1
1
1
1
1
1
1
1
1
1
1
1
1
1
1
1
1
1
1.00001
1.00001
1.00003
1.00003
1.00011
1.00026
1.00057
1.00216
1.00329
1.01489
1.01687
1.08677
1.18399
1.59339
2.13362
2.62542
2.75314
2.75273
2.75714
2.75502
2.7369
2.69519
2.64744
2.5985
2.55882
2.52866
2.5027
1
1
1
1
1
1
1
1
1
1
1
1
1
1
1
1
1
1
1
1
1
1
1
1
1
1
1.00001
0.999985
0.999997
0.999658
1.00002
0.99726
1.00721
0.941793
1.07535
1.07717
1.74293
2.63546
2.67416
2.67185
2.65298
2.65394
2.6652
2.67243
2.66915
2.65573
2.63354
2.5987
2.568
2.53674
1
1
1
1
1
1
1
1
1
1
1
1
1
1
1
1
1
1
1
1
1
1
1
1
1.00001
1.00003
1.00003
1.00022
1.00018
1.0012
1.0013
1.00527
1.00592
1.02211
1.05687
1.16244
1.52513
2.0649
2.6551
2.78619
2.76502
2.72038
2.68629
2.66828
2.66017
2.65237
2.63986
2.62769
2.60962
2.59356
1
1
1
1
1
1
1
1
1
1
1
1
1
1
1
1
1
1
1
1
1
1
1
1
1
1.00002
1.00002
1.00014
1.00015
1.00107
1.00126
1.00767
1.0016
1.04763
0.939624
1.13764
1.38791
2.02267
2.65012
2.83372
2.80645
2.75146
2.69988
2.65438
2.62509
2.61048
2.59769
2.5914
2.58672
2.58076
1
1
1
1
1
1
1
1
1
1
1
1
1
1
1
1
1
1
1
1
1
1
1
1
1
1.00001
1.00002
1.00006
1.00011
1.00056
1.00088
1.00305
1.00564
1.01551
1.04348
1.00822
1.57334
2.39575
2.59675
2.67242
2.67318
2.66764
2.66741
2.66825
2.66483
2.65377
2.63967
2.62233
2.60841
2.59477
1
1
1
1
1
1
1
1
1
1
1
1
1
1
1
1
1
1
1
1
1
1
1
1
1
1
1.00001
1.00005
1.00007
1.00056
1.00051
1.00459
0.997708
1.04338
0.900397
1.12988
1.3216
1.99027
2.66986
2.80649
2.76954
2.69685
2.65412
2.64449
2.64455
2.64256
2.63637
2.62623
2.61867
2.61136
1
1
1
1
1
1
1
1
1
1
1
1
1
1
1
1
1
1
1
1
1
1
1
1
1
1
0.999996
1.00001
0.999993
1.00012
1.00003
1.0028
0.996095
1.03797
0.90052
1.11134
1.28264
1.93924
2.68855
2.81989
2.77778
2.70094
2.64389
2.61734
2.60597
2.60071
2.59829
2.59767
2.59694
2.59619
1
1
1
1
1
1
1
1
1
1
1
1
1
1
1
1
1
1
1
1
1
1
1
1
1
1
1
1.00003
0.999936
0.999991
0.999692
1.00171
0.995299
1.03456
0.901772
1.10073
1.25288
1.90624
2.71278
2.81405
2.76573
2.69216
2.62653
2.59468
2.58479
2.58215
2.58176
2.58346
2.58637
2.59004
1
1
1
1
1
1
1
1
1
1
1
1
1
1
1
1
1
1
1
1
1
1
1
1
0.999999
0.999998
0.999986
0.999979
0.999849
0.9998
0.999061
1.00005
0.993968
1.02945
0.899779
1.09258
1.22192
1.88305
2.72993
2.81002
2.73009
2.66394
2.61395
2.59058
2.58539
2.58548
2.58711
2.59262
2.59957
2.61011
1
1
1
1
1
1
1
1
1
1
1
1
1
1
1
1
1
1
1
1
1
1
1
1
1.00001
1.00001
1.00004
1.00003
1.00018
1.00019
1.00087
1.00119
1.00455
1.01523
1.02216
1.08586
1.24675
1.78988
2.29738
2.73089
2.73821
2.72142
2.69168
2.68014
2.67782
2.67131
2.658
2.63603
2.6185
2.60838
1
1
1
1
1
1
1
1
1
1
1
1
1
1
1
1
1
1
1
1
1
1
1
1
1.00001
1
1.00004
1.00004
1.00026
1.00024
1.00146
1.00172
1.00732
1.00736
1.03824
1.03564
1.21534
1.62756
2.22913
2.71793
2.80344
2.789
2.74172
2.70762
2.68959
2.68573
2.67362
2.64699
2.61824
2.58917
1
1
1
1
1
1
1
1
1
1
1
1
1
1
1
1
1
1
1
1
1
1
1
1
1
1
1
0.999989
1.00005
0.99983
1.00041
1.00062
1.00422
1.00926
1.0206
1.07145
1.17665
1.62889
2.13387
2.70013
2.8194
2.80284
2.74522
2.70242
2.69036
2.68528
2.67018
2.6385
2.60699
2.57786
1
1
1
1
1
1
1
1
1
1
1
1
1
1
1
1
1
1
1
1
1
1
1
1
1
1
1.00001
1.00002
1.00003
1.00013
1.0003
1.00085
0.99929
1.0069
0.952015
1.07205
1.06232
1.7486
2.64666
2.72079
2.69217
2.65966
2.6231
2.61152
2.61266
2.61887
2.62117
2.61986
2.61888
2.62387
1
1
1
1
1
1
1
1
1
1
1
1
1
1
1
1
1
1
1
1
1
1
1
1
1
1
1.00002
1.00002
1.00011
1.00013
1.00047
1.00082
1.00145
1.00464
0.989157
1.0496
1.02755
1.66651
2.58784
2.70235
2.67728
2.63311
2.5928
2.57973
2.58073
2.58679
2.59289
2.60538
2.6244
2.65269
1
1
1
1
1
1
1
1
1
1
1
1
1
1
1
1
1
1
1
1
1
1
1
1
1
1
1.00002
1.00003
1.00005
1.00025
1.00017
1.00146
1.00085
1.01272
0.952475
1.07532
1.07998
1.71269
2.60377
2.69266
2.66508
2.62054
2.58321
2.5697
2.57091
2.57782
2.58502
2.59948
2.6199
2.64788
2.16759
2.58419
2.92656
3.05041
2.97448
2.94587
2.91053
2.8832
2.84037
2.81312
2.78165
2.75737
2.72994
2.71777
2.71454
2.71338
2.71824
2.73139
2.74687
2.76772
2.78415
2.80221
2.81687
2.82837
2.84199
2.84991
2.8595
2.86919
2.87324
2.87602
2.8778
2.87814
2.87801
2.87576
2.87316
2.87178
2.8671
2.86426
2.85817
2.85456
2.84704
2.84184
2.83359
2.8271
2.81685
2.8089
2.79958
2.79131
2.78054
2.77234
2.76173
2.75278
2.74202
2.73347
2.72189
2.71384
2.70171
2.69394
2.68162
2.67376
2.66189
2.65392
2.64232
2.63477
2.62323
2.61634
2.60507
2.5988
2.58825
2.58253
2.57298
2.56801
2.55944
2.55537
2.54782
2.54462
2.53821
2.53572
2.53059
2.52868
2.5248
2.52313
2.52086
2.51944
2.51831
2.51726
2.51653
2.51549
2.51436
2.51279
2.51087
2.50854
2.50533
2.50217
2.49732
2.49361
2.48757
2.48344
2.47899
2.47519
2.17482
2.35089
2.71075
2.9615
3.12879
3.16196
3.03833
3.01446
3.0055
2.99643
2.99114
2.97575
2.96936
2.96112
2.97623
2.98675
3.00223
3.01636
3.0322
3.0395
3.04229
3.0406
3.02797
3.01013
2.98885
2.96564
2.94158
2.91827
2.90005
2.88102
2.86296
2.8449
2.82987
2.81632
2.80221
2.79089
2.77828
2.76776
2.7562
2.74581
2.7353
2.72422
2.71459
2.70215
2.69162
2.67914
2.66821
2.65562
2.64426
2.63147
2.61948
2.60661
2.59421
2.58176
2.56878
2.55691
2.54392
2.53253
2.51956
2.50855
2.49552
2.48481
2.47175
2.46108
2.44815
2.43744
2.42475
2.41419
2.40194
2.39187
2.38066
2.37176
2.36229
2.35511
2.34778
2.34243
2.33748
2.33409
2.33162
2.33012
2.33008
2.33047
2.33151
2.33363
2.33606
2.33915
2.34211
2.34488
2.34727
2.34905
2.3499
2.34974
2.34906
2.34795
2.34562
2.34385
2.34016
2.33819
2.33506
2.33353
2.19874
2.28167
2.36427
2.52647
2.70527
2.98318
3.019
3.0843
3.18191
3.20198
3.14292
3.14
3.12972
3.14203
3.17063
3.18368
3.20563
3.21636
3.21965
3.21828
3.20226
3.17719
3.14172
3.10265
3.06172
3.02465
2.99196
2.9596
2.93056
2.90178
2.87424
2.84862
2.82303
2.80114
2.77842
2.76042
2.74062
2.72486
2.70727
2.69372
2.67879
2.66772
2.65507
2.64528
2.63388
2.6239
2.61335
2.60352
2.59325
2.58312
2.5725
2.56166
2.55039
2.53874
2.52699
2.51494
2.50299
2.49084
2.47889
2.46685
2.45508
2.44331
2.43181
2.42035
2.40907
2.39777
2.38655
2.37527
2.36399
2.35253
2.34085
2.3288
2.31646
2.30383
2.29114
2.2785
2.26618
2.25436
2.24309
2.23272
2.22361
2.21537
2.20784
2.20172
2.19735
2.1946
2.19291
2.19215
2.19201
2.19292
2.19487
2.19946
2.20265
2.20866
2.21183
2.21796
2.22079
2.22708
2.22986
2.23893
2.19817
2.21139
2.24647
2.31717
2.3824
2.51576
2.70847
2.85174
2.99808
3.11147
3.12243
3.13274
3.15664
3.19652
3.21086
3.20716
3.19151
3.18872
3.18299
3.16749
3.15308
3.12965
3.09809
3.06165
3.0182
2.97156
2.92533
2.88263
2.84092
2.80567
2.77077
2.743
2.71559
2.69356
2.66975
2.64959
2.62707
2.60751
2.58633
2.56729
2.54756
2.53137
2.515
2.50107
2.48691
2.47541
2.46493
2.45632
2.4487
2.44216
2.4366
2.43166
2.42763
2.42371
2.42044
2.41688
2.41373
2.40998
2.40639
2.40194
2.39741
2.39194
2.38629
2.37981
2.37329
2.3664
2.35952
2.35255
2.34548
2.33852
2.33125
2.32397
2.31603
2.30756
2.29839
2.28839
2.27754
2.26614
2.25383
2.24106
2.22818
2.21506
2.20197
2.18948
2.17731
2.16566
2.1546
2.1447
2.13541
2.12724
2.11992
2.11402
2.10918
2.1055
2.1026
2.101
2.10012
2.10086
2.10136
2.10638
2.20532
2.18332
2.18906
2.20669
2.24287
2.28309
2.3694
2.45751
2.57771
2.71046
2.87445
2.97869
3.03753
3.07744
3.10408
3.10382
3.08904
3.05908
3.02247
2.96944
2.91564
2.8772
2.82775
2.78472
2.74636
2.71115
2.67889
2.65051
2.62664
2.60634
2.58707
2.56855
2.55058
2.53505
2.51968
2.50615
2.49111
2.47724
2.46204
2.44856
2.43448
2.42243
2.40953
2.39672
2.38242
2.36877
2.35624
2.34473
2.33514
2.32565
2.31833
2.31026
2.30394
2.29635
2.29039
2.28332
2.27797
2.27188
2.26766
2.26301
2.26027
2.25728
2.25593
2.25423
2.2536
2.25241
2.25158
2.2505
2.24856
2.24721
2.24462
2.243
2.24066
2.23886
2.2368
2.23466
2.23206
2.22879
2.22431
2.21869
2.21153
2.20285
2.19282
2.18158
2.16919
2.15641
2.14305
2.13022
2.11723
2.10582
2.09453
2.08531
2.07623
2.0696
2.06277
2.05887
2.05426
2.05272
2.05121
2.05239
2.20886
2.18002
2.16774
2.15689
2.16504
2.17882
2.20653
2.25047
2.30483
2.38355
2.4631
2.56363
2.65512
2.71605
2.75662
2.75148
2.731
2.6867
2.62963
2.5734
2.51779
2.4863
2.46272
2.44586
2.43601
2.42745
2.42213
2.41277
2.40523
2.39802
2.39324
2.38909
2.38277
2.37558
2.36796
2.36077
2.35187
2.34302
2.33318
2.32423
2.31555
2.30825
2.30233
2.29723
2.29268
2.2872
2.28281
2.27691
2.27211
2.26523
2.26046
2.25381
2.24949
2.2433
2.23881
2.23232
2.22731
2.22056
2.21531
2.20886
2.20389
2.19841
2.19368
2.18924
2.18465
2.18121
2.17707
2.1745
2.17132
2.16908
2.16666
2.16432
2.162
2.15955
2.15708
2.1545
2.1517
2.14864
2.14508
2.14092
2.13578
2.12973
2.12231
2.114
2.10373
2.09342
2.08132
2.07019
2.05773
2.04697
2.03597
2.02677
2.01824
2.01145
2.00582
2.00219
1.99904
1.99898
1.99911
2.00201
2.19564
2.17111
2.15887
2.1411
2.13597
2.12839
2.13432
2.15007
2.1711
2.21292
2.26237
2.31313
2.36835
2.40217
2.42711
2.41765
2.3909
2.35568
2.31479
2.28557
2.2626
2.2516
2.24662
2.25223
2.26104
2.27166
2.27898
2.2851
2.28919
2.29309
2.29663
2.29771
2.29743
2.29655
2.2945
2.29073
2.28506
2.27816
2.27011
2.26031
2.25043
2.23948
2.2302
2.22013
2.21162
2.20148
2.19319
2.18451
2.17819
2.17121
2.16595
2.15982
2.15569
2.15107
2.14873
2.14576
2.14428
2.14169
2.14013
2.13798
2.13636
2.1349
2.13329
2.13256
2.13125
2.13078
2.12976
2.12914
2.128
2.12681
2.12533
2.12365
2.12172
2.11958
2.11721
2.11461
2.11162
2.10819
2.10411
2.09945
2.09358
2.0873
2.07905
2.07035
2.05982
2.04934
2.03716
2.02562
2.01311
2.0022
1.99071
1.9817
1.97252
1.96612
1.95991
1.9564
1.95284
1.95247
1.95259
1.95526
2.16483
2.14978
2.13848
2.12446
2.1196
2.11632
2.1131
2.1192
2.13278
2.15646
2.18337
2.2174
2.24422
2.25682
2.26904
2.26157
2.24557
2.21896
2.19212
2.17175
2.16311
2.15241
2.1525
2.15786
2.1695
2.18542
2.20176
2.21402
2.22324
2.23029
2.23121
2.23018
2.22737
2.22236
2.21668
2.20954
2.20159
2.19469
2.18718
2.18048
2.17477
2.1685
2.16397
2.15879
2.15504
2.14917
2.14445
2.1384
2.13397
2.12821
2.12379
2.11804
2.11341
2.10732
2.10192
2.09559
2.09003
2.08452
2.07932
2.07462
2.06966
2.06575
2.06158
2.05843
2.05539
2.05298
2.05102
2.04941
2.0481
2.0471
2.04603
2.04506
2.04402
2.04276
2.0415
2.03996
2.03818
2.03629
2.03377
2.03113
2.02722
2.02314
2.0175
2.01166
2.00497
1.99711
1.98967
1.98061
1.97262
1.96378
1.95571
1.94836
1.94125
1.93607
1.93069
1.92781
1.92472
1.92444
1.92468
1.92769
2.16485
2.13336
2.11941
2.10349
2.09041
2.08941
2.09218
2.09986
2.12165
2.15022
2.17949
2.20386
2.22806
2.23751
2.23329
2.22032
2.20115
2.1707
2.14172
2.12066
2.10492
2.09597
2.09236
2.08807
2.09135
2.09799
2.10832
2.11933
2.12952
2.13474
2.13761
2.13725
2.13601
2.13354
2.13
2.12698
2.1244
2.12237
2.11992
2.11881
2.11658
2.11473
2.11357
2.11225
2.11108
2.10848
2.10612
2.10176
2.09822
2.09308
2.08914
2.08409
2.08015
2.0755
2.07152
2.06722
2.06288
2.05872
2.05397
2.04969
2.04486
2.0405
2.0362
2.03214
2.02856
2.02499
2.02187
2.01889
2.01608
2.01344
2.01078
2.00802
2.00525
2.0022
1.99899
1.99567
1.99188
1.988
1.98351
1.97863
1.97333
1.96745
1.96192
1.95498
1.94918
1.94145
1.9356
1.92767
1.92205
1.91476
1.90985
1.90386
1.89976
1.89571
1.89237
1.89047
1.88846
1.88844
1.88882
1.89193
2.17499
2.1372
2.11425
2.09939
2.08939
2.08626
2.09018
2.10237
2.12748
2.15184
2.17274
2.19682
2.20251
2.20635
2.19771
2.17935
2.15112
2.11769
2.09608
2.07198
2.05588
2.04482
2.03537
2.03131
2.02221
2.02285
2.02536
2.03083
2.04069
2.05246
2.06295
2.0716
2.07846
2.08321
2.08642
2.08905
2.09117
2.09209
2.09359
2.09428
2.0953
2.09577
2.09625
2.09633
2.09611
2.09521
2.09368
2.09027
2.08703
2.08197
2.07784
2.07257
2.06801
2.06276
2.05774
2.05262
2.04737
2.04247
2.0372
2.03257
2.02797
2.0237
2.0199
2.01605
2.01276
2.00949
2.00642
2.00353
2.00065
1.99767
1.9948
1.99153
1.98824
1.98464
1.98073
1.97658
1.97186
1.9668
1.96142
1.95538
1.95016
1.94322
1.93811
1.93052
1.92529
1.91772
1.91238
1.9051
1.9004
1.89395
1.89012
1.88469
1.88175
1.87754
1.87544
1.87295
1.8713
1.87075
1.87084
1.87293
2.20378
2.15605
2.12404
2.10545
2.09666
2.09882
2.10601
2.12487
2.14525
2.16525
2.18538
2.19325
2.19561
2.1879
2.17021
2.14605
2.11885
2.09498
2.06975
2.04793
2.02725
2.00838
1.99223
1.98007
1.97308
1.9663
1.9666
1.96934
1.97504
1.98626
2.00212
2.01801
2.03151
2.04249
2.05055
2.05691
2.06177
2.06627
2.07024
2.07407
2.07692
2.07967
2.08155
2.08218
2.08215
2.08162
2.08028
2.0773
2.07412
2.07003
2.0664
2.06236
2.05829
2.0542
2.04958
2.04543
2.04056
2.03605
2.0311
2.02626
2.02154
2.01676
2.01234
2.00785
2.00358
1.99949
1.99552
1.99186
1.98814
1.98459
1.98074
1.97717
1.97279
1.96901
1.96388
1.95943
1.95371
1.9486
1.94289
1.93684
1.93149
1.92452
1.91947
1.91202
1.9071
1.89964
1.89499
1.88809
1.88402
1.87775
1.87429
1.86886
1.86622
1.86179
1.85985
1.85644
1.85479
1.85314
1.85197
1.85301
2.21854
2.19379
2.16411
2.13492
2.12322
2.12654
2.13566
2.15265
2.1679
2.17893
2.19041
2.18807
2.18012
2.16364
2.14103
2.1181
2.0945
2.07159
2.04891
2.02666
2.00589
1.98723
1.97037
1.95697
1.94572
1.94109
1.93818
1.93784
1.94112
1.94807
1.95971
1.97609
1.99458
2.01252
2.02789
2.04093
2.05068
2.0579
2.0639
2.06801
2.0716
2.07461
2.07647
2.07671
2.0765
2.07577
2.07375
2.07106
2.06631
2.0616
2.0558
2.05093
2.04504
2.04016
2.03449
2.02977
2.02466
2.02028
2.01596
2.01213
2.00847
2.00513
2.0019
1.99886
1.99579
1.99278
1.98955
1.98646
1.98276
1.97955
1.97522
1.97181
1.96657
1.9629
1.95686
1.95281
1.94638
1.94169
1.9352
1.92949
1.92333
1.91653
1.91093
1.90326
1.89833
1.89043
1.88598
1.87854
1.87445
1.8676
1.86413
1.85794
1.85499
1.84947
1.84701
1.84212
1.84011
1.83605
1.83451
1.8328
2.21647
2.21222
2.20301
2.19618
2.1844
2.18398
2.18535
2.18884
2.19238
2.19035
2.18412
2.17013
2.15264
2.13352
2.11282
2.09399
2.07427
2.05481
2.03523
2.01635
1.998
1.98062
1.96408
1.9503
1.93816
1.93035
1.92458
1.92502
1.92672
1.93012
1.93825
1.94923
1.96563
1.98467
2.00394
2.02138
2.03437
2.04525
2.05177
2.05652
2.06016
2.06115
2.06089
2.06025
2.05822
2.05586
2.05192
2.04903
2.04439
2.04033
2.03517
2.03109
2.02641
2.02236
2.01801
2.01383
2.00961
2.00538
2.00128
1.99735
1.99358
1.99017
1.98672
1.98367
1.98031
1.97741
1.97375
1.97082
1.96642
1.9633
1.95812
1.95492
1.94933
1.94608
1.94017
1.93653
1.93028
1.92588
1.91941
1.91414
1.9077
1.90158
1.89552
1.88869
1.88321
1.87574
1.87097
1.86323
1.85915
1.85176
1.84804
1.84123
1.83799
1.83174
1.82887
1.82306
1.82047
1.81502
1.81302
1.80907
2.22563
2.23005
2.23888
2.24843
2.25153
2.25012
2.24703
2.24111
2.2297
2.21214
2.18949
2.16939
2.14756
2.12903
2.10953
2.09189
2.07329
2.0549
2.03714
2.01866
2.0024
1.98425
1.97016
1.95417
1.94407
1.93301
1.92738
1.92282
1.92343
1.92625
1.92945
1.93381
1.9434
1.95421
1.96952
1.98634
2.00158
2.01488
2.02377
2.02982
2.03282
2.03281
2.03178
2.03028
2.02694
2.02475
2.02065
2.01825
2.01446
2.01155
2.00755
2.00406
2.00048
1.99719
1.99398
1.99071
1.98751
1.98433
1.98118
1.97829
1.97527
1.97271
1.96976
1.96745
1.96437
1.96214
1.95861
1.95628
1.95217
1.94972
1.94503
1.94233
1.93708
1.934
1.92811
1.92462
1.91813
1.91383
1.90694
1.90165
1.89466
1.88858
1.88175
1.87514
1.86864
1.8618
1.85575
1.8489
1.84334
1.83661
1.83165
1.82501
1.82064
1.81393
1.81008
1.80316
1.79974
1.79295
1.79029
1.78506
2.25135
2.26032
2.2691
2.2833
2.28818
2.28829
2.28422
2.27347
2.25349
2.23136