/*--------------------------------*- C++ -*----------------------------------*\
| =========                 |                                                 |
| \\      /  F ield         | OpenFOAM: The Open Source CFD Toolbox           |
|  \\    /   O peration     | Version:  2412                                  |
|   \\  /    A nd           | Website:  www.openfoam.com                      |
|    \\/     M anipulation  |                                                 |
\*---------------------------------------------------------------------------*/
FoamFile
{
    version     2.0;
    format      ascii;
    arch        "LSB;label=32;scalar=64";
    class       volVectorField;
    location    "4.5";
    object      U;
}
// * * * * * * * * * * * * * * * * * * * * * * * * * * * * * * * * * * * * * //

dimensions      [0 1 -1 0 0 0 0];

internalField   nonuniform List<vector> 
7000
(
(3 -1.01193e-11 0)
(3 5.10477e-10 0)
(3 1.0342e-09 0)
(3 4.23957e-09 0)
(3 7.49451e-09 0)
(3 2.7166e-08 0)
(3 4.7156e-08 0)
(3 1.67253e-07 0)
(3 2.88447e-07 0)
(2.99999 1.01561e-06 0)
(2.99998 1.6764e-06 0)
(2.99996 5.89634e-06 0)
(2.99988 9.76561e-06 0)
(2.99979 3.46978e-05 0)
(2.99928 3.78976e-05 0)
(2.99861 0.000142901 0)
(2.99552 0.00017615 0)
(2.99427 0.000223151 0)
(2.98976 0.000243275 0)
(2.97374 0.00029007 0)
(2.97946 0.00037919 0)
(2.73972 0.000522935 0)
(2.1727 0.000891949 0)
(1.33156 0.00227525 0)
(0.559463 0.00346317 0)
(0.629825 0.00501567 0)
(0.711706 0.00618244 0)
(0.750691 0.0066398 0)
(0.742205 0.00673488 0)
(0.713319 0.00686218 0)
(0.672939 0.00710308 0)
(0.636527 0.00738488 0)
(0.606531 0.00767858 0)
(0.578362 0.00796831 0)
(0.549256 0.00826131 0)
(0.518886 0.00857662 0)
(0.487674 0.0089263 0)
(0.455867 0.00930945 0)
(0.423401 0.00971864 0)
(0.390212 0.010146 0)
(0.356236 0.0105846 0)
(0.321448 0.0110287 0)
(0.285944 0.0114743 0)
(0.249722 0.0119184 0)
(0.212959 0.0123583 0)
(0.175796 0.0127873 0)
(0.137732 0.0132151 0)
(0.0988621 0.0136708 0)
(0.0581666 0.0143092 0)
(0.0253992 0.0151241 0)
(3 -3.9246e-11 0)
(3 1.45797e-09 0)
(3 2.93514e-09 0)
(3 1.202e-08 0)
(3 2.13262e-08 0)
(3 7.75888e-08 0)
(3 1.34451e-07 0)
(3 4.88359e-07 0)
(3 8.55465e-07 0)
(2.99999 3.11529e-06 0)
(2.99998 4.70357e-06 0)
(2.99997 1.87621e-05 0)
(2.99989 3.68912e-05 0)
(2.99981 0.000124803 0)
(2.99934 0.000250513 0)
(2.99869 0.00134096 0)
(2.99556 5.78842e-05 0)
(2.99431 0.000620637 0)
(2.9898 0.000443604 0)
(2.97382 0.000646721 0)
(2.97959 0.000973488 0)
(2.73996 0.00152701 0)
(2.174 0.00237799 0)
(1.3333 0.00660456 0)
(0.560921 0.0101831 0)
(0.631057 0.0147676 0)
(0.71217 0.017984 0)
(0.750357 0.0191704 0)
(0.741549 0.0194598 0)
(0.712732 0.0198174 0)
(0.672516 0.020427 0)
(0.636248 0.021089 0)
(0.606363 0.0217547 0)
(0.578259 0.0224066 0)
(0.549186 0.0230678 0)
(0.51883 0.0237796 0)
(0.487615 0.0245614 0)
(0.455794 0.0254024 0)
(0.423311 0.0262783 0)
(0.39011 0.0271653 0)
(0.356128 0.0280459 0)
(0.321334 0.0289024 0)
(0.285815 0.0297168 0)
(0.249554 0.0304739 0)
(0.212716 0.0311566 0)
(0.175437 0.031745 0)
(0.137223 0.03225 0)
(0.0982012 0.0327068 0)
(0.0572882 0.0333321 0)
(0.0245293 0.0339258 0)
(3 -1.11925e-10 0)
(3 2.11425e-09 0)
(3 4.24658e-09 0)
(3 1.76256e-08 0)
(3 2.98923e-08 0)
(3 1.10606e-07 0)
(3 1.96972e-07 0)
(3 7.01069e-07 0)
(3 1.22606e-06 0)
(3 4.63655e-06 0)
(2.99999 8.38973e-06 0)
(2.99998 3.14823e-05 0)
(2.99994 6.05017e-05 0)
(2.99992 0.000189414 0)
(3.00002 0.000393908 0)
(2.99849 0.00150199 0)
(2.99507 0.000280678 0)
(2.9945 0.0011918 0)
(2.98979 0.00104125 0)
(2.9741 0.00129301 0)
(2.97998 0.00194105 0)
(2.74041 0.00342675 0)
(2.17655 0.00369937 0)
(1.33723 0.0103328 0)
(0.562946 0.0168311 0)
(0.631772 0.02576 0)
(0.711006 0.0308459 0)
(0.747888 0.0325293 0)
(0.738981 0.0331367 0)
(0.710836 0.0338296 0)
(0.671392 0.0348451 0)
(0.635724 0.0359675 0)
(0.606248 0.0371297 0)
(0.578384 0.0383085 0)
(0.549448 0.0395265 0)
(0.519175 0.0408287 0)
(0.488009 0.0422364 0)
(0.456211 0.0437331 0)
(0.423734 0.0452865 0)
(0.390534 0.0468626 0)
(0.356551 0.0484322 0)
(0.321752 0.0499681 0)
(0.286214 0.051444 0)
(0.249909 0.0528342 0)
(0.212988 0.0541102 0)
(0.175586 0.0552476 0)
(0.137225 0.056251 0)
(0.0980876 0.057134 0)
(0.0570036 0.0581002 0)
(0.0240809 0.0588754 0)
(3 -4.12724e-11 0)
(3 1.71802e-09 0)
(3 3.53028e-09 0)
(3 1.37844e-08 0)
(3 2.42203e-08 0)
(3 8.49883e-08 0)
(3 1.5147e-07 0)
(3 5.59288e-07 0)
(3 9.26497e-07 0)
(3 4.64139e-06 0)
(3 1.08206e-05 0)
(3 3.00426e-05 0)
(2.99999 6.98971e-05 0)
(3.00001 0.000157865 0)
(3.00015 0.000269752 0)
(2.99863 0.000421625 0)
(2.99538 0.000683149 0)
(2.99478 0.00138433 0)
(2.98987 0.00171134 0)
(2.97444 0.00214489 0)
(2.98085 0.00313853 0)
(2.74109 0.00613189 0)
(2.17955 0.00430516 0)
(1.34171 0.0143132 0)
(0.562024 0.0266494 0)
(0.63049 0.0381158 0)
(0.708077 0.0436573 0)
(0.744728 0.0455113 0)
(0.73674 0.0465609 0)
(0.70969 0.0477225 0)
(0.671086 0.0492241 0)
(0.635937 0.0508834 0)
(0.606754 0.0526104 0)
(0.579047 0.0543706 0)
(0.550207 0.0561833 0)
(0.520006 0.0580969 0)
(0.488896 0.0601376 0)
(0.457132 0.0622892 0)
(0.424676 0.0645132 0)
(0.391488 0.0667719 0)
(0.357508 0.0690324 0)
(0.322698 0.0712576 0)
(0.287129 0.0734116 0)
(0.250763 0.0754626 0)
(0.213739 0.0773682 0)
(0.176198 0.0790963 0)
(0.137679 0.0806431 0)
(0.0984171 0.0819819 0)
(0.0571307 0.0832682 0)
(0.0239083 0.0841785 0)
(3 2.56866e-11 0)
(3 9.97271e-10 0)
(3 1.97507e-09 0)
(3 7.21841e-09 0)
(3 1.41279e-08 0)
(3 4.55602e-08 0)
(3 8.79887e-08 0)
(3 2.54102e-07 0)
(3 3.45231e-07 0)
(3 2.79365e-06 0)
(3 7.28918e-06 0)
(3.00002 1.55356e-05 0)
(3.00002 4.52082e-05 0)
(3.00005 7.7305e-05 0)
(3.00019 0.000114736 0)
(2.99876 0.000138727 0)
(2.99569 0.000465329 0)
(2.99516 0.00105928 0)
(2.99027 0.00170375 0)
(2.97507 0.00259227 0)
(2.98234 0.00396207 0)
(2.74078 0.00736606 0)
(2.1829 0.00803826 0)
(1.34889 0.0229121 0)
(0.564688 0.0389962 0)
(0.632195 0.0500197 0)
(0.707925 0.0553627 0)
(0.744018 0.0578941 0)
(0.7363 0.059853 0)
(0.70973 0.0618295 0)
(0.671586 0.0639967 0)
(0.636751 0.0662762 0)
(0.607768 0.0686234 0)
(0.580187 0.0710122 0)
(0.551442 0.073464 0)
(0.521333 0.0760325 0)
(0.490305 0.078745 0)
(0.458607 0.0815841 0)
(0.426195 0.0845073 0)
(0.393032 0.0874669 0)
(0.359054 0.0904313 0)
(0.324219 0.0933642 0)
(0.288589 0.096215 0)
(0.252126 0.0989406 0)
(0.214959 0.101486 0)
(0.177234 0.103803 0)
(0.138513 0.105877 0)
(0.0990744 0.107625 0)
(0.0575101 0.109155 0)
(0.0238799 0.110136 0)
(3 -1.96643e-12 0)
(3 7.80245e-10 0)
(3 1.75215e-09 0)
(3 6.11763e-09 0)
(3 1.30005e-08 0)
(3 3.3053e-08 0)
(3 7.15973e-08 0)
(3 1.13739e-07 0)
(3 1.28188e-07 0)
(3 8.06607e-07 0)
(3.00001 2.00924e-06 0)
(3.00003 4.47553e-06 0)
(3.00003 8.17984e-06 0)
(3.00006 1.93603e-05 0)
(3.00019 2.28126e-05 0)
(2.99886 2.02201e-06 0)
(2.996 0.000333847 0)
(2.99561 0.00100781 0)
(2.99088 0.0016914 0)
(2.97601 0.00293808 0)
(2.98379 0.0047116 0)
(2.74265 0.0081355 0)
(2.19159 0.0135443 0)
(1.36172 0.0335593 0)
(0.571418 0.0518478 0)
(0.635927 0.0616726 0)
(0.709094 0.0670487 0)
(0.744309 0.0705492 0)
(0.736553 0.0735792 0)
(0.71022 0.0764673 0)
(0.672394 0.0792919 0)
(0.63785 0.0821783 0)
(0.609084 0.0851591 0)
(0.581658 0.0882071 0)
(0.553053 0.0913346 0)
(0.523087 0.0945939 0)
(0.492201 0.0980177 0)
(0.460625 0.101584 0)
(0.428306 0.105255 0)
(0.395199 0.108976 0)
(0.361238 0.112706 0)
(0.326373 0.116394 0)
(0.290664 0.12 0)
(0.254065 0.123459 0)
(0.216701 0.126698 0)
(0.178734 0.129651 0)
(0.139732 0.132286 0)
(0.100025 0.134461 0)
(0.0580916 0.136224 0)
(0.0239745 0.137251 0)
(3 4.50335e-11 0)
(3 3.79802e-10 0)
(3 1.29262e-09 0)
(3 3.5414e-09 0)
(3 9.00386e-09 0)
(3 1.63109e-08 0)
(3 4.11699e-08 0)
(3 7.27402e-08 0)
(3 1.2492e-07 0)
(3 -3.98491e-08 0)
(3.00001 -4.18148e-07 0)
(3.00003 -1.37071e-06 0)
(3.00003 -5.10641e-06 0)
(3.00006 -8.43389e-06 0)
(3.00017 -2.37656e-05 0)
(2.99897 -6.65408e-05 0)
(2.99639 0.000267993 0)
(2.99611 0.000932864 0)
(2.9916 0.00162461 0)
(2.97722 0.0027755 0)
(2.98571 0.00475788 0)
(2.74537 0.0079266 0)
(2.20473 0.0171833 0)
(1.3801 0.0408349 0)
(0.579634 0.0663743 0)
(0.639187 0.0745462 0)
(0.710328 0.0795859 0)
(0.74499 0.0838048 0)
(0.737218 0.087802 0)
(0.71101 0.091561 0)
(0.67342 0.0950424 0)
(0.639178 0.0985691 0)
(0.610666 0.102217 0)
(0.583438 0.105956 0)
(0.55502 0.109793 0)
(0.525257 0.113775 0)
(0.494572 0.117937 0)
(0.463174 0.122273 0)
(0.431 0.12674 0)
(0.397994 0.13128 0)
(0.364083 0.135848 0)
(0.329204 0.140376 0)
(0.293412 0.144807 0)
(0.256655 0.149073 0)
(0.219044 0.153082 0)
(0.18076 0.156749 0)
(0.141397 0.16002 0)
(0.101317 0.162683 0)
(0.0588784 0.164718 0)
(0.0241497 0.165803 0)
(3 4.63179e-11 0)
(3 3.73642e-11 0)
(3 3.6856e-10 0)
(3 3.19296e-10 0)
(3 3.11302e-09 0)
(3 7.71177e-09 0)
(3 3.17434e-08 0)
(3 7.32722e-08 0)
(3 4.96177e-07 0)
(3 -7.86718e-07 0)
(3.00001 -1.85989e-06 0)
(3.00002 -5.08289e-06 0)
(3.00003 -1.61883e-05 0)
(3.00005 -2.67972e-05 0)
(3.00015 -5.10533e-05 0)
(2.99907 -0.000103378 0)
(2.99672 0.000192213 0)
(2.99659 0.000708419 0)
(2.99219 0.001401 0)
(2.97833 0.00251367 0)
(2.98728 0.00463737 0)
(2.74971 0.00720121 0)
(2.22153 0.0204957 0)
(1.40291 0.0467733 0)
(0.589827 0.0818938 0)
(0.641471 0.0889479 0)
(0.711273 0.0932092 0)
(0.746062 0.0977619 0)
(0.73846 0.102548 0)
(0.712301 0.10708 0)
(0.67486 0.111285 0)
(0.640914 0.11549 0)
(0.612675 0.119817 0)
(0.585675 0.124259 0)
(0.557483 0.128834 0)
(0.527965 0.133582 0)
(0.497526 0.138526 0)
(0.466347 0.143671 0)
(0.434346 0.14899 0)
(0.401467 0.154417 0)
(0.367631 0.159895 0)
(0.332762 0.165361 0)
(0.296892 0.170718 0)
(0.259959 0.175882 0)
(0.22207 0.180748 0)
(0.183414 0.185213 0)
(0.143595 0.189193 0)
(0.103012 0.192404 0)
(0.0599198 0.19476 0)
(0.0244402 0.195949 0)
(3 -5.34701e-11 0)
(3 -2.31963e-10 0)
(3 -9.15398e-10 0)
(3 -2.09995e-09 0)
(3 -5.2691e-09 0)
(3 -7.73876e-09 0)
(3 -2.47087e-08 0)
(3 -2.69736e-08 0)
(3 1.44297e-07 0)
(3 -1.08303e-06 0)
(3 -3.21583e-06 0)
(3.00001 -7.19864e-06 0)
(3.00002 -2.40839e-05 0)
(3.00003 -3.81951e-05 0)
(3.00012 -6.5828e-05 0)
(2.99915 -0.000120909 0)
(2.99699 0.000146544 0)
(2.99701 0.000629205 0)
(2.99293 0.00126698 0)
(2.97973 0.00261627 0)
(2.98909 0.00494926 0)
(2.75498 0.00768762 0)
(2.24213 0.022749 0)
(1.43227 0.0531382 0)
(0.604424 0.0975176 0)
(0.643918 0.103975 0)
(0.712535 0.107709 0)
(0.747923 0.112537 0)
(0.740584 0.117949 0)
(0.714421 0.123112 0)
(0.677079 0.128076 0)
(0.643365 0.13297 0)
(0.61538 0.13797 0)
(0.588617 0.143126 0)
(0.560672 0.148457 0)
(0.531409 0.154005 0)
(0.501222 0.159789 0)
(0.470277 0.165805 0)
(0.438472 0.172032 0)
(0.405737 0.178417 0)
(0.371995 0.184886 0)
(0.33715 0.191369 0)
(0.301211 0.197763 0)
(0.264092 0.203962 0)
(0.225878 0.20982 0)
(0.186775 0.215209 0)
(0.146391 0.219998 0)
(0.105167 0.223855 0)
(0.061249 0.226607 0)
(0.0248481 0.227941 0)
(3 -5.15754e-11 0)
(3 -5.69799e-10 0)
(3 -1.64981e-09 0)
(3 -4.63556e-09 0)
(3 -1.23634e-08 0)
(3 -3.08067e-08 0)
(3 -8.46387e-08 0)
(3 -1.88692e-07 0)
(3 -5.90892e-07 0)
(3 -1.24567e-06 0)
(3 -4.11148e-06 0)
(3.00001 -8.97987e-06 0)
(3 -2.51451e-05 0)
(3.00001 -4.00697e-05 0)
(3.00008 -6.89991e-05 0)
(2.99924 -0.00012814 0)
(2.9973 0.000198894 0)
(2.99745 0.000896356 0)
(2.99371 0.00149353 0)
(2.98128 0.00285641 0)
(2.99108 0.0052895 0)
(2.76107 0.00805426 0)
(2.26726 0.0246539 0)
(1.4689 0.0597537 0)
(0.622463 0.113167 0)
(0.646627 0.119404 0)
(0.714593 0.123051 0)
(0.75074 0.128091 0)
(0.743671 0.134006 0)
(0.717524 0.139763 0)
(0.68028 0.145452 0)
(0.646707 0.151037 0)
(0.618924 0.156714 0)
(0.592375 0.16259 0)
(0.564659 0.168699 0)
(0.535654 0.175077 0)
(0.505737 0.181749 0)
(0.475048 0.188707 0)
(0.443468 0.195921 0)
(0.410904 0.203337 0)
(0.377276 0.210899 0)
(0.342477 0.218509 0)
(0.306484 0.226053 0)
(0.269192 0.233413 0)
(0.230635 0.240404 0)
(0.191008 0.246872 0)
(0.14994 0.252641 0)
(0.107905 0.2573 0)
(0.0629524 0.260556 0)
(0.0254146 0.262074 0)
(3 1.87578e-11 0)
(3 -5.45154e-10 0)
(3 -1.09584e-09 0)
(3 -4.50785e-09 0)
(3 -8.8827e-09 0)
(3 -2.93259e-08 0)
(3 -6.23919e-08 0)
(3 -1.84442e-07 0)
(3 -4.13909e-07 0)
(3 -1.18471e-06 0)
(3 -2.82088e-06 0)
(3 -7.49316e-06 0)
(2.99999 -1.68902e-05 0)
(3 -3.48906e-05 0)
(3.00005 -6.55061e-05 0)
(2.99937 -0.000127476 0)
(2.99782 0.000225034 0)
(2.99805 0.000977953 0)
(2.99448 0.00161873 0)
(2.98288 0.00303231 0)
(2.99313 0.00558294 0)
(2.76803 0.00830782 0)
(2.29714 0.0269673 0)
(1.51347 0.0651832 0)
(0.645216 0.128847 0)
(0.650057 0.135698 0)
(0.717236 0.138984 0)
(0.754233 0.144167 0)
(0.747607 0.150648 0)
(0.721516 0.157059 0)
(0.684349 0.163462 0)
(0.650862 0.169732 0)
(0.623256 0.176087 0)
(0.596941 0.182682 0)
(0.569492 0.189583 0)
(0.540782 0.19682 0)
(0.511174 0.204414 0)
(0.480786 0.212359 0)
(0.449479 0.220631 0)
(0.417147 0.229177 0)
(0.383679 0.237947 0)
(0.348949 0.246832 0)
(0.312914 0.255699 0)
(0.275428 0.2644 0)
(0.236496 0.272722 0)
(0.196289 0.280456 0)
(0.154418 0.287401 0)
(0.111379 0.293037 0)
(0.0651064 0.296951 0)
(0.0261506 0.29875 0)
(3 1.10097e-12 0)
(3 -1.99406e-10 0)
(3 -4.04467e-10 0)
(3 -1.56551e-09 0)
(3 -2.74081e-09 0)
(3 -9.05178e-09 0)
(3 -2.14233e-08 0)
(3 -5.67932e-08 0)
(3 -8.35395e-08 0)
(3 -3.1662e-07 0)
(3 -5.20964e-07 0)
(2.99999 5.44879e-07 0)
(2.99998 -8.802e-06 0)
(2.99997 -2.55597e-05 0)
(3 -5.55965e-05 0)
(2.99948 -0.000120427 0)
(2.99822 0.000254076 0)
(2.99861 0.00108952 0)
(2.99541 0.00169328 0)
(2.98468 0.00307946 0)
(2.99535 0.00570024 0)
(2.77618 0.00829286 0)
(2.33024 0.0292088 0)
(1.56501 0.0694439 0)
(0.673063 0.144409 0)
(0.654025 0.152628 0)
(0.719908 0.155575 0)
(0.758378 0.161003 0)
(0.752391 0.168054 0)
(0.72637 0.175078 0)
(0.689268 0.182158 0)
(0.655828 0.189094 0)
(0.628392 0.196121 0)
(0.602344 0.203442 0)
(0.575211 0.211148 0)
(0.546848 0.219275 0)
(0.517602 0.227841 0)
(0.487571 0.23683 0)
(0.456606 0.246236 0)
(0.424579 0.256007 0)
(0.391355 0.266081 0)
(0.356766 0.27637 0)
(0.320746 0.286721 0)
(0.283104 0.296984 0)
(0.243768 0.306903 0)
(0.2029 0.316205 0)
(0.160076 0.324622 0)
(0.115783 0.331506 0)
(0.0678949 0.336293 0)
(0.0271641 0.338478 0)
(3 -2.55083e-12 0)
(3 1.71517e-10 0)
(3 2.96415e-10 0)
(3 1.1626e-09 0)
(3 1.88798e-09 0)
(3 6.27109e-09 0)
(3 1.15199e-08 0)
(3 3.98102e-08 0)
(3 6.99256e-08 0)
(3 2.44677e-07 0)
(3 3.47464e-07 0)
(2.99999 1.14609e-06 0)
(2.99997 1.60518e-06 0)
(2.99996 -1.88203e-08 0)
(2.99996 -2.25883e-05 0)
(2.99963 -0.000128163 0)
(2.99887 0.000286536 0)
(2.9993 0.00107335 0)
(2.99617 0.00167676 0)
(2.98644 0.00303029 0)
(2.99753 0.00565734 0)
(2.78544 0.00801901 0)
(2.36735 0.030733 0)
(1.62442 0.0734425 0)
(0.706685 0.15967 0)
(0.659087 0.169599 0)
(0.722958 0.173016 0)
(0.763045 0.178791 0)
(0.757786 0.186297 0)
(0.731866 0.193841 0)
(0.694853 0.201525 0)
(0.661464 0.209111 0)
(0.63423 0.216812 0)
(0.608516 0.224854 0)
(0.581798 0.233361 0)
(0.553893 0.242391 0)
(0.525115 0.251968 0)
(0.495552 0.262075 0)
(0.465035 0.272711 0)
(0.433404 0.283829 0)
(0.400514 0.295367 0)
(0.366155 0.30724 0)
(0.330223 0.319286 0)
(0.292494 0.33135 0)
(0.252792 0.343166 0)
(0.211213 0.354389 0)
(0.1673 0.364681 0)
(0.121483 0.373238 0)
(0.0714913 0.379265 0)
(0.0284852 0.382016 0)
(3 -7.11934e-12 0)
(3 3.00396e-10 0)
(3 6.13382e-10 0)
(3 2.09524e-09 0)
(3 3.74106e-09 0)
(3 1.06361e-08 0)
(3 2.46148e-08 0)
(3 5.54371e-08 0)
(3 8.64925e-08 0)
(3 2.45334e-07 0)
(3 4.98186e-07 0)
(3 -9.99734e-07 0)
(2.99998 6.68096e-06 0)
(2.99995 1.52305e-05 0)
(2.99989 1.3904e-05 0)
(2.99975 -5.50329e-05 0)
(2.99929 0.000242993 0)
(2.99986 0.000764063 0)
(2.99714 0.00143366 0)
(2.98835 0.00281422 0)
(2.99975 0.00542913 0)
(2.79566 0.00749492 0)
(2.40831 0.031696 0)
(1.69156 0.0768609 0)
(0.745397 0.174691 0)
(0.664979 0.186735 0)
(0.726156 0.191293 0)
(0.76773 0.197509 0)
(0.763295 0.205376 0)
(0.737588 0.21334 0)
(0.700784 0.221536 0)
(0.667537 0.229737 0)
(0.640581 0.23811 0)
(0.615296 0.246888 0)
(0.589112 0.256213 0)
(0.56181 0.266163 0)
(0.533661 0.276771 0)
(0.504727 0.28805 0)
(0.474837 0.299988 0)
(0.443787 0.312558 0)
(0.411409 0.325716 0)
(0.377453 0.339389 0)
(0.341752 0.353431 0)
(0.304047 0.367653 0)
(0.264043 0.381767 0)
(0.221753 0.395406 0)
(0.176613 0.408105 0)
(0.128958 0.418908 0)
(0.0763605 0.426707 0)
(0.0303413 0.430347 0)
(3 -1.21778e-11 0)
(3 3.88302e-10 0)
(3 8.52521e-10 0)
(3 3.1434e-09 0)
(3 5.94611e-09 0)
(3 1.92053e-08 0)
(3 3.42516e-08 0)
(3 1.05707e-07 0)
(3 1.85377e-07 0)
(3 5.61353e-07 0)
(3 1.22494e-06 0)
(3 3.54437e-06 0)
(2.99998 5.40898e-06 0)
(2.99996 2.32644e-05 0)
(2.9999 5.52888e-05 0)
(2.99984 0.000131265 0)
(2.99963 0.000330604 0)
(3.0004 0.00077171 0)
(2.99805 0.00127252 0)
(2.99025 0.00249269 0)
(3.00184 0.004933 0)
(2.80682 0.00647345 0)
(2.45325 0.0319136 0)
(1.76708 0.0793271 0)
(0.789356 0.189622 0)
(0.671681 0.204754 0)
(0.729352 0.211292 0)
(0.772059 0.217508 0)
(0.768486 0.225364 0)
(0.74312 0.233552 0)
(0.706687 0.242166 0)
(0.673739 0.250908 0)
(0.64721 0.259909 0)
(0.622521 0.26941 0)
(0.597058 0.279567 0)
(0.570548 0.290475 0)
(0.543238 0.302179 0)
(0.515153 0.314706 0)
(0.486096 0.328055 0)
(0.455858 0.34221 0)
(0.424234 0.35715 0)
(0.390947 0.372828 0)
(0.355745 0.389141 0)
(0.318283 0.405925 0)
(0.278178 0.422878 0)
(0.235248 0.439589 0)
(0.188805 0.455493 0)
(0.138985 0.469471 0)
(0.0829927 0.479931 0)
(0.0329486 0.485056 0)
(3 -7.46861e-12 0)
(3 2.46733e-10 0)
(3 4.77324e-10 0)
(3 2.07057e-09 0)
(3 3.89258e-09 0)
(3 1.38948e-08 0)
(3 2.73472e-08 0)
(3 9.05272e-08 0)
(3 1.94981e-07 0)
(3 5.90743e-07 0)
(3 1.34319e-06 0)
(3 3.6554e-06 0)
(3 8.31519e-06 0)
(3 2.49242e-05 0)
(2.99999 4.96928e-05 0)
(3.00002 0.00017873 0)
(2.9999 0.000362301 0)
(3.00076 0.000687776 0)
(2.99877 0.00102867 0)
(2.99197 0.00208646 0)
(3.00359 0.00434479 0)
(2.81879 0.00539451 0)
(2.50213 0.0315771 0)
(1.85156 0.0803665 0)
(0.839658 0.200224 0)
(0.680654 0.222092 0)
(0.732596 0.233547 0)
(0.775068 0.239358 0)
(0.772695 0.24661 0)
(0.748064 0.254597 0)
(0.712255 0.263384 0)
(0.679766 0.272511 0)
(0.653829 0.282056 0)
(0.629926 0.292241 0)
(0.605407 0.30322 0)
(0.579952 0.315096 0)
(0.553761 0.327935 0)
(0.526829 0.341772 0)
(0.498925 0.35664 0)
(0.46982 0.372543 0)
(0.439286 0.389491 0)
(0.407011 0.407468 0)
(0.37269 0.426403 0)
(0.335865 0.446205 0)
(0.296013 0.466651 0)
(0.252751 0.487294 0)
(0.20509 0.50759 0)
(0.152851 0.526131 0)
(0.09262 0.540749 0)
(0.0369276 0.548548 0)
(3 -2.67641e-11 0)
(3 -3.47114e-11 0)
(3 -3.1954e-10 0)
(3 -6.63895e-10 0)
(3 -2.08389e-09 0)
(3 -3.96534e-09 0)
(3 -1.18163e-08 0)
(3 -1.98235e-08 0)
(3 -6.70534e-08 0)
(3 -1.35045e-07 0)
(3 -2.3993e-07 0)
(3 -2.83449e-07 0)
(3 -5.14982e-08 0)
(3 6.19994e-07 0)
(3.00005 -1.10701e-06 0)
(3.00016 2.42867e-05 0)
(3.00013 3.75284e-05 0)
(3.00106 0.000109282 0)
(2.99943 -0.000482438 0)
(2.99366 0.000632612 0)
(3.00522 0.00588133 0)
(2.83141 0.00354226 0)
(2.55329 0.026475 0)
(1.94058 0.10313 0)
(0.889499 0.207194 0)
(0.691054 0.239125 0)
(0.733842 0.257282 0)
(0.773337 0.263608 0)
(0.773108 0.269717 0)
(0.750252 0.276911 0)
(0.715849 0.285361 0)
(0.684407 0.294617 0)
(0.659549 0.304555 0)
(0.636851 0.31532 0)
(0.61365 0.327063 0)
(0.589615 0.339887 0)
(0.564925 0.353878 0)
(0.539546 0.369081 0)
(0.513236 0.385551 0)
(0.48573 0.403322 0)
(0.456788 0.422458 0)
(0.426053 0.443018 0)
(0.39317 0.464996 0)
(0.357623 0.488425 0)
(0.318651 0.51317 0)
(0.275685 0.538828 0)
(0.227361 0.565159 0)
(0.17263 0.590564 0)
(0.107092 0.612143 0)
(0.0433225 0.625014 0)
(3 1.13685e-11 0)
(3 -4.21884e-10 0)
(3 -8.39316e-10 0)
(3 -3.34998e-09 0)
(3 -6.10304e-09 0)
(3 -2.04691e-08 0)
(3 -3.91742e-08 0)
(3 -1.19893e-07 0)
(3 -2.42405e-07 0)
(3 -7.07976e-07 0)
(3 -1.45746e-06 0)
(3 -3.85281e-06 0)
(3 -8.61605e-06 0)
(3 -2.07456e-05 0)
(3.00002 -3.35107e-05 0)
(3.00005 -0.000133847 0)
(2.99998 -0.000306526 0)
(3.0002 -0.000581315 0)
(2.99928 -0.00164603 0)
(2.99884 -0.00112592 0)
(3.00719 0.00240578 0)
(2.84515 -0.00285987 0)
(2.66237 0.0246891 0)
(2.08546 0.0905449 0)
(0.90031 0.22825 0)
(0.680502 0.260753 0)
(0.717372 0.280158 0)
(0.755245 0.286153 0)
(0.759239 0.291947 0)
(0.741042 0.298624 0)
(0.710608 0.306843 0)
(0.682396 0.316265 0)
(0.660325 0.326632 0)
(0.640244 0.337995 0)
(0.619567 0.3505 0)
(0.597984 0.364279 0)
(0.575692 0.379458 0)
(0.552662 0.396108 0)
(0.528664 0.414306 0)
(0.503461 0.434106 0)
(0.476832 0.45563 0)
(0.448408 0.479037 0)
(0.417835 0.504449 0)
(0.384547 0.531942 0)
(0.34755 0.561961 0)
(0.306143 0.594376 0)
(0.258458 0.628949 0)
(0.202215 0.664619 0)
(0.130675 0.698377 0)
(0.0547189 0.722622 0)
(3 4.77032e-11 0)
(3 -7.90203e-10 0)
(3 -1.39292e-09 0)
(3 -5.94196e-09 0)
(3 -9.90872e-09 0)
(3 -3.65206e-08 0)
(3 -6.02909e-08 0)
(3 -2.18451e-07 0)
(3 -3.54913e-07 0)
(3 -1.24609e-06 0)
(3 -2.20154e-06 0)
(3 -7.66191e-06 0)
(2.99999 -1.33955e-05 0)
(2.99998 -4.71634e-05 0)
(2.99993 -8.10127e-05 0)
(2.99986 -0.000295574 0)
(2.99965 -0.000606039 0)
(2.99963 -0.001688 0)
(2.99885 -0.00266732 0)
(2.99804 -0.00536233 0)
(3.00394 -0.0119518 0)
(2.85981 -0.0176564 0)
(2.7066 0.0288368 0)
(2.16973 0.0585161 0)
(0.953143 0.277614 0)
(0.668534 0.297769 0)
(0.696025 0.304892 0)
(0.730438 0.305082 0)
(0.738336 0.309741 0)
(0.724082 0.315807 0)
(0.697901 0.324591 0)
(0.673622 0.334808 0)
(0.655282 0.346046 0)
(0.638822 0.358352 0)
(0.62171 0.371949 0)
(0.603665 0.38701 0)
(0.584865 0.403653 0)
(0.565249 0.421976 0)
(0.544584 0.442104 0)
(0.522663 0.464135 0)
(0.499352 0.488362 0)
(0.474307 0.51474 0)
(0.447079 0.543855 0)
(0.417545 0.576306 0)
(0.384728 0.612635 0)
(0.347125 0.653374 0)
(0.302635 0.699136 0)
(0.248014 0.750347 0)
(0.172403 0.805626 0)
(0.0781135 0.858279 0)
(3 -1.85598e-10 0)
(3 -4.22712e-11 0)
(3 -7.57388e-10 0)
(3 -1.07005e-10 0)
(3 -4.11599e-09 0)
(3 -1.4862e-09 0)
(3 -2.3161e-08 0)
(3 -1.0538e-08 0)
(3 -1.33065e-07 0)
(3 -8.62697e-08 0)
(2.99999 -7.46412e-07 0)
(2.99999 -8.7262e-07 0)
(2.99996 -4.47819e-06 0)
(2.99992 -6.64339e-06 0)
(2.99974 -3.03248e-05 0)
(2.99946 -4.93446e-05 0)
(2.99842 -0.00019171 0)
(2.99789 -0.000340525 0)
(2.99513 -0.001371 0)
(2.98821 -0.00220541 0)
(2.99351 -0.00885487 0)
(2.88448 -0.0182164 0)
(2.75138 0.0391323 0)
(2.28161 0.0747968 0)
(1.08118 0.332549 0)
(0.695265 0.354598 0)
(0.699604 0.343125 0)
(0.728618 0.332414 0)
(0.7364 0.330452 0)
(0.721597 0.332527 0)
(0.695855 0.340419 0)
(0.671562 0.350696 0)
(0.653886 0.36224 0)
(0.639061 0.375167 0)
(0.624425 0.389793 0)
(0.609402 0.406242 0)
(0.593994 0.424543 0)
(0.578057 0.444772 0)
(0.561271 0.467092 0)
(0.543505 0.491422 0)
(0.524318 0.518142 0)
(0.503693 0.547865 0)
(0.481906 0.581216 0)
(0.458258 0.619057 0)
(0.431793 0.662106 0)
(0.40172 0.712086 0)
(0.366252 0.771609 0)
(0.321666 0.845621 0)
(0.253964 0.942664 0)
(0.133515 1.09153 0)
(3 -1.89157e-10 0)
(3 3.46513e-10 0)
(3 1.11104e-10 0)
(3 3.02569e-09 0)
(3 2.04462e-09 0)
(3 1.8884e-08 0)
(3 1.43655e-08 0)
(3 1.17919e-07 0)
(3 9.85464e-08 0)
(3 6.97325e-07 0)
(3 6.51829e-07 0)
(2.99999 4.24737e-06 0)
(2.99999 3.82847e-06 0)
(2.99995 2.58542e-05 0)
(2.99992 2.61615e-05 0)
(2.99973 0.000153103 0)
(2.99954 0.000228757 0)
(2.9984 0.000983751 0)
(2.99713 0.000726831 0)
(2.98965 0.00265456 0)
(2.98443 0.00292163 0)
(2.9152 -0.00332763 0)
(2.83889 0.0371399 0)
(2.46616 0.0729542 0)
(1.28555 0.300822 0)
(0.766606 0.396616 0)
(0.725139 0.38817 0)
(0.750848 0.372909 0)
(0.75968 0.362261 0)
(0.746398 0.36014 0)
(0.721582 0.364878 0)
(0.694527 0.374594 0)
(0.673701 0.385633 0)
(0.657053 0.39805 0)
(0.642052 0.412541 0)
(0.627892 0.429366 0)
(0.614515 0.448618 0)
(0.60182 0.470286 0)
(0.589048 0.494334 0)
(0.575982 0.52116 0)
(0.563404 0.551344 0)
(0.551033 0.585393 0)
(0.538298 0.623646 0)
(0.525324 0.667048 0)
(0.512681 0.717313 0)
(0.501522 0.777156 0)
(0.494851 0.850738 0)
(0.500598 0.945335 0)
(0.546874 1.07101 0)
(0.611731 1.25176 0)
(3 7.27101e-11 0)
(3 1.25283e-10 0)
(3 5.63704e-10 0)
(3 8.47424e-10 0)
(3 3.36223e-09 0)
(3 5.97379e-09 0)
(3 2.02998e-08 0)
(3 2.95659e-08 0)
(3 1.5521e-07 0)
(3 8.74009e-08 0)
(3 3.84261e-07 0)
(2.99999 7.11356e-07 0)
(2.99999 1.84069e-06 0)
(2.99996 3.14703e-06 0)
(2.99992 1.0763e-05 0)
(2.99975 2.07351e-05 0)
(2.9996 7.0051e-05 0)
(2.99862 0.000121039 0)
(2.99756 0.000462731 0)
(2.99168 0.000857795 0)
(2.98543 0.00349624 0)
(2.93724 0.00413711 0)
(2.88891 0.0319462 0)
(2.58111 0.0625131 0)
(1.5706 0.241012 0)
(0.941465 0.449812 0)
(0.760735 0.450767 0)
(0.773823 0.422841 0)
(0.789746 0.399432 0)
(0.787044 0.393029 0)
(0.768175 0.394697 0)
(0.742178 0.402356 0)
(0.717097 0.412581 0)
(0.696713 0.424059 0)
(0.679313 0.437475 0)
(0.663704 0.453467 0)
(0.649669 0.471987 0)
(0.636988 0.493215 0)
(0.626076 0.517675 0)
(0.617612 0.546085 0)
(0.610814 0.578503 0)
(0.604994 0.614949 0)
(0.60091 0.655984 0)
(0.599698 0.702498 0)
(0.602875 0.756029 0)
(0.613512 0.818613 0)
(0.637618 0.893354 0)
(0.684196 0.98362 0)
(0.785119 1.08938 0)
(0.920106 1.19903 0)
(3 1.41869e-10 0)
(3 1.61711e-10 0)
(3 8.40381e-10 0)
(3 1.09645e-09 0)
(3 4.81215e-09 0)
(3 6.44948e-09 0)
(3 2.74382e-08 0)
(3 3.34358e-08 0)
(3 1.49524e-07 0)
(3 2.02004e-07 0)
(3 8.53297e-07 0)
(2.99999 1.12571e-06 0)
(2.99999 4.64985e-06 0)
(2.99997 6.94968e-06 0)
(2.99995 2.80298e-05 0)
(2.99983 4.77556e-05 0)
(2.99971 0.000173532 0)
(2.99905 0.000328815 0)
(2.99836 0.000538214 0)
(2.99468 0.000230562 0)
(2.98991 0.00396654 0)
(2.96122 0.00515149 0)
(2.94126 0.0314687 0)
(2.71191 0.0670495 0)
(2.01837 0.203884 0)
(1.29993 0.466395 0)
(0.87566 0.490845 0)
(0.83957 0.469142 0)
(0.861599 0.447118 0)
(0.871838 0.438379 0)
(0.854922 0.438982 0)
(0.827175 0.443492 0)
(0.79703 0.451584 0)
(0.769605 0.461002 0)
(0.746207 0.472026 0)
(0.725394 0.48531 0)
(0.706815 0.501132 0)
(0.691673 0.520198 0)
(0.680494 0.543541 0)
(0.672695 0.57113 0)
(0.668002 0.602694 0)
(0.666887 0.638711 0)
(0.669947 0.679745 0)
(0.678424 0.726139 0)
(0.694379 0.77851 0)
(0.72099 0.837481 0)
(0.763689 0.903328 0)
(0.827276 0.97549 0)
(0.928219 1.04868 0)
(1.05114 1.10333 0)
(3 7.60364e-11 0)
(3 6.86091e-11 0)
(3 3.96178e-10 0)
(3 4.87612e-10 0)
(3 2.05222e-09 0)
(3 3.74282e-09 0)
(3 8.23997e-09 0)
(3 1.08823e-08 0)
(3 5.68e-09 0)
(3 1.23023e-07 0)
(3 4.79983e-07 0)
(3 5.77119e-07 0)
(3 2.95464e-06 0)
(2.99999 3.91564e-06 0)
(2.99999 1.76349e-05 0)
(3 2.73244e-05 0)
(3.00006 0.000102221 0)
(2.99923 0.000259228 0)
(2.99739 0.000877872 0)
(2.99735 0.00150259 0)
(2.99363 0.00493229 0)
(2.98238 0.00765876 0)
(2.99082 0.0246779 0)
(2.78813 0.0489059 0)
(2.38378 0.127893 0)
(1.68159 0.337982 0)
(0.914665 0.471016 0)
(0.849295 0.481719 0)
(0.883828 0.480992 0)
(0.914797 0.479346 0)
(0.913117 0.485054 0)
(0.893426 0.492314 0)
(0.8679 0.500623 0)
(0.84112 0.508964 0)
(0.816845 0.517809 0)
(0.794626 0.527933 0)
(0.774858 0.540194 0)
(0.759149 0.555719 0)
(0.747392 0.575383 0)
(0.738866 0.599039 0)
(0.734394 0.626871 0)
(0.735229 0.659211 0)
(0.742191 0.696328 0)
(0.756436 0.738379 0)
(0.779813 0.785184 0)
(0.814431 0.836287 0)
(0.863879 0.890065 0)
(0.929764 0.944326 0)
(1.01958 0.994388 0)
(1.12095 1.02781 0)
(3 5.27398e-12 0)
(3 -1.66408e-11 0)
(3 -3.35103e-11 0)
(3 -1.98112e-10 0)
(3 -3.10028e-10 0)
(3 -1.52153e-09 0)
(3 -2.87582e-09 0)
(3 -1.11012e-08 0)
(3 -1.79145e-08 0)
(3 -7.40544e-08 0)
(3 -1.30826e-07 0)
(3 -4.98897e-07 0)
(3 -7.96876e-07 0)
(2.99999 -3.2869e-06 0)
(2.99999 -7.07083e-06 0)
(2.99997 -2.69982e-05 0)
(3.0001 -5.8083e-05 0)
(3.00035 -0.00024875 0)
(3.00043 2.43286e-05 0)
(3.00144 0.000237264 0)
(3.00013 7.34294e-05 0)
(2.99521 0.00049584 0)
(3.00702 0.00268975 0)
(2.83966 0.000695253 0)
(2.59884 0.0703598 0)
(2.03213 0.18066 0)
(1.00788 0.451273 0)
(0.822225 0.492374 0)
(0.857498 0.504367 0)
(0.903896 0.507661 0)
(0.922566 0.516472 0)
(0.91573 0.527914 0)
(0.89966 0.53879 0)
(0.880632 0.549206 0)
(0.86297 0.559324 0)
(0.846403 0.569525 0)
(0.831657 0.580747 0)
(0.820396 0.594248 0)
(0.81192 0.610594 0)
(0.805507 0.630073 0)
(0.802638 0.653063 0)
(0.804946 0.679923 0)
(0.813673 0.710781 0)
(0.830116 0.745677 0)
(0.855784 0.784145 0)
(0.891928 0.825261 0)
(0.940955 0.86737 0)
(1.00325 0.907677 0)
(1.0814 0.943437 0)
(1.16623 0.967729 0)
(3 -2.64901e-11 0)
(3 2.74826e-11 0)
(3 -4.47718e-11 0)
(3 1.92194e-10 0)
(3 -1.24747e-10 0)
(3 -4.05902e-10 0)
(3 1.0821e-09 0)
(3 9.30152e-09 0)
(3 1.89028e-09 0)
(3 6.11239e-08 0)
(3 4.81063e-09 0)
(3 2.87502e-07 0)
(2.99999 3.19714e-08 0)
(2.99998 1.4256e-06 0)
(2.99995 -5.07871e-07 0)
(2.99991 1.47226e-06 0)
(2.99969 -8.88527e-06 0)
(2.99937 -0.000106245 0)
(2.9982 -0.000350781 0)
(2.99743 -0.000645142 0)
(2.99404 -0.00208982 0)
(2.98683 -0.00151734 0)
(2.99167 -0.0016378 0)
(2.88983 -0.0139667 0)
(2.76435 0.100021 0)
(2.32219 0.103566 0)
(1.21011 0.495404 0)
(0.851744 0.551148 0)
(0.844457 0.550773 0)
(0.888385 0.544712 0)
(0.919189 0.543975 0)
(0.921845 0.551733 0)
(0.912864 0.562145 0)
(0.901341 0.573996 0)
(0.890439 0.586186 0)
(0.880415 0.59825 0)
(0.872788 0.610948 0)
(0.868301 0.625351 0)
(0.865451 0.641147 0)
(0.863744 0.658669 0)
(0.8646 0.678289 0)
(0.869662 0.700372 0)
(0.880186 0.72518 0)
(0.897461 0.752735 0)
(0.922759 0.782711 0)
(0.95718 0.814245 0)
(1.00201 0.846179 0)
(1.05739 0.876104 0)
(1.12581 0.902274 0)
(1.19868 0.920853 0)
(3 -2.94344e-11 0)
(3 8.232e-11 0)
(3 6.69441e-11 0)
(3 6.69268e-10 0)
(3 6.065e-10 0)
(3 4.0294e-09 0)
(3 4.02141e-09 0)
(3 2.42623e-08 0)
(3 2.40208e-08 0)
(3 1.39418e-07 0)
(3 1.46079e-07 0)
(3 8.09483e-07 0)
(3 9.18761e-07 0)
(2.99999 4.56891e-06 0)
(2.99999 9.09158e-06 0)
(2.99996 2.32654e-05 0)
(2.99992 2.62918e-05 0)
(2.99978 0.0001465 0)
(2.99953 0.000229801 0)
(2.99855 0.000911014 0)
(2.99869 0.00109196 0)
(2.99602 0.00371218 0)
(2.98747 0.00737079 0)
(2.99613 0.00554517 0)
(2.81203 0.0767113 0)
(2.48994 0.0584652 0)
(1.81863 0.320909 0)
(0.994712 0.526097 0)
(0.89179 0.554855 0)
(0.911919 0.560739 0)
(0.939412 0.560313 0)
(0.945831 0.567552 0)
(0.937477 0.578694 0)
(0.926494 0.591168 0)
(0.916728 0.60419 0)
(0.909595 0.617584 0)
(0.907126 0.631808 0)
(0.908155 0.647316 0)
(0.910013 0.663596 0)
(0.912747 0.680695 0)
(0.917539 0.698766 0)
(0.925802 0.717954 0)
(0.938602 0.738401 0)
(0.95688 0.760204 0)
(0.98163 0.783212 0)
(1.01366 0.806901 0)
(1.0539 0.830452 0)
(1.10244 0.852556 0)
(1.16079 0.871891 0)
(1.22244 0.885783 0)
(3 2.75427e-11 0)
(3 1.77902e-11 0)
(3 1.4126e-10 0)