/*--------------------------------*- C++ -*----------------------------------*\
| =========                 |                                                 |
| \\      /  F ield         | OpenFOAM: The Open Source CFD Toolbox           |
|  \\    /   O peration     | Version:  2412                                  |
|   \\  /    A nd           | Website:  www.openfoam.com                      |
|    \\/     M anipulation  |                                                 |
\*---------------------------------------------------------------------------*/
FoamFile
{
    version     2.0;
    format      ascii;
    arch        "LSB;label=32;scalar=64";
    class       volScalarField;
    location    "12.5";
    object      Ma;
}
// * * * * * * * * * * * * * * * * * * * * * * * * * * * * * * * * * * * * * //

dimensions      [0 0 0 0 0 0 0];

internalField   nonuniform List<scalar> 
7000
(
2.26764
1.01454
0.313746
0.337843
0.400822
0.443009
0.451491
0.446913
0.440254
0.435015
0.431946
0.429524
0.426794
0.42359
0.419994
0.416119
0.411973
0.407528
0.402778
0.397662
0.392217
0.386402
0.380225
0.37365
0.366614
0.359151
0.351223
0.342878
0.33405
0.324721
0.314875
0.304433
0.293428
0.281798
0.269569
0.256725
0.243187
0.229031
0.214217
0.198725
0.182557
0.165679
0.1482
0.130145
0.111453
0.0922576
0.0727207
0.0529366
0.0320982
0.0160137
2.26769
1.01459
0.313518
0.337657
0.400645
0.442835
0.451317
0.446739
0.440084
0.434851
0.431782
0.42936
0.426629
0.423427
0.419839
0.415977
0.411839
0.407393
0.402643
0.397538
0.392116
0.386323
0.380154
0.373578
0.366551
0.359118
0.351238
0.342939
0.334141
0.324822
0.314977
0.304538
0.293549
0.281946
0.26975
0.25694
0.243434
0.22931
0.214527
0.19907
0.182942
0.166114
0.1487
0.130731
0.112158
0.0931435
0.0738981
0.0546814
0.0352628
0.022409
2.26781
1.01478
0.313646
0.337695
0.400677
0.442871
0.45135
0.446779
0.440134
0.43491
0.431851
0.429437
0.426718
0.423526
0.419947
0.416088
0.411958
0.407531
0.402804
0.397716
0.392297
0.38651
0.380362
0.373824
0.366833
0.359418
0.351542
0.343249
0.334475
0.325205
0.315425
0.305057
0.294134
0.282594
0.270463
0.257725
0.244303
0.230276
0.215609
0.200284
0.184311
0.167667
0.150476
0.132788
0.114589
0.0961053
0.0776653
0.0598196
0.0431044
0.0338287
2.26797
1.01506
0.313913
0.337784
0.400771
0.442975
0.451459
0.446896
0.44027
0.435066
0.432021
0.429618
0.426907
0.42373
0.420169
0.416335
0.412228
0.407819
0.40311
0.398045
0.392661
0.386912
0.3808
0.374294
0.367338
0.359971
0.352152
0.343924
0.335215
0.326007
0.316291
0.305994
0.295157
0.283715
0.271695
0.25908
0.245795
0.231926
0.217439
0.202323
0.186593
0.170239
0.153402
0.136158
0.118539
0.100849
0.083542
0.0674047
0.0533424
0.0463843
2.2682
1.01547
0.314253
0.337864
0.400868
0.443101
0.451594
0.44704
0.440434
0.435253
0.432227
0.429843
0.427155
0.424004
0.420469
0.416657
0.412576
0.408199
0.403531
0.398508
0.39316
0.387449
0.381383
0.374939
0.368052
0.360753
0.353
0.344838
0.336211
0.327102
0.3175
0.307325
0.296618
0.285321
0.273462
0.261026
0.247942
0.234297
0.220066
0.205243
0.189854
0.173899
0.157544
0.140892
0.124027
0.107326
0.0913309
0.0769567
0.0651277
0.059659
2.2685
1.016
0.314683
0.337948
0.400981
0.443251
0.451758
0.447218
0.440637
0.43549
0.432491
0.430132
0.427467
0.424343
0.420843
0.41707
0.413033
0.408697
0.40407
0.399094
0.393803
0.388157
0.382159
0.375788
0.36898
0.36177
0.354114
0.346058
0.337549
0.32857
0.319109
0.30909
0.298554
0.287444
0.275789
0.263584
0.250758
0.237407
0.223511
0.209072
0.194126
0.178693
0.162953
0.147042
0.131081
0.115503
0.10091
0.0882043
0.0781896
0.0737444
2.26887
1.01668
0.315204
0.338036
0.401104
0.443428
0.451955
0.447434
0.440886
0.435775
0.43281
0.430481
0.427851
0.424768
0.421312
0.417584
0.413593
0.40931
0.404742
0.39983
0.394607
0.389038
0.383122
0.376843
0.370138
0.363041
0.35551
0.347591
0.339229
0.330407
0.321121
0.311293
0.300973
0.290112
0.278732
0.266831
0.254337
0.241352
0.227871
0.213903
0.199501
0.184692
0.169687
0.154637
0.139698
0.125335
0.11214
0.100969
0.0924271
0.0887182
2.26934
1.01751
0.315816
0.338127
0.401241
0.443628
0.452183
0.447689
0.441183
0.436115
0.433193
0.430904
0.428315
0.425281
0.421878
0.418203
0.414271
0.410053
0.405561
0.40073
0.395587
0.390102
0.384284
0.378126
0.371563
0.36461
0.357217
0.349444
0.34126
0.332652
0.323601
0.314015
0.303953
0.293379
0.282332
0.270803
0.258719
0.246189
0.233215
0.219816
0.206056
0.191976
0.177802
0.163716
0.149885
0.13678
0.124944
0.115137
0.107805
0.104675
2.26989
1.01849
0.31651
0.338223
0.401393
0.443851
0.452446
0.447988
0.441532
0.43652
0.433649
0.431409
0.428869
0.425886
0.422547
0.418944
0.415086
0.410942
0.406532
0.401793
0.396756
0.391382
0.38568
0.379654
0.373241
0.366463
0.359255
0.351667
0.343684
0.335306
0.326534
0.317262
0.30752
0.297288
0.28661
0.275508
0.263907
0.251916
0.239553
0.226842
0.213847
0.200606
0.187369
0.174334
0.161671
0.149825
0.139307
0.130745
0.12443
0.121729
2.27054
1.01964
0.317279
0.338334
0.401558
0.444101
0.452749
0.448337
0.441944
0.436994
0.434183
0.432002
0.429522
0.426603
0.423334
0.41981
0.416042
0.411991
0.407676
0.403043
0.398126
0.392886
0.387329
0.381451
0.375208
0.368624
0.361641
0.354293
0.346546
0.338429
0.329952
0.321021
0.311674
0.301862
0.291644
0.281043
0.269985
0.258602
0.246928
0.234998
0.222883
0.210617
0.198432
0.186538
0.175101
0.16454
0.155262
0.147828
0.142404
0.140118
2.27129
1.02093
0.318135
0.33847
0.401731
0.444381
0.453099
0.448742
0.442424
0.437544
0.434802
0.432693
0.430285
0.427442
0.424253
0.420817
0.417149
0.413207
0.409007
0.404503
0.399715
0.394633
0.389233
0.383543
0.377491
0.371134
0.3644
0.357326
0.349878
0.342058
0.33392
0.325372
0.316459
0.307144
0.297459
0.287454
0.277055
0.266374
0.255464
0.244385
0.23324
0.222049
0.21104
0.200388
0.19023
0.180969
0.172964
0.166622
0.162021
0.160033
2.27211
1.02238
0.319139
0.338587
0.401918
0.444702
0.453505
0.449216
0.442977
0.438184
0.435512
0.433491
0.431162
0.428414
0.425315
0.421979
0.418423
0.414602
0.410543
0.406176
0.401553
0.396631
0.391426
0.385935
0.380121
0.374012
0.36756
0.360798
0.353688
0.346235
0.338485
0.330367
0.321948
0.31318
0.30411
0.294774
0.285124
0.275269
0.265255
0.255134
0.245028
0.235001
0.225254
0.215962
0.207208
0.1993
0.192536
0.187281
0.183493
0.18192
2.27305
1.02404
0.320273
0.338676
0.402125
0.445066
0.453972
0.449757
0.443626
0.438918
0.436343
0.4344
0.432183
0.429524
0.426547
0.423312
0.419883
0.416196
0.412285
0.408095
0.403639
0.398921
0.393915
0.388662
0.383104
0.377279
0.371153
0.364724
0.358014
0.350967
0.343672
0.33606
0.328171
0.320036
0.311624
0.303061
0.294237
0.285303
0.276309
0.267283
0.258368
0.249592
0.241217
0.233384
0.22612
0.219724
0.214375
0.210308
0.207393
0.206123
2.27411
1.02592
0.321529
0.338757
0.402352
0.445481
0.45451
0.450395
0.444383
0.439791
0.43731
0.435476
0.433355
0.430828
0.427963
0.424867
0.421563
0.41802
0.414273
0.410259
0.406009
0.401505
0.396733
0.391741
0.386459
0.380967
0.375176
0.369154
0.362854
0.35629
0.349503
0.342444
0.335194
0.327717
0.320078
0.312325
0.304443
0.296519
0.288661
0.280883
0.273283
0.265945
0.259065
0.25286
0.247292
0.242521
0.238715
0.236018
0.234174
0.233533
2.27528
1.02802
0.322919
0.338826
0.402595
0.445949
0.455128
0.451134
0.445263
0.440803
0.438437
0.436718
0.43472
0.432306
0.429585
0.426622
0.423478
0.420099
0.41652
0.412715
0.408672
0.404416
0.399903
0.395188
0.390231
0.385069
0.379686
0.37407
0.368264
0.362203
0.355994
0.349563
0.342985
0.336286
0.329461
0.322647
0.315774
0.308973
0.302354
0.295948
0.289874
0.284115
0.278957
0.274556
0.270918
0.268184
0.266318
0.265414
0.264941
0.264936
2.27658
1.03033
0.324449
0.338897
0.402881
0.446505
0.455885
0.452034
0.446354
0.442027
0.439798
0.438196
0.436329
0.434046
0.431465
0.428652
0.425669
0.422454
0.419072
0.415461
0.411668
0.407663
0.403445
0.399038
0.394421
0.389635
0.38467
0.379522
0.374227
0.368744
0.363149
0.357413
0.351587
0.345727
0.339807
0.334003
0.328253
0.322694
0.317419
0.312528
0.308144
0.304262
0.301035
0.298781
0.29742
0.297046
0.297648
0.299145
0.30091
0.30242
2.27798
1.03289
0.326213
0.338998
0.403232
0.447215
0.456842
0.453176
0.447678
0.443512
0.441394
0.439934
0.438194
0.43606
0.433624
0.430974
0.428162
0.425143
0.421951
0.418576
0.415009
0.411297
0.407376
0.403319
0.399065
0.394688
0.390169
0.385518
0.380779
0.375907
0.370992
0.366003
0.360994
0.356041
0.351134
0.346408
0.3419
0.337669
0.333925
0.330664
0.328126
0.326347
0.325447
0.325677
0.327204
0.330001
0.334021
0.339222
0.344405
0.34844
2.27953
1.03574
0.328211
0.339133
0.403706
0.448108
0.458015
0.454542
0.44927
0.445251
0.443283
0.441941
0.440367
0.438366
0.436105
0.433611
0.430986
0.428172
0.425193
0.422063
0.418748
0.41533
0.411729
0.408037
0.404178
0.400235
0.396192
0.392072
0.387922
0.383705
0.379514
0.375323
0.371195
0.367211
0.363383
0.359843
0.35667
0.353902
0.351787
0.350403
0.349896
0.350446
0.352208
0.355515
0.360547
0.367385
0.376278
0.387144
0.399082
0.409682
2.2812
1.03884
0.330371
0.339377
0.404257
0.449156
0.459408
0.456164
0.451123
0.447283
0.445433
0.444252
0.442812
0.440998
0.438898
0.436599
0.434164
0.431561
0.428825
0.425947
0.422927
0.419803
0.416556
0.413229
0.409809
0.406312
0.402788
0.399205
0.395682
0.392146
0.388718
0.38539
0.382182
0.379245
0.37655
0.374274
0.372499
0.371353
0.370966
0.371528
0.373283
0.376513
0.381545
0.388531
0.398053
0.410491
0.426308
0.446511
0.470666
0.498335
2.28295
1.04207
0.332646
0.339696
0.404885
0.450429
0.461108
0.458125
0.453364
0.449668
0.447957
0.446893
0.445627
0.44395
0.442047
0.43992
0.437704
0.435315
0.432822
0.430212
0.427491
0.424699
0.421819
0.418883
0.415915
0.412892
0.409912
0.40691
0.404019
0.401204
0.398542
0.396108
0.39387
0.392011
0.390519
0.389587
0.38925
0.389717
0.39114
0.393876
0.398167
0.404383
0.412715
0.424017
0.438733
0.458349
0.484357
0.519914
0.571772
0.664695
2.28504
1.04597
0.335356
0.340127
0.405725
0.45219
0.463495
0.460896
0.456507
0.453008
0.451469
0.450596
0.449562
0.448139
0.446482
0.444652
0.442705
0.440683
0.438517
0.436315
0.433999
0.431677
0.429303
0.426935
0.424582
0.422249
0.420001
0.417831
0.415808
0.413998
0.412398
0.411164
0.410274
0.409886
0.410073
0.410887
0.412483
0.415278
0.419518
0.425258
0.433036
0.443105
0.456505
0.473637
0.496589
0.526815
0.568926
0.630324
0.729491
0.881794
2.28722
1.05006
0.338566
0.341308
0.407548
0.455296
0.467394
0.465214
0.461147
0.457716
0.4562
0.455426
0.454527
0.453288
0.451814
0.450223
0.448518
0.446794
0.444963
0.443129
0.441234
0.439354
0.437487
0.435661
0.433923
0.432256
0.430752
0.429383
0.428258
0.427379
0.426875
0.426754
0.427143
0.42805
0.429701
0.432319
0.436051
0.441041
0.447587
0.45606
0.466832
0.480786
0.498334
0.521347
0.550691
0.590344
0.643398
0.717364
0.828556
0.967342
2.2883
1.05206
0.340259
0.342458
0.40977
0.459184
0.472297
0.470657
0.466935
0.463541
0.462076
0.46142
0.460697
0.45964
0.458364
0.456966
0.455517
0.454023
0.452512
0.450985
0.449475
0.447987
0.44658
0.445238
0.444054
0.442996
0.442162
0.441539
0.441232
0.441254
0.441687
0.442571
0.444139
0.446549
0.449781
0.454111
0.459553
0.466596
0.475227
0.486244
0.499662
0.516657
0.537731
0.564147
0.597961
0.640527
0.696641
0.767325
0.863737
0.967793
2.28913
1.05356
0.343259
0.346439
0.414851
0.465723
0.479424
0.477688
0.473673
0.469936
0.468388
0.467824
0.467249
0.466362
0.465292
0.464118
0.462955
0.461765
0.460612
0.45946
0.458376
0.457332
0.456399
0.455566
0.454917
0.454451
0.454246
0.45432
0.454697
0.455441
0.456757
0.458708
0.461329
0.464765
0.469174
0.474703
0.481644
0.490113
0.500647
0.513277
0.529043
0.547719
0.571136
0.599026
0.633811
0.675981
0.727741
0.790534
0.86842
0.950354
2.28475
1.04541
0.344267
0.356161
0.427404
0.480365
0.494284
0.491713
0.48663
0.482093
0.480184
0.479453
0.478722
0.477689
0.476479
0.475221
0.473999
0.472812
0.471686
0.470628
0.469672
0.468836
0.468152
0.467647
0.467349
0.467315
0.467518
0.46808
0.469088
0.470631
0.47271
0.475411
0.478861
0.483141
0.488487
0.494953
0.502936
0.512408
0.524039
0.537689
0.554307
0.574021
0.597471
0.625751
0.6588
0.698778
0.745017
0.799904
0.863779
0.928661
2.29077
1.03753
0.37046
0.384631
0.450042
0.500075
0.512506
0.509069
0.503307
0.498551
0.496548
0.495631
0.494739
0.493596
0.492325
0.49104
0.489797
0.488596
0.487453
0.486376
0.485405
0.484555
0.483888
0.483377
0.483091
0.483052
0.483453
0.484228
0.485512
0.487249
0.489694
0.492733
0.49673
0.501497
0.507536
0.514595
0.523291
0.53343
0.54555
0.559864
0.576487
0.596325
0.619051
0.646068
0.676945
0.713075
0.754322
0.801268
0.855166
0.908764
1.87766
0.776744
0.281733
0.344021
0.413297
0.438427
0.439421
0.435255
0.431029
0.430333
0.432132
0.434784
0.437665
0.440635
0.443755
0.447019
0.450398
0.453815
0.457269
0.460659
0.464072
0.467388
0.470713
0.473904
0.477223
0.480533
0.483987
0.487457
0.491172
0.495081
0.499425
0.504191
0.509597
0.51577
0.522813
0.531041
0.54038
0.551434
0.563861
0.578625
0.595178
0.614644
0.636556
0.661891
0.690486
0.722947
0.759376
0.799896
0.845042
0.890168
1.86973
0.775178
0.289483
0.356019
0.425009
0.445075
0.441607
0.434538
0.42819
0.425527
0.424927
0.424937
0.425221
0.425841
0.426924
0.428501
0.430593
0.433124
0.436151
0.439511
0.44333
0.447482
0.452099
0.456868
0.462051
0.467365
0.473062
0.47894
0.485219
0.491741
0.498644
0.505956
0.513672
0.522032
0.53094
0.540869
0.551555
0.563706
0.576981
0.592128
0.608897
0.627925
0.649134
0.672975
0.699506
0.729004
0.761501
0.796986
0.835617
0.873707
1.86891
0.77397
0.291548
0.366091
0.441043
0.461852
0.456708
0.447764
0.440149
0.436713
0.435333
0.434365
0.433456
0.432713
0.432305
0.43227
0.432647
0.433422
0.434637
0.436329
0.438643
0.441513
0.444941
0.448931
0.453488
0.458698
0.464412
0.470824
0.477639
0.485224
0.493152
0.501961
0.51113
0.521333
0.531921
0.543621
0.555883
0.56937
0.583746
0.599596
0.616728
0.635616
0.656218
0.678902
0.703615
0.730686
0.759916
0.791459
0.825354
0.858227
1.87021
0.776808
0.29673
0.368236
0.441325
0.462553
0.458256
0.450115
0.442965
0.439972
0.439043
0.438535
0.438029
0.437639
0.437476
0.437587
0.437934
0.43852
0.439453
0.440784
0.442477
0.444595
0.447123
0.450217
0.453813
0.458115
0.462984
0.468673
0.47495
0.482152
0.489951
0.498759
0.508184
0.51863
0.529799
0.542038
0.555147
0.569407
0.58465
0.601105
0.618717
0.637704
0.658016
0.679936
0.703345
0.728495
0.755217
0.783609
0.813755
0.842747
1.87283
0.782705
0.30357
0.361643
0.426132
0.447863
0.446364
0.44028
0.434207
0.431771
0.431368
0.43157
0.431879
0.43236
0.433091
0.434062
0.43525
0.436749
0.438559
0.440618
0.442927
0.445543
0.44847
0.451812
0.455542
0.459809
0.464537
0.469947
0.475895
0.482681
0.490082
0.498453
0.507533
0.517645
0.528579
0.540605
0.553524
0.567599
0.582653
0.598952
0.616325
0.635033
0.654896
0.676098
0.69849
0.722231
0.747159
0.773192
0.800583
0.826771
1.8817
0.789307
0.305891
0.348944
0.408978
0.438698
0.442344
0.437648
0.432143
0.429223
0.42853
0.428756
0.429196
0.429804
0.430609
0.431679
0.433092
0.434843
0.436874
0.439189
0.441809
0.444763
0.448062
0.451756
0.45582
0.460358
0.465314
0.470855
0.476872
0.483608
0.490902
0.499035
0.50785
0.517594
0.52814
0.539709
0.552176
0.565721
0.580244
0.59589
0.612565
0.630404
0.649301
0.669375
0.690508
0.712753
0.735947
0.760092
0.785218
0.809228
2.26959
1.11822
0.416537
0.401686
0.461071
0.510355
0.522201
0.517544
0.510513
0.504139
0.500375
0.4978
0.495377
0.493083
0.490758
0.488553
0.486536
0.48481
0.483355
0.482247
0.481497
0.481187
0.481325
0.481992
0.483195
0.48499
0.487418
0.49053
0.49434
0.498933
0.504288
0.510532
0.517592
0.525659
0.534612
0.544642
0.555657
0.567789
0.580952
0.595259
0.610616
0.627094
0.644601
0.663168
0.682691
0.703198
0.724546
0.746699
0.769696
0.791607
2.27926
1.14077
0.400383
0.378689
0.45135
0.512963
0.53198
0.531381
0.527135
0.52315
0.521631
0.521237
0.521064
0.52086
0.520335
0.519622
0.518857
0.518123
0.517451
0.51686
0.516381
0.516054
0.51593
0.516055
0.516475
0.517283
0.518478
0.520213
0.522444
0.525369
0.528902
0.533264
0.538372
0.544397
0.551304
0.559203
0.568078
0.578018
0.589023
0.601151
0.614356
0.628729
0.644146
0.660665
0.678136
0.696552
0.715789
0.735758
0.756516
0.776298
2.30275
1.18849
0.442113
0.38516
0.447762
0.504503
0.52337
0.52458
0.522759
0.521434
0.52183
0.523052
0.524735
0.526426
0.52778
0.528963
0.530078
0.531225
0.532376
0.533573
0.534781
0.536056
0.53738
0.53882
0.540362
0.542086
0.543991
0.546164
0.548631
0.551471
0.554729
0.558486
0.562794
0.567744
0.573378
0.579806
0.587038
0.595207
0.60427
0.614359
0.625397
0.637465
0.650479
0.664522
0.679505
0.695444
0.712272
0.729832
0.748147
0.765655
1.90175
0.80639
0.309009
0.315487
0.371843
0.412119
0.426073
0.429691
0.432269
0.435624
0.44034
0.445898
0.452098
0.458437
0.464534
0.470537
0.476531
0.482583
0.488636
0.494689
0.500693
0.506664
0.512573
0.518447
0.52426
0.530052
0.535804
0.54157
0.547349
0.553202
0.55915
0.565238
0.571529
0.578085
0.584953
0.592226
0.599939
0.608194
0.617018
0.626498
0.636664
0.647564
0.659248
0.671698
0.684939
0.698915
0.713545
0.728861
0.744913
0.760284
2.31115
1.20495
0.457178
0.387964
0.441405
0.493398
0.510794
0.511084
0.507943
0.505433
0.504108
0.503754
0.504014
0.504204
0.504338
0.504591
0.505173
0.506148
0.507575
0.509432
0.511746
0.514507
0.517734
0.521423
0.525559
0.53014
0.535139
0.540543
0.546318
0.55245
0.558916
0.565741
0.572869
0.580357
0.588148
0.59631
0.604805
0.613706
0.623007
0.632747
0.64296
0.653666
0.664901
0.676671
0.688985
0.701855
0.715266
0.729191
0.74366
0.757458
2.31633
1.21464
0.439867
0.370561
0.439111
0.502022
0.523905
0.525459
0.523215
0.521699
0.52181
0.522823
0.524464
0.525965
0.526992
0.527796
0.528599
0.529483
0.530497
0.531683
0.533091
0.534764
0.536735
0.539052
0.541725
0.544817
0.548312
0.552275
0.556686
0.561597
0.56698
0.572871
0.57924
0.586092
0.593432
0.601232
0.609528
0.618249
0.627455
0.637071
0.647159
0.657645
0.668596
0.679935
0.691726
0.703893
0.716495
0.729404
0.742797
0.755479
2.31896
1.22032
0.444005
0.372705
0.442257
0.506659
0.529438
0.531261
0.529069
0.527668
0.528102
0.529508
0.531693
0.533878
0.535587
0.537084
0.538582
0.540177
0.541891
0.543725
0.545701
0.54783
0.55013
0.552639
0.55536
0.558352
0.561616
0.565208
0.569137
0.573449
0.578158
0.583298
0.58889
0.594944
0.601489
0.608517
0.616044
0.624068
0.632583
0.641587
0.651067
0.661004
0.671393
0.682207
0.693425
0.705028
0.716963
0.729244
0.741849
0.753855
2.32139
1.22696
0.470469
0.389629
0.447968
0.507177
0.530116
0.533551
0.532674
0.532278
0.533122
0.534971
0.537415
0.539661
0.54163
0.543487
0.545384
0.547383
0.549512
0.551772
0.554175
0.556731
0.559448
0.562343
0.565429
0.568719
0.572235
0.57599
0.580007
0.584307
0.588915
0.59385
0.599143
0.60481
0.610861
0.617345
0.624223
0.631565
0.63933
0.647564
0.656241
0.66537
0.674938
0.684942
0.695347
0.706149
0.717284
0.72875
0.740554
0.751798
1.90574
0.814681
0.327425
0.323424
0.375814
0.413464
0.42596
0.428574
0.430455
0.433396
0.437759
0.443287
0.449635
0.456106
0.462512
0.468928
0.475455
0.482104
0.488869
0.495713
0.502617
0.509562
0.51654
0.523541
0.530575
0.537628
0.544718
0.551844
0.559019
0.566254
0.573563
0.580963
0.588463
0.5961
0.603865
0.611817
0.619938
0.628285
0.636857
0.645676
0.654765
0.664123
0.673757
0.683679
0.693889
0.704382
0.715164
0.726179
0.737529
0.748291
2.31612
1.21758
0.471426
0.405583
0.467925
0.529478
0.551897
0.553204
0.549346
0.5458
0.543808
0.542613
0.542206
0.541919
0.541285
0.540562
0.53996
0.539676
0.539699
0.540136
0.540959
0.542224
0.543922
0.54611
0.548754
0.551903
0.555512
0.559616
0.564183
0.569226
0.574718
0.580654
0.587004
0.593755
0.600875
0.608349
0.616174
0.624315
0.632782
0.64154
0.650588
0.659915
0.669506
0.679361
0.689459
0.699808
0.710376
0.721157
0.732181
0.742639
2.29746
1.17648
0.465684
0.425097
0.487574
0.548244
0.568512
0.568673
0.56496
0.561719
0.561011
0.561468
0.562671
0.564066
0.565095
0.56587
0.566605
0.567401
0.568282
0.569238
0.570277
0.571424
0.572723
0.574196
0.575895
0.577848
0.580104
0.582689
0.585625
0.588927
0.59262
0.596711
0.601218
0.606158
0.611538
0.617364
0.62363
0.630328
0.637453
0.644985
0.652917
0.661226
0.669884
0.678884
0.688185
0.697781
0.707631
0.717735
0.728123
0.738015
1.88757
0.805327
0.343275
0.355974
0.406531
0.443013
0.452528
0.451937
0.450584
0.450929
0.453719
0.457798
0.462877
0.468552
0.474302
0.480119
0.48608
0.492209
0.498478
0.504836
0.511261
0.517707
0.524172
0.530621
0.537069
0.543506
0.549944
0.556389
0.562848
0.569342
0.575876
0.582489
0.589185
0.596012
0.602976
0.610114
0.617433
0.624951
0.632679
0.640625
0.648805
0.657218
0.665878
0.674788
0.683935
0.693321
0.70293
0.712746
0.722802
0.732354
1.87275
0.795695
0.341147
0.357296
0.398462
0.426842
0.4349
0.435041
0.434086
0.433527
0.434078
0.43545
0.437744
0.440693
0.443875
0.447295
0.451062
0.455242
0.459864
0.464933
0.470416
0.476285
0.482498
0.489054
0.495928
0.503117
0.510584
0.518287
0.526212
0.534292
0.542556
0.550936
0.559465
0.568104
0.576856
0.585711
0.59466
0.60371
0.612845
0.622085
0.631426
0.640879
0.650428
0.660088
0.669871
0.679764
0.689799
0.699938
0.710264
0.720031
1.88915
0.807277
0.348413
0.3751
0.431626
0.468044
0.475162
0.471273
0.466299
0.463263
0.462427
0.462514
0.463248
0.464384
0.465551
0.466786
0.468203
0.46988
0.471835
0.474114
0.476718
0.479668
0.482961
0.486625
0.490698
0.495213
0.50017
0.505572
0.511392
0.517632
0.524289
0.531362
0.538838
0.546706
0.554928
0.563475
0.572302
0.581381
0.590695
0.600222
0.609917
0.619804
0.629843
0.640025
0.650333
0.660731
0.671235
0.681793
0.692503
0.70259
2.34425
1.13067
0.474755
0.450527
0.515615
0.577755
0.598856
0.598577
0.593526
0.588509
0.585818
0.584307
0.583219
0.582387
0.58141
0.58023
0.579009
0.577826
0.576741
0.575737
0.57486
0.574089
0.573449
0.572978
0.572661
0.572602
0.572762
0.573267
0.574085
0.575284
0.576855
0.578875
0.581325
0.58427
0.587699
0.591651
0.596119
0.601081
0.606558
0.612507
0.618961
0.625855
0.633208
0.640954
0.649075
0.657548
0.666335
0.67541
0.684774
0.693736
1.88968
0.808608
0.349809
0.364823
0.416857
0.457187
0.469637
0.470446
0.46963
0.469346
0.471354
0.474537
0.478466
0.482913
0.487427
0.491902
0.496463
0.501179
0.506048
0.511015
0.516055
0.521138
0.526243
0.531367
0.536503
0.541643
0.546785
0.551936
0.557098
0.562281
0.567486
0.572733
0.578021
0.583382
0.588826
0.594373
0.60006
0.6059
0.6119
0.618093
0.624462
0.631083
0.637904
0.645012
0.65235
0.65995
0.667775
0.675844
0.684149
0.692102
1.88866
0.808229
0.351246
0.366254
0.417514
0.456206
0.466857
0.465857
0.463068
0.460585
0.460225
0.461197
0.462886
0.465144
0.467517
0.469917
0.472499
0.475386
0.478618
0.482168
0.486017
0.490139
0.49453
0.499194
0.504143
0.509362
0.514849
0.520579
0.526551
0.532723
0.5391
0.545648
0.552376
0.559257
0.566292
0.573457
0.580752
0.588155
0.595663
0.603267
0.610961
0.618754
0.626647
0.63464
0.642756
0.650961
0.659308
0.667724
0.676317
0.684433
2.34646
1.13452
0.479019
0.453369
0.519661
0.584103
0.606707
0.606755
0.601826
0.597003
0.594515
0.593364
0.592688
0.592369
0.591997
0.591433
0.590813
0.590253
0.589789
0.589434
0.589199
0.589116
0.589148
0.589341
0.589662
0.590138
0.590801
0.591668
0.592795
0.594199
0.595919
0.597964
0.600332
0.603032
0.606054
0.609411
0.613108
0.617158
0.621557
0.626318
0.631401
0.636826
0.642545
0.648567
0.654869
0.661438
0.668265
0.675324
0.682632
0.689637
1.8881
0.807902
0.355726
0.383106
0.441193
0.481514
0.491705
0.49009
0.487039
0.485469
0.48665
0.489048
0.492113
0.495621
0.499185
0.502802
0.506581
0.510545
0.514658
0.518902
0.523276
0.527787
0.532443
0.537232
0.542119
0.547081
0.552108
0.557197
0.562354
0.567593
0.5729
0.578293
0.583742
0.589265
0.594849
0.600503
0.606244
0.612084
0.618043
0.624128
0.630337
0.636672
0.643128
0.649711
0.656428
0.663283
0.670284
0.677438
0.68477
0.691751
1.87245
0.796977
0.350464
0.379192
0.429305
0.460843
0.468491
0.467962
0.466803
0.466421
0.46724
0.468628
0.470597
0.472864
0.475198
0.477604
0.480233
0.483127
0.486159
0.489332
0.492677
0.496226
0.500054
0.504213
0.508619
0.513249
0.518073
0.523123
0.52843
0.534002
0.539842
0.545911
0.552182
0.558622
0.565214
0.571961
0.578849
0.58589
0.593059
0.600359
0.60778
0.615291
0.622908
0.630595
0.638375
0.64623
0.654185
0.662232
0.670412
0.67816
1.87021
0.795225
0.349118
0.375603
0.423668
0.454836
0.463477
0.464047
0.46368
0.463615
0.464241
0.46532
0.466951
0.468886
0.470937
0.473062
0.475405
0.477906
0.48042
0.482989
0.48566
0.488467
0.491479
0.494803
0.49836
0.50205
0.505867
0.509878
0.514138
0.518732
0.523636
0.528831
0.534268
0.539914
0.545793
0.55192
0.558309
0.564986
0.571904
0.579045
0.586377
0.593844
0.601483
0.609232
0.61714
0.625193
0.633375
0.641721
0.650222
0.658323
1.88657
0.80671
0.355709
0.364365
0.414541
0.453313
0.464819
0.465263
0.464286
0.463722
0.46412
0.465037
0.466701
0.468764
0.470781
0.472857
0.475037
0.477275
0.479582
0.481976
0.484479
0.487139
0.49005
0.493122
0.496312
0.499587
0.503004
0.506616
0.510489
0.514619
0.51899
0.52355
0.528286
0.5332
0.538339
0.543733
0.549423
0.555388
0.561602
0.568028
0.57462
0.581406
0.58836
0.595521
0.602902
0.61048
0.618279
0.626244
0.634384
0.642153
2.31555
1.21144
0.491919
0.43545
0.495971
0.56078
0.587526
0.591296
0.588491
0.585829
0.584569
0.584359
0.585126
0.586309
0.58719
0.587871
0.588483
0.589152
0.5899
0.590704
0.591594
0.592547
0.593617
0.594759
0.596004
0.597316
0.598725
0.600228
0.60185
0.603604
0.605501
0.607547
0.609755
0.612117
0.614657
0.617382
0.620291
0.623415
0.626731
0.630295
0.634077
0.638099
0.642355
0.646835
0.651561
0.656521
0.661724
0.667174
0.672857
0.678361
2.32749
1.23953
0.47409
0.408598
0.484401
0.561223
0.593047
0.597879
0.595219
0.592437
0.591449
0.591867
0.593172
0.595042
0.596654
0.597977
0.599194
0.600526
0.602
0.60362
0.605384
0.607287
0.609341
0.611533
0.613858
0.616302
0.618865
0.621537
0.624344
0.627269
0.630353
0.633563
0.636925
0.640408
0.644018
0.647746
0.651586
0.65555
0.659638
0.663865
0.668231
0.672747
0.677402
0.682208
0.68715
0.692239
0.697476
0.702848
0.708403
0.713692
2.31757
1.21674
0.495109
0.436156
0.497326
0.56336
0.591222
0.595767
0.59379
0.591752
0.591128
0.591624
0.59311
0.595109
0.596753
0.598186
0.599559
0.601073
0.60273
0.604555
0.606514
0.608629
0.610863
0.613245
0.615754
0.618404
0.621227
0.624196
0.627379
0.630716
0.634261
0.63796
0.641832
0.645854
0.650028
0.654335
0.658796
0.66338
0.668137
0.673028
0.678078
0.683279
0.6886
0.694066
0.699645
0.705333
0.711174
0.717085
0.723224
0.729018
1.8891
0.811484
0.36234
0.366859
0.418887
0.460413
0.473182
0.473614
0.472309
0.471568
0.472567
0.474413
0.477147
0.480266
0.483085
0.485705
0.488345
0.491114
0.49403
0.49717
0.500572
0.504124
0.507779
0.511561
0.515506
0.519712
0.524211
0.528991
0.534019
0.539236
0.54464
0.550213
0.555998
0.561994
0.568236
0.574686
0.581344
0.588149
0.59509
0.602123
0.609249
0.616458
0.623779
0.631186
0.638726
0.646346
0.654097
0.661929
0.669889
0.677452
1.87387
0.801988
0.361989
0.383855
0.430541
0.463232
0.471589
0.470802
0.469416
0.468714
0.469223
0.470586
0.47266
0.474929
0.477092
0.479112
0.481133
0.483229
0.485426
0.48773
0.490249
0.492984
0.495781
0.498624
0.501527
0.504551
0.507819
0.51136
0.515133
0.519071
0.523143
0.527366
0.531777
0.536449
0.541381
0.546594
0.552042
0.557676
0.56349
0.569447
0.575583
0.581912
0.588439
0.595188
0.602141
0.609258
0.616561
0.623963
0.631546
0.638742
1.87861
0.806218
0.365498
0.398141
0.453337
0.487454
0.49433
0.491354
0.487597
0.485891
0.486017
0.486989
0.488694
0.49066
0.492504
0.494291
0.496133
0.498083
0.500124
0.502276
0.504598
0.507086
0.509742
0.512477
0.515317
0.51823
0.521302
0.524549
0.528016
0.531682
0.535505
0.539483
0.543568
0.547815
0.552225
0.556834
0.561659
0.566682
0.571889
0.577266
0.582774
0.588444
0.594262
0.600247
0.606438
0.612786
0.61935
0.626054
0.632933
0.639493
1.19333
1.05734
0.503545
0.191528
0.00740027
0.112467
0.165022
0.212964
0.234405
0.238392
0.226235
0.21554
0.205399
0.195918
0.183702
0.168897
0.15112
0.130727
0.108435
0.0848589
0.060615
0.0364565
0.0166067
0.0230137
0.0469377
0.0715463
0.0959392
0.119879
0.143449
0.166538
0.189195
0.211412
0.23316
0.254254
0.274226
0.293377
0.313134
0.33349
0.353307
0.372377
0.390846
0.408778
0.426271
0.443268
0.459805
0.475864
0.491453
0.506502
0.521143
0.535198
0.548827
0.561894
0.574502
0.586539
0.598069
0.609011
0.619397
0.629141
0.638303
0.646756
0.654559
0.661595
0.66791
0.673395
0.678083
0.681907
0.684882
0.687036
0.688338
0.688962
0.689157
0.689059
0.688326
0.686436
0.683495
0.680323
0.677061
0.67379
0.670549
0.667419
0.664527
0.661903
0.659676
0.65782
0.65636
0.655329
0.654643
0.654161
0.653864
0.653882
0.654462
0.655528
0.656703
0.658159
0.659694
0.661522
0.66333
0.665337
0.667091
0.671779
1.12398
1.04146
0.812869
0.555257
0.504768
0.435113
0.383863
0.341738
0.311353
0.291765
0.259198
0.228497
0.209876
0.208869
0.216188
0.227005
0.239815
0.254117
0.269632
0.285896
0.30266
0.319487
0.336146
0.352626
0.36959
0.38681
0.404184
0.421508
0.438813
0.455979
0.473071
0.489934
0.506615
0.522985
0.538717
0.553763
0.568945
0.584794
0.600649
0.615987
0.630865
0.64546
0.65972
0.673702
0.687284
0.700525
0.713383
0.725801
0.737914
0.749521
0.760793
0.771577
0.781955
0.791814
0.801249
0.810155
0.81855
0.826435
0.833774
0.840528
0.84667
0.852272
0.857107
0.861415
0.864928
0.867875
0.869955
0.8715
0.872242
0.872505
0.872288
0.87184
0.870845
0.868917
0.866139
0.863006
0.859864
0.856693
0.853633
0.850663
0.847951
0.845529
0.843451
0.841858
0.840687
0.839959
0.839623
0.839677
0.83979
0.840283
0.841392
0.842896
0.844587
0.84637
0.848285
0.850152
0.852091
0.853791
0.855323
0.858758
1.07583
1.07975
1.01335
0.906529
0.836269
0.786969
0.7512
0.720742
0.695936
0.677893
0.66243
0.647966
0.63784
0.632894
0.631357
0.631568
0.633051
0.635444
0.638757
0.642953
0.647946
0.653656
0.659913
0.666738
0.674243
0.682412
0.691175
0.700413
0.710036
0.719957
0.730219
0.740654
0.751331
0.762066
0.772668
0.782833
0.793264
0.804476
0.816181
0.827589
0.838627
0.849557
0.860254
0.870928
0.88139
0.891692
0.90188
0.911747
0.921567
0.931027
0.940354
0.94937
0.958129
0.966582
0.974705
0.98247
0.98987
0.996828
1.00339
1.00942
1.01502
1.01998
1.02441
1.02822
1.03127
1.03369
1.03544
1.0364
1.03667
1.03629
1.03561
1.03466
1.0331
1.0307
1.02747
1.02388
1.02019
1.01643
1.01277
1.00933
1.00608