/*--------------------------------*- C++ -*----------------------------------*\
| =========                 |                                                 |
| \\      /  F ield         | OpenFOAM: The Open Source CFD Toolbox           |
|  \\    /   O peration     | Version:  2412                                  |
|   \\  /    A nd           | Website:  www.openfoam.com                      |
|    \\/     M anipulation  |                                                 |
\*---------------------------------------------------------------------------*/
FoamFile
{
    version     2.0;
    format      ascii;
    arch        "LSB;label=32;scalar=64";
    class       volScalarField;
    location    "12.5";
    object      p;
}
// * * * * * * * * * * * * * * * * * * * * * * * * * * * * * * * * * * * * * //

dimensions      [1 -1 -2 0 0 0 0];

internalField   nonuniform List<scalar> 
7000
(
1.63283
3.66445
11.2447
11.4811
11.0598
10.6455
10.5254
10.5409
10.5846
10.6278
10.6523
10.6681
10.6843
10.7036
10.7255
10.749
10.7741
10.8006
10.8287
10.8585
10.89
10.9232
10.9582
10.995
11.0335
11.0738
11.1158
11.1595
11.2048
11.2518
11.3003
11.3502
11.4014
11.4537
11.507
11.561
11.6153
11.6697
11.7237
11.7769
11.8288
11.8786
11.926
11.9701
12.0102
12.0458
12.0762
12.1007
12.1186
12.1315
1.63316
3.66314
11.2443
11.4804
11.0593
10.6452
10.5251
10.5406
10.5843
10.6274
10.6518
10.6676
10.6838
10.7031
10.7249
10.7485
10.7735
10.8
10.8281
10.8578
10.8893
10.9225
10.9575
10.9942
11.0327
11.0729
11.1149
11.1585
11.2039
11.2508
11.2992
11.3491
11.4003
11.4526
11.5059
11.5599
11.6142
11.6686
11.7226
11.7758
11.8277
11.8776
11.9251
11.9693
12.0095
12.0453
12.0758
12.1004
12.1183
12.1313
1.63306
3.66227
11.2426
11.4796
11.0586
10.6445
10.5244
10.5399
10.5835
10.6265
10.6509
10.6666
10.6828
10.702
10.7238
10.7473
10.7723
10.7987
10.8267
10.8564
10.8878
10.9209
10.9558
10.9924
11.0308
11.0709
11.1128
11.1563
11.2015
11.2483
11.2966
11.3463
11.3974
11.4495
11.5026
11.5565
11.6106
11.6649
11.7189
11.772
11.8238
11.8736
11.9211
11.9653
12.0055
12.0413
12.0718
12.0964
12.1142
12.1271
1.63295
3.66111
11.2395
11.4785
11.0577
10.6434
10.5232
10.5387
10.5822
10.6251
10.6494
10.6651
10.6812
10.7003
10.722
10.7454
10.7703
10.7966
10.8245
10.8541
10.8854
10.9184
10.9531
10.9896
11.0278
11.0677
11.1094
11.1527
11.1977
11.2442
11.2923
11.3418
11.3926
11.4446
11.4974
11.551
11.6049
11.659
11.7127
11.7657
11.8173
11.867
11.9144
11.9585
11.9987
12.0344
12.0649
12.0895
12.1072
12.12
1.63279
3.6594
11.235
11.4771
11.0564
10.6418
10.5216
10.537
10.5804
10.6232
10.6473
10.6629
10.6789
10.6979
10.7195
10.7428
10.7675
10.7936
10.8214
10.8508
10.8819
10.9147
10.9492
10.9855
11.0235
11.0631
11.1045
11.1476
11.1922
11.2385
11.2862
11.3354
11.3858
11.4374
11.4899
11.5431
11.5967
11.6504
11.7038
11.7564
11.8078
11.8573
11.9045
11.9486
11.9886
12.0244
12.0548
12.0794
12.097
12.1099
1.6326
3.65711
11.2292
11.4753
11.0547
10.6398
10.5194
10.5348
10.578
10.6206
10.6445
10.6599
10.6758
10.6947
10.7162
10.7393
10.7638
10.7898
10.8173
10.8465
10.8774
10.9099
10.9441
10.9801
11.0177
11.0571
11.0981
11.1407
11.185
11.2308
11.2781
11.3268
11.3768
11.4278
11.4798
11.5326
11.5856
11.6389
11.6918
11.744
11.795
11.8442
11.8911
11.9349
11.9749
12.0105
12.041
12.0656
12.0832
12.0961
1.63236
3.65419
11.2219
11.473
11.0526
10.6372
10.5166
10.5319
10.575
10.6173
10.641
10.6563
10.672
10.6907
10.7119
10.7348
10.7591
10.7848
10.8121
10.841
10.8716
10.9038
10.9377
10.9732
11.0105
11.0494
11.0899
11.1321
11.1758
11.2211
11.2678
11.3159
11.3652
11.4156
11.467
11.519
11.5714
11.624
11.6763
11.7279
11.7784
11.8271
11.8736
11.9172
11.9569
11.9924
12.0228
12.0475
12.065
12.0782
1.63209
3.65061
11.213
11.4702
11.05
10.6341
10.5131
10.5283
10.5711
10.6132
10.6367
10.6517
10.6672
10.6857
10.7067
10.7293
10.7533
10.7788
10.8057
10.8343
10.8644
10.8962
10.9297
10.9648
11.0015
11.0399
11.0799
11.1214
11.1645
11.209
11.255
11.3023
11.3509
11.4005
11.451
11.5022
11.5537
11.6055
11.6569
11.7078
11.7576
11.8056
11.8516
11.8946
11.9341
11.9693
11.9996
12.0243
12.0418
12.0552
1.63177
3.64633
11.2025
11.4668
11.0469
10.6303
10.5089
10.524
10.5665
10.6083
10.6315
10.6463
10.6615
10.6797
10.7004
10.7227
10.7464
10.7714
10.798
10.8261
10.8559
10.8872
10.9201
10.9546
10.9907
11.0285
11.0677
11.1085
11.1508
11.1945
11.2396
11.286
11.3335
11.3821
11.4316
11.4817
11.5322
11.5828
11.6332
11.683
11.7318
11.779
11.8242
11.8666
11.9055
11.9404
11.9705
11.9951
12.0127
12.0264
1.63142
3.64123
11.1903
11.4627
11.0431
10.6258
10.5039
10.5188
10.561
10.6024
10.6253
10.6398
10.6547
10.6726
10.6929
10.7149
10.7381
10.7627
10.7889
10.8165
10.8457
10.8764
10.9087
10.9426
10.978
11.0149
11.0533
11.0932
11.1345
11.1772
11.2213
11.2665
11.3129
11.3602
11.4084
11.4572
11.5063
11.5555
11.6046
11.6531
11.7006
11.7466
11.7907
11.8322
11.8703
11.9047
11.9344
11.959
11.9765
11.9905
1.63106
3.63511
11.1764
11.4578
11.0386
10.6206
10.498
10.5127
10.5545
10.5955
10.6181
10.6322
10.6467
10.6642
10.6842
10.7057
10.7285
10.7526
10.7782
10.8052
10.8338
10.8639
10.8954
10.9285
10.963
10.999
11.0365
11.0753
11.1155
11.157
11.1998
11.2436
11.2886
11.3344
11.381
11.4282
11.4756
11.5232
11.5705
11.6173
11.6631
11.7075
11.7501
11.7903
11.8273
11.8608
11.8899
11.9142
11.9317
11.9462
1.63073
3.62786
11.161
11.452
11.0334
10.6146
10.4912
10.5057
10.547
10.5875
10.6096
10.6233
10.6375
10.6546
10.674
10.695
10.7173
10.7408
10.7658
10.7922
10.82
10.8493
10.88
10.9122
10.9457
10.9807
11.017
11.0546
11.0935
11.1336
11.1748
11.2171
11.2603
11.3044
11.3491
11.3943
11.4397
11.4851
11.5303
11.5749
11.6185
11.6608
11.7013
11.7396
11.775
11.8071
11.8352
11.8589
11.8762
11.891
1.63039
3.61954
11.1429
11.446
11.0276
10.6076
10.4834
10.4975
10.5383
10.5783
10.5999
10.6132
10.6268
10.6434
10.6623
10.6828
10.7044
10.7273
10.7516
10.7772
10.8043
10.8327
10.8624
10.8935
10.926
10.9597
10.9947
11.0309
11.0682
11.1067
11.1462
11.1866
11.2278
11.2697
11.3121
11.355
11.3979
11.4407
11.4832
11.525
11.5658
11.6052
11.6429
11.6785
11.7114
11.7413
11.7677
11.7903
11.807
11.8225
1.63001
3.61017
11.1225
11.4393
11.0211
10.5998
10.4744
10.4883
10.5283
10.5677
10.5888
10.6015
10.6147
10.6307
10.649
10.6688
10.6898
10.712
10.7355
10.7602
10.7863
10.8137
10.8424
10.8723
10.9035
10.9358
10.9693
11.0039
11.0395
11.0761
11.1135
11.1517
11.1906
11.23
11.2698
11.3098
11.3497
11.3893
11.4284
11.4667
11.5038
11.5394
11.5732
11.605
11.6342
11.6608
11.6843
11.7049
11.7203
11.736
1.6296
3.59971
11.0998
11.4321
11.0139
10.5911
10.4643
10.4778
10.517
10.5557
10.5762
10.5883
10.6009
10.6162
10.6339
10.653
10.6732
10.6946
10.7172
10.7411
10.7661
10.7924
10.8198
10.8484
10.8781
10.9089
10.9407
10.9734
11.007
11.0415
11.0766
11.1123
11.1485
11.185
11.2216
11.2582
11.2944
11.3302
11.3651
11.3989
11.4313
11.4619
11.4904
11.5167
11.5404
11.5616
11.5802
11.5968
11.6097
11.6257
1.62917
3.58807
11.0746
11.4242
11.0062
10.5815
10.453
10.4659
10.5041
10.542
10.5619
10.5734
10.5853
10.5999
10.6169
10.6352
10.6546
10.6751
10.6967
10.7195
10.7434
10.7684
10.7945
10.8216
10.8497
10.8787
10.9086
10.9393
10.9706
11.0026
11.0351
11.0679
11.101
11.1341
11.1671
11.1997
11.2316
11.2626
11.2924
11.3206
11.3469
11.3708
11.3921
11.4107
11.4262
11.439
11.4494
11.4587
11.4662
11.4808
1.62872
3.57531
11.0468
11.4158
10.9979
10.5709
10.4403
10.4525
10.4895
10.5266
10.5458
10.5566
10.5677
10.5817
10.5978
10.6152
10.6337
10.6533
10.6738
10.6955
10.7181
10.7417
10.7663
10.7918
10.8181
10.8451
10.8729
10.9012
10.9301
10.9593
10.9888
11.0184
11.0479
11.0771
11.1058
11.1338
11.1606
11.1859
11.2094
11.2306
11.2491
11.2644
11.276
11.2837
11.2867
11.286
11.2825
11.278
11.2744
11.2847
1.62809
3.5621
11.0163
11.4074
10.9894
10.5593
10.4261
10.4375
10.473
10.5091
10.5276
10.5377
10.548
10.5611
10.5764
10.5929
10.6104
10.6289
10.6483
10.6687
10.69
10.7121
10.735
10.7587
10.783
10.8079
10.8333
10.8591
10.8851
10.9113
10.9375
10.9634
10.9889
11.0137
11.0375
11.0601
11.0809
11.0995
11.1155
11.1281
11.1369
11.1408
11.1392
11.1322
11.1173
11.0953
11.0674
11.0364
11.0066
11.0023
1.62728
3.54863
10.9834
11.3988
10.9805
10.5468
10.4102
10.4207
10.4544
10.4895
10.5072
10.5166
10.5262
10.5384
10.5527
10.5683
10.5847
10.602
10.6202
10.6392
10.6589
10.6794
10.7005
10.7222
10.7444
10.7669
10.7898
10.8127
10.8357
10.8585
10.881
10.9028
10.9239
10.9437
10.9621
10.9784
10.9923
11.0031
11.0103
11.0122
11.0095
11
10.9806
10.9516
10.9108
10.8565
10.7871
10.7049
10.615
10.5587
1.62638
3.53504
10.9491
11.3898
10.9715
10.5329
10.392
10.4013
10.433
10.467
10.484
10.4927
10.5014
10.5127
10.5261
10.5406
10.556
10.5721
10.589
10.6065
10.6246
10.6433
10.6625
10.6821
10.7019
10.7219
10.742
10.7619
10.7815
10.8006
10.819
10.8364
10.8525
10.8668
10.879
10.8884
10.8947
10.8961
10.8934
10.8846
10.8662
10.838
10.7973
10.7411
10.6644
10.5612
10.4233
10.2419
10.009
9.7524
1.62524
3.5191
10.9081
11.3789
10.9606
10.5153
10.3681
10.3757
10.4045
10.4373
10.4537
10.4615
10.4692
10.4793
10.4914
10.5046
10.5186
10.5331
10.5482
10.5639
10.5799
10.5964
10.6131
10.6299
10.6468
10.6636
10.6801
10.6961
10.7114
10.7259
10.7391
10.7508
10.7605
10.7678
10.772
10.772
10.7691
10.7604
10.7425
10.7158
10.6783
10.6263
10.5558
10.4598
10.329
10.1466
9.88351
9.47807
8.77903
7.25506
1.62409
3.5024
10.8652
11.3638
10.9446
10.4888
10.3328
10.3384
10.3638
10.3959
10.4122
10.4196
10.4264
10.4354
10.4463
10.4582
10.4707
10.4835
10.4967
10.5102
10.5239
10.5376
10.5514
10.565
10.5783
10.5912
10.6034
10.6148
10.6251
10.6339
10.6409
10.6458
10.6477
10.6468
10.6427
10.6328
10.6159
10.5916
10.5579
10.5126
10.4522
10.3722
10.2659
10.124
9.93104
9.66323
9.27926
8.70975
7.86612
6.47807
1.62356
3.494
10.8444
11.3544
10.9313
10.4621
10.2948
10.2979
10.3194
10.3512
10.3677
10.3744
10.3801
10.3878
10.3974
10.4079
10.4187
10.4297
10.4408
10.452
10.4632
10.4743
10.485
10.4953
10.505
10.5139
10.5218
10.5284
10.5334
10.5364
10.5368
10.5354
10.5307
10.5206
10.5052
10.484
10.4551
10.4172
10.3678
10.3042
10.222
10.1163
9.97944
9.801
9.56592
9.25275
8.83236
8.2642
7.53088
6.55491
1.62316
3.48692
10.8273
11.3321
10.903
10.4171
10.2406
10.2436
10.2664
10.3015
10.3195
10.3262
10.3311
10.338
10.3466
10.3559
10.3653
10.3746
10.3837
10.3927
10.4014
10.4096
10.4173
10.4242
10.4302
10.4352
10.4387
10.4405
10.4403
10.4386
10.4338
10.4242
10.4109
10.3927
10.3686
10.3376
10.2979
10.2477
10.1846
10.1055
10.0064
9.88218
9.72632
9.52942
9.28061
8.96604
8.57089
8.0794
7.49796
6.76624
1.62517
3.52125
10.9038
11.3277
10.8733
10.3527
10.166
10.1715
10.2011
10.2429
10.2634
10.2701
10.2746
10.2809
10.2889
10.2973
10.3056
10.3134
10.3209
10.3279
10.3344
10.3402
10.3451
10.349
10.3518
10.3531
10.3527
10.3509
10.3465
10.3385
10.3273
10.3122
10.2925
10.2674
10.2358
10.1964
10.1476
10.0875
10.0142
9.92418
9.81428
9.68013
9.51637
9.31659
9.07352
8.77933
8.42669
8.00826
7.52562
6.97252
1.58415
3.64632
10.913
11.2278
10.789
10.2735
10.0979
10.1075
10.1447
10.1891
10.2099
10.2172
10.222
10.2282
10.2355
10.2428
10.2495
10.2555
10.2609
10.2656
10.2695
10.2725
10.2745
10.2751
10.2747
10.2728
10.2686
10.2615
10.252
10.2394
10.2232
10.2028
10.1775
10.1463
10.1084
10.0622
10.0065
9.93938
9.85893
9.76257
9.64744
9.51011
9.34671
9.15282
8.92401
8.6557
8.34452
7.98763
7.58723
7.13776
1.53845
4.78215
11.0968
10.879
10.2943
10.0291
10.0124
10.0382
10.0894
10.1207
10.1347
10.1423
10.1496
10.1574
10.1652
10.1723
10.1784
10.1837
10.188
10.1914
10.1937
10.1947
10.1945
10.1933
10.1904
10.1848
10.1774
10.1678
10.1554
10.1395
10.1196
10.095
10.0652
10.0293
9.98639
9.93532
9.87486
9.80343
9.71924
9.62024
9.50416
9.36836
9.21017
9.02659
8.81492
8.57261
8.29817
7.99139
7.65395
7.27804
1.54036
4.79264
11.0553
10.8079
10.2119
9.97163
9.97731
10.014
10.0666
10.0942
10.1048
10.1107
10.1165
10.1224
10.1276
10.1316
10.1345
10.1363
10.1372
10.137
10.1362
10.1338
10.1296
10.1241
10.1171
10.108
10.0966
10.0825
10.0654
10.0451
10.021
9.99265
9.95935
9.91999
9.87356
9.81912
9.7555
9.68149
9.59572
9.49651
9.38214
9.25067
9.10021
8.92876
8.73467
8.51645
8.27335
8.00489
7.7171
7.39968
1.55161
4.81267
11.1248
10.833
10.1588
9.8959
9.90646
9.95483
10.0159
10.0461
10.0569
10.0628
10.0689
10.0749
10.0798
10.0832
10.0852
10.0859
10.0856
10.084
10.0806
10.0752
10.0683
10.0599
10.0497
10.0373
10.0225
10.005
9.98454
9.9608
9.93316
9.90094
9.86348
9.82026
9.77076
9.71399
9.6491
9.57454
9.4891
9.39145
9.28044
9.15463
9.01276
8.85352
8.67584
8.47921
8.26368
8.02895
7.77906
7.50738
1.54278
4.79345
11.0559
10.7843
10.134
9.871
9.87896
9.92267
9.98231
10.0118
10.0217
10.0263
10.031
10.0355
10.0388
10.0404
10.0405
10.0399
10.0377
10.0333
10.0273
10.0199
10.0109
10.0002
9.98732
9.97221
9.95451
9.93409
9.91053
9.88361
9.85276
9.81752
9.77748
9.73199
9.68036
9.62171
9.55522
9.48014
9.39569
9.30079
9.19446
9.07563
8.9431
8.79602
8.63399
8.45688
8.26481
8.05764
7.8385
7.6026
1.51374
4.73882
10.8521
10.6595
10.1231
9.87606
9.8713
9.89909
9.95017
9.97759
9.98712
9.9909
9.9941
9.99694
9.9986
9.99863
9.99784
9.99546
9.99073
9.98456
9.97697
9.96785
9.95693
9.94402
9.92889
9.91145
9.89138
9.86855
9.84254
9.81315
9.77991
9.74244
9.70036
9.65305
9.60001
9.54057
9.47411
9.39991
9.31728
9.22537
9.12339
9.01059
8.88659
8.75086
8.60297
8.44253
8.26979
8.08639
7.893
7.68602
1.49808
4.69437
10.7724
10.6695
10.2093
9.91586
9.85767
9.87559
9.91594
9.9442
9.95475
9.95706
9.95783
9.95811
9.95779
9.95654
9.95363
9.94881
9.94258
9.93503
9.92593
9.91511
9.9024
9.88769
9.87075
9.85148
9.82957
9.80488
9.77704
9.74587
9.71095
9.67195
9.62854
9.58024
9.52658
9.46702
9.40109
9.32823
9.2479
9.15949
9.06241
8.95615
8.84033
8.7146
8.57885
8.43307
8.27758
8.11298
7.9405
7.75713
1.662
3.25309
10.3879
10.9782
10.5746
10.0516
9.85879
9.86236
9.88802
9.92487
9.9393
9.93947
9.93796
9.93465
9.93113
9.92726
9.92214
9.91553
9.90745
9.89787
9.88669
9.87377
9.8589
9.84202
9.82305
9.8017
9.77774
9.75099
9.72118
9.6881
9.65141
9.61085
9.566
9.51656
9.46211
9.40222
9.33659
9.26485
9.1866
9.10138
9.00882
8.90847
8.80007
8.68343
8.55844
8.4252
8.28402
8.13531
7.98023
7.81628
1.66993
3.12903
10.3226
11.1402
10.6993
10.089
9.83902
9.82502
9.84333
9.87836
9.89167
9.89074
9.88691
9.88018
9.87463
9.86979
9.86445
9.85784
9.8497
9.84
9.82867
9.81556
9.80052
9.7834
9.76402
9.74227
9.71786
9.69062
9.66027
9.62664
9.58943
9.54844
9.50341
9.45406
9.40012
9.34133
9.27734
9.20768
9.13207
9.0502
8.96169
8.8663
8.76405
8.655
8.53936
8.41703
8.28812
8.153
8.01259
7.86479
1.63798
3.01429
9.79993
10.9767
10.6257
10.0849
9.85922
9.83773
9.84917
9.8695
9.8733
9.8702
9.862
9.85095
9.84169
9.83358
9.82527
9.81599
9.80544
9.79355
9.78024
9.76537
9.74877
9.73026
9.70967
9.68683
9.66153
9.63353
9.60259
9.56848
9.53098
9.48992
9.44507
9.39615
9.34292
9.2851
9.22242
9.15461
9.08144
9.0027
8.91839
8.82845
8.73267
8.63092
8.52312
8.40916
8.28983
8.1659
8.03798
7.90394
1.42458
4.53265
10.2545
10.4685
10.1832
9.89485
9.78948
9.7874
9.79589
9.80745
9.80868
9.80598
9.79874
9.7887
9.78004
9.7723
9.76415
9.75488
9.74429
9.73235
9.71899
9.70406
9.6874
9.66882
9.64818
9.62531
9.60004
9.57215
9.54141
9.50765
9.47076
9.43047
9.38653
9.33873
9.28687
9.23073
9.17009
9.10478
9.03462
8.9595
8.87933
8.79404
8.70354
8.60786
8.5071
8.40186
8.29216
8.17786
8.05987
7.9368
1.63004
2.96651
9.62188
10.8645
10.5587
10.0571
9.83508
9.79979
9.8054
9.81337
9.81134
9.80378
9.78894
9.77467
9.76241
9.75112
9.73957
9.72709
9.7133
9.69831
9.68216
9.6647
9.64571
9.62499
9.6024
9.57774
9.55087
9.5217
9.49012
9.45593
9.4188
9.37853
9.3349
9.28776
9.23693
9.18225
9.12349
9.06048
8.99309
8.92123
8.84483
8.76383
8.67825
8.5882
8.4938
8.39533
8.29296
8.18681
8.07764
7.96419
1.639
2.90024
9.62806
10.9954
10.6199
10.0241
9.76327
9.72887
9.73935
9.75652
9.756
9.75011
9.73612
9.71982
9.70673
9.69555
9.68434
9.67226
9.65918
9.64486
9.62914
9.6119
9.59307
9.57252
9.55014
9.52581
9.49937
9.47065
9.43952
9.40577
9.36924
9.32974
9.28714
9.24125
9.19186
9.13879
9.08195
9.02125
8.95659
8.88789
8.81512
8.73827
8.6574
8.57252
8.48378
8.39128
8.29523
8.19623
8.09453
7.98896
1.63738
2.88161
9.57477
10.9734
10.5944
9.98448
9.71436
9.67788
9.68913
9.70845
9.70834
9.70294
9.6893
9.67214
9.65841
9.64694
9.63556
9.62324
9.6097
9.59489
9.57873
9.56115
9.54206
9.52137
9.49894
9.47465
9.44837
9.41993
9.38921
9.35604
9.32029
9.28177
9.24034
9.19584
9.14812
9.09704
9.04246
8.98432
8.92255
8.85711
8.78798
8.71514
8.63862
8.55849
8.47489
8.38796
8.2979
8.205
8.10974
8.01101
1.62325
2.89345
9.41378
10.8243
10.5242
9.9741
9.7153
9.66465
9.66897
9.6773
9.67512
9.66694
9.65036
9.63403
9.62003
9.60732
9.59455
9.58098
9.56636
9.5506
9.53364
9.51538
9.49574
9.4746
9.45185
9.42738
9.40104
9.37274
9.34232
9.30966
9.2746
9.23699
9.19667
9.15351
9.1074
9.05823
9.00594
8.9504
8.89152
8.82925
8.76356
8.6945
8.62208
8.54638
8.46751
8.38565
8.30101
8.21377
8.12428
8.0315
1.38439
4.46935
9.97026
10.2663
9.99007
9.7041
9.59689
9.5877
9.59289
9.59893
9.59773
9.59238
9.58101
9.56851
9.55715
9.54632
9.53503
9.52268
9.50909
9.49419
9.47796
9.46036
9.44133
9.42079
9.39867
9.37485
9.34926
9.32178
9.2923
9.26069
9.22686
9.19068
9.15202
9.11076
9.06678
9.01998
8.97025
8.91752
8.86169
8.8027
8.74057
8.67534
8.60706
8.53574
8.46146
8.38431
8.3045
8.2222
8.13774
8.05028
1.62884
2.91855
9.50774
10.8112
10.474
9.88221
9.60554
9.56038
9.57012
9.58981
9.59142
9.58681
9.57452
9.55718
9.54225
9.52913
9.51593
9.50168
9.48614
9.46921
9.45096
9.43141
9.41054
9.38831
9.36466
9.33957
9.31298
9.28473
9.25469
9.22276
9.18885
9.15284
9.11469
9.0743
9.03159
8.98641
8.93865
8.88821
8.83502
8.77902
8.72016
8.65838
8.59373
8.52626
8.45597
8.38301
8.30759
8.22992
8.15028
8.06775
1.6388
3.05553
9.79698
10.7418
10.3647
9.75013
9.48378
9.46141
9.47853
9.51124
9.52071
9.51804
9.50964
9.49511
9.48232
9.47118
9.45984
9.44725
9.43316
9.41768
9.40097
9.38296
9.36348
9.34248
9.31992
9.29576
9.26989
9.24235
9.21312
9.18213
9.14932
9.11465
9.07801
9.03926
8.99831
8.95505
8.90938
8.86123
8.81053
8.75723
8.70127
8.64267
8.58143
8.51761
8.45124
8.38236
8.31128
8.23793
8.16254
8.08434
1.39677
4.53595
10.0493
10.1173
9.81559
9.50982
9.41091
9.4161
9.43511
9.45467
9.46009
9.45846
9.45314
9.44328
9.43347
9.42398
9.41374
9.4021
9.38891
9.3742
9.35803
9.34037
9.32117
9.30041
9.27807
9.25416
9.22866
9.20159
9.17291
9.14259
9.11054
9.07672
9.04109
9.00359
8.96411
8.92258
8.8789
8.83299
8.78478
8.73421
8.68124
8.62584
8.56797
8.50766
8.44504
8.3802
8.313
8.2437
8.17253
8.09867
1.38085
4.54732
9.94842
9.97912
9.74182
9.5132
9.43191
9.42818
9.43381
9.44263
9.44426
9.44221
9.43625
9.42615
9.41561
9.40498
9.39348
9.38066
9.36638
9.35066
9.33352
9.31495
9.29494
9.27349
9.25059
9.22625
9.20044
9.17316
9.14439
9.11412
9.08233
9.04896
9.01392
8.97713
8.93854
8.89806
8.85562
8.81115
8.76458
8.71579
8.66486
8.61183
8.5567
8.49937
8.43985
8.3782
8.3144
8.24855
8.18079
8.11043
1.4136
4.55686
10.1561
10.1344
9.76141
9.42398
9.32801
9.33972
9.37088
9.39583
9.40299
9.40163
9.39697
9.38813
9.37895
9.3697
9.35954
9.34791
9.33464
9.31976
9.3033
9.28526
9.26564
9.24441
9.22161
9.1973
9.1715
9.14421
9.11548
9.08529
9.05363
9.02048
8.98582
8.9496
8.91172
8.87218
8.83095
8.78797
8.74321
8.69666
8.64817
8.59763
8.54501
8.49038
8.43375
8.37511
8.31444
8.25198
8.18765
8.12066
1.5292
3.33011
9.81845
10.6681
10.2855
9.63977
9.35069
9.32184
9.33905
9.37439
9.38871
9.38772
9.3831
9.37334
9.36279
9.35287
9.3425
9.33082
9.31753
9.30257
9.28603
9.26795
9.2483
9.22711
9.20437
9.18008
9.15424
9.12677
9.09794
9.06764
9.03584
9.00259
8.96785
8.93163
8.89391
8.85469
8.81392
8.77155
8.72756
8.68189
8.63453
8.58539
8.53448
8.48182
8.4273
8.37094
8.31296
8.25315
8.19181
8.12827
1.38591
4.52112
9.99922
10.0491
9.7495
9.42389
9.29961
9.29595
9.30675
9.32724
9.33549
9.33467
9.33093
9.32297
9.31404
9.30544
9.29638
9.28604
9.2741
9.26053
9.24538
9.22864
9.21032
9.19039
9.16887
9.14575
9.12107
9.09484
9.06709
9.0378
9.00704
8.97484
8.94125
8.90626
8.8699
8.83207
8.79271
8.75179
8.70929
8.66519
8.61945
8.57206
8.52301
8.47226
8.41991
8.36599
8.31046
8.25338
8.19487
8.13446
1.38279
4.51924
9.98053
10.0333
9.72965
9.4001
9.27634
9.27379
9.28517
9.30678
9.31584
9.31494
9.31104
9.30285
9.29372
9.28492
9.2757
9.2652
9.25312
9.23944
9.22422
9.20743
9.18909
9.16917
9.14769
9.12468
9.10017
9.07418
9.04675
9.01793
8.98772
8.95607
8.92301
8.88852
8.85261
8.81529
8.77659
8.73648
8.69495
8.65195
8.60745
8.56144
8.5139
8.46485
8.41429
8.36223
8.30867
8.25367
8.19727
8.13896
1.52725
3.31778
9.7768
10.6443
10.2614
9.58747
9.27658
9.23673
9.25221
9.28514
9.29994
9.29906
9.29466
9.28525
9.27484
9.26555
9.25636
9.24617
9.23454
9.22135
9.20672
9.19061
9.17299
9.15383
9.133
9.11071
9.08683
9.06141
9.03448
9.00608
8.97622
8.94493
8.9122
8.87806
8.84253
8.80564
8.76739
8.72776
8.68672
8.64429
8.60046
8.55521
8.50854
8.46047
8.411
8.36015
8.30795
8.25445
8.19975
8.14341
1.40258
4.53981
10.0682
10.0404
9.65582
9.29936
9.18405
9.19144
9.21741
9.24502
9.25404
9.25289
9.24876
9.2407
9.23269
9.22503
9.21698
9.2077
9.19696
9.18474
9.17107
9.15596
9.13937
9.12125
9.10159
9.08042
9.05774
9.03356
9.0079
8.98079
8.95224
8.92228
8.89092
8.85816
8.82403
8.78856
8.75172
8.71351
8.67391
8.63292
8.59054
8.54678
8.50163
8.45506
8.40709
8.35776
8.30712
8.25516
8.20196
8.1472
1.3925
4.55131
9.97045
9.92975
9.60194
9.3208
9.23165
9.23311
9.24251
9.25236
9.25279
9.25021
9.24368
9.23421
9.22513
9.21602
9.20691
9.19641
9.18471
9.17187
9.15769
9.14225
9.12544
9.10724
9.0876
9.06654
9.04407
9.0202
8.99495
8.96833
8.94036
8.91105
8.88041
8.84847
8.81517
8.7805
8.74445
8.70702
8.66819
8.62793
8.58626
8.54321
8.49879
8.45304
8.40598
8.35766
8.30798
8.25698
8.2048
8.1509
1.38755
4.54601
9.92825
9.89503
9.58776
9.31924
9.22824
9.22388
9.22854
9.23403
9.23325
9.23
9.22274
9.21324
9.20404
9.19454
9.18556
9.17503
9.16353
9.15098
9.13716
9.12221
9.1057
9.08828
9.0692
9.04886
9.02719
9.00418
8.97983
8.95416
8.92717
8.89886
8.86921
8.83823
8.8059
8.7722
8.73713
8.70068
8.66284
8.62362
8.58299
8.54095
8.4975
8.45264
8.40641
8.35889
8.31012
8.26009
8.20877
8.15567
1.37611
4.50385
9.8776
9.96631
9.66424
9.33455
9.21109
9.20485
9.21249
9.22293
9.22388
9.22095
9.21364
9.20252
9.19183
9.1824
9.17243
9.1616
9.14973
9.1367
9.12253
9.10707
9.09072
9.07292
9.05393
9.03372
9.0123
8.98965
8.96578
8.94067
8.91431
8.88669
8.85779
8.8276
8.79611
8.76329
8.72912
8.69356
8.65658
8.61817
8.57833
8.53708
8.49444
8.45045
8.4051
8.35837
8.31032
8.26102
8.21054
8.15854
1.62434
2.94455
9.44736
10.5653
10.226
9.59511
9.27681
9.20269
9.20863
9.22365
9.22853
9.22555
9.21648
9.20104
9.18736
9.17602
9.16531
9.15398
9.14155
9.12799
9.11334
9.09764
9.08088
9.06303
9.04411
9.02408
9.00293
8.98065
8.95722
8.93264
8.90689
8.87995
8.85178
8.82236
8.79165
8.75959
8.72614
8.69127
8.65498
8.61723
8.57803
8.53738
8.49529
8.45179
8.40692
8.36069
8.31319
8.26453
8.21486
8.16398
1.63244
2.81884
9.37985
10.7742
10.3733
9.62411
9.24625
9.16115
9.17039
9.19385
9.20699
9.20549
9.19869
9.18412
9.1695
9.15776
9.14714
9.13592
9.12345
9.10974
9.09494
9.07911
9.06226
9.04439
9.02549
9.00557
8.98463
8.96266
8.93967
8.91563
8.89052
8.86431
8.83696
8.80843
8.77865
8.74759
8.71518
8.68138
8.64616
8.60947
8.57131
8.53164
8.49051
8.44792
8.40392
8.35855
8.31187
8.26397
8.215
8.16479
1.62304
2.92696
9.39856
10.5564
10.2198
9.58298
9.25742
9.18214
9.18874
9.2059
9.21366
9.21115
9.20264
9.18597
9.17094
9.15849
9.14685
9.13459
9.12119
9.10673
9.09124
9.07478
9.05738
9.03904
9.01976
8.99954
8.97841
8.95634
8.93336
8.90943
8.88452
8.8586
8.83162
8.80351
8.77422
8.74368
8.71183
8.67862
8.644
8.60793
8.57038
8.53133
8.4908
8.4488
8.40535
8.36048
8.31426
8.26673
8.21801
8.16778
1.35558
4.48764
9.79904
9.94623
9.64935
9.30608
9.17317
9.16608
9.17507
9.18911
9.19177
9.1894
9.18248
9.17022
9.15839
9.14737
9.13598
9.12349
9.1098
9.09517
9.07942
9.06265
9.04496
9.02638
9.00691
8.98659
8.96545
8.94349
8.9207
8.89706
8.87254
8.84711
8.8207
8.79325
8.76469
8.73494
8.70392
8.67157
8.63781
8.60259
8.56588
8.52766
8.48792
8.44668
8.40395
8.35977
8.31418
8.26721
8.2189
8.16882
1.36032
4.5236
9.82586
9.82643
9.5515
9.27294
9.18026
9.18188
9.19168
9.20076
9.20066
9.19732
9.18872
9.17719
9.1655
9.15388
9.14158
9.12826
9.11382
9.09818
9.082
9.06452
9.04618
9.02705
9.00709
8.98636
8.96487
8.94263
8.91963
8.89584
8.87124
8.84577
8.81938
8.79201
8.76356
8.73395
8.70309
8.6709
8.63731
8.60229
8.56579
8.52778
8.48827
8.44726
8.40476
8.36081
8.31544
8.26873
8.22076
8.1713
1.38916
4.54172
9.96297
9.91054
9.53723
9.21971
9.13222
9.14304
9.17176
9.19205
9.19455
9.19175
9.18418
9.17264
9.16144
9.15042
9.13853
9.12537
9.11093
9.0953
9.0788
9.06122
9.04274
9.02344
9.00335
8.98251
8.96094
8.93866
8.91567
8.89194
8.86745
8.84213
8.81592
8.78875
8.76054
8.73119
8.70062
8.66874
8.63548
8.60077
8.56457
8.52686
8.48761
8.44685
8.40459
8.36087
8.31575
8.26931
8.22165
8.17265
3.03718
2.44096
2.9717
4.17287
4.11652
4.09896
4.03878
4.00289
3.99114
3.99592
4.02623
4.07052
4.10759
4.13892
4.17422
4.2187
4.27221
4.3321
4.39542
4.45985
4.52366
4.58564
4.64502
4.70303
4.75495
4.80094
4.84109
4.87582
4.90505
4.929
4.94767
4.96119
4.96978
4.97381
4.9736
4.97121
4.96436
4.95077
4.93409
4.91511
4.89386
4.87042
4.84494
4.81768
4.78887
4.75877
4.72763
4.69566
4.66305
4.63004
4.59678
4.56349
4.53035
4.49755
4.46529
4.43377
4.40318
4.37374
4.34564
4.3191
4.29431
4.2715
4.25084
4.23252
4.21671
4.20352
4.19302
4.18519
4.1799
4.17737
4.17739
4.17799
4.18007
4.18513
4.1954
4.20743
4.21953
4.23152
4.24323
4.25438
4.26459
4.27355
4.28104
4.28692
4.29118
4.29386
4.29508
4.29507
4.29478
4.29375
4.2913
4.28643
4.28099
4.27543
4.26974
4.26415
4.2586
4.25326
4.24805
4.24412
4.08893
3.53524
3.73703
4.22369
4.14754
4.08391
4.02541
3.98706
3.97848
3.99245
4.03605
4.08669
4.11768
4.14061
4.17124
4.21394
4.26699
4.32674
4.38989
4.45417
4.51783
4.57985
4.63955
4.6971
4.74885
4.79467
4.83478
4.86947
4.89876
4.92278
4.94156
4.95525
4.96396
4.96802
4.96786
4.96611
4.96062
4.94843
4.93033
4.91085
4.8899
4.86687
4.84171
4.81462
4.78593
4.75592
4.72484
4.69293
4.66036
4.62738
4.59416
4.5609
4.52778
4.49502
4.46279
4.43131
4.40076
4.37135
4.34329
4.31678
4.29203
4.26923
4.24859
4.23028
4.2145
4.20132
4.19086
4.18309
4.17815
4.17598
4.1761
4.17684
4.17899
4.18396
4.19408
4.20637
4.21887
4.23119
4.24316
4.25451
4.26492
4.27406
4.2817
4.28766
4.29203
4.29476
4.29588
4.29587
4.29555
4.29454
4.29216
4.28736
4.28174
4.27618
4.27049
4.26479
4.25919
4.2539
4.24886
4.24625
5.22029
4.4527
4.22018
4.2545
4.23698
4.18617
4.10516
4.05431
4.03669
4.0397
4.05346
4.08475
4.12039
4.15174
4.18632
4.22875
4.2794
4.33656
4.39743
4.45968
4.52157
4.58194
4.63989
4.69506
4.74561
4.79072
4.83023
4.86429
4.89302
4.91657
4.93499
4.94839
4.95684
4.96054
4.96031
4.95881
4.95429
4.94402
4.92556
4.90544
4.88418
4.86122
4.83624
4.80934
4.78078
4.75085
4.71984
4.68797
4.65545
4.62251
4.58932
4.55611
4.52304
4.49033
4.45817
4.42676
4.39629
4.36697
4.33899
4.31255
4.28787
4.26514
4.24455
4.22627
4.21064
4.19742
4.1871
4.17952
4.17502
4.17347
4.17365
4.17449
4.17679
4.18186
4.19202
4.20431
4.21723
4.23012
4.24262
4.25443
4.26524
4.27475
4.28271
4.28898
4.2935
4.29635
4.29747
4.29743
4.29708
4.29614
4.29384
4.2893
4.28388
4.27815
4.27222
4.26636
4.26059
4.2552
4.2499
4.24868
5.82713
5.08908
4.65032
4.45319
4.41711
4.35535
4.26522
4.18609
4.13509
4.1155
4.11805
4.12965
4.15673
4.19476
4.22931
4.26529
4.30726
4.35618
4.41046
4.46771
4.52573
4.58306
4.63861
4.69106
4.73975
4.78372
4.82231
4.85554
4.88347
4.90637
4.92429
4.9373
4.94546
4.94876
4.9485
4.94714
4.94329
4.93464
4.91726
4.89677
4.87494
4.85174
4.82688
4.80026
4.77202
4.74238
4.71162
4.67997
4.64765
4.61489
4.58189
4.54884
4.51595
4.48341
4.45143
4.4202
4.38991
4.36078
4.33298
4.30673
4.28221
4.25964
4.23919
4.22106
4.20546
4.19247
4.18232
4.17506
4.17091
4.17002
4.17026
4.17126
4.17381
4.17928
4.1893
4.20153
4.21479
4.22829
4.24148
4.25397
4.26538
4.27544
4.2839
4.2906
4.29548
4.29856
4.29983
4.29977
4.29942
4.29843
4.29625
4.29191
4.28659
4.28076
4.27473
4.2686
4.26259
4.25711
4.25176
4.25088
6.23392
5.5957
5.11571
4.82455
4.67634
4.56627
4.45706
4.35665
4.27962
4.23229
4.21275
4.21386
4.22064
4.23793
4.27092
4.3045
4.34162
4.38381
4.43089
4.48158
4.53426
4.5873
4.63924
4.68881
4.73505
4.77713
4.81436
4.84656
4.87347
4.89555
4.91282
4.92525
4.93299
4.93579
4.93548
4.93414
4.93057
4.92277
4.90703
4.88687
4.86471
4.84114
4.81613
4.78961
4.7616
4.73225
4.70177
4.67038
4.63831
4.60578
4.573
4.54018
4.50753
4.47524
4.44352
4.41256
4.38257
4.35372
4.32621
4.30025
4.27601
4.25369
4.23349
4.21559
4.20019
4.18743
4.1776
4.17064
4.16661
4.16644
4.16679
4.16799
4.17088
4.17692
4.18673
4.19875
4.21211
4.22606
4.23991
4.2531
4.26521
4.27592
4.28498
4.29223
4.2976
4.30115
4.30256
4.30251
4.30218
4.30127
4.29927
4.29522
4.29008
4.28428
4.27807
4.27173
4.26547
4.25991
4.25437
4.25381
6.54362
6.00654
5.54789
5.20038
4.96643
4.80117
4.66576
4.5478
4.45035
4.37833
4.33285
4.31085
4.31033
4.31371
4.32483
4.34879
4.38162
4.41814
4.45755
4.50017
4.54559
4.59258
4.63957
4.68523
4.72843
4.76823
4.80386
4.83484
4.86094
4.88219
4.89882
4.91061
4.91792
4.92023
4.91988
4.91851
4.91508
4.90772
4.89305
4.87384
4.85189
4.82811
4.80288
4.77631
4.74847
4.71943
4.68933
4.65833
4.62664
4.59448
4.56207
4.52962
4.49734
4.46544
4.43413
4.40359
4.37402
4.34561
4.31853
4.293
4.26918
4.24727
4.22746
4.20992
4.19487
4.1825
4.17298
4.16643
4.16278
4.16284
4.16334
4.1648
4.16811
4.17483
4.18445
4.19618
4.20945
4.22358
4.23786
4.25164
4.26441
4.27578
4.28548
4.29335
4.2993
4.30346
4.30515
4.30515
4.30491
4.30414
4.30237
4.29874
4.29372
4.28799
4.28166
4.2752
4.26868
4.26283
4.25724
4.25733
6.78945
6.3363
5.91636
5.5546
5.27184
5.05897
4.89173
4.75267
4.63615
4.54269
4.47368
4.42858
4.40495
4.3984
4.40001
4.40676
4.42268
4.45147
4.48365
4.51955
4.55833
4.59896
4.64033
4.68137
4.72101
4.75817
4.79193
4.82161
4.84679
4.86732
4.88319
4.89455
4.90142
4.9032
4.90281
4.9014
4.89797
4.89073
4.87684
4.85862
4.83726
4.81362
4.78832
4.76174
4.73404
4.7053
4.6756
4.64506
4.61385
4.58216
4.55023
4.51826
4.48648
4.45509
4.4243
4.39429
4.36527
4.33741
4.31089
4.2859
4.26263
4.24126
4.22198
4.20499
4.19042
4.17846
4.16931
4.1631
4.16
4.16011
4.16073
4.16242
4.16605
4.17333
4.1829
4.1944
4.20746
4.22151
4.23592
4.25002
4.26323
4.27514
4.28542
4.2939
4.30052
4.3052
4.30743
4.30771
4.30753