/*--------------------------------*- C++ -*----------------------------------*\
| =========                 |                                                 |
| \\      /  F ield         | OpenFOAM: The Open Source CFD Toolbox           |
|  \\    /   O peration     | Version:  2412                                  |
|   \\  /    A nd           | Website:  www.openfoam.com                      |
|    \\/     M anipulation  |                                                 |
\*---------------------------------------------------------------------------*/
FoamFile
{
    version     2.0;
    format      ascii;
    arch        "LSB;label=32;scalar=64";
    class       surfaceScalarField;
    location    "12.5";
    object      phi;
}
// * * * * * * * * * * * * * * * * * * * * * * * * * * * * * * * * * * * * * //

dimensions      [1 0 -1 0 0 0 0];

oriented        oriented;

internalField   nonuniform List<scalar> 
13790
(
0.00292486
-2.10432e-07
0.00274253
9.07617e-07
0.0028003
2.80923e-06
0.00280007
5.17614e-06
0.00279382
6.14487e-06
0.00278625
6.86522e-06
0.00277781
7.68438e-06
0.0027684
8.65523e-06
0.00275789
9.75368e-06
0.00274615
1.09971e-05
0.00273313
1.23086e-05
0.00271877
1.36542e-05
0.00270301
1.50416e-05
0.00268572
1.64933e-05
0.00266687
1.80251e-05
0.00264649
1.96488e-05
0.00262443
2.13702e-05
0.00260065
2.31943e-05
0.00257488
2.51289e-05
0.00254706
2.71744e-05
0.00251723
2.9344e-05
0.00248523
3.16413e-05
0.00245094
3.40773e-05
0.0024138
3.66558e-05
0.00237369
3.93757e-05
0.00233065
4.22539e-05
0.00228481
4.52936e-05
0.00223607
4.85233e-05
0.00218396
5.1941e-05
0.0021283
5.55603e-05
0.00206854
5.93962e-05
0.00200446
6.34394e-05
0.00193592
6.77174e-05
0.00186274
7.2213e-05
0.001785
7.69504e-05
0.0017021
8.19241e-05
0.00161412
8.70864e-05
0.00152116
9.24725e-05
0.00142272
9.80182e-05
0.00131867
0.000103668
0.00120877
0.000109353
0.00109341
0.000114952
0.000972847
0.000120454
0.000846834
0.000125675
0.000716076
0.000130449
0.000581255
0.00013485
0.00044248
0.000138806
0.000300166
0.000142218
0.000153145
0.000146928
0.000152399
0.0030333
1.21671e-08
0.00284411
7.58743e-07
0.00290254
7.81079e-06
0.00290226
1.05076e-05
0.00289614
1.21435e-05
0.00288852
1.37742e-05
0.00287982
1.56084e-05
0.00287007
1.76553e-05
0.00285914
1.99223e-05
0.00284692
2.24277e-05
0.0028334
2.50718e-05
0.00281847
2.77999e-05
0.00280211
3.06229e-05
0.00278422
3.35798e-05
0.00276475
3.66995e-05
0.00274371
4.00058e-05
0.00272081
4.35084e-05
0.00269606
4.72161e-05
0.00266933
5.11478e-05
0.00264061
5.53088e-05
0.00260987
5.97257e-05
0.00257677
6.44004e-05
0.00254112
6.93481e-05
0.00250249
7.45779e-05
0.00246099
8.00966e-05
0.00241667
8.59487e-05
0.00236952
9.21447e-05
0.00231922
9.8734e-05
0.00226517
0.000105707
0.00220727
0.000113088
0.00214507
0.000120906
0.00207849
0.000129148
0.00200743
0.000137877
0.00193165
0.000147062
0.00185114
0.000156747
0.00176524
0.000166916
0.00167401
0.000177476
0.00157754
0.000188493
0.00147531
0.000199831
0.00136721
0.000211384
0.00125297
0.000223014
0.00113302
0.000234479
0.00100761
0.000245756
0.000876456
0.000256484
0.000740268
0.000266321
0.000599764
0.000275388
0.000455084
0.000283517
0.000306677
0.000290526
0.000154787
0.000298721
0.000306406
0.00314605
8.44102e-08
0.00294954
1.08067e-06
0.00301037
1.26827e-05
0.00300997
1.60992e-05
0.00300373
1.8292e-05
0.00299598
2.08197e-05
0.00298703
2.37585e-05
0.00297692
2.69686e-05
0.00296554
3.04596e-05
0.00295286
3.42689e-05
0.00293888
3.828e-05
0.00292348
4.24324e-05
0.00290659
4.67417e-05
0.00288808
5.12589e-05
0.00286787
5.60225e-05
0.00284601
6.10667e-05
0.00282233
6.64106e-05
0.00279683
7.2073e-05
0.00276923
7.80779e-05
0.00273943
8.44303e-05
0.00270743
9.11677e-05
0.0026731
9.82986e-05
0.00263634
0.000105856
0.00259657
0.000113856
0.00255366
0.000122294
0.00250759
0.000131229
0.00245847
0.000140676
0.0024062
0.000150717
0.00235029
0.000161355
0.00229058
0.00017263
0.00222648
0.000184594
0.00215775
0.000197205
0.00208424
0.000210558
0.00200572
0.000224606
0.00192224
0.000239418
0.00183315
0.000254973
0.00173855
0.000271134
0.00163851
0.00028801
0.00153251
0.0003054
0.00142034
0.000323137
0.00130175
0.000341011
0.00117714
0.000358662
0.00104673
0.000376052
0.000910228
0.000392628
0.000768355
0.000407864
0.000621875
0.000421896
0.000471006
0.000434415
0.000316415
0.000445018
0.000158988
0.000456047
0.000464583
0.00326302
1.0428e-07
0.00305922
1.4915e-06
0.00312261
1.74029e-05
0.0031222
2.18629e-05
0.00311576
2.46464e-05
0.00310781
2.80475e-05
0.00309862
3.21308e-05
0.0030882
3.65692e-05
0.00307646
4.13465e-05
0.00306335
4.6506e-05
0.00304888
5.19208e-05
0.00303293
5.7537e-05
0.00301547
6.33803e-05
0.00299635
6.95117e-05
0.00297552
7.59766e-05
0.002953
8.28212e-05
0.00292852
9.007e-05
0.0029021
9.77463e-05
0.00287353
0.000105889
0.00284276
0.000114503
0.0028098
0.000123644
0.00277438
0.00013332
0.00273636
0.00014357
0.00269519
0.000154416
0.00265082
0.000165858
0.00260328
0.000177981
0.00255265
0.000190807
0.00249875
0.000204443
0.00244098
0.000218885
0.0023792
0.00023419
0.00231284
0.000250421
0.00224172
0.000267542
0.0021657
0.000285679
0.00208451
0.000304776
0.00199816
0.000324923
0.00190597
0.000346089
0.00180802
0.000368097
0.0017044
0.000391099
0.00159453
0.000414824
0.00147819
0.000439048
0.00135509
0.000463492
0.00122563
0.000487674
0.00109003
0.000511542
0.000947951
0.000534342
0.00080012
0.000555358
0.000647386
0.000574676
0.000489971
0.000591871
0.00032872
0.000606167
0.000164957
0.00061971
0.000628705
0.00338429
1.25321e-07
0.00317299
1.91943e-06
0.00323893
2.20919e-05
0.00323857
2.77089e-05
0.00323198
3.11897e-05
0.00322387
3.54755e-05
0.00321443
4.07307e-05
0.0032037
4.64349e-05
0.00319156
5.25577e-05
0.00317801
5.91114e-05
0.00316308
6.59691e-05
0.00314666
7.30926e-05
0.00312871
8.05181e-05
0.00310904
8.83171e-05
0.00308754
9.65387e-05
0.00306425
0.000105238
0.00303898
0.000114451
0.00301179
0.000124206
0.00298239
0.000134555
0.00295065
0.000145505
0.00291656
0.00015712
0.00287996
0.000169415
0.00284079
0.000182443
0.00279846
0.000196238
0.0027528
0.000210794
0.00270376
0.000226211
0.00265142
0.000242509
0.00259572
0.000259836
0.00253614
0.000278196
0.00247251
0.000297668
0.00240414
0.000318329
0.00233081
0.000340129
0.00225237
0.000363233
0.00216856
0.000387565
0.00207939
0.000413248
0.00198413
0.000440253
0.00188286
0.000468358
0.00177565
0.000497763
0.00166186
0.000528139
0.00154126
0.0005592
0.00141349
0.000590605
0.00127896
0.000621728
0.00113787
0.000652524
0.000989862
0.000681993
0.000835691
0.00070921
0.000676149
0.000734263
0.000511776
0.00075628
0.000343312
0.000774543
0.000172176
0.000790753
0.000800004
0.00351008
1.45256e-07
0.003291
2.3482e-06
0.00335959
2.674e-05
0.00335934
3.36276e-05
0.00335265
3.79031e-05
0.00334433
4.31044e-05
0.00333464
4.95472e-05
0.00332361
5.65459e-05
0.00331113
6.40642e-05
0.0032972
7.20595e-05
0.00328183
8.04024e-05
0.00326491
8.90758e-05
0.00324641
9.81305e-05
0.00322617
0.000107648
0.00320408
0.000117681
0.00318018
0.000128293
0.0031542
0.000139528
0.00312617
0.000151421
0.00309585
0.000164037
0.00306316
0.000177385
0.00302812
0.000191547
0.0029905
0.000206541
0.00295021
0.000222431
0.00290664
0.000239252
0.00285965
0.000257005
0.0028092
0.000275811
0.00275534
0.000295695
0.00269804
0.000316835
0.00263676
0.000339243
0.00257129
0.000363009
0.00250094
0.000388235
0.00242544
0.000414865
0.00234461
0.00044311
0.00225818
0.000472882
0.00216616
0.000504327
0.00206781
0.000537421
0.00196318
0.000571889
0.00185236
0.000607992
0.00173465
0.000645346
0.00160974
0.000683615
0.00147727
0.000722385
0.00133755
0.000760948
0.00119081
0.00079918
0.00103652
0.00083594
0.000875472
0.000869893
0.000708687
0.000901085
0.000536384
0.000928643
0.00035988
0.000950949
0.000180603
0.000969935
0.000979689
0.00364054
1.65072e-07
0.00341339
2.76812e-06
0.00348475
3.13455e-05
0.00348463
3.96085e-05
0.00347788
4.478e-05
0.00346941
5.09157e-05
0.00345947
5.85569e-05
0.00344814
6.68759e-05
0.00343533
7.58275e-05
0.00342102
8.53086e-05
0.00340523
9.51826e-05
0.00338786
0.000105452
0.0033689
0.000116185
0.00334817
0.000127473
0.00332551
0.000139371
0.00330094
0.000151948
0.00327424
0.000165258
0.00324545
0.000179347
0.00321432
0.000194292
0.00318074
0.000210105
0.00314474
0.000226877
0.00310609
0.000244636
0.00306471
0.000263456
0.00302
0.000283393
0.00297179
0.00030444
0.00292003
0.000326731
0.0028648
0.000350292
0.00280599
0.00037534
0.00274303
0.000401906
0.00267574
0.000430104
0.0026034
0.000460047
0.00252578
0.000491652
0.00244276
0.00052519
0.002354
0.000560604
0.00225943
0.000598055
0.00215817
0.000637533
0.00205024
0.000678679
0.00193578
0.000721825
0.00181406
0.000766548
0.00168475
0.000812448
0.00154737
0.000859076
0.00140228
0.00090554
0.00124955
0.00095183
0.00108863
0.000996448
0.000920246
0.00103786
0.000745404
0.00107597
0.000564733
0.00110935
0.000379064
0.00113652
0.000190173
0.00115873
0.001169
0.00377585
1.79326e-07
0.00354032
3.19414e-06
0.00361454
3.58885e-05
0.00361464
4.56769e-05
0.00360789
5.18027e-05
0.00359923
5.88717e-05
0.00358905
6.77193e-05
0.00357746
7.73769e-05
0.00356435
8.77962e-05
0.00354972
9.88115e-05
0.00353356
0.000110267
0.00351578
0.000122181
0.00349638
0.00013464
0.00347519
0.000147747
0.00345199
0.000161561
0.0034268
0.000176156
0.00339943
0.000191594
0.00336997
0.000207931
0.00333814
0.000225262
0.0033037
0.000243597
0.0032667
0.00026304
0.003227
0.000283625
0.00318465
0.00030544
0.00313907
0.000328568
0.00308991
0.000353001
0.00303688
0.000378874
0.00298007
0.000406196
0.00291969
0.00043522
0.00285534
0.000466037
0.00278667
0.000498794
0.00271268
0.000533627
0.00263305
0.000570396
0.00254779
0.000609401
0.00245673
0.000650603
0.00235974
0.000694254
0.00225579
0.000740343
0.0021448
0.000788482
0.00202688
0.000839059
0.00190125
0.000891628
0.00176747
0.000945739
0.00162502
0.00100082
0.00147418
0.00105583
0.00131513
0.00111075
0.00114714
0.00116403
0.000970903
0.0012137
0.000787252
0.00125959
0.00059678
0.00129985
0.000400952
0.00133227
0.000201516
0.00135807
0.0013696
0.00391622
1.76221e-07
0.00367188
3.66573e-06
0.00374911
4.03367e-05
0.0037496
5.18795e-05
0.00374283
5.89224e-05
0.00373396
6.69036e-05
0.00372356
7.69684e-05
0.00371174
8.79917e-05
0.00369843
9.9916e-05
0.00368357
0.000112515
0.00366711
0.000125604
0.00364894
0.000139213
0.00362908
0.000153445
0.00360744
0.000168418
0.00358381
0.000184196
0.00355815
0.000200861
0.00353018
0.00021848
0.00350002
0.000237113
0.00346746
0.000256874
0.00343229
0.000277779
0.00339451
0.000299954
0.00335388
0.000323426
0.00331054
0.000348299
0.00326399
0.000374671
0.00321391
0.000402544
0.00315991
0.000432084
0.00310187
0.000463282
0.00304002
0.000496395
0.00297414
0.000531531
0.00290414
0.000568905
0.00282893
0.000608733
0.00274774
0.000650849
0.00266048
0.000695531
0.00256702
0.000742747
0.00246749
0.000792778
0.00236088
0.000845712
0.00224698
0.000901078
0.0021259
0.000959369
0.00199676
0.00102023
0.00185888
0.00108316
0.00171145
0.0011475
0.00155474
0.00121191
0.001389
0.00127639
0.0012134
0.00133928
0.00102846
0.00139825
0.00083533
0.00145278
0.00063428
0.001501
0.00042655
0.00153997
0.000214225
0.00157031
0.00158285
0.00406185
1.46837e-07
0.00380817
4.22104e-06
0.00388871
4.47485e-05
0.00388969
5.81841e-05
0.00388285
6.60259e-05
0.00387379
7.49178e-05
0.00386324
8.6231e-05
0.00385128
9.86574e-05
0.00383781
0.000112123
0.00382276
0.000126355
0.00380607
0.000141128
0.0037876
0.000156483
0.00376736
0.000172538
0.0037453
0.000189424
0.00372125
0.000207212
0.00369518
0.000225989
0.00366675
0.000245836
0.003636
0.000266813
0.00360275
0.000289046
0.0035669
0.000312565
0.00352843
0.00033751
0.00348707
0.000363924
0.00344285
0.000391907
0.00339534
0.000421575
0.00334437
0.00045294
0.00328958
0.000486206
0.00323072
0.00052137
0.00316772
0.00055869
0.0031004
0.000598247
0.00302894
0.000640309
0.00295235
0.000685174
0.00286992
0.00073271
0.00278122
0.000783257
0.00268597
0.00083673
0.00258431
0.000893453
0.00247511
0.000953557
0.00235821
0.00101647
0.00223388
0.0010828
0.00210128
0.00115224
0.00195956
0.00122439
0.00180762
0.00129871
0.00164528
0.0013736
0.00147271
0.00144884
0.00128913
0.00152256
0.00109488
0.00159212
0.000890647
0.00165703
0.000677333
0.00171438
0.000456254
0.00176099
0.000229766
0.00179673
0.00181161
0.00421302
1.0924e-07
0.00394933
4.77972e-06
0.00403372
4.96338e-05
0.00403498
6.41487e-05
0.00402806
7.29456e-05
0.00401894
8.2832e-05
0.00400834
9.54391e-05
0.00399631
0.000109293
0.00398276
0.000124338
0.00396756
0.000140255
0.00395073
0.000156762
0.00393206
0.000173914
0.00391154
0.00019184
0.00388913
0.000210689
0.00386467
0.000230528
0.00383822
0.000251458
0.00380943
0.000273572
0.00377823
0.00029693
0.00374449
0.00032168
0.00370802
0.000347849
0.00366894
0.000375594
0.00362691
0.000404983
0.00358199
0.000436105
0.00353373
0.000469122
0.003482
0.00050402
0.00342655
0.000541068
0.003367
0.000580242
0.00330325
0.000621842
0.00323484
0.000665937
0.00316206
0.000712769
0.00308423
0.000762755
0.0030006
0.000815768
0.00291082
0.000872269
0.0028143
0.000932185
0.0027111
0.000995825
0.0026001
0.00106342
0.00248078
0.0011344
0.0023533
0.00120928
0.002217
0.00128779
0.00207132
0.00136959
0.00191493
0.00145439
0.00174729
0.0015406
0.00156801
0.00162796
0.00137595
0.00171419
0.00117158
0.00179609
0.000955861
0.00187278
0.000728758
0.0019416
0.000491815
0.00199789
0.000247501
0.00204095
0.00205811
0.00436995
1.06991e-07
0.00409568
5.26162e-06
0.00418431
5.46686e-05
0.00418538
6.99594e-05
0.00417866
7.96569e-05
0.00416967
9.05669e-05
0.00415915
0.000104493
0.00414714
0.000119818
0.00413355
0.00013649
0.00411828
0.000154132
0.00410136
0.000172418
0.00408258
0.000191411
0.00406189
0.000211257
0.00403925
0.000232114
0.00401446
0.000254051
0.0039877
0.000277169
0.00395858
0.000301582
0.00392711
0.000327351
0.00389301
0.000354651
0.00385612
0.000383498
0.00381652
0.000414075
0.00377394
0.000446445
0.00372846
0.000480736
0.00367968
0.000517104
0.00362743
0.000555587
0.00357143
0.000596421
0.00351142
0.000639657
0.00344716
0.000685553
0.00337811
0.000734262
0.00330449
0.000785961
0.00322565
0.000841138
0.00314113
0.000899724
0.00305049
0.000962227
0.00295311
0.0010287
0.00284886
0.00109941
0.00273659
0.00117475
0.0026157
0.0012541
0.00248606
0.00133812
0.00234667
0.00142649
0.00219693
0.00151871
0.00203591
0.00161468
0.00186283
0.00171296
0.00167707
0.0018135
0.00147686
0.00191407
0.00126159
0.00201069
0.00103219
0.00210207
0.000789382
0.00218447
0.000534279
0.00225295
0.000270044
0.00230511
0.00232721
0.00453281
1.11283e-07
0.00424738
5.70534e-06
0.00434025
5.9345e-05
0.00434157
7.58064e-05
0.00433501
8.62343e-05
0.00432624
9.80664e-05
0.0043159
0.00011331
0.00430406
0.000130102
0.00429055
0.000148448
0.00427531
0.000167864
0.00425836
0.000187981
0.00423959
0.000208859
0.00421885
0.000230678
0.0041961
0.000253586
0.00417112
0.000277674
0.00414405
0.000303014
0.00411471
0.000329758
0.00408299
0.000357956
0.00404877
0.000387817
0.00401165
0.000419367
0.00397174
0.000452774
0.00392878
0.000488155
0.00388288
0.000525589
0.00383376
0.000565333
0.00378117
0.000607363
0.00372498
0.000652018
0.00366467
0.000699299
0.00360022
0.000749507
0.00353096
0.000802852
0.00345692
0.00085945
0.00337774
0.000919897
0.00329263
0.000984118
0.00320159
0.00105268
0.00310368
0.00112579
0.00299891
0.00120362
0.00288601
0.00128688
0.00276413
0.00137484
0.00263322
0.00146833
0.00249185
0.00156725
0.00233916
0.00167089
0.0021738
0.00177916
0.00199533
0.00189057
0.00180292
0.00200564
0.00159415
0.00212237
0.00136816
0.00223604
0.00112494
0.00234512
0.000864109
0.00244537
0.000586977
0.00253004
0.000296696
0.00259528
0.00262294
0.0047018
1.14899e-07
0.00440458
6.12117e-06
0.00450185
6.38275e-05
0.00450369
8.14301e-05
0.00449744
9.24983e-05
0.00448901
0.000105147
0.004479
0.000121682
0.00446747
0.000139967
0.00445422
0.000160039
0.00443913
0.000181302
0.00442228
0.00020331
0.00440354
0.000226148
0.0043829
0.000249988
0.00436023
0.000275012
0.00433524
0.000301286
0.00430808
0.000328903
0.00427848
0.000357995
0.00424661
0.000388644
0.00421226
0.000421061
0.00417508
0.000455304
0.00413512
0.000491542
0.00409199
0.000529907
0.00404594
0.000570483
0.00399662
0.000613552
0.00394401
0.000659107
0.00388779
0.00070754
0.0038276
0.000758824
0.00376327
0.000813346
0.00369417
0.000871261
0.00362036
0.000932787
0.0035412
0.00099849
0.00345634
0.00106835
0.00336533
0.00114306
0.00326755
0.00122274
0.00316276
0.00130787
0.00304988
0.00139901
0.00292784
0.00149585
0.00279657
0.00159898
0.00265455
0.0017089
0.00250005
0.00182482
0.00233176
0.00194653
0.00214862
0.00207263
0.00195023
0.00220369
0.00173347
0.00233883
0.00149565
0.00247312
0.00123659
0.00260394
0.000955536
0.00272636
0.000653021
0.0028325
0.000332499
0.00291564
0.00295441
0.00487714
1.094e-07
0.00456751
6.54151e-06
0.00466932
6.81576e-05
0.00467184
8.66999e-05
0.00466617
9.81992e-05
0.00465826
0.00011157
0.00464878
0.000129401
0.00463773
0.000149229
0.00462491
0.000171106
0.00461024
0.000194288
0.00459368
0.000218271
0.00457518
0.000243131
0.00455458
0.000269064
0.00453198
0.000296241
0.00450708
0.000324757
0.00447995
0.00035467
0.00445045
0.000386152
0.00441851
0.000419253
0.00438424
0.000454225
0.00434716
0.000491141
0.00430731
0.000530177
0.00426436
0.000571498
0.00421831
0.000615177
0.00416913
0.000661506
0.00411661
0.000710545
0.00406076
0.000762624
0.00400095
0.000817902
0.0039372
0.000876577
0.00386877
0.000939074
0.00379561
0.00100539
0.00371731
0.00107632
0.00363313
0.00115179
0.00354308
0.0012325
0.00344615
0.00131891
0.00334231
0.00141109
0.00323038
0.00151034
0.00310913
0.00161595
0.0029785
0.00172902
0.00283698
0.00184998
0.0026827
0.00197868
0.00251303
0.0021152
0.00232694
0.00225752
0.00212353
0.00240668
0.00189959
0.00256245
0.00165181
0.00272039
0.0013771
0.00287837
0.00107341
0.00303012
0.000739202
0.00316666
0.000377906
0.0032769
0.00333124
0.00505906
1.34906e-07
0.00473637
6.86595e-06
0.00484305
7.23921e-05
0.00484662
9.11996e-05
0.00484177
0.00010286
0.00483465
0.000116939
0.004826
0.000136175
0.00481578
0.000157611
0.00480372
0.000181426
0.00478962
0.00020667
0.00477354
0.00023274
0.00475531
0.000259715
0.00473495
0.00028781
0.00471251
0.000317207
0.00468774
0.000347996
0.00466077
0.000380241
0.0046313
0.000414117
0.00459946
0.00044967
0.00456526
0.000487177
0.00452842
0.00052671
0.00448897
0.000568496
0.00444643
0.000612696
0.00440084
0.00065941
0.00435204
0.000708933
0.00429997
0.000761328
0.0042447
0.000816979
0.00418571
0.000876059
0.00412292
0.000938812
0.00405571
0.00100568
0.00398384
0.00107672
0.003907
0.00115268
0.00382443
0.00123365
0.00373614
0.00132025
0.00364102
0.00141317
0.00353903
0.00151243
0.00342926
0.00161946
0.00331026
0.00173395
0.00318163
0.00185683
0.0030421
0.00198903
0.00288995
0.00213053
0.0027222
0.00228228
0.00253566
0.00244263
0.00233
0.00261175
0.00210086
0.00279128
0.0018432
0.00297768
0.00155301
0.00316831
0.0012253
0.00335787
0.000855972
0.00353594
0.000444225
0.00368847
0.00377434
0.00524771
2.34258e-07
0.00491177
6.8738e-06
0.00502373
7.59551e-05
0.00502831
9.44321e-05
0.00502487
0.000106158
0.00501941
0.000120941
0.0050121
0.000141706
0.00500289
0.000164963
0.00499155
0.000190888
0.00497796
0.000218323
0.0049623
0.00024659
0.00494449
0.000275777
0.00492441
0.000306113
0.00490227
0.000337782
0.00487775
0.000370892
0.00485105
0.000405484
0.00482195
0.000441755
0.00479033
0.000479767
0.00475643
0.000519752
0.00471988
0.000561888
0.00468091
0.000606291
0.00463906
0.000653308
0.00459424
0.000702904
0.00454628
0.000755531
0.00449503
0.00081113
0.00444073
0.000870204
0.00438288
0.000932894
0.00432154
0.000999519
0.00425604
0.00107055
0.00418615
0.00114606
0.00411157
0.00122686
0.00403146
0.00131305
0.00394588
0.0014053
0.00385392
0.0015044
0.00375507
0.00161056
0.00364887
0.001725
0.00353365
0.00184821
0.0034092
0.00198049
0.00327377
0.00212397
0.00312564
0.0022782
0.00296245
0.00244485
0.00277994
0.00262387
0.00257589
0.00281518
0.00234726
0.0030197
0.00208602
0.00323861
0.00178439
0.00346963
0.00143274
0.00370934
0.00101979
0.00394878
0.000538711
0.00416934
0.00431187
0.00544312
3.26603e-07
0.00509408
6.779e-06
0.0052112
7.77459e-05
0.00521831
9.62321e-05
0.00521722
0.000107647
0.00521334
0.000123248
0.00520725
0.000145763
0.0051991
0.000171004
0.00518865
0.000199244
0.00517587
0.000229087
0.00516077
0.000259706
0.00514352
0.0002912
0.00512391
0.000323854
0.00510213
0.000357849
0.00507801
0.000393319
0.00505159
0.000430269
0.00502302
0.000468929
0.0049919
0.000509355
0.00495856
0.000551796
0.00492255
0.000596441
0.00488419
0.00064341
0.0048432
0.000693072
0.00479943
0.000745439
0.00475269
0.000800956
0.00470271
0.000859623
0.0046498
0.000921877
0.00459356
0.000987971
0.00453415
0.00105816
0.00447096
0.00113307
0.00440376
0.00121272
0.00433223
0.001298
0.00425553
0.00138907
0.00417375
0.00148653
0.00408609
0.00159141
0.00399199
0.00170387
0.00389119
0.0018253
0.00378188
0.00195646
0.00366371
0.00209786
0.00353575
0.00225136
0.00339506
0.00241845
0.00324046
0.00259905
0.00306884
0.00279448
0.00287396
0.00300921
0.00264933
0.00324391
0.00238932
0.00349824
0.00208388
0.00377467
0.00171746
0.00407573
0.00126728
0.00439877
0.00070163
0.00473486
0.00501236
0.00564551
3.71455e-07
0.00528342
6.58771e-06
0.00540669
7.72309e-05
0.00541756
9.56842e-05
0.00541847
0.000106796
0.00541641
0.000123483
0.00541198
0.000148036
0.00540517
0.00017555
0.00539581
0.000206448
0.00538386
0.000238898
0.00536951
0.00027198
0.00535289
0.000305864
0.00533389
0.000340877
0.00531275
0.000377244
0.00528915
0.000415078
0.00526332
0.000454399
0.00523522
0.000495423
0.0052048
0.000538208
0.00517224
0.000583048
0.00513719
0.000630101
0.00509979
0.000679556
0.00505991
0.000731715
0.00501746
0.000786712
0.00497237
0.000844879
0.00492419
0.00090643
0.00487322
0.000971567
0.00481903
0.00104083
0.00476197
0.0011142
0.00470169
0.00119261
0.0046378
0.00127596
0.00457039
0.00136518
0.00449816
0.00146071
0.00442141
0.00156278
0.00433944
0.00167285
0.00425153
0.00179089
0.00415774
0.00191859
0.00405694
0.00205639
0.00394756
0.00220632
0.0038303
0.00236791
0.00370458
0.00254352
0.00356411
0.00273897
0.00340422
0.00295364
0.0032246
0.00318804
0.00301997
0.00344797
0.00278013
0.00373771
0.00248951
0.00406499
0.00212815
0.00443684
0.001656
0.00487082
0.00100028
0.00539022
0.00601148
0.00585519
3.8099e-07
0.00548011
6.20223e-06
0.00561046
7.37124e-05
0.00562556
9.15443e-05
0.00562958
0.000102947
0.00563025
0.000121013
0.00562789
0.000148129
0.00562268
0.000178424
0.00561446
0.000212373
0.00560343
0.000247679
0.0055898
0.000283383
0.00557392
0.000319718
0.00555551
0.000357164
0.00553495
0.000395912
0.00551208
0.000436125
0.00548693
0.000477749
0.00545964
0.000521085
0.00542991
0.00056618
0.00539825
0.00061329
0.00536428
0.000662656
0.00532821
0.000714412
0.00528992
0.00076893
0.00524914
0.000826325
0.00520607
0.00088694
0.00516015
0.000951059
0.00511171
0.00101882
0.00506041
0.00109085
0.00500629
0.00116711
0.00494958
0.00124844
0.00488964
0.00133506
0.00482698
0.00142752
0.00476047
0.00152675
0.00469005
0.00163273
0.00461544
0.00174699
0.00453596
0.00186973
0.00445094
0.00200294
0.00436141
0.00214515
0.00426767
0.00229932
0.0041645
0.00247042
0.00404978
0.00265776
0.00392652
0.00286179
0.0037921
0.00308749
0.00364155
0.00333797
0.00346978
0.00361913
0.00326963
0.00393735
0.0030291
0.00430488
0.00272217
0.00474354
0.00230147
0.00529135
0.00164985
0.00604175
0.00765982
0.00846448
3.16384e-07
0.00792363
5.2761e-06
0.00811806
6.23419e-05
0.00814768
7.8281e-05
0.00815981
9.08067e-05
0.00816583
0.000112368
0.00816674
0.00014393
0.00816281
0.000178969
0.00815401
0.000217748
0.00814104
0.000257434
0.00812417
0.000296977
0.00810403
0.000336824
0.00808066
0.00037763
0.00805401
0.00041961
0.00802456
0.00046297
0.00799179
0.000507731
0.00795661
0.000554017
0.00791826
0.000602145
0.00787718
0.000652119
0.0078334
0.000704414
0.00778687
0.000758994
0.00773797
0.000816356
0.00768625
0.000876583
0.00763204
0.000940051
0.00757466
0.00100706
0.00751431
0.00107777
0.00745085
0.00115276
0.00738402
0.00123211
0.00731467
0.00131648
0.00724204
0.00140627
0.00716677
0.00150198
0.00708858
0.00160437
0.00700671
0.00171406
0.00692188
0.00183147
0.00683429
0.00195676
0.00674453
0.00209207
0.00664762
0.00224118
0.00654343
0.00240256
0.00643637
0.00257648
0.00632676
0.00276639
0.00621219
0.0029756
0.00609275
0.00320618
0.00596772
0.00346228
0.00583806
0.00374804
0.00570636
0.00406866
0.0055787
0.0044316
0.00548568
0.00483522
0.00550952
0.00526684
0.0059232
0.00562768
0.00546757
0.00811385
0.0084641
1.66789e-07
0.00792569
2.88754e-06
0.00813524
3.56913e-05
0.00817747
5.23864e-05
0.00819956
6.8732e-05
0.0082128
9.65157e-05
0.00821801
0.000135415
0.00821661
0.000177023
0.00820895
0.000221924
0.00819698
0.000266142
0.00818139
0.000309276
0.00816275
0.000352401
0.00814104
0.000396344
0.00811629
0.00044135
0.00808915
0.000487517
0.00805915
0.000534962
0.008027
0.000583822
0.00799249
0.000634418
0.0079556
0.000686835
0.00791662
0.000741458
0.00787526
0.000798375
0.00783215
0.000857929
0.00778691
0.000920367
0.00774006
0.000985907
0.00769109
0.00105501
0.0076402
0.00112774
0.00758723
0.00120471
0.00753213
0.00128598
0.00747514
0.00137224
0.00741658
0.00146367
0.00735629
0.0015613
0.00729547
0.00166437
0.00723461
0.00177411
0.00717241
0.0018929
0.00710695
0.00202149
0.00703915
0.00215922
0.00697338
0.00230622
0.00690943
0.0024658
0.00684733
0.00263766
0.00678781
0.00282529
0.00673556
0.00302723
0.0066913
0.00324997
0.0066631
0.00348996
0.00665727
0.00375318
0.00669062
0.00403497
0.00679053
0.00433113
0.00699792
0.00462663
0.00739381
0.00486942
0.00801132
0.00500874
0.00466256
0.00881497
0.00846391
-2.89831e-08
0.00792633
1.21151e-07
0.00815115
-6.25757e-06
0.00821362
6.26665e-06
0.00825145
3.09428e-05
0.0082746
7.07731e-05
0.00828526
0.000121442
0.00828539
0.000173609
0.00827891
0.000224853
0.00826864
0.000273122
0.00825489
0.000319685
0.00823805
0.000366133
0.00821823
0.000413216
0.00819553
0.000461083
0.00817045
0.000509865
0.00814309
0.000559684
0.00811362
0.000610848
0.0080822
0.000663518
0.00804897
0.000718021
0.00801402
0.000774504
0.00797731
0.000833284
0.00793919
0.000894491
0.00789959
0.000958512
0.00785897
0.00102545
0.00781731
0.00109582
0.00777456
0.00116968
0.00773088
0.00124758
0.00768616
0.00132967
0.00764069
0.00141653
0.0075956
0.00150742
0.00755214
0.00160365
0.00750799
0.00170765
0.00746295
0.00181859
0.00741961
0.00193597
0.00738003
0.00206084
0.00734394
0.002195
0.00731148
0.00233832
0.00728438
0.00249235
0.0072643
0.00265714
0.00725458
0.00283408
0.00725771
0.00302368
0.00728243
0.00322472
0.00733164
0.00344058
0.00742266
0.00366146
0.0075651
0.00389225
0.00778538
0.0041103
0.00810339
0.00430791
0.00852798
0.00444332
0.00904722
0.00448752
0.00423413
0.00947337
0.00846253
1.157e-06
0.00793137
-9.57068e-06
0.0082069
-9.82461e-05
0.00829743
-6.78688e-05
0.0083454
-1.69794e-05
0.00836556
4.80347e-05
0.00836998
0.000113729
0.00836596
0.000174316
0.00835791
0.000229445
0.00834785
0.0002798
0.00833517
0.000329113
0.0083195
0.000378652
0.00830123
0.000428495
0.00828074
0.000478674
0.00825837
0.000529506
0.00823424
0.000581213
0.00820846
0.000634171
0.00818116
0.000688534
0.00815253
0.000744642
0.00812262
0.000802632
0.00809142
0.000862824
0.00805896
0.000925336
0.00802544
0.000990505
0.0079912
0.00105848
0.00795661
0.00112961
0.00792171
0.00120411
0.00788682
0.0012822
0.00785263
0.00136365
0.00781958
0.00144931
0.00778552
0.00154115
0.00775069
0.00163796
0.00771857
0.00173912
0.00769014
0.0018463
0.0076657
0.00195977
0.0076458
0.00208031
0.00763271
0.00220778
0.00762691
0.00234387
0.00763173
0.00248711
0.00764775
0.0026406
0.00768105
0.0028002
0.00773276
0.00297134
0.00781034
0.00314654
0.00792108
0.0033296
0.00807016
0.00351208
0.0082733
0.00368855
0.00853125
0.003852
0.00885975
0.00397884
0.00924135
0.00406101
0.00969696
0.00403031
0.00391135
0.0100176
0.00845647
1.09985e-05
0.00796694
-6.74177e-05
0.00834785
-0.00029197
0.00852744
-0.0002324
0.00857612
-6.47375e-05
0.00857013
5.15737e-05
0.00855637
0.000124183
0.00854204
0.00018526
0.00852934
0.000238578
0.00851629
0.000289382
0.00850015
0.000341949
0.008481
0.000394632
0.00845966
0.00044683
0.00843665
0.000498804
0.00841228
0.000551152
0.00838666
0.000604258
0.00835995
0.000658446
0.00833224
0.00071392
0.00830379
0.000770946
0.00827477
0.00082972
0.00824539
0.00089051
0.00821575
0.000953494
0.00818602
0.00101896
0.0081562
0.0010871
0.00812691
0.00115795
0.00809883
0.00123139
0.00807189
0.00130843
0.00804481
0.00139019
0.00801794
0.00147575
0.00799407
0.00156455
0.00797313
0.00165825
0.00795503
0.00175638
0.00794039
0.00186004
0.00793089
0.00196833
0.00792726
0.0020831
0.00793183
0.00220251
0.00794575
0.00232934
0.0079718
0.00246055
0.00801267
0.00259919
0.00807048
0.00274171
0.00815289
0.00288867
0.00825937
0.00303949
0.00840124
0.00318718
0.00857835
0.00333475
0.00879994
0.0034665
0.00906645
0.00358505
0.00937682
0.00366781
0.00972819
0.00370928
0.0100752
0.00368222
0.00357232
0.0104126
0.00852148
1.80269e-05
0.00824848
-0.000404816
0.00880825
-0.000648596
0.00890094
-0.000308244
0.00887773
-4.07074e-05
0.00882007
0.000106633
0.00878929
0.000151666
0.0087687
0.000202455
0.00875922
0.000244539
0.00874473
0.000300479
0.00872542
0.000358076
0.00870365
0.00041338
0.00868063
0.00046694
0.00865653
0.000520092
0.00863131
0.000573712
0.00860493
0.000628157
0.00857739
0.000683653
0.00854879
0.000740334
0.0085192
0.000798466
0.00848897
0.000858105
0.00845822
0.000919611
0.00842741
0.000982942
0.00839657
0.00104863
0.00836668
0.001116
0.00833735
0.00118626
0.00830815
0.00125974
0.00827977
0.00133615
0.0082548
0.00141456
0.00823312
0.00149675
0.00821495
0.00158205
0.00820074
0.00167168
0.00819164
0.00176473
0.00818821
0.00186267
0.00819146
0.00196434
0.00820272
0.00207111
0.00822273
0.00218185
0.00825452
0.00229719
0.00829749
0.00241686
0.00835771
0.00253888
0.00843325
0.00266549
0.00853161
0.00279017
0.00865312
0.00291751
0.00880286
0.00303713
0.0089845
0.00315265
0.00919855
0.00325215
0.0094487
0.00333437
0.00972794
0.00338775
0.0100369
0.00339963
0.0103439
0.00337443
0.00327687
0.0106384
0.00816596
3.25156e-06