/*--------------------------------*- C++ -*----------------------------------*\
| =========                 |                                                 |
| \\      /  F ield         | OpenFOAM: The Open Source CFD Toolbox           |
|  \\    /   O peration     | Version:  2412                                  |
|   \\  /    A nd           | Website:  www.openfoam.com                      |
|    \\/     M anipulation  |                                                 |
\*---------------------------------------------------------------------------*/
FoamFile
{
    version     2.0;
    format      ascii;
    arch        "LSB;label=32;scalar=64";
    class       volScalarField;
    location    "12.5";
    object      T;
}
// * * * * * * * * * * * * * * * * * * * * * * * * * * * * * * * * * * * * * //

dimensions      [0 0 0 1 0 0 0];

internalField   nonuniform List<scalar> 
7000
(
1.31809
2.64835
2.71062
2.67588
2.66449
2.64618
2.64246
2.64519
2.64721
2.64946
2.65072
2.65167
2.65284
2.65417
2.65588
2.65759
2.65937
2.66128
2.66309
2.66539
2.66749
2.66973
2.67182
2.67402
2.67699
2.68
2.68338
2.68612
2.68896
2.69185
2.69472
2.69851
2.70227
2.70677
2.71111
2.7153
2.72036
2.72436
2.72816
2.73185
2.73542
2.73966
2.7423
2.74471
2.74819
2.74966
2.74975
2.75014
2.74833
2.75913
1.31816
2.64857
2.71089
2.67597
2.66462
2.64634
2.64258
2.6453
2.64729
2.64952
2.6508
2.65179
2.65299
2.65434
2.656
2.65763
2.65937
2.66138
2.66331
2.66559
2.66752
2.66963
2.6718
2.67425
2.67738
2.68028
2.68333
2.68579
2.6886
2.69175
2.69502
2.69916
2.70308
2.70751
2.71168
2.71569
2.72058
2.72445
2.72817
2.73182
2.73538
2.73961
2.74222
2.74461
2.74808
2.74952
2.74958
2.7499
2.74801
2.75888
1.31814
2.64848
2.71077
2.67598
2.66459
2.64623
2.64247
2.64519
2.6472
2.64947
2.65075
2.6517
2.65285
2.65417
2.65586
2.65757
2.65937
2.6613
2.6631
2.66536
2.66746
2.66973
2.67186
2.67404
2.67693
2.67987
2.6832
2.68595
2.68884
2.69179
2.69469
2.69849
2.70222
2.70667
2.71096
2.71512
2.72018
2.72416
2.72793
2.7316
2.73517
2.7394
2.74198
2.74436
2.74782
2.74926
2.74935
2.74968
2.74776
2.75874
1.31812
2.64831
2.71058
2.676
2.66449
2.64612
2.64233
2.64504
2.64703
2.64928
2.65056
2.65154
2.65273
2.65404
2.65571
2.65735
2.6591
2.66108
2.66296
2.66525
2.66727
2.66945
2.67157
2.67384
2.67683
2.67976
2.68297
2.68559
2.68839
2.69138
2.69438
2.69827
2.70202
2.70643
2.71066
2.7148
2.71983
2.72379
2.72754
2.73121
2.7348
2.73904
2.74162
2.74399
2.74744
2.74887
2.74888
2.74918
2.74736
2.75836
1.31809
2.64809
2.71033
2.67608
2.66441
2.64594
2.64212
2.64482
2.64682
2.64909
2.6504
2.65136
2.65252
2.65378
2.65542
2.65712
2.65891
2.66089
2.66268
2.66492
2.66701
2.66929
2.67144
2.67359
2.67642
2.67927
2.68255
2.6853
2.68817
2.69106
2.6939
2.69769
2.7014
2.70575
2.70994
2.71402
2.71902
2.72296
2.72667
2.73032
2.73389
2.73818
2.74078
2.7432
2.74668
2.74806
2.74826
2.74842
2.7464
2.75766
1.31805
2.6478
2.71002
2.67621
2.66425
2.6457
2.64187
2.64457
2.64658
2.64882
2.65012
2.65108
2.65227
2.65355
2.65516
2.65681
2.65853
2.66051
2.66236
2.66465
2.66672
2.66893
2.67106
2.67321
2.67604
2.67887
2.68213
2.68486
2.68766
2.6905
2.69329
2.69701
2.70064
2.70499
2.70921
2.71332
2.71836
2.72231
2.72601
2.72962
2.73317
2.73731
2.73985
2.74206
2.74554
2.74712
2.74715
2.74758
2.74569
2.7567
1.318
2.64744
2.70965
2.67636
2.66404
2.64537
2.64153
2.64423
2.64625
2.64851
2.64981
2.6508
2.65196
2.65319
2.65475
2.65639
2.65813
2.66011
2.66195
2.66422
2.66631
2.66851
2.67066
2.67278
2.67556
2.67834
2.68153
2.68418
2.68695
2.68981
2.69262
2.69639
2.70003
2.70417
2.7082
2.71212
2.71711
2.72114
2.72488
2.72855
2.73206
2.73628
2.73868
2.74084
2.74425
2.74579
2.74597
2.74602
2.74402
2.75556
1.31794
2.647
2.70922
2.67653
2.6637
2.64494
2.64114
2.64385
2.64588
2.64814
2.64943
2.65041
2.65157
2.65276
2.65427
2.65592
2.65766
2.65962
2.66139
2.66361
2.66576
2.66809
2.67028
2.67228
2.6748
2.67742
2.68072
2.68363
2.68638
2.68897
2.69148
2.6952
2.69893
2.70316
2.70704
2.71074
2.71557
2.71949
2.72315
2.72678
2.73036
2.7347
2.73737
2.7395
2.74281
2.74412
2.74436
2.74484
2.74289
2.75333
1.31787
2.64649
2.70877
2.6766
2.66318
2.64445
2.64071
2.64343
2.64547
2.64768
2.64894
2.64991
2.65109
2.65231
2.65377
2.65531
2.657
2.65899
2.66077
2.66298
2.66508
2.66739
2.66967
2.67169
2.67414
2.67655
2.67969
2.68269
2.68561
2.68823
2.6904
2.69363
2.69726
2.7016
2.70578
2.70956
2.71433
2.71819
2.72158
2.7248
2.72803
2.73245
2.73533
2.73752
2.74089
2.74253
2.74228
2.74219
2.7402
2.75175
1.3178
2.64597
2.70825
2.67647
2.66257
2.64391
2.64023
2.64296
2.64497
2.64716
2.64838
2.64932
2.6505
2.65173
2.65318
2.65467
2.65625
2.65819
2.66001
2.66224
2.6643
2.66658
2.66882
2.67095
2.67341
2.67572
2.67859
2.68134
2.68439
2.68717
2.6894
2.69244
2.6956
2.69969
2.70373
2.70751
2.71258
2.71677
2.72026
2.7233
2.72604
2.72985
2.73263
2.73487
2.73816
2.73962
2.7401
2.74038
2.73842
2.74841
1.31775
2.64554
2.70745
2.67615
2.66199
2.64336
2.63967
2.64241
2.64439
2.64657
2.64777
2.64863
2.64979
2.651
2.65246
2.65395
2.65545
2.6573
2.65909
2.66126
2.6634
2.66557
2.66792
2.66996
2.67252
2.67471
2.6774
2.67996
2.68281
2.68581
2.68811
2.6911
2.69405
2.69762
2.70141
2.70482
2.70952
2.71387
2.71789
2.72146
2.72409
2.72751
2.72965
2.73156
2.73519
2.73686
2.73648
2.73633
2.73429
2.74594
1.31775
2.64524
2.70582
2.67616
2.66148
2.64277
2.63904
2.64171
2.64374
2.64583
2.64709
2.64784
2.64901
2.65012
2.65162
2.65309
2.65455
2.65636
2.65797
2.66018
2.66221
2.6645
2.66676
2.6689
2.67133
2.67352
2.67608
2.67846
2.68115
2.68405
2.68645
2.6895
2.6922
2.69551
2.69883
2.70193
2.70615
2.71004
2.71389
2.71786
2.72126
2.72481
2.72689
2.72808
2.73083
2.73281
2.73352
2.73355
2.7315
2.74059
1.31776
2.64491
2.7037
2.67638
2.66093
2.64212
2.63829
2.64097
2.64288
2.64506
2.64619
2.64705
2.64799
2.64923
2.65051
2.65214
2.65351
2.65529
2.65686
2.65881
2.66092
2.66305
2.66548
2.66755
2.66998
2.67214
2.67447
2.67694
2.67923
2.68215
2.68445
2.6873
2.6902
2.69293
2.69632
2.69874
2.70265
2.70608
2.70933
2.71316
2.71656
2.72099
2.72332
2.72445
2.72715
2.72815
2.72773
2.72732
2.72529
2.73663
1.31776
2.64454
2.70135
2.6766
2.66026
2.64136
2.63749
2.64012
2.64204
2.64413
2.64535
2.6461
2.64714
2.64811
2.64943
2.65086
2.65231
2.65407
2.65556
2.65748
2.65939
2.66149
2.6639
2.66593
2.66848
2.67038
2.67287
2.67494
2.67733
2.67989
2.68213
2.68497
2.6874
2.69035
2.69315
2.6957
2.69891
2.70212
2.70465
2.70767
2.71115
2.71543
2.71864
2.71947
2.72133
2.72318
2.72332
2.72297
2.72036
2.72816
1.31777
2.64411
2.6987
2.67688
2.65949
2.64052
2.63662
2.63919
2.64112
2.64308
2.64425
2.64496
2.64593
2.64701
2.64817
2.64964
2.65094
2.65263
2.65417
2.65583
2.65777
2.65964
2.662
2.66412
2.6665
2.66863
2.67073
2.673
2.67493
2.67755
2.67949
2.68211
2.68459
2.68699
2.68991
2.69188
2.69492
2.69775
2.69987
2.70222
2.70453
2.70909
2.7123
2.71376
2.71535
2.71538
2.71461
2.71325
2.71132
2.72157
1.31779
2.64369
2.69569
2.67715
2.65865
2.63976
2.63577
2.63839
2.64004
2.64205
2.64301
2.64374
2.64463
2.64568
2.64679
2.64818
2.6494
2.65115
2.65252
2.65429
2.65591
2.65774
2.65984
2.66193
2.66429
2.66641
2.66848
2.67061
2.67245
2.67475
2.67665
2.67893
2.68125
2.68329
2.68614
2.68786
2.69048
2.69286
2.69492
2.69664
2.69788
2.7008
2.70441
2.70539
2.70717
2.70812
2.70706
2.70579
2.7009
2.70742
1.31782
2.64315
2.6922
2.67785
2.65824
2.63899
2.63471
2.63713
2.63887
2.6407
2.64185
2.64239
2.64335
2.64429
2.64539
2.64668
2.64783
2.64936
2.65082
2.65234
2.6541
2.65557
2.65765
2.65942
2.66178
2.6638
2.66587
2.66794
2.66962
2.67175
2.6734
2.67542
2.67752
2.67927
2.68158
2.68336
2.68526
2.68762
2.68874
2.69056
2.69123
2.69267
2.69501
2.69603
2.69599
2.69532
2.69355
2.69002
2.68659
2.6942
1.31775
2.64207
2.68924
2.67895
2.65732
2.63783
2.63352
2.63599
2.63758
2.63949
2.64042
2.64114
2.64179
2.64292
2.64377
2.64516
2.64617
2.64753
2.64891
2.65023
2.652
2.6533
2.65523
2.65675
2.65894
2.66087
2.66289
2.66487
2.66644
2.66838
2.66979
2.67155
2.67336
2.67483
2.67673
2.67821
2.67944
2.68143
2.68219
2.68283
2.68319
2.68339
2.68421
2.6843
2.68403
2.68332
2.67989
2.67477
2.66473
2.66662
1.31758
2.64053
2.68719
2.67907
2.65634
2.63682
2.63235
2.6347
2.63632
2.63798
2.63906
2.6395
2.64034
2.64115
2.64212
2.64331
2.64436
2.64568
2.64688
2.64815
2.6496
2.65094
2.65254
2.65402
2.65573
2.65766
2.65935
2.66151
2.66284
2.66469
2.66589
2.66712
2.6688
2.66974
2.67139
2.67252
2.67345
2.67432
2.67523
2.67514
2.67418
2.67348
2.67152
2.67008
2.66671
2.6624
2.65776
2.64814
2.63387
2.62838
1.31735
2.63869
2.68555
2.67866
2.65552
2.63573
2.63098
2.63332
2.63469
2.63644
2.6373
2.6379
2.63843
2.63949
2.64013
2.64144
2.64222
2.64358
2.64471
2.6459
2.64722
2.64834
2.64969
2.65106
2.65238
2.65418
2.65552
2.65753
2.65885
2.6604
2.6617
2.66239
2.66373
2.66423
2.6653
2.66569
2.66661
2.66661
2.66645
2.66582
2.66474
2.66201
2.65992
2.6549
2.65083
2.64244
2.63096
2.61456
2.58012
2.51599
1.31704
2.63633
2.68405
2.67777
2.65443
2.63433
2.62917
2.6314
2.63259
2.63429
2.63501
2.6356
2.63601
2.6369
2.63759
2.63855
2.6396
2.64036
2.64172
2.64253
2.64391
2.64479
2.64596
2.64695
2.64796
2.64924
2.65035
2.65179
2.65317
2.65419
2.65553
2.65596
2.65672
2.65689
2.65707
2.65674
2.65628
2.65557
2.65384
2.65209
2.64806
2.64466
2.6371
2.63117
2.61849
2.60634
2.58481
2.55207
2.49143
2.36547
1.31672
2.63386
2.68242
2.67654
2.65298
2.63231
2.62665
2.62874
2.62983
2.63143
2.63223
2.63268
2.63312
2.63383
2.63461
2.6353
2.63639
2.63696
2.63813
2.6388
2.63992
2.64076
2.64163
2.64249
2.64307
2.64397
2.64449
2.64545
2.64608
2.64699
2.64734
2.648
2.64805
2.64795
2.6476
2.64709
2.6459
2.6444
2.6423
2.63893
2.63525
2.62794
2.62123
2.60733
2.59461
2.56945
2.54072
2.49437
2.42012
2.32002
1.31657
2.63269
2.68154
2.6757
2.65167
2.63019
2.62395
2.62559
2.62671
2.62837
2.62909
2.62956
2.62988
2.63053
2.63115
2.63194
2.63267
2.6335
2.63425
2.63507
2.6358
2.63667
2.63728
2.63811
2.63843
2.63906
2.63929
2.6398
2.64001
2.64058
2.64053
2.64035
2.63992
2.63874
2.6376
2.63509
2.63327
2.62924
2.62651
2.62038
2.61601
2.60722
2.59738
2.58498
2.5651
2.54391
2.5059
2.46362
2.39411
2.31926
1.31653
2.63205
2.68049
2.67441
2.64958
2.62729
2.62059
2.62241
2.62346
2.62531
2.62598
2.62629
2.62649
2.62699
2.62733
2.62801
2.6284
2.62912
2.62952
2.63017
2.63055
2.6312
2.63164
2.63229
2.63258
2.63294
2.633
2.63317
2.63309
2.63305
2.63297
2.63274
2.63229
2.63148
2.62998
2.62805
2.6247
2.62138
2.61541
2.6104
2.60027
2.59273
2.57706
2.56413
2.54202
2.51767
2.48595
2.44235
2.39188
2.32794
1.31716
2.63745
2.68555
2.67543
2.64908
2.62513
2.61796
2.6205
2.62171
2.6238
2.62453
2.62465
2.62474
2.62495
2.62515
2.62544
2.6256
2.62581
2.62594
2.62605
2.62603
2.62597
2.62581
2.62557
2.6253
2.6248
2.6244
2.62356
2.62293
2.62193
2.62091
2.61991
2.61861
2.61749
2.6155
2.61385
2.61038
2.60768
2.60168
2.59715
2.58831
2.57835
2.56633
2.54831
2.53065
2.50241
2.47513
2.43503
2.39237
2.34569
1.30055
2.57849
2.69171
2.68133
2.65804
2.63439
2.62742
2.63042
2.63139
2.63338
2.63335
2.63307
2.63251
2.63204
2.63155
2.63105
2.63047
2.62991
2.6293
2.62874
2.62807
2.62747
2.62664
2.62604
2.62508
2.62454
2.62336
2.62241
2.62057
2.61931
2.61673
2.61505
2.61153
2.60944
2.60498
2.60236
2.59698
2.59284
2.58691
2.57973
2.57299
2.56158
2.55175
2.53517
2.51892
2.4956
2.46955
2.43786
2.39805
2.3596
1.72697
2.45744
2.72167
2.69663
2.67941
2.66766
2.66798
2.66977
2.67127
2.67237
2.67152
2.6707
2.66954
2.66841
2.66699
2.6654
2.66347
2.6615
2.65898
2.65674
2.65366
2.65111
2.64747
2.64452
2.64046
2.63694
2.6322
2.62852
2.62442
2.62139
2.61779
2.61474
2.6111
2.60689
2.60259
2.59667
2.59163
2.58357
2.57778
2.56746
2.55985
2.54736
2.53637
2.52113
2.5051
2.48545
2.46278
2.43654
2.40667
2.37364
1.739
2.45152
2.71625
2.69313
2.67249
2.66264
2.66586
2.66748
2.67016
2.67153
2.67172
2.67197
2.67193
2.67181
2.67151
2.6711
2.6702
2.66945
2.66786
2.66679
2.66454
2.66312
2.66012
2.65829
2.65462
2.65236
2.64853
2.6453
2.64016
2.6351
2.62902
2.62236
2.61628
2.60953
2.60418
2.59673
2.59114
2.58219
2.57487
2.56423
2.55439
2.54173
2.52874
2.51344
2.49681
2.47789
2.45719
2.43356
2.40854
2.38191
1.73514
2.45762
2.71888
2.69397
2.6694
2.65894
2.66343
2.66551
2.66875
2.67021
2.67058
2.67096
2.67118
2.67145
2.67145
2.67141
2.67108
2.6708
2.67017
2.66961
2.66846
2.66733
2.66574
2.66384
2.66187
2.65891
2.65663
2.65258
2.64991
2.64448
2.64115
2.63438
2.62982
2.62065
2.61399
2.60343
2.59543
2.58497
2.57625
2.56516
2.55465
2.54202
2.52896
2.51375
2.49773
2.47902
2.45952
2.4372
2.41372
2.39054
1.73758
2.4516
2.7144
2.68883
2.66621
2.65565
2.65994
2.66164
2.66504
2.66651
2.66709
2.66752
2.66802
2.66845
2.66888
2.66917
2.66924
2.66917
2.66896
2.66846
2.66793
2.66685
2.66602
2.6643
2.66314
2.66076
2.6592
2.65592
2.65383
2.64944
2.64668
2.64112
2.63704
2.63037
2.62443
2.61613
2.60771
2.59691
2.5859
2.57335
2.56055
2.54658
2.53264
2.51707
2.50112
2.48326
2.46501
2.44478
2.4234
2.40251
1.74707
2.43379
2.70229
2.67678
2.66187
2.65215
2.65383
2.65588
2.65908
2.66032
2.66107
2.66133
2.66172
2.662
2.66234
2.66254
2.66271
2.66284
2.66278
2.66258
2.66234
2.66178
2.66133
2.66033
2.65956
2.65785
2.65665
2.65407
2.65237
2.64878
2.64639
2.64177
2.63816
2.63256
2.62748
2.62046
2.61369
2.60486
2.5959
2.58475
2.57326
2.55946
2.54509
2.52898
2.51259
2.49482
2.47631
2.45696
2.43657
2.41686
1.7412
2.42798
2.69868
2.66939
2.66282
2.64972
2.6492
2.65118
2.65383
2.65526
2.65615
2.6564
2.65677
2.65707
2.65742
2.6577
2.65793
2.65804
2.65808
2.65804
2.65794
2.65769
2.65737
2.65666
2.65608
2.6548
2.65386
2.65181
2.6504
2.64743
2.64531
2.64144
2.63808
2.63321
2.62863
2.62251
2.61639
2.60879
2.60087
2.5915
2.58163
2.57013
2.55788
2.54389
2.529
2.51261
2.4955
2.47706
2.45805
2.43916
1.35519
2.45586
2.67673
2.66705
2.64552
2.62248
2.61489
2.61864
2.62073
2.62318
2.6248
2.6252
2.62602
2.62641
2.62712
2.62753
2.62816
2.62844
2.62889
2.6291
2.62945
2.62959
2.6299
2.62986
2.62983
2.62973
2.62957
2.62919
2.62882
2.62798
2.62726
2.62574
2.62452
2.62198
2.61969
2.61595
2.61177
2.60605
2.59976
2.59196
2.58352
2.57378
2.56332
2.55163
2.5392
2.5254
2.51081
2.49497
2.47829
2.4618
1.35835
2.46483
2.68495
2.67675
2.65286
2.62325
2.61354
2.61426
2.61647
2.61851
2.61954
2.61966
2.61995
2.62004
2.6203
2.62056
2.62083
2.62104
2.62116
2.62121
2.62117
2.62106
2.62083
2.62049
2.62007
2.61924
2.61864
2.61738
2.61652
2.61475
2.61355
2.61128
2.60934
2.60659
2.60381
2.60039
2.5969
2.59285
2.58835
2.58301
2.57721
2.56995
2.56188
2.55211
2.54152
2.52989
2.51761
2.50451
2.49057
2.47686
1.34892
2.40394
2.66416
2.66842
2.64896
2.62244
2.61264
2.61277
2.61355
2.61449
2.61426
2.61353
2.61293
2.61204
2.61149
2.61084
2.6104
2.60974
2.60926
2.60856
2.60803
2.60728
2.60668
2.60581
2.6051
2.60407
2.60317
2.60203
2.60091
2.59956
2.59809
2.59625
2.59421
2.59176
2.5891
2.58585
2.5825
2.57834
2.57412
2.56893
2.56348
2.55718
2.55075
2.54343
2.53573
2.52694
2.51677
2.5056
2.4938
2.48233
1.74461
2.39149
2.66689
2.65819
2.64685
2.63321
2.62801
2.62822
2.62795
2.62769
2.62703
2.62587
2.62478
2.62332
2.62212
2.62076
2.61957
2.61811
2.61674
2.61514
2.61359
2.61183
2.6101
2.60813
2.60621
2.60402
2.6019
2.59958
2.59732
2.59477
2.59209
2.58934
2.58641
2.58323
2.57991
2.57619
2.57232
2.56797
2.5634
2.55831
2.55281
2.54686
2.54029
2.53334
2.5256
2.51731
2.50901
2.50005
2.49029
2.48067
1.346
2.3872
2.65493
2.66425
2.64785
2.62205
2.61341
2.61171
2.61298
2.61313
2.61278
2.61232
2.61131
2.61039
2.60947
2.60871
2.60766
2.6067
2.60554
2.6044
2.60307
2.6018
2.60051
2.59919
2.59788
2.59642
2.59481
2.59286
2.59068
2.5883
2.58587
2.58303
2.58021
2.57684
2.57345
2.56956
2.56567
2.56133
2.55679
2.55192
2.54668
2.54109
2.53504
2.52856
2.52159
2.51402
2.506
2.49744
2.48845
2.47975
1.34713
2.39806
2.66271
2.67009
2.64957
2.62053
2.60903
2.60887
2.60984
2.61063
2.6105
2.60982
2.60907
2.6081
2.60736
2.60666
2.60587
2.605
2.60398
2.60288
2.60162
2.60014
2.59845
2.59644
2.59434
2.59186
2.58942
2.58663
2.58385
2.58072
2.57757
2.5741
2.57054
2.56685
2.56294
2.55898
2.55452
2.55011
2.54515
2.54023
2.53479
2.52937
2.52343
2.51752
2.5111
2.50469
2.49762
2.49055
2.48274
2.4756
1.34656
2.3938
2.65979
2.66798
2.64686
2.61716
2.60495
2.60478
2.60561
2.60656
2.60629
2.60544
2.60464
2.6035
2.60274
2.60199
2.60127
2.60047
2.59957
2.59862
2.59754
2.59635
2.59504
2.59347
2.59186
2.58991
2.58788
2.58552
2.583
2.58017
2.57713
2.57381
2.57018
2.56636
2.56218
2.55784
2.55317
2.54819
2.5429
2.53728
2.53134
2.52517
2.51869
2.51198
2.50504
2.49788
2.49065
2.48299
2.47535
2.4678
1.34391
2.3716
2.64215
2.65962
2.64055
2.61271
2.6007
2.59911
2.59944
2.59968
2.59909
2.59828
2.59704
2.59587
2.59483
2.59385
2.59283
2.59179
2.59064
2.58946
2.5882
2.58687
2.58549
2.58403
2.58248
2.58089
2.57915
2.57733
2.57535
2.57321
2.57088
2.56836
2.56555
2.56246
2.55915
2.55532
2.55139
2.5469
2.54227
2.53713
2.53171
2.52587
2.51968
2.51305
2.50613
2.49879
2.49134
2.48358
2.47577
2.46825
1.75487
2.36709
2.63922
2.63631
2.62306
2.60882
2.60382
2.60398
2.60393
2.60377
2.60316
2.60242
2.60118
2.6
2.59887
2.59783
2.59667
2.59548
2.59414
2.59274
2.59125
2.58968
2.58799
2.58622
2.58426
2.58224
2.58004
2.57772
2.57526
2.57264
2.56987
2.56693
2.5639
2.5606
2.55727
2.55356
2.54978
2.54563
2.54125
2.53658
2.53152
2.52615
2.52048
2.51447
2.50818
2.50157
2.49455
2.4874
2.47971
2.47244
1.34619
2.382
2.64774
2.65792
2.6372
2.60668
2.59502
2.59352
2.5951
2.59625
2.59605
2.59559
2.59469
2.59352
2.59251
2.59136
2.59041
2.58898
2.58779
2.58615
2.58455
2.58268
2.58085
2.57871
2.57669
2.57436
2.57219
2.5699
2.56771
2.56536
2.56295
2.56031
2.55748
2.55438
2.55111
2.54767
2.54392
2.54004
2.53582
2.53144
2.52683
2.522
2.51694
2.5116
2.50607
2.50016
2.49397
2.4874
2.48057
2.47398
1.3498
2.40557
2.652
2.64648
2.62477
2.59384
2.5828
2.58308
2.5849
2.58707
2.58725
2.58694
2.58621
2.58538
2.58466
2.58416
2.58364
2.58299
2.58214
2.58113
2.57998
2.57879
2.5775
2.57622
2.57475
2.57314
2.57124
2.56901
2.5665
2.5638
2.56087
2.55782
2.55465
2.55129
2.54777
2.54402
2.54007
2.53594
2.53156
2.52701
2.52222
2.5172
2.51202
2.50658
2.50106
2.4953
2.48944
2.48336
2.47707
2.47098
1.77461
2.36807
2.63138
2.61249
2.60615
2.59157
2.58816
2.5892
2.58967
2.59108
2.59076
2.59047
2.59013
2.58935
2.5885
2.58777
2.58718
2.5866
2.5859
2.58508
2.58402
2.58297
2.58179
2.58069
2.57945
2.57811
2.57655
2.57477
2.57281
2.57063
2.56835
2.56576
2.56298
2.5598
2.55636
2.55253
2.54842
2.54406
2.53945
2.53465
2.52959
2.52436
2.51885
2.51302
2.50692
2.50056
2.49404
2.48731
2.48045
2.47397
1.80276
2.35018
2.61925
2.60003
2.59726
2.58836
2.58457
2.58435
2.58439
2.58487
2.58479
2.58454
2.58402
2.58283
2.58147
2.5803
2.57931
2.57834
2.57712
2.5755
2.57369
2.57187
2.57024
2.5686
2.56693
2.56501
2.56292
2.56084
2.55862
2.55664
2.55441
2.55241
2.55018
2.54796
2.5456
2.54314
2.54057
2.53781
2.53501
2.53193
2.5285
2.52464
2.52053
2.51615
2.51141
2.50644
2.50103
2.49544
2.48941
2.48353
1.76541
2.37658
2.64406
2.61424
2.60854
2.59433
2.59129
2.5934
2.59484
2.59598
2.59581
2.59542
2.59449
2.59329
2.59202
2.59071
2.58944
2.5881
2.58677
2.58506
2.58317
2.5811
2.57919
2.57736
2.57535
2.57294
2.57022
2.56723
2.56425
2.5612
2.55806
2.55469
2.55107
2.54716
2.5431
2.53887
2.53462
2.53037
2.52599
2.52153
2.51725
2.51279
2.5083
2.50364
2.49882
2.49405
2.48909
2.48421
2.47907
2.47435
1.28524
2.48885
2.64111
2.63881
2.61385
2.58042
2.5682
2.56845
2.57107
2.57346
2.57475
2.57486
2.57483
2.57465
2.57443
2.57434
2.57418
2.57398
2.57348
2.57291
2.57186
2.5707
2.56942
2.56792
2.56662
2.56489
2.56342
2.56129
2.55907
2.55654
2.55407
2.55125
2.54847
2.54532
2.54202
2.53835
2.53441
2.53039
2.52607
2.52172
2.51695
2.51216
2.50698
2.50179
2.49654
2.49113
2.48562
2.47995
2.4742
2.46864
1.77531
2.36041
2.63275
2.61282
2.60617
2.58996
2.58482
2.58569
2.58632
2.58843
2.58823
2.58789
2.58722
2.58643
2.58567
2.5851
2.58447
2.58363
2.58253
2.58135
2.58002
2.57862
2.57718
2.57562
2.57391
2.57209
2.57015
2.56806
2.56582
2.56341
2.56083
2.55799
2.55502
2.55175
2.54829
2.54471
2.54089
2.53689
2.5328
2.52849
2.52424
2.51953
2.51488
2.50963
2.50422
2.49846
2.49266
2.48663
2.48059
2.47469
1.77806
2.35795
2.63002
2.61042
2.6041
2.58811
2.58258
2.58334
2.58427
2.58623
2.58744
2.58713
2.58661
2.58569
2.58485
2.58427
2.58379
2.58311
2.58203
2.5807
2.57914
2.57756
2.57595
2.57421
2.5722
2.57001
2.56763
2.56519
2.56258
2.56004
2.55742
2.55492
2.55228
2.54961
2.54672
2.54368
2.54037
2.53692
2.53328
2.52952
2.52567
2.52163
2.51741
2.51301
2.50825
2.50345
2.49822
2.49312
2.48762
2.48256
1.28456
2.48513
2.63829
2.63578
2.60988
2.57473
2.56035
2.55974
2.56204
2.56452
2.56591
2.56593
2.56577
2.56521
2.56436
2.56369
2.56326
2.563
2.56282
2.56253
2.56196
2.56089
2.55969
2.55816
2.55671
2.55525
2.55376
2.55227
2.55051
2.54851
2.54616
2.54354
2.54082
2.53799
2.53522
2.53242
2.52958
2.52659
2.52345
2.52
2.51649
2.51269
2.50885
2.50481
2.50064
2.49633
2.49184
2.48721
2.48242
2.47777
1.77213
2.36949
2.63215
2.60228
2.59628
2.58146
2.57888
2.58111
2.58188
2.58345
2.58311
2.58297
2.58287
2.58264
2.58238
2.58178
2.58069
2.57943
2.57837
2.57746
2.57653
2.57538
2.57383
2.57193
2.56992
2.56791
2.56596
2.56402
2.56198
2.55966
2.55717
2.55434
2.55149
2.54849
2.54544
2.54233
2.53904
2.53557
2.53181
2.52776
2.52351
2.5191
2.51465
2.51017
2.50565
2.50104
2.49631
2.49142
2.48635
2.48146
1.80051
2.35625
2.61392
2.58592
2.58164
2.57164
2.57139
2.57285
2.57312
2.57296
2.57195
2.57175
2.57211
2.57269
2.5729
2.57274
2.57184
2.57028
2.56904
2.56825
2.56776
2.56721
2.566
2.56378
2.56137
2.55907
2.55719
2.55544
2.55347
2.55115
2.5484
2.54548
2.54254
2.53976
2.53718
2.53465
2.53213
2.52942
2.52662
2.52359
2.52034
2.51704
2.51349
2.50994
2.50619
2.50237
2.49835
2.49413
2.48966
2.48539
1.8064
2.35269
2.60736
2.58063
2.57744
2.56971
2.5698
2.57042
2.56976
2.56839
2.56711
2.56703
2.56792
2.56913
2.56949
2.56916
2.56766
2.56581
2.56466
2.56408
2.56377
2.56337
2.56234
2.55994
2.55697
2.55447
2.55272
2.55118
2.54938
2.5466
2.5432
2.53948
2.53591
2.53283
2.52997
2.5271
2.524
2.52032
2.51638
2.51224
2.50809
2.50432
2.50049
2.49701
2.49337
2.48957
2.48568
2.4814
2.47706
2.4728
1.78521
2.35597
2.60538
2.58994
2.58333
2.57163
2.56739
2.56673
2.56621
2.56588
2.56619
2.56732
2.56802
2.56807
2.56779
2.5667
2.56542
2.56457
2.5641
2.56379
2.56335
2.56237
2.56015
2.55772
2.55549
2.55392
2.55251
2.55082
2.5483
2.54509
2.54148
2.53805
2.535
2.53231
2.52961
2.5266
2.52293
2.51879
2.51437
2.50998
2.50596
2.50199
2.49823
2.49427
2.48996
2.48545
2.4805
2.47547
2.47048
2.46562
1.34425
2.37511
2.63251
2.63238
2.60995
2.57611
2.56186
2.55879
2.56009
2.56084
2.56073
2.56056
2.56
2.55897
2.55831
2.55746
2.55674
2.55596
2.55513
2.55441
2.55348
2.55254
2.55115
2.54974
2.54809
2.54656
2.54494
2.54328
2.54144
2.53937
2.53706
2.53454
2.53182
2.52905
2.5261
2.523
2.51982
2.51636
2.51287
2.50897
2.50497
2.50073
2.49636
2.49198
2.48742
2.48281
2.47807
2.47309
2.46807
2.4631
1.34485
2.37924
2.64619
2.6528
2.62658
2.58745
2.56888
2.5659
2.56732
2.56877
2.56941
2.56912
2.5685
2.56724
2.56622
2.56502
2.56416
2.56319
2.56231
2.56142
2.56041
2.55927
2.55788
2.55633
2.55467
2.55302
2.55137
2.54981
2.54812
2.54643
2.54441
2.54232
2.53993
2.53749
2.53493
2.53232
2.52969
2.52694
2.52408
2.52099
2.5177
2.51413
2.51039
2.50644
2.50242
2.49828
2.49403
2.48977
2.48525
2.48103
1.34412
2.37085
2.62849
2.63182
2.60896
2.57491
2.55938
2.55704
2.55831
2.55942
2.55955
2.5592
2.55848
2.55713
2.55641
2.55551
2.55497
2.55417
2.55335
2.55222
2.55104
2.54957
2.54816
2.54665
2.54527
2.54396
2.54248
2.5411
2.53926
2.53748
2.53531
2.53317
2.53089
2.52862
2.52631
2.52405
2.52164
2.51929
2.51659
2.51378
2.51068
2.50731
2.50389
2.50024
2.49661
2.493
2.48914
2.48559
2.48141
2.47787
1.78715
2.34144
2.60421
2.59571
2.58466
2.56338
2.55838
2.55911
2.56103
2.56468
2.56524
2.5652
2.56461
2.56334
2.56264
2.5624
2.56231
2.56218
2.56184
2.56073
2.55862
2.55642
2.55474
2.55352
2.55254
2.55093
2.54852
2.54551
2.54227
2.53939
2.53686
2.53476
2.53263
2.53036
2.52756
2.52445
2.52093
2.51745
2.51396
2.51075
2.50768
2.50476
2.50164
2.49847
2.49484
2.49114
2.48701
2.48286
2.4786
2.47456
1.80837
2.33265
2.60615
2.58144
2.57826
2.56584
2.56137
2.56194
2.56295
2.56585
2.56707
2.56747
2.56737
2.56638
2.56493
2.56417
2.56387
2.56373
2.56353
2.56298
2.56131
2.5586
2.55612
2.55427
2.55308
2.55205
2.55006
2.54695
2.54327
2.53981
2.53692
2.53451
2.53223
2.52942
2.52614
2.52217
2.51796
2.51394
2.5101
2.50672
2.50341
2.49998
2.49634
2.49224
2.48778
2.48328
2.47849
2.47408
2.46952
2.4654
1.79131
2.35077
2.61898
2.58768
2.58203
2.56802
2.56561
2.56745
2.56917
2.57137
2.57249
2.57249
2.57242
2.57201
2.57123
2.57043
2.56979
2.56914
2.56866
2.56807
2.56681
2.56501
2.56261
2.56056
2.55868
2.55734
2.55573
2.55374
2.55102
2.54781
2.54459
2.54142
2.53878
2.53615
2.53355
2.53062
2.52722
2.52351
2.51964
2.51571
2.51206
2.50841
2.50484
2.50122
2.49717
2.49311
2.48854
2.48404
2.47942
2.47505
2.17338
2.33949
2.77783
2.86807
2.95267
2.89274
2.88881
2.88797
2.88027
2.87921
2.88238
2.88389
2.8857
2.88647
2.88798
2.88955
2.89077
2.89231
2.89326
2.89381
2.89384
2.89351
2.89262
2.89159
2.88874
2.88565
2.88135
2.87776
2.87255
2.86723
2.86151
2.8557
2.84898
2.84269
2.83573
2.82918
2.82145
2.81358
2.80492
2.79666
2.78812
2.77974
2.77087
2.76238
2.75381
2.74531
2.73673
2.72885
2.72022
2.71265
2.7045
2.69702
2.68917
2.68189
2.6745
2.66757
2.66068
2.65441
2.64804
2.64244
2.63689
2.63209
2.62745
2.62359
2.62007
2.61726
2.61499
2.61322
2.61219
2.61146
2.6112
2.61121
2.61163
2.61265
2.61472
2.61657
2.61874
2.62084
2.62293
2.62505
2.6269
2.62882
2.63024
2.63159
2.6328
2.63357
2.6342
2.63467
2.63476
2.63474
2.63437
2.63337
2.63265
2.63092
2.62979
2.62732
2.62573
2.62296
2.62127
2.61634
2.18158
2.25879
2.45058
2.63578
2.70427
2.76127
2.80152
2.83496
2.854
2.86928
2.87983
2.88932
2.89708
2.89674
2.89266
2.8866
2.87623
2.86406
2.84958
2.83525
2.82022
2.80712
2.79376
2.78197
2.77018
2.75924
2.74788
2.73714
2.72588
2.7149
2.70316
2.69218
2.68122
2.67052
2.65986
2.65032
2.64127
2.63183
2.62188
2.6115
2.60116
2.5905
2.58032
2.57012
2.56071
2.55156
2.54288
2.53503
2.52698
2.52004
2.513
2.50676
2.50071
2.49546
2.49031
2.48577
2.48163
2.47774
2.47417
2.47101
2.46826
2.46534
2.46343
2.46097
2.45941
2.45733
2.45641
2.45478
2.45436
2.45347
2.45341
2.45322
2.45339
2.4539
2.45472
2.45594
2.45692
2.45812
2.45905
2.46022
2.46113
2.46197
2.46277
2.46281
2.46258
2.46203
2.46112
2.45914
2.45789
2.45619
2.45372
2.45139
2.44905
2.44696
2.4448
2.44337
2.44167
2.44124
2.44032
2.43978
2.2302
2.21124
2.27228
2.35793
2.41643
2.4636
2.49787
2.52762
2.55057
2.56845
2.58171
2.59234
2.59987
2.60275
2.60193
2.59993
2.59546
2.59008
2.58387
2.57708
2.56991
2.56223
2.55442
2.54638
2.53812
2.52975
2.52113
2.51237
2.50352
2.49469
2.48528
2.47618
2.46677
2.45754
2.44774
2.43906
2.42991
2.4203
2.41004
2.40024
2.39139
2.38251
2.37456
2.36636
2.35884
2.3516
2.34427
2.33786
2.33085
2.32477
2.31838
2.31248
2.30673
2.30126
2.2961
2.29127
2.2867
2.28265
2.27879
2.27562
2.2726
2.27048
2.26871
2.26746
2.26741
2.26775
2.2686
2.27047
2.27284
2.27601
2.27931
2.28262
2.28674
2.29123
2.29637
2.30168
2.30686
2.31222
2.31725
2.32171
2.32609
2.32978
2.33245
2.3349
2.33682
2.33748
2.33745
2.33718
2.33644
2.33475
2.33304
2.3294
2.32688
2.32247
2.31983
2.31532
2.31285
2.30841
2.30653
2.30052
2.26131
2.22116
2.21367
2.23919
2.27113
2.29447
2.31012
2.32217
2.33281
2.34227
2.34985
2.35616
2.36078
2.36463
2.36619
2.36655
2.36662
2.36662
2.36657
2.36637
2.366
2.3651
2.36436
2.36316
2.36113
2.35919
2.35634
2.35345
2.34979
2.34613
2.34182
2.33774
2.33292
2.32849
2.32373
2.3197
2.31513
2.31062
2.30533
2.30036
2.29524
2.29042
2.28532
2.28035
2.2753
2.27009
2.26502
2.25971
2.25444
2.24923
2.24386
2.23867
2.23358
2.2283
2.22354
2.21852
2.21388
2.20938
2.20496
2.20091
2.19687
2.19334
2.18974
2.1869
2.18404
2.18201
2.18038
2.17925
2.17923
2.17941
2.18012
2.18078
2.18227
2.18436
2.18711
2.19011
2.19333
2.19663
2.19996
2.20312
2.20628
2.20921
2.21214
2.21478
2.21757
2.22019
2.22254
2.22522
2.22778
2.23013
2.23234
2.2343
2.23593
2.23735
2.23869
2.23981
2.2407
2.24119
2.24232
2.24131
2.27306
2.24417
2.21923
2.21184
2.21858
2.22334
2.22551
2.226
2.22684
2.22853
2.23123
2.23348
2.23543
2.23742
2.24023
2.24271
2.2451
2.24783
2.25067
2.25389
2.25676
2.26012
2.26243
2.26524
2.26678
2.26866
2.2691
2.26998
2.2697
2.26913
2.26799
2.26656
2.26447
2.26213
2.25949
2.2568
2.25369
2.2498
2.24517
2.24025
2.23504
2.22968
2.22396
2.21817
2.21215
2.2061
2.20013
2.19403
2.18812
2.18223
2.17637
2.17101
2.16547
2.16076
2.15586
2.15173
2.1475
2.14393
2.14035
2.13738
2.13462
2.13235
2.13052
2.12905
2.12816
2.12749
2.12751
2.12777
2.12857
2.1294
2.13074
2.13192
2.13333
2.13564
2.13813
2.14079
2.14365
2.14646
2.14922
2.15182
2.15435
2.15644
2.15851
2.16016
2.16169
2.16292
2.16413
2.16519
2.16631
2.16748
2.16864
2.16957
2.17055
2.17144
2.17261
2.17332
2.17464
2.17543
2.17749
2.17747
2.29703
2.25438
2.23225
2.21216
2.20218
2.19554
2.19007
2.184
2.17915
2.17515
2.17321
2.17262
2.17312
2.17346
2.17468
2.1769
2.17985
2.18284
2.18623
2.18955
2.19348
2.19703
2.20078
2.20397
2.20705
2.20925
2.21138
2.21256
2.21346
2.21362
2.21352
2.21269
2.21136
2.2097
2.20783
2.20605
2.2038
2.20102
2.19751
2.19376
2.1898
2.1856
2.18119
2.17667
2.17175
2.16711
2.16188
2.15702
2.15164
2.14646
2.14097
2.13565
2.13017
2.12494
2.11974
2.11474
2.11
2.10535
2.10122
2.09713
2.09372
2.09043
2.08788
2.08558
2.08395
2.08277
2.08209
2.08218
2.08256
2.08335
2.08457
2.08564
2.08733
2.08961
2.09217
2.09491
2.09785
2.10079
2.10371
2.10647
2.10901
2.11132
2.11314
2.11511
2.1161
2.11751
2.11817
2.11851
2.11911
2.1194
2.11975
2.11979
2.11984
2.11985
2.11998
2.12017
2.12064
2.12124
2.1225
2.12342
2.3231
2.28052
2.24683
2.22241
2.2033
2.18863
2.17646
2.16631
2.15704
2.14966
2.14387
2.14033
2.13822
2.13783
2.13788
2.13845
2.1403
2.14326
2.14647
2.15005
2.1536
2.15748
2.16103
2.16477
2.16795
2.17103
2.17356
2.17548
2.17695
2.17778
2.17804
2.17796
2.17734
2.17633
2.17516
2.17408
2.1725
2.1705
2.16765
2.16481
2.16133
2.15796
2.15417
2.15027
2.14634
2.14214
2.13794
2.13358
2.12905
2.12445
2.11968
2.11481
2.10988
2.10491
2.09997
2.0951
2.09031
2.08567
2.0813
2.07698
2.07326
2.06957
2.06656
2.06388
2.0616
2.06016
2.05884
2.05853
2.05869
2.05907
2.06001
2.06077
2.06248
2.06464
2.06722
2.06993
2.07307
2.07611
2.07939
2.08248
2.08527
2.08822
2.09017
2.09262
2.09387
2.09556