/*--------------------------------*- C++ -*----------------------------------*\
| =========                 |                                                 |
| \\      /  F ield         | OpenFOAM: The Open Source CFD Toolbox           |
|  \\    /   O peration     | Version:  2412                                  |
|   \\  /    A nd           | Website:  www.openfoam.com                      |
|    \\/     M anipulation  |                                                 |
\*---------------------------------------------------------------------------*/
FoamFile
{
    version     2.0;
    format      ascii;
    arch        "LSB;label=32;scalar=64";
    class       volVectorField;
    location    "12.5";
    object      U;
}
// * * * * * * * * * * * * * * * * * * * * * * * * * * * * * * * * * * * * * //

dimensions      [0 1 -1 0 0 0 0];

internalField   nonuniform List<vector> 
7000
(
(2.60343 -7.6821e-05 0)
(1.65103 0.000178102 0)
(0.516548 0.000176125 0)
(0.552646 0.00032067 0)
(0.654271 0.000421041 0)
(0.720645 0.000501429 0)
(0.733926 0.000571885 0)
(0.72686 0.000644136 0)
(0.716301 0.0007236 0)
(0.708079 0.000814009 0)
(0.70325 0.000911336 0)
(0.699433 0.00101209 0)
(0.69514 0.00111586 0)
(0.690093 0.001224 0)
(0.684455 0.00133792 0)
(0.678359 0.00145846 0)
(0.671824 0.00158608 0)
(0.664814 0.0017213 0)
(0.657289 0.00186478 0)
(0.64922 0.00201709 0)
(0.640581 0.00217852 0)
(0.631349 0.00234924 0)
(0.621498 0.00252977 0)
(0.611001 0.00272116 0)
(0.599828 0.00292466 0)
(0.587946 0.00314088 0)
(0.575327 0.00336953 0)
(0.561943 0.00361013 0)
(0.547763 0.00386253 0)
(0.532748 0.00412791 0)
(0.516866 0.00440848 0)
(0.500072 0.00470707 0)
(0.482327 0.00502594 0)
(0.463589 0.00536649 0)
(0.443819 0.00572943 0)
(0.42299 0.00611494 0)
(0.401047 0.00652295 0)
(0.377965 0.00695279 0)
(0.353746 0.00740301 0)
(0.328363 0.00787158 0)
(0.301817 0.00835553 0)
(0.274087 0.00885071 0)
(0.245238 0.00935132 0)
(0.215388 0.00984976 0)
(0.184472 0.0103404 0)
(0.152599 0.0108199 0)
(0.120058 0.0112866 0)
(0.0869984 0.0117438 0)
(0.0517538 0.0123742 0)
(0.0230449 0.0132845 0)
(2.60356 -5.38521e-05 0)
(1.65118 0.000334216 0)
(0.5162 0.000746607 0)
(0.55235 0.00106213 0)
(0.653997 0.00130651 0)
(0.720381 0.00153441 0)
(0.733657 0.00174955 0)
(0.726588 0.00197055 0)
(0.716033 0.00221114 0)
(0.707816 0.00248023 0)
(0.70299 0.00276827 0)
(0.699174 0.00306655 0)
(0.694884 0.00337407 0)
(0.689841 0.00369421 0)
(0.684209 0.00403067 0)
(0.678119 0.00438572 0)
(0.671591 0.00476063 0)
(0.664589 0.00515628 0)
(0.657074 0.00557362 0)
(0.649016 0.00601368 0)
(0.64039 0.00647745 0)
(0.631174 0.00696607 0)
(0.62134 0.00748055 0)
(0.610863 0.00802192 0)
(0.599713 0.00859173 0)
(0.587859 0.00919143 0)
(0.575273 0.00982284 0)
(0.561923 0.0104882 0)
(0.547774 0.0111895 0)
(0.532786 0.0119291 0)
(0.516925 0.0127084 0)
(0.500145 0.0135292 0)
(0.482408 0.0143919 0)
(0.463675 0.0152962 0)
(0.443904 0.0162414 0)
(0.423068 0.0172255 0)
(0.401109 0.0182453 0)
(0.378003 0.0192949 0)
(0.353752 0.0203657 0)
(0.328326 0.0214471 0)
(0.301728 0.0225251 0)
(0.273935 0.023583 0)
(0.24501 0.0245992 0)
(0.215068 0.0255495 0)
(0.184042 0.0264143 0)
(0.152037 0.0271788 0)
(0.119333 0.0278348 0)
(0.0861201 0.0283836 0)
(0.0507002 0.0290952 0)
(0.0220778 0.0299661 0)
(2.60368 4.4374e-05 0)
(1.65146 0.000358507 0)
(0.516396 0.00148446 0)
(0.552411 0.0018597 0)
(0.654043 0.00219406 0)
(0.720421 0.00256794 0)
(0.733693 0.00294827 0)
(0.726632 0.0033372 0)
(0.716096 0.00375277 0)
(0.707898 0.0042085 0)
(0.703084 0.00469392 0)
(0.699277 0.00519825 0)
(0.694995 0.00572023 0)
(0.689962 0.00626473 0)
(0.684343 0.00683724 0)
(0.678267 0.0074415 0)
(0.671753 0.00807975 0)
(0.664766 0.00875391 0)
(0.657267 0.00946558 0)
(0.649226 0.0102168 0)
(0.640617 0.0110094 0)
(0.631418 0.0118454 0)
(0.621601 0.0127267 0)
(0.611142 0.0136549 0)
(0.600008 0.0146325 0)
(0.588169 0.0156624 0)
(0.575596 0.0167481 0)
(0.56226 0.017893 0)
(0.548128 0.0191007 0)
(0.533163 0.0203745 0)
(0.51733 0.0217177 0)
(0.500583 0.0231327 0)
(0.482882 0.0246213 0)
(0.464184 0.0261845 0)
(0.444446 0.0278221 0)
(0.423641 0.0295319 0)
(0.401708 0.0313092 0)
(0.378622 0.0331444 0)
(0.354381 0.0350233 0)
(0.328954 0.0369285 0)
(0.302336 0.038837 0)
(0.274503 0.0407209 0)
(0.245512 0.0425439 0)
(0.215477 0.0442666 0)
(0.184331 0.0458554 0)
(0.152175 0.0472789 0)
(0.119288 0.0485188 0)
(0.0859215 0.0495666 0)
(0.0503524 0.0506945 0)
(0.0216097 0.0518658 0)
(2.60384 4.91567e-05 0)
(1.65187 0.000486743 0)
(0.516815 0.00217836 0)
(0.552556 0.00264066 0)
(0.654181 0.00307925 0)
(0.720572 0.0036124 0)
(0.733845 0.00417448 0)
(0.726795 0.00474521 0)
(0.716284 0.00534558 0)
(0.708113 0.00599425 0)
(0.70332 0.00668211 0)
(0.699528 0.00739813 0)
(0.695263 0.00814117 0)
(0.69025 0.00891698 0)
(0.684652 0.00973241 0)
(0.678599 0.0105924 0)
(0.67211 0.0115004 0)
(0.665149 0.0124592 0)
(0.657679 0.0134715 0)
(0.649668 0.0145399 0)
(0.641092 0.0156671 0)
(0.631928 0.0168553 0)
(0.62215 0.0181074 0)
(0.611731 0.0194264 0)
(0.60064 0.0208159 0)
(0.588848 0.0222801 0)
(0.576324 0.0238239 0)
(0.563037 0.0254509 0)
(0.548956 0.0271663 0)
(0.534041 0.0289755 0)
(0.518258 0.030884 0)
(0.50156 0.0328965 0)
(0.483907 0.0350167 0)
(0.465256 0.0372468 0)
(0.445564 0.0395861 0)
(0.424801 0.0420309 0)
(0.402904 0.0445749 0)
(0.379846 0.0472046 0)
(0.355622 0.0499009 0)
(0.330196 0.0526401 0)
(0.303561 0.0553909 0)
(0.275686 0.0581149 0)
(0.246625 0.0607611 0)
(0.216487 0.0632748 0)
(0.185205 0.0656092 0)
(0.15288 0.0677125 0)
(0.119782 0.0695519 0)
(0.0862261 0.0711029 0)
(0.050453 0.0726072 0)
(0.0214394 0.0739927 0)
(2.60406 6.11124e-05 0)
(1.65246 0.000649964 0)
(0.517349 0.00286865 0)
(0.552691 0.0034486 0)
(0.654324 0.00400938 0)
(0.720746 0.00470378 0)
(0.734025 0.0054498 0)
(0.726988 0.0062061 0)
(0.716508 0.00699731 0)
(0.708375 0.00784399 0)
(0.703612 0.00873896 0)
(0.699845 0.00967216 0)
(0.695605 0.0106429 0)
(0.69062 0.0116576 0)
(0.685054 0.0127241 0)
(0.679036 0.0138488 0)
(0.672584 0.0150362 0)
(0.665662 0.0162899 0)
(0.658234 0.0176136 0)
(0.650268 0.0190108 0)
(0.64174 0.0204852 0)
(0.632627 0.02204 0)
(0.622901 0.0236787 0)
(0.612538 0.025405 0)
(0.601507 0.0272235 0)
(0.589777 0.0291397 0)
(0.577318 0.0311599 0)
(0.5641 0.0332903 0)
(0.55009 0.0355373 0)
(0.535251 0.0379081 0)
(0.519546 0.0404091 0)
(0.50293 0.0430469 0)
(0.485359 0.0458258 0)
(0.46679 0.0487481 0)
(0.447177 0.0518142 0)
(0.426486 0.05502 0)
(0.404654 0.0583588 0)
(0.381649 0.061814 0)
(0.35746 0.065361 0)
(0.332049 0.0689698 0)
(0.305402 0.0726001 0)
(0.277485 0.0762021 0)
(0.248341 0.0797081 0)
(0.218077 0.083045 0)
(0.186627 0.086148 0)
(0.15409 0.0889427 0)
(0.120727 0.0913726 0)
(0.0869206 0.0933905 0)
(0.050853 0.0952004 0)
(0.0214431 0.0967222 0)
(2.60437 7.1938e-05 0)
(1.65324 0.000812904 0)
(0.518023 0.00354707 0)
(0.552835 0.00426371 0)
(0.654481 0.00495946 0)
(0.72095 0.00581749 0)
(0.734247 0.00675037 0)
(0.727229 0.00769721 0)
(0.716788 0.00868772 0)
(0.7087 0.00974017 0)
(0.703975 0.0108493 0)
(0.700243 0.012007 0)
(0.696036 0.0132133 0)
(0.69109 0.0144752 0)
(0.685566 0.0158015 0)
(0.679593 0.0171996 0)
(0.673189 0.018675 0)
(0.66632 0.0202329 0)
(0.658947 0.0218778 0)
(0.651041 0.0236143 0)
(0.642578 0.0254469 0)
(0.633534 0.0273795 0)
(0.623882 0.0294163 0)
(0.613599 0.031562 0)
(0.602651 0.0338229 0)
(0.591009 0.0362059 0)
(0.578644 0.0387184 0)
(0.565523 0.0413682 0)
(0.551615 0.0441624 0)
(0.53688 0.0471103 0)
(0.521283 0.0502211 0)
(0.504776 0.053505 0)
(0.487313 0.0569686 0)
(0.468851 0.0606145 0)
(0.449341 0.0644429 0)
(0.428748 0.0684487 0)
(0.407006 0.0726244 0)
(0.384075 0.0769504 0)
(0.359941 0.0813974 0)
(0.334559 0.0859292 0)
(0.30791 0.0904971 0)
(0.279951 0.0950404 0)
(0.250713 0.0994738 0)
(0.2203 0.103704 0)
(0.188643 0.107646 0)
(0.155837 0.111193 0)
(0.122135 0.114265 0)
(0.0879726 0.116777 0)
(0.0514918 0.118889 0)
(0.021579 0.120523 0)
(2.60475 8.26766e-05 0)
(1.65423 0.000974698 0)
(0.518839 0.00422052 0)
(0.552989 0.00509046 0)
(0.654649 0.00593553 0)
(0.721182 0.00696283 0)
(0.734507 0.00808627 0)
(0.727516 0.00922833 0)
(0.717126 0.0104251 0)
(0.709092 0.0116902 0)
(0.704416 0.01302 0)
(0.700728 0.0144087 0)
(0.696566 0.0158575 0)
(0.691668 0.0173741 0)
(0.686197 0.0189677 0)
(0.680282 0.020647 0)
(0.673939 0.0224189 0)
(0.667134 0.0242898 0)
(0.659832 0.026265 0)
(0.652002 0.0283502 0)
(0.64362 0.0305506 0)
(0.634663 0.0328716 0)
(0.625104 0.0353187 0)
(0.614919 0.0378973 0)
(0.604076 0.0406142 0)
(0.592546 0.0434775 0)
(0.580299 0.0464965 0)
(0.567302 0.0496816 0)
(0.553524 0.0530429 0)
(0.538924 0.0565911 0)
(0.523467 0.0603364 0)
(0.507104 0.064291 0)
(0.489788 0.0684643 0)
(0.471472 0.0728621 0)
(0.452106 0.0774854 0)
(0.431649 0.0823293 0)
(0.410031 0.0873853 0)
(0.387205 0.0926312 0)
(0.363151 0.0980328 0)
(0.337817 0.103547 0)
(0.311177 0.109116 0)
(0.283176 0.114669 0)
(0.253833 0.120105 0)
(0.223242 0.125311 0)
(0.191335 0.130177 0)
(0.158196 0.134563 0)
(0.124066 0.138344 0)
(0.0894371 0.141407 0)
(0.052386 0.143865 0)
(0.0218223 0.145645 0)
(2.60523 9.24029e-05 0)
(1.65544 0.00113592 0)
(0.519799 0.00488706 0)
(0.553146 0.00592772 0)
(0.654821 0.00693366 0)
(0.721437 0.00813277 0)
(0.734807 0.00944839 0)
(0.727857 0.0107886 0)
(0.717529 0.0121966 0)
(0.709561 0.0136809 0)
(0.704944 0.0152384 0)
(0.70131 0.0168653 0)
(0.697205 0.0185641 0)
(0.692367 0.020343 0)
(0.686961 0.0222122 0)
(0.681114 0.024181 0)
(0.674846 0.0262578 0)
(0.668122 0.0284501 0)
(0.660906 0.0307648 0)
(0.653169 0.0332085 0)
(0.644887 0.0357876 0)
(0.636037 0.0385083 0)
(0.626593 0.0413771 0)
(0.616529 0.0444006 0)
(0.605816 0.0475866 0)
(0.594425 0.0509443 0)
(0.582324 0.0544849 0)
(0.569481 0.0582211 0)
(0.555865 0.0621662 0)
(0.541435 0.0663335 0)
(0.526156 0.0707354 0)
(0.509977 0.0753854 0)
(0.492847 0.080295 0)
(0.474719 0.085472 0)
(0.455537 0.0909207 0)
(0.435259 0.0966383 0)
(0.413807 0.102618 0)
(0.391126 0.108838 0)
(0.367185 0.115258 0)
(0.341925 0.121829 0)
(0.31531 0.128482 0)
(0.287273 0.135134 0)
(0.257814 0.141669 0)
(0.227018 0.147949 0)
(0.194811 0.15384 0)
(0.161261 0.159166 0)
(0.126592 0.163759 0)
(0.0913537 0.167455 0)
(0.0535774 0.170314 0)
(0.0222056 0.172263 0)
(2.6058 9.59944e-05 0)
(1.65688 0.00130704 0)
(0.520891 0.00554429 0)
(0.5533 0.00677983 0)
(0.654994 0.00795062 0)
(0.721718 0.00932083 0)
(0.735154 0.0108303 0)
(0.72826 0.0123724 0)
(0.718009 0.0139972 0)
(0.710116 0.0157082 0)
(0.705569 0.0175013 0)
(0.702002 0.0193742 0)
(0.697964 0.0213306 0)
(0.693199 0.0233796 0)
(0.68787 0.025532 0)
(0.682107 0.0277981 0)
(0.675927 0.0301875 0)
(0.669298 0.0327092 0)
(0.662184 0.0353714 0)
(0.654558 0.0381822 0)
(0.646396 0.0411492 0)
(0.637675 0.0442793 0)
(0.628368 0.0475801 0)
(0.61845 0.0510593 0)
(0.607894 0.0547266 0)
(0.596668 0.0585927 0)
(0.584742 0.0626701 0)
(0.572085 0.0669729 0)
(0.558663 0.0715168 0)
(0.544438 0.076319 0)
(0.529373 0.0813962 0)
(0.513418 0.0867658 0)
(0.496517 0.0924418 0)
(0.47862 0.098434 0)
(0.459667 0.104748 0)
(0.439615 0.111381 0)
(0.418379 0.118331 0)
(0.395893 0.125575 0)
(0.372115 0.133076 0)
(0.346973 0.140781 0)
(0.320417 0.148613 0)
(0.292364 0.156473 0)
(0.26279 0.164226 0)
(0.231766 0.17171 0)
(0.199208 0.178761 0)
(0.165165 0.185158 0)
(0.129841 0.190681 0)
(0.0938306 0.195119 0)
(0.0551008 0.198468 0)
(0.0227076 0.200647 0)
(2.60647 8.60072e-05 0)
(1.65859 0.00150169 0)
(0.5221 0.0061941 0)
(0.553458 0.00764773 0)
(0.655174 0.00897576 0)
(0.722034 0.0105146 0)
(0.735558 0.0122208 0)
(0.728733 0.0139697 0)
(0.718574 0.0158174 0)
(0.710769 0.0177627 0)
(0.706304 0.0197995 0)
(0.702815 0.021926 0)
(0.698858 0.0241476 0)
(0.694179 0.0264743 0)
(0.688942 0.0289175 0)
(0.683277 0.0314886 0)
(0.677201 0.0341982 0)
(0.670684 0.037057 0)
(0.66369 0.0400745 0)
(0.656194 0.0432603 0)
(0.648172 0.0466234 0)
(0.639602 0.0501721 0)
(0.630458 0.0539152 0)
(0.620714 0.0578616 0)
(0.610342 0.0620224 0)
(0.599312 0.0664095 0)
(0.587595 0.0710371 0)
(0.575157 0.0759214 0)
(0.561965 0.0810809 0)
(0.547981 0.0865362 0)
(0.533168 0.0923077 0)
(0.517476 0.0984181 0)
(0.500849 0.104886 0)
(0.483233 0.111726 0)
(0.464564 0.118947 0)
(0.44479 0.126546 0)
(0.423826 0.134521 0)
(0.401592 0.142852 0)
(0.378035 0.151503 0)
(0.353067 0.160422 0)
(0.326619 0.169531 0)
(0.298587 0.178721 0)
(0.268917 0.187834 0)
(0.237656 0.19668 0)
(0.2047 0.205063 0)
(0.170069 0.212713 0)
(0.133939 0.219349 0)
(0.0969644 0.224685 0)
(0.0570638 0.228639 0)
(0.0234104 0.23111 0)
(2.60728 6.5575e-05 0)
(1.66055 0.00171269 0)
(0.523423 0.0068793 0)
(0.553635 0.00850853 0)
(0.655371 0.00998499 0)
(0.722396 0.0116979 0)
(0.736026 0.0136091 0)
(0.729284 0.0155711 0)
(0.719233 0.017648 0)
(0.711531 0.0198355 0)
(0.70716 0.0221239 0)
(0.703763 0.0245118 0)
(0.699903 0.0270061 0)
(0.695324 0.0296179 0)
(0.690194 0.0323593 0)
(0.684642 0.0352425 0)
(0.678687 0.0382795 0)
(0.672298 0.0414822 0)
(0.665444 0.0448619 0)
(0.658099 0.0484297 0)
(0.65024 0.0521962 0)
(0.641846 0.0561711 0)
(0.632891 0.060365 0)
(0.62335 0.0647882 0)
(0.613195 0.0694529 0)
(0.602397 0.0743725 0)
(0.590925 0.0795632 0)
(0.578747 0.0850438 0)
(0.565829 0.0908352 0)
(0.552129 0.0969621 0)
(0.537614 0.103448 0)
(0.522233 0.110321 0)
(0.505932 0.117604 0)
(0.488653 0.125318 0)
(0.470327 0.133479 0)
(0.450898 0.142089 0)
(0.430272 0.15115 0)
(0.408358 0.160643 0)
(0.385089 0.170531 0)
(0.36036 0.180765 0)
(0.334081 0.191265 0)
(0.306121 0.20192 0)
(0.276388 0.21256 0)
(0.244894 0.222964 0)
(0.211509 0.232902 0)
(0.17621 0.242036 0)
(0.139131 0.250016 0)
(0.100954 0.25647 0)
(0.0595447 0.261212 0)
(0.0242989 0.264073 0)
(2.60823 5.48349e-05 0)
(1.66281 0.00191244 0)
(0.524907 0.00761085 0)
(0.553813 0.00933874 0)
(0.655598 0.010965 0)
(0.722818 0.0128604 0)
(0.73657 0.0149827 0)
(0.729922 0.0171629 0)
(0.719997 0.019476 0)
(0.712412 0.0219135 0)
(0.708149 0.0244617 0)
(0.70486 0.0271193 0)
(0.701111 0.0298945 0)
(0.69665 0.0327992 0)
(0.691643 0.0358463 0)
(0.686221 0.0390487 0)
(0.680405 0.0424195 0)
(0.674164 0.0459723 0)
(0.667469 0.04972 0)
(0.660296 0.0536755 0)
(0.652624 0.057851 0)
(0.644431 0.0622583 0)
(0.635695 0.0669095 0)
(0.626389 0.0718166 0)
(0.616486 0.0769936 0)
(0.605957 0.0824556 0)
(0.594773 0.0882208 0)
(0.5829 0.0943106 0)
(0.570305 0.100749 0)
(0.556945 0.107564 0)
(0.542784 0.114783 0)
(0.527775 0.122439 0)
(0.51186 0.130561 0)
(0.494983 0.139177 0)
(0.477072 0.14831 0)
(0.458061 0.157972 0)
(0.437854 0.168171 0)
(0.416345 0.178897 0)
(0.393452 0.190116 0)
(0.369049 0.201783 0)
(0.343019 0.213817 0)
(0.315204 0.226108 0)
(0.285463 0.238475 0)
(0.253767 0.250675 0)
(0.219933 0.262445 0)
(0.183872 0.273385 0)
(0.145665 0.283042 0)
(0.106028 0.290921 0)
(0.0627609 0.296696 0)
(0.0255118 0.30008 0)
(2.60931 5.61857e-05 0)
(1.66541 0.00209212 0)
(0.526556 0.00832647 0)
(0.553968 0.0101553 0)
(0.655852 0.0119265 0)
(0.723299 0.0140009 0)
(0.737195 0.0163351 0)
(0.73066 0.0187361 0)
(0.720883 0.021292 0)
(0.713435 0.0239862 0)
(0.709297 0.0268007 0)
(0.706131 0.0297345 0)
(0.70251 0.0327974 0)
(0.698183 0.0360023 0)
(0.693318 0.039362 0)
(0.688043 0.0428904 0)
(0.682382 0.0466015 0)
(0.676309 0.0505101 0)
(0.669793 0.0546311 0)
(0.662814 0.0589791 0)
(0.655352 0.0635684 0)
(0.647388 0.0684125 0)
(0.638899 0.0735257 0)
(0.629861 0.0789218 0)
(0.620247 0.0846169 0)
(0.610029 0.0906283 0)
(0.599178 0.0969763 0)
(0.58766 0.103685 0)
(0.575441 0.110781 0)
(0.562481 0.118298 0)
(0.548741 0.126267 0)
(0.534173 0.134725 0)
(0.51872 0.14371 0)
(0.502325 0.153255 0)
(0.484911 0.163395 0)
(0.46641 0.17415 0)
(0.446718 0.18554 0)
(0.425718 0.197568 0)
(0.403309 0.210211 0)
(0.37935 0.223432 0)
(0.353688 0.23716 0)
(0.326128 0.251289 0)
(0.296473 0.265635 0)
(0.264634 0.279934 0)
(0.230376 0.29388 0)
(0.193511 0.307026 0)
(0.154011 0.318806 0)
(0.112574 0.328564 0)
(0.0669158 0.335771 0)
(0.0270773 0.339906 0)
(2.61053 5.8402e-05 0)
(1.66834 0.00225984 0)
(0.52838 0.00900275 0)
(0.554107 0.0109579 0)
(0.65612 0.0128558 0)
(0.723848 0.0150945 0)
(0.737928 0.0176386 0)
(0.73154 0.0202623 0)
(0.721946 0.0230694 0)
(0.714659 0.02603 0)
(0.710665 0.0291209 0)
(0.707641 0.0323411 0)
(0.704164 0.0357015 0)
(0.699986 0.0392151 0)
(0.695275 0.0428952 0)
(0.690161 0.0467559 0)
(0.68467 0.0508123 0)
(0.678778 0.0550809 0)
(0.672458 0.0595782 0)
(0.665692 0.0643207 0)
(0.658463 0.0693253 0)
(0.650753 0.0746074 0)
(0.64254 0.0801839 0)
(0.633803 0.0860708 0)
(0.624515 0.0922864 0)
(0.61465 0.0988507 0)
(0.604178 0.105786 0)
(0.593067 0.11312 0)
(0.581285 0.120883 0)
(0.568789 0.129111 0)
(0.555541 0.137842 0)
(0.541494 0.147119 0)
(0.526589 0.156986 0)
(0.510769 0.167486 0)
(0.493955 0.178665 0)
(0.476072 0.190555 0)
(0.457015 0.20319 0)
(0.436654 0.216591 0)
(0.414871 0.230751 0)
(0.391506 0.245651 0)
(0.366376 0.26124 0)
(0.339243 0.277429 0)
(0.309836 0.294043 0)
(0.277982 0.310812 0)
(0.243364 0.327403 0)
(0.205669 0.343317 0)
(0.164716 0.357849 0)
(0.121137 0.370144 0)
(0.0725 0.379368 0)
(0.0292793 0.384616 0)
(2.61188 5.68317e-05 0)
(1.67162 0.00242459 0)
(0.530392 0.00966006 0)
(0.554233 0.0117265 0)
(0.656404 0.0137275 0)
(0.72447 0.0161152 0)
(0.738779 0.0188671 0)
(0.732569 0.0217181 0)
(0.723193 0.0247865 0)
(0.716088 0.0280245 0)
(0.712255 0.0314026 0)
(0.709388 0.0349201 0)
(0.706074 0.0385887 0)
(0.702065 0.0424216 0)
(0.697527 0.0464316 0)
(0.692593 0.0506328 0)
(0.687292 0.0550411 0)
(0.681602 0.0596742 0)
(0.675499 0.0645506 0)
(0.668968 0.069689 0)
(0.661995 0.0751085 0)
(0.654564 0.0808275 0)
(0.646658 0.0868651 0)
(0.638255 0.0932405 0)
(0.629331 0.0999742 0)
(0.619861 0.10709 0)
(0.609818 0.114611 0)
(0.599169 0.122571 0)
(0.587883 0.131002 0)
(0.575921 0.139945 0)
(0.563242 0.149443 0)
(0.549801 0.159547 0)
(0.535541 0.170311 0)
(0.520404 0.181785 0)
(0.504308 0.194028 0)
(0.487176 0.20709 0)
(0.4689 0.22102 0)
(0.449342 0.23586 0)
(0.428366 0.25163 0)
(0.405792 0.26834 0)
(0.381413 0.285965 0)
(0.354944 0.304459 0)
(0.326038 0.323669 0)
(0.294414 0.343344 0)
(0.259646 0.363154 0)
(0.221232 0.382562 0)
(0.178732 0.400734 0)
(0.1326 0.416593 0)
(0.0801026 0.428835 0)
(0.0323214 0.435872 0)
(2.61339 5.85336e-05 0)
(1.67526 0.00257522 0)
(0.532596 0.0103071 0)
(0.554363 0.0124332 0)
(0.656752 0.0144933 0)
(0.725251 0.017015 0)
(0.73986 0.0199811 0)
(0.73388 0.0230689 0)
(0.724762 0.0264141 0)
(0.717861 0.0299457 0)
(0.714201 0.0336247 0)
(0.711502 0.0374503 0)
(0.708358 0.0414358 0)
(0.704525 0.0455951 0)
(0.700168 0.0499406 0)
(0.695423 0.0544867 0)
(0.690321 0.0592499 0)
(0.684845 0.0642493 0)
(0.678974 0.0695052 0)
(0.672696 0.0750383 0)
(0.665999 0.0808704 0)
(0.658872 0.0870224 0)
(0.651299 0.0935168 0)
(0.643262 0.100375 0)
(0.634739 0.107623 0)
(0.625708 0.115284 0)
(0.616142 0.123388 0)
(0.606011 0.131969 0)
(0.595286 0.141064 0)
(0.583929 0.15072 0)
(0.571901 0.160987 0)
(0.55916 0.17192 0)
(0.545649 0.183584 0)
(0.531312 0.196042 0)
(0.516071 0.209367 0)
(0.499843 0.223626 0)
(0.482524 0.238889 0)
(0.46397 0.255227 0)
(0.444032 0.272692 0)
(0.422511 0.291331 0)
(0.39918 0.311168 0)
(0.373715 0.33221 0)
(0.345681 0.354376 0)
(0.314682 0.37747 0)
(0.280135 0.401242 0)
(0.241281 0.42513 0)
(0.197348 0.4482 0)
(0.148376 0.469168 0)
(0.0910523 0.486072 0)
(0.0369617 0.496233 0)
(2.61503 9.44462e-05 0)
(1.67924 0.00265073 0)
(0.535135 0.0108976 0)
(0.554588 0.0130112 0)
(0.657258 0.015088 0)
(0.726281 0.0177332 0)
(0.74124 0.0209298 0)
(0.735521 0.0242778 0)
(0.726697 0.0279289 0)
(0.720015 0.0317812 0)
(0.716537 0.0357857 0)
(0.714015 0.0399414 0)
(0.711054 0.044263 0)
(0.707408 0.0487647 0)
(0.703244 0.0534585 0)
(0.6987 0.0583587 0)
(0.693811 0.0634824 0)
(0.688564 0.0688498 0)
(0.68294 0.0744834 0)
(0.676932 0.0804059 0)
(0.670532 0.0866421 0)
(0.663732 0.093216 0)
(0.656519 0.100154 0)
(0.648879 0.107481 0)
(0.640794 0.115225 0)
(0.632242 0.123415 0)
(0.623202 0.132085 0)
(0.613646 0.141272 0)
(0.603546 0.151017 0)
(0.592869 0.161372 0)
(0.581578 0.172393 0)
(0.569634 0.184145 0)
(0.556985 0.1967 0)
(0.543579 0.210136 0)
(0.529343 0.224541 0)
(0.514194 0.240004 0)
(0.498036 0.25662 0)
(0.480724 0.274492 0)
(0.462105 0.293714 0)
(0.441973 0.314388 0)
(0.420076 0.336586 0)
(0.396071 0.36042 0)
(0.369459 0.385932 0)
(0.339748 0.412948 0)
(0.306154 0.441483 0)
(0.26753 0.471115 0)
(0.222656 0.500942 0)
(0.170804 0.529499 0)
(0.107454 0.554185 0)
(0.0443214 0.570208 0)
(2.61674 0.00015148 0)
(1.68353 0.00264776 0)
(0.538111 0.0113144 0)
(0.554913 0.0134014 0)
(0.65791 0.0154611 0)
(0.72756 0.0182267 0)
(0.742954 0.0216751 0)
(0.737545 0.0253051 0)
(0.729053 0.0292829 0)
(0.722602 0.0334704 0)
(0.719312 0.0378086 0)
(0.716976 0.0422988 0)
(0.714211 0.0469588 0)
(0.710766 0.0518048 0)
(0.706809 0.0568487 0)
(0.702481 0.0621046 0)
(0.69782 0.0675901 0)
(0.692817 0.0733267 0)
(0.687458 0.0793383 0)
(0.681738 0.0856497 0)
(0.675654 0.0922877 0)
(0.669202 0.0992792 0)
(0.662374 0.106653 0)
(0.65516 0.114439 0)
(0.647545 0.122668 0)
(0.639513 0.131374 0)
(0.631047 0.140593 0)
(0.62212 0.150368 0)
(0.612711 0.160744 0)
(0.602789 0.171778 0)
(0.592323 0.183532 0)
(0.581279 0.196078 0)
(0.569612 0.209502 0)
(0.557276 0.223892 0)
(0.544208 0.239356 0)
(0.530333 0.256004 0)
(0.515564 0.27396 0)
(0.499773 0.293368 0)
(0.482813 0.31436 0)
(0.46447 0.33715 0)
(0.444517 0.361801 0)
(0.422623 0.388513 0)
(0.398143 0.417683 0)
(0.370628 0.449338 0)
(0.339207 0.483576 0)
(0.302234 0.520409 0)
(0.25781 0.559433 0)
(0.204064 0.599377 0)
(0.134006 0.637529 0)
(0.0574543 0.666528 0)
(2.61849 0.000188997 0)
(1.68807 0.00260516 0)
(0.541443 0.0114418 0)
(0.555322 0.0135201 0)
(0.658684 0.0155444 0)
(0.729117 0.0184654 0)
(0.745033 0.0222251 0)
(0.739969 0.026198 0)
(0.731837 0.0305706 0)
(0.725618 0.0351534 0)
(0.722513 0.0398728 0)
(0.720366 0.0447341 0)
(0.717806 0.0497608 0)
(0.71458 0.0549713 0)
(0.710849 0.0603763 0)
(0.706759 0.0659917 0)
(0.70235 0.0718349 0)
(0.697617 0.0779298 0)
(0.692551 0.0843029 0)
(0.687149 0.0909814 0)
(0.681411 0.0979953 0)
(0.675337 0.105375 0)
(0.668924 0.113153 0)
(0.662167 0.121363 0)
(0.655058 0.13004 0)
(0.647584 0.139223 0)
(0.639734 0.148954 0)
(0.63149 0.159277 0)
(0.622832 0.170246 0)
(0.613739 0.181919 0)
(0.604185 0.194366 0)
(0.594144 0.207666 0)
(0.583579 0.221914 0)
(0.572457 0.237214 0)
(0.560729 0.253689 0)
(0.548333 0.271473 0)
(0.535205 0.290706 0)
(0.521233 0.311625 0)
(0.506343 0.334318 0)
(0.490259 0.35903 0)
(0.472727 0.386197 0)
(0.453762 0.416048 0)
(0.432721 0.449068 0)
(0.408792 0.485749 0)
(0.381187 0.526521 0)
(0.348309 0.572102 0)
(0.307512 0.623257 0)
(0.255364 0.680258 0)
(0.180713 0.742167 0)
(0.0842365 0.80351 0)
(2.62026 0.000204418 0)
(1.69274 0.00250346 0)
(0.545013 0.0111819 0)
(0.55581 0.013217 0)
(0.659614 0.0151895 0)
(0.73104 0.0182439 0)
(0.747597 0.0222991 0)
(0.742944 0.0266077 0)
(0.735217 0.0313742 0)
(0.729224 0.0363423 0)
(0.72629 0.0414277 0)
(0.724325 0.0466483 0)
(0.721968 0.0520384 0)
(0.718957 0.0576201 0)
(0.715453 0.0634006 0)
(0.711603 0.0693932 0)
(0.707453 0.0756166 0)
(0.703004 0.0820939 0)
(0.698248 0.088852 0)
(0.693186 0.0959184 0)
(0.68782 0.103324 0)
(0.682154 0.111101 0)
(0.676189 0.119284 0)
(0.669925 0.12791 0)
(0.663359 0.137019 0)
(0.656487 0.146653 0)
(0.649302 0.156859 0)
(0.641794 0.167688 0)
(0.633952 0.179196 0)
(0.625761 0.191448 0)
(0.617205 0.20452 0)
(0.608268 0.218499 0)
(0.598928 0.233488 0)
(0.589167 0.249601 0)
(0.578954 0.266986 0)
(0.568234 0.285833 0)
(0.557035 0.306172 0)
(0.545187 0.328285 0)
(0.532576 0.352565 0)
(0.519384 0.379221 0)
(0.505339 0.408767 0)
(0.490151 0.441652 0)
(0.473553 0.478351 0)
(0.455049 0.519858 0)
(0.434021 0.567339 0)
(0.409259 0.622607 0)
(0.378371 0.68852 0)
(0.337192 0.770092 0)
(0.271549 0.877358 0)
(0.147751 1.04392 0)
(2.62236 0.000191804 0)
(1.69832 0.0022915 0)
(0.549319 0.0102983 0)
(0.556441 0.0124283 0)
(0.660862 0.0145836 0)
(0.733708 0.0180649 0)
(0.751199 0.0227192 0)
(0.747133 0.0276463 0)
(0.739955 0.0330485 0)
(0.734238 0.0385836 0)
(0.731524 0.0441625 0)
(0.729821 0.049828 0)
(0.727774 0.055635 0)
(0.725097 0.0616136 0)
(0.72194 0.067779 0)
(0.718458 0.0741464 0)
(0.714708 0.0807407 0)
(0.710695 0.0875884 0)
(0.706413 0.0947209 0)
(0.701868 0.102168 0)
(0.697065 0.109965 0)
(0.692014 0.118145 0)
(0.686721 0.126745 0)
(0.681193 0.135807 0)
(0.675435 0.145373 0)
(0.669451 0.155489 0)
(0.663247 0.166207 0)
(0.656826 0.177581 0)
(0.650188 0.189674 0)
(0.643337 0.202555 0)
(0.636272 0.216305 0)
(0.628998 0.231011 0)
(0.621512 0.246805 0)
(0.613833 0.263783 0)
(0.606026 0.282035 0)
(0.59786 0.301817 0)
(0.589381 0.323377 0)
(0.581061 0.346894 0)
(0.572773 0.372816 0)
(0.564282 0.401495 0)
(0.555717 0.433288 0)
(0.547168 0.468896 0)
(0.538813 0.509158 0)
(0.530889 0.555346 0)
(0.523942 0.609264 0)
(0.519141 0.673675 0)
(0.519217 0.753027 0)
(0.532319 0.854747 0)
(0.588368 0.989772 0)
(0.659122 1.18526 0)
(2.62454 0.000128327 0)
(1.70415 0.00161302 0)
(0.554458 0.00719588 0)
(0.558309 0.00904556 0)
(0.663717 0.0112256 0)
(0.738534 0.015143 0)
(0.757224 0.020512 0)
(0.753811 0.0262012 0)
(0.747127 0.0324006 0)
(0.741483 0.0386579 0)
(0.738781 0.0448982 0)
(0.737175 0.0511979 0)
(0.7353 0.0576249 0)
(0.732835 0.0642062 0)
(0.729918 0.0709554 0)
(0.72671 0.0778876 0)
(0.723275 0.0850269 0)
(0.719626 0.0924019 0)
(0.715762 0.100044 0)
(0.711689 0.107984 0)
(0.707417 0.116257 0)
(0.702957 0.124899 0)
(0.69832 0.133949 0)
(0.693517 0.143449 0)
(0.68856 0.153444 0)
(0.683461 0.163987 0)
(0.678236 0.17513 0)
(0.672899 0.186937 0)
(0.667467 0.199472 0)
(0.661959 0.212813 0)
(0.656388 0.227063 0)
(0.650818 0.24225 0)
(0.64523 0.258486 0)
(0.639535 0.275982 0)
(0.633954 0.29489 0)
(0.628727 0.315343 0)
(0.623738 0.337701 0)
(0.61905 0.362157 0)
(0.61488 0.388924 0)
(0.611382 0.418428 0)
(0.608855 0.45122 0)
(0.607754 0.487948 0)
(0.608741 0.529507 0)
(0.61293 0.577056 0)
(0.622176 0.632246 0)
(0.639759 0.697261 0)
(0.671669 0.774992 0)
(0.727074 0.8689 0)
(0.838549 0.978905 0)
(0.986967 1.09401 0)
(2.62563 6.7437e-05 0)
(1.70702 0.000989159 0)
(0.55717 0.00422227 0)
(0.560138 0.0065453 0)
(0.667197 0.00955041 0)
(0.74455 0.0147232 0)
(0.764756 0.0213475 0)
(0.762117 0.0281252 0)
(0.755954 0.0350612 0)
(0.750341 0.0417578 0)
(0.74767 0.0483165 0)
(0.746215 0.0549084 0)
(0.74456 0.0616167 0)
(0.742333 0.0684655 0)
(0.739664 0.0754655 0)
(0.736724 0.0826415 0)
(0.733594 0.0900263 0)
(0.73029 0.0976554 0)
(0.726816 0.105562 0)
(0.723181 0.113781 0)
(0.719399 0.122345 0)
(0.715486 0.131291 0)
(0.711459 0.140655 0)
(0.707336 0.150478 0)
(0.703134 0.160804 0)
(0.698875 0.171679 0)
(0.694587 0.183158 0)
(0.69029 0.195303 0)
(0.686023 0.208188 0)
(0.681855 0.221825 0)
(0.677707 0.236315 0)
(0.673604 0.25183 0)
(0.669844 0.268432 0)
(0.666499 0.286281 0)
(0.663485 0.305579 0)
(0.660943 0.326423 0)
(0.659039 0.348971 0)
(0.657956 0.373509 0)
(0.657965 0.400316 0)
(0.659432 0.429756 0)
(0.662885 0.462275 0)
(0.668989 0.498405 0)
(0.678804 0.538764 0)
(0.69387 0.584158 0)
(0.716534 0.635408 0)
(0.750306 0.693352 0)
(0.800701 0.75829 0)
(0.873459 0.829225 0)
(0.9869 0.901181 0)
(1.12312 0.954393 0)
(2.62655 -0.000140002 0)
(1.70924 -0.00172788 0)
(0.561942 -0.00718555 0)
(0.566526 -0.00536368 0)
(0.675272 -0.00119054 0)
(0.754856 0.00668065 0)
(0.775937 0.0159366 0)
(0.773156 0.0249982 0)
(0.76648 0.0334741 0)
(0.760309 0.0412161 0)
(0.757455 0.0486502 0)
(0.756071 0.0560632 0)
(0.754573 0.0635367 0)
(0.752527 0.0710783 0)
(0.750073 0.0787007 0)
(0.747405 0.0864369 0)
(0.744606 0.0943273 0)
(0.741693 0.102412 0)
(0.738664 0.110728 0)
(0.735528 0.119315 0)
(0.732298 0.128208 0)
(0.728991 0.137448 0)
(0.725628 0.147077 0)
(0.722227 0.157137 0)
(0.718814 0.167672 0)
(0.715416 0.178733 0)
(0.712073 0.190376 0)
(0.708835 0.202616 0)
(0.705642 0.215539 0)
(0.702565 0.229265 0)
(0.699891 0.24384 0)
(0.69761 0.259425 0)
(0.695682 0.276116 0)
(0.694268 0.293949 0)
(0.693482 0.313053 0)
(0.69348 0.33361 0)
(0.69448 0.355773 0)
(0.696745 0.37977 0)
(0.700621 0.405801 0)
(0.706553 0.434165 0)
(0.715152 0.465117 0)
(0.727204 0.498977 0)
(0.743832 0.536038 0)
(0.766598 0.576557 0)
(0.797487 0.62063 0)
(0.839224 0.66794 0)
(0.895449 0.717453 0)
(0.968859 0.766572 0)
(1.07054 0.811043 0)
(1.18414 0.836861 0)
(2.62214 0.00243881 0)
(1.69776 -0.00756615 0)
(0.563925 -0.0166607 0)
(0.582469 -0.0104048 0)
(0.695636 -0.00249175 0)
(0.778262 0.00747734 0)
(0.799566 0.0173605 0)
(0.79553 0.0267809 0)
(0.787147 0.0352088 0)
(0.779715 0.0429902 0)
(0.776269 0.0505714 0)
(0.774572 0.0581166 0)
(0.772791 0.0656734 0)
(0.770459 0.0732754 0)
(0.767746 0.080976 0)
(0.764868 0.0888257 0)
(0.761918 0.0968681 0)
(0.758912 0.10514 0)
(0.755853 0.113673 0)
(0.752753 0.1225 0)
(0.74963 0.13165 0)
(0.746511 0.141156 0)
(0.743418 0.151051 0)
(0.740372 0.161374 0)
(0.737407 0.172146 0)
(0.73456 0.183387 0)
(0.731798 0.19517 0)
(0.729197 0.207573 0)
(0.726965 0.220629 0)
(0.725097 0.234464 0)
(0.723594 0.249123 0)
(0.722576 0.264613 0)
(0.722135 0.281043 0)
(0.722406 0.298519 0)
(0.723552 0.317141 0)
(0.725761 0.337052 0)
(0.729275 0.35838 0)
(0.734371 0.381276 0)
(0.741432 0.40588 0)
(0.750956 0.432347 0)
(0.763494 0.46081 0)
(0.779829 0.491355 0)
(0.800937 0.524025 0)
(0.828074 0.558674 0)
(0.86277 0.594953 0)
(0.906829 0.632108 0)
(0.962579 0.668771 0)
(1.03166 0.702648 0)
(1.11849 0.730729 0)
(1.21177 0.744682 0)
(2.61241 0.00905608 0)
(1.66431 -0.0756701 0)
(0.602805 -0.0776916 0)
(0.627942 -0.0486433 0)
(0.733658 -0.00980224 0)
(0.811574 0.0118628 0)
(0.830442 0.0221184 0)
(0.82505 0.0310457 0)
(0.815531 0.0385409 0)
(0.807679 0.046742 0)
(0.803873 0.0553452 0)
(0.801708 0.063832 0)
(0.799469 0.0720751 0)
(0.796764 0.0801665 0)
(0.793761 0.0882275 0)
(0.790643 0.0963398 0)
(0.787475 0.104557 0)
(0.784265 0.112923 0)
(0.781017 0.121479 0)
(0.777744 0.130269 0)
(0.774471 0.13933 0)
(0.771229 0.148712 0)
(0.768057 0.158456 0)
(0.76496 0.168565 0)
(0.761943 0.179087 0)
(0.759121 0.190101 0)
(0.756632 0.201628 0)
(0.754456 0.213743 0)
(0.752615 0.226481 0)
(0.751212 0.239856 0)
(0.750329 0.253961 0)
(0.750071 0.268862 0)
(0.750567 0.284636 0)
(0.751966 0.301359 0)
(0.754448 0.319107 0)
(0.758224 0.33796 0)
(0.763525 0.358002 0)
(0.770656 0.379304 0)
(0.779971 0.401958 0)