/*--------------------------------*- C++ -*----------------------------------*\
| =========                 |                                                 |
| \\      /  F ield         | OpenFOAM: The Open Source CFD Toolbox           |
|  \\    /   O peration     | Version:  2412                                  |
|   \\  /    A nd           | Website:  www.openfoam.com                      |
|    \\/     M anipulation  |                                                 |
\*---------------------------------------------------------------------------*/
FoamFile
{
    version     2.0;
    format      ascii;
    arch        "LSB;label=32;scalar=64";
    class       volScalarField;
    location    "5";
    object      Ma;
}
// * * * * * * * * * * * * * * * * * * * * * * * * * * * * * * * * * * * * * //

dimensions      [0 0 0 0 0 0 0];

internalField   nonuniform List<scalar> 
7000
(
3.00001
3.00001
3.00001
3.00001
3.00001
3.00001
3
3
2.99999
2.99999
2.99991
2.9999
2.99944
2.99937
2.99665
2.9952
2.9808
2.98583
2.91179
3.10248
2.79211
2.39223
1.54201
0.806915
0.337691
0.385787
0.441128
0.467989
0.464943
0.449132
0.425678
0.403683
0.385525
0.368479
0.350794
0.332149
0.312681
0.292866
0.272587
0.251611
0.230091
0.208147
0.185618
0.162309
0.138392
0.114135
0.0895518
0.065022
0.0392779
0.0188406
3.00001
3.00001
3.00001
3.00001
3.00001
3.00001
3.00001
3.00001
2.99999
2.99999
2.99993
2.99993
2.99953
2.99943
2.99718
2.99512
2.98087
2.98568
2.91187
3.10263
2.79266
2.39316
1.54321
0.807803
0.33795
0.386045
0.441313
0.468078
0.464944
0.449112
0.425672
0.403734
0.385612
0.368576
0.350902
0.33228
0.312845
0.293068
0.272832
0.25191
0.230458
0.208597
0.186171
0.162997
0.139267
0.115284
0.0911269
0.06737
0.0434001
0.0269458
3.00001
3.00001
3.00001
3.00001
3.00001
3.00001
3.00001
3.00001
3
3
2.99996
2.99997
2.99977
3.00039
2.99783
2.99785
2.98105
2.98575
2.91237
3.10309
2.79399
2.39515
1.54559
0.809482
0.338221
0.386302
0.441421
0.468059
0.4648
0.448936
0.425537
0.403721
0.3857
0.36873
0.351124
0.332594
0.313282
0.293652
0.273579
0.252845
0.231618
0.210024
0.187919
0.16515
0.141958
0.118719
0.0956554
0.0736607
0.0530056
0.0410119
3.00001
3.00001
3.00001
3.00001
3.00001
3.00001
3.00001
3.00001
3.00001
3.00002
3.00002
3.00009
2.99999
3.00063
2.99888
2.99824
2.98101
2.98565
2.91309
3.10415
2.79604
2.39795
1.54918
0.812399
0.33923
0.387133
0.441908
0.468369
0.464931
0.449007
0.425645
0.403989
0.386102
0.369225
0.35172
0.333333
0.314211
0.294793
0.274959
0.254511
0.233635
0.212454
0.190841
0.168693
0.146316
0.124171
0.102631
0.0828403
0.0654846
0.0564403
3.00001
3.00001
3.00001
3.00001
3.00001
3.00001
3.00001
3.00001
3.00001
3.00002
3.00002
3.00014
3.00011
3.00078
2.99948
2.99844
2.98131
2.98611
2.91422
3.1059
2.79887
2.40156
1.55392
0.81644
0.340839
0.388408
0.442641
0.468871
0.465223
0.449242
0.425945
0.404503
0.386815
0.370097
0.352738
0.334549
0.315685
0.296565
0.277066
0.257033
0.236626
0.215992
0.195023
0.173678
0.15235
0.131578
0.111821
0.0943003
0.0797433
0.072631
3.00001
3.00001
3.00001
3.00001
3.00001
3.00001
3.00001
3.00001
3
3.00002
3.00002
3.00015
3.00016
3.00085
2.99958
2.99865
2.98176
2.98692
2.91602
3.10849
2.80269
2.40607
1.55964
0.821285
0.342672
0.389803
0.443272
0.469186
0.465335
0.449342
0.426179
0.405015
0.38758
0.371091
0.353991
0.336127
0.317657
0.298951
0.279904
0.260383
0.240584
0.220624
0.200477
0.18016
0.160105
0.1409
0.123046
0.107712
0.0954425
0.0896712
3.00001
3.00001
3.00001
3.00001
3.00001
3.00001
3.00001
3.00001
3.00001
3.00002
3.00003
3.00016
3.00017
3.00086
2.99957
2.9988
2.98232
2.98804
2.9185
3.11192
2.80755
2.41156
1.56645
0.827044
0.344956
0.391414
0.443724
0.469188
0.465208
0.449296
0.426357
0.405556
0.388473
0.372309
0.355539
0.338061
0.320036
0.301833
0.283351
0.264475
0.245433
0.226333
0.207188
0.188105
0.169537
0.152054
0.136111
0.122776
0.112383
0.107602
3.00001
3.00001
3.00001
3.00001
3.00001
3.00001
3.00001
3.00001
3.00001
3.00002
3.00003
3.00015
3.00016
3.00081
2.9996
2.99883
2.9831
2.98953
2.92137
3.11586
2.81337
2.41738
1.57479
0.834771
0.349411
0.394385
0.444503
0.469216
0.465172
0.449409
0.426729
0.406229
0.389455
0.373607
0.357205
0.340173
0.322692
0.3051
0.287316
0.269265
0.251149
0.233119
0.21524
0.197585
0.180662
0.16498
0.150916
0.139376
0.130529
0.126515
3.00001
3.00001
3.00001
3.00001
3.00001
3.00001
3.00001
3.00001
3.00001
3.00003
3.00004
3.00014
3.00014
3.00071
2.99963
2.99897
2.98524
2.99187
2.92396
3.12143
2.8211
2.4216
1.58199
0.837767
0.351383
0.394894
0.44281
0.467025
0.463433
0.448166
0.426037
0.406051
0.389802
0.374493
0.358678
0.342311
0.325562
0.308812
0.291907
0.274933
0.257938
0.241145
0.224695
0.208681
0.193506
0.179602
0.167314
0.157395
0.149859
0.146458
3.00001
3.00001
3.00001
3.00001
3.00001
3.00001
3.00001
3.00001
3.00001
3.00003
3.00003
3.00012
3.00011
3.0006
2.99963
2.99907
2.98676
2.99418
2.92722
3.12617
2.82914
2.43235
1.59803
0.854172
0.359942
0.399059
0.4442
0.467639
0.463932
0.44875
0.426829
0.407157
0.391242
0.376397
0.361072
0.345388
0.329411
0.313555
0.297697
0.281795
0.266154
0.250762
0.235832
0.221502
0.208032
0.195967
0.185398
0.176929
0.170553
0.167682
3.00001
3.00001
3.00001
3.00001
3.00001
3.00001
3.00001
3.00001
3.00001
3.00003
3.00003
3.00011
3.00009
3.00049
2.99956
2.99913
2.98855
2.99615
2.93088
3.12787
2.83688
2.44758
1.62084
0.875495
0.371439
0.404059
0.44692
0.470134
0.466379
0.451145
0.42932
0.409892
0.394258
0.379803
0.365072
0.350014
0.33488
0.319907
0.305155
0.290438
0.275993
0.262129
0.248805
0.236169
0.224501
0.214057
0.205135
0.198097
0.192705
0.190299
3.00001
3.00001
3.00001
3.00001
3.00001
3.00001
3.00001
3.00001
3.00001
3.00002
3.00002
3.00008
3.00004
3.00038
2.99944
2.99914
2.98982
2.99817
2.93524
3.12904
2.84553
2.46607
1.64934
0.90261
0.386765
0.408532
0.450717
0.474237
0.470614
0.455312
0.433537
0.414307
0.399002
0.384851
0.370599
0.356199
0.34186
0.327826
0.314058
0.300709
0.287705
0.275252
0.263644
0.252693
0.242789
0.234197
0.226782
0.221062
0.216753
0.214807
3.00001
3.00001
3.00001
3.00001
3.00001
3.00001
3.00001
3.00001
3.00001
3.00001
3.00001
3.00003
2.99999
3.00026
2.99943
2.99918
2.99153
3.00008
2.93989
3.1295
2.85511
2.48678
1.68374
0.935232
0.406446
0.412831
0.455298
0.479352
0.476087
0.460924
0.43931
0.420327
0.405411
0.391738
0.377964
0.364233
0.350667
0.337656
0.324989
0.312809
0.301341
0.290483
0.280474
0.271378
0.263235
0.256276
0.250616
0.246264
0.242897
0.24143
3.00001
3.00001
3.00001
3.00001
3.00001
3.00001
3.00001
3.00001
3.00001
3.00001
3
3
2.99995
3.00013
2.99941
2.99926
2.99321
3.00217
2.94488
3.12918
2.86537
2.51071
1.72404
0.97515
0.429516
0.419331
0.460391
0.485476
0.482815
0.46784
0.446506
0.427779
0.413225
0.400166
0.386982
0.37392
0.361173
0.349125
0.337727
0.326833
0.316748
0.307629
0.299443
0.292092
0.285955
0.280963
0.276879
0.274126
0.272041
0.271157
3.00001
3.00001
3.00001
3.00001
3.00001
3.00001
3.00001
3.00001
3.00001
3.00001
3
2.99999
2.99992
2.99998
2.99944
2.99945
2.99552
3.00352
2.94995
3.12775
2.87609
2.53748
1.77033
1.0222
0.456534
0.426916
0.466397
0.492696
0.490741
0.475996
0.45501
0.436611
0.422527
0.41004
0.397698
0.38544
0.37371
0.36261
0.352377
0.342954
0.334432
0.326877
0.320636
0.31542
0.31113
0.308201
0.306375
0.305334
0.304628
0.304578
3.00001
3.00001
3.00001
3.00001
3.00001
3.00001
3.00001
3.00001
3.00001
3
3
2.99999
2.99995
2.99987
2.99956
2.99948
2.99678
3.00509
2.95554
3.12574
2.88749
2.56651
1.82282
1.07646
0.487596
0.435526
0.473415
0.500766
0.499521
0.485024
0.46444
0.446474
0.43292
0.421088
0.40956
0.398306
0.387618
0.377943
0.368972
0.361073
0.35426
0.348551
0.344114
0.341192
0.339489
0.338888
0.339359
0.341059
0.342597
0.34387
3.00001
3.00001
3.00001
3.00001
3.00001
3.00001
3.00001
3.00001
3.00001
3.00001
3
3
2.99997
2.99996
2.99974
3.00012
2.99807
3.00657
2.96147
3.12258
2.89969
2.59867
1.88238
1.13824
0.521735
0.444828
0.480791
0.508687
0.508262
0.494416
0.474507
0.457276
0.44452
0.43351
0.422892
0.412687
0.403108
0.394682
0.387384
0.381044
0.376149
0.37258
0.370396
0.369728
0.370768
0.373425
0.377429
0.38228
0.387254
0.391231
3.00001
3.00001
3.00001
3.00001
3.00001
3.00001
3.00001
3.00001
3.00001
3.00001
3
3.00001
3.00002
3.00013
3.00011
3.00066
2.99908
3.00735
2.96655
3.11708
2.91066
2.62733
1.94721
1.2074
0.556783
0.455366
0.487768
0.514202
0.514868
0.502016
0.483284
0.46707
0.455646
0.445975
0.436839
0.428081
0.420003
0.412978
0.40724
0.402777
0.399792
0.398613
0.39926
0.401618
0.405875
0.412337
0.421175
0.432067
0.443213
0.452972
3.00001
3.00001
3.00001
3.00001
3.00001
3.00001
3.00001
3.00001
3.00001
3.00001
3.00001
3.00001
2.99996
3.00013
3.00016
3.00164
3.00118
3.0128
2.98052
3.13719
2.93126
2.70573
2.03437
1.30292
0.582841
0.465283
0.491798
0.514759
0.51683
0.50567
0.488809
0.474316
0.464645
0.456928
0.449725
0.443116
0.437147
0.432281
0.428636
0.426372
0.425666
0.426807
0.430156
0.436112
0.445209
0.457286
0.47237
0.491782
0.514778
0.540682
3.00001
3.00001
3.00001
3.00001
3.00001
3.00001
3.00001
3.00001
3.00001
3.00001
3.00001
3.00002
3.00002
3.00007
3
2.99991
2.99874
2.99909
2.99099
3.00538
2.94388
2.80676
2.14488
1.39671
0.622353
0.467835
0.486375
0.506457
0.511301
0.503174
0.489351
0.477155
0.469727
0.464478
0.459782
0.455779
0.45254
0.450298
0.44943
0.450083
0.452279
0.456451
0.463232
0.473498
0.487604
0.506638
0.531796
0.565883
0.614611
0.701135
3.00001
3.00001
3.00001
3.00001
3.00001
3.00001
3.00001
3.00001
3.00001
3.00001
3.00001
3.00005
3.00005
3.00029
2.99985
2.99948
2.99352
2.99435
2.96646
3.02843
2.92655
2.67427
2.27842
1.57648
0.746429
0.506635
0.504957
0.518803
0.522603
0.513712
0.500125
0.488348
0.481336
0.4773
0.474282
0.472539
0.472015
0.473195
0.475651
0.479886
0.486122
0.495493
0.508684
0.525185
0.547121
0.575779
0.61582
0.674506
0.76741
0.911443
3.00001
3.00001
3.00001
3.00001
3.00001
3.00001
3.00001
3.00001
3.00001
3
3
2.99998
2.99997
2.99983
2.99975
2.99903
2.99835
2.99516
2.98849
2.96526
2.93444
2.75089
2.50899
1.86684
0.914281
0.573614
0.531937
0.540105
0.542666
0.534787
0.52256
0.510189
0.502319
0.497658
0.495211
0.494028
0.494741
0.496946
0.501275
0.508305
0.518873
0.532857
0.550665
0.573665
0.602814
0.641614
0.691647
0.761993
0.864563
0.989188
3.00001
3.00001
3.00001
3.00001
3.00001
3.00001
3.00001
3.00001
3.00001
3
3
2.99998
2.99997
2.99985
2.99979
2.99914
2.99878
2.99497
2.99302
2.9714
2.95392
2.80782
2.63682
2.04888
1.15131
0.716177
0.581093
0.571329
0.571103
0.568397
0.558348
0.546225
0.535694
0.52903
0.525288
0.523757
0.523804
0.526046
0.531209
0.540016
0.552088
0.568358
0.589052
0.615706
0.649425
0.693113
0.748225
0.815327
0.905815
0.994241
3.00001
3.00001
3.00001
3.00001
3.00001
3.00001
3.00001
3.00001
3.00001
3.00001
3.00001
2.99999
2.99999
2.99993
2.99991
2.99941
2.99935
2.99642
2.99629
2.98756
2.97178
2.89826
2.77203
2.42579
1.61193
0.991637
0.667596
0.62974
0.632972
0.635739
0.623802
0.607984
0.593051
0.581029
0.572543
0.566868
0.564081
0.564548
0.569212
0.57727
0.588695
0.604449
0.625118
0.651854
0.685376
0.726959
0.779765
0.838602
0.913794
0.983211
3.00001
3.00001
3.00001
3.00001
3.00001
3.00001
3.00001
3.00001
3.00001
3.00001
3
3
2.99999
2.99999
2.9999
3.00007
2.9993
2.99919
2.99306
3.00029
2.95138
3.10952
2.88055
2.57858
1.88848
1.18022
0.680808
0.624366
0.643842
0.660597
0.663623
0.654832
0.643314
0.631559
0.62178
0.614287
0.609152
0.60799
0.610385
0.616974
0.62665
0.641337
0.660437
0.684982
0.715158
0.751034
0.795362
0.845703
0.908126
0.965064
3.00001
3.00001
3.00001
3.00001
3.00001
3.00001
3.00001
3.00001
3.00001
3.00001
3
3
2.99999
2.99999
2.99993
2.99989
2.99958
2.99938
2.99761
2.99813
2.9881
3.00815
2.92331
2.80448
2.13255
1.4009
0.735406
0.624293
0.639405
0.66034
0.674335
0.675014
0.66915
0.661978
0.655822
0.650643
0.646728
0.645897
0.647851
0.652894
0.661362
0.673535
0.691082
0.712416
0.739719
0.770902
0.807812
0.849986
0.897907
0.945057
3.00001
3.00001
3.00001
3.00001
3.00001
3.00001
3.00001
3.00001
3.00001
3.00001
3.00001
3
2.99999
2.99994
2.99994
2.99964
2.99957
2.99795
2.99721
2.98824
2.99557
2.93488
3.11656
2.83766
2.50154
1.70682
1.04579
0.691687
0.664659
0.681436
0.696924
0.69949
0.695527
0.689867
0.684531
0.679965
0.677095
0.676469
0.678438
0.682416
0.689608
0.699629
0.71389
0.732262
0.75491
0.783679
0.816348
0.853237
0.889622
0.926045
3.00001
3.00001
3.00001
3.00001
3.00001
3.00001
3.00001
3.00001
3.00001
3.00001
3.00001
3
3
2.99999
2.99998
2.99991
2.99985
2.99944
2.99947
2.99774
3.00469
2.96652
3.10382
2.91216
2.65847
2.03584
1.3292
0.766
0.675944
0.69045
0.708529
0.718318
0.717075
0.712675
0.707757
0.70366
0.701172
0.699905
0.701265
0.704575
0.710266
0.719036
0.731073
0.747762
0.767349
0.792078
0.818088
0.846508
0.876068
0.904855
3.00001
3.00001
3.00001
3.00001
3.00001
3.00001
3.00001
3.00001
3.00001
3.00001
3.00001
3.00001
3
3
2.99997
2.99995
2.99981
2.99972
2.99884
2.9985
2.99415
2.98953
2.96704
2.92283
2.77909
2.36146
1.69316
0.899798
0.701121
0.693734
0.711025
0.722266
0.723636
0.720715
0.716497
0.713235
0.712011
0.711905
0.713849
0.71789
0.723855
0.732096
0.742412
0.756571
0.772327
0.79165
0.811641
0.83401
0.858605
0.88282
3.00001
3.00001
3.00001
3.00001
3.00001
3.00001
3.00001
3.00001
3.00001
3.00001
3.00001
3.00001
3
3
2.99998
2.99997
2.99986
2.99981
2.99918
2.99883
2.99527
2.99304
2.97528
2.94654
2.84064
2.62435
2.10717
1.19182
0.83528
0.737974
0.730293
0.732205
0.732114
0.727975
0.723047
0.719395
0.71801
0.71803
0.719745
0.723464
0.729061
0.736287
0.74503
0.755668
0.767737
0.781614
0.797991
0.817358
0.839844
0.862048
3.00001
3.00001
3.00001
3.00001
3.00001
3.00001
3.00001
3.00001
3.00001
3.00001
3.00001
3.00001
3.00001
3
2.99999
2.99999
2.99994
2.99993
2.99952
2.99954
2.99753
2.99832
2.99019
2.98057
2.90494
2.79418
2.4707
1.73925
1.13753
0.821966
0.769591
0.762099
0.757098
0.74963
0.74038
0.731753
0.725277
0.721615
0.720271
0.721173
0.724502
0.729859
0.736974
0.74635
0.758117
0.772236
0.788442
0.806737
0.827148
0.847672
3.00001
3.00001
3.00001
3.00001
3.00001
3.00001
3.00001
3.00001
3.00001
3.00001
3.00001
3.00001
3.00001
3.00001
3.00001
3.00001
3.00001
3.00001
3.00006
2.99999
3.00042
2.99898
3.00602
2.97043
3.10386
2.91866
2.69324
2.08325
1.38994
0.874071
0.778154
0.763227
0.762638
0.75895
0.749752
0.738718
0.727255
0.719478
0.715169
0.713975
0.715702
0.721284
0.730603
0.742393
0.756046
0.771206
0.7879
0.805727
0.824947
0.843465
3.00001
3.00001
3.00001
3.00001
3.00001
3.00001
3.00001
3.00001
3.00001
3.00001
3.00001
3.00001
3.00001
3
2.99999
2.99999
2.99993
2.99992
2.9996
2.99953
2.99767
2.99682
2.98652
2.99341
2.93587
3.10621
2.8405
2.50756
1.77422
1.13418
0.782967
0.744287
0.749417
0.750782
0.745591
0.735312
0.72318
0.715422
0.711881
0.711203
0.715441
0.72386
0.735193
0.748172
0.76239
0.777543
0.793726
0.81058
0.828279
0.845069
3.00001
3.00001
3.00001
3.00001
3.00001
3.00001
3.00001
3.00001
3.00001
3.00001
3.00001
3.00001
3.00001
3.00001
3
3
2.99998
2.99998
2.99987
2.99983
2.99927
2.99901
2.99623
2.99842
2.98182
3.0537
2.91074
2.76981
2.15207
1.44025
0.80323
0.690663
0.685907
0.699461
0.706373
0.706828
0.705703
0.706912
0.710027
0.716541
0.725909
0.736581
0.748318
0.76091
0.774386
0.788446
0.80303
0.818102
0.833671
0.848352
3.00001
3.00001
3.00001
3.00001
3.00001
3.00001
3.00001
3.00001
3.00001
3.00001
3.00001
3.00001
3.00001
3.00001
3.00001
3
3
2.99997
2.99996
2.99983
2.99972
2.99902
2.99852
2.99477
2.98988
2.96741
2.93508
2.77723
2.47223
1.81044
0.937045
0.649936
0.611951
0.635033
0.655228
0.671366
0.685481
0.698704
0.711452
0.724431
0.737362
0.75026
0.763022
0.775727
0.788399
0.801217
0.813995
0.827078
0.840326
0.852758
3.00001
3.00001
3.00001
3.00001
3.00001
3.00001
3.00001
3.00001
3.00001
3.00001
3.00001
3.00001
3.00001
3.00001
3.00001
3
3
2.99999
2.99999
2.99991
2.99989
2.99955
2.99945
2.99748
3.0016
2.98256
3.07468
2.89453
2.71817
1.96933
1.18744
0.583952
0.517142
0.561202
0.609446
0.65057
0.679015
0.69923
0.71584
0.73124
0.746012
0.760212
0.773585
0.786426
0.798933
0.811143
0.823016
0.834846
0.846719
0.857752
3.00001
3.00001
3.00001
3.00001
3.00001
3.00001
3.00001
3.00001
3.00001
3.00001
3.00001
3.00001
3.00001
3.00001
3.00001
3.00001
3
3
2.99995
2.99993
2.99964
2.99957
2.99745
2.99659
2.98334
2.99028
2.91188
3.06359
2.74634
2.22303
1.30605
0.677049
0.415619
0.485736
0.566186
0.62917
0.667331
0.692864
0.713432
0.73187
0.748644
0.763935
0.778044
0.79134
0.803817
0.815556
0.826836
0.837963
0.849184
0.859655
3.00001
3.00001
3.00001
3.00001
3.00001
3.00001
3.00001
3.00001
3.00001
3.00001
3.00001
3.00001
3.00001
3.00001
3.00001
3.00001
3.00001
3.00001
3
3
2.99992
2.99988
2.99911
2.99897
2.992
3.0025
2.93385
3.13876
2.81562
2.36554
1.50421
0.770391
0.339048
0.426439
0.516128
0.588054
0.632574
0.662091
0.686056
0.707934
0.72836
0.747494
0.765443
0.781807
0.79657
0.810245
0.823144
0.835518
0.847666
0.858652
3.00001
3.00001
3.00001
3.00001
3.00001
3.00001
3.00001
3.00001
3.00001
3.00001
3.00001
3.00001
3.00001
3.00001
3.00001
3.00001
3.00001
3.00001
3
3.00001
2.99997
3.00009
3.00004
3.00045
2.99701
3.00739
2.94795
3.14248
2.85436
2.45735
1.63067
0.852935
0.337417
0.398396
0.472981
0.539986
0.580333
0.60907
0.635982
0.663219
0.689805
0.714673
0.737354
0.757897
0.776708
0.794213
0.810456
0.825645
0.840166
0.853131
3.00001
3.00001
3.00001
3.00001
3.00001
3.00001
3.00001
3.00001
3.00001
3.00001
3.00001
3.00001
3.00001
3.00001
3.00001
3.00001
3.00001
3
3
3
2.99998
3.00002
3.00003
3.001
2.99976
3.00906
2.95992
3.14771
2.87227
2.52396
1.74442
0.954442
0.382298
0.389719
0.448351
0.506218
0.539283
0.563134
0.587953
0.614908
0.642452
0.66923
0.69525
0.720016
0.743757
0.766065
0.78688
0.806055
0.824019
0.839802
3.00001
3.00001
3.00001
3.00001
3.00001
3.00001
3.00001
3.00001
3.00001
3.00001
3.00001
3.00001
3.00001
3.00001
3.00001
3.00001
3.00001
3
2.99999
2.99993
2.99991
2.99945
2.99941
2.9966
2.99544
2.9806
2.98506
2.90505
2.98256
2.61049
1.93495
0.899414
0.478779
0.392129
0.443075
0.499141
0.527303
0.543682
0.559991
0.57938
0.601445
0.625071
0.649346
0.673844
0.698443
0.722753
0.746841
0.769996
0.792239
0.812283
3.00001
3.00001
3.00001
3.00001
3.00001
3.00001
3.00001
3.00001
3.00001
3.00001
3.00001
3.00001
3.00001
3.00001
3.00001
3.00001
3.00001
3
3
2.99997
2.99996
2.9998
2.99971
2.99912
2.99825
2.99626
2.98979
3.00665
2.93686
2.82192
2.08004
1.24992
0.466419
0.352685
0.414578
0.481188
0.513063
0.528605
0.540801
0.554061
0.569801
0.58813
0.608314
0.629633
0.651659
0.674487
0.697484
0.720808
0.743579
0.765358
3.00001
3.00001
3.00001
3.00001
3.00001
3.00001
3.00001
3.00001
3.00001
3.00001
3.00001
3.00001
3.00001
3.00001
3.00001
3.00001
3.00001
3
3
2.99997
2.99996
2.99981
2.99978
2.99887
2.99848
2.99399
2.99018
2.9658
2.93335
2.72257
2.26148
1.39648
0.551143
0.352521
0.420122
0.488809
0.523807
0.539391
0.54497
0.549052
0.556146
0.566066
0.579194
0.596186
0.614527
0.633974
0.6543
0.674994
0.697078
0.71751
3.00001
3.00001
3.00001
3.00001
3.00001
3.00001
3.00001
3.00001
3.00001
3.00001
3.00001
3.00001
3.00001
3.00001
3.00001
3.00001
3.00001
3.00001
3.00001
3
3
2.99996
2.99993
2.9994
2.99946
2.99361
3.00421
2.93814
3.14252
2.82043
2.39292
1.52739
0.782631
0.346009
0.404948
0.470041
0.516434
0.532305
0.534996
0.534999
0.538786
0.545867
0.555102
0.56771
0.582672
0.598646
0.615793
0.634144
0.653599
0.672917
3.00001
3.00001
3.00001
3.00001
3.00001
3.00001
3.00001
3.00001
3.00001
3.00001
3.00001
3.00001
3.00001
3.00001
3.00001
3.00001
3.00001
3.00001
3.00001
3.00001
3.00002
2.99996
3.00017
3.0002
3.00146
2.99939
3.00919
2.95403
3.14514
2.86913
2.49034
1.67298
0.888501
0.349843
0.385662
0.443295
0.492485
0.508886
0.511701
0.514675
0.520479
0.528081
0.537937
0.548953
0.561008
0.574598
0.588795
0.604384
0.620436
0.636501
3.00001
3.00001
3.00001
3.00001
3.00001
3.00001
3.00001
3.00001
3.00001
3.00001
3.00001
3.00001
3.00001
3.00001
3.00001
3.00001
3.00001
3.00001
3.00001
3
3
2.99996
3.00006
3.0001
3.0016
3.00029
3.01061
2.96065
3.14451
2.8832
2.54757
1.75492
0.966402
0.377034
0.37341
0.429582
0.479858
0.497001
0.500722
0.505065
0.512213
0.521033
0.530871
0.540641
0.550592
0.561141
0.571498
0.583709
0.598093
0.612379
3.00001
3.00001
3.00001
3.00001
3.00001
3.00001
3.00001
3.00001
3.00001
3.00001
3.00001
3.00001
3.00001
3.00001
3.00001
3.00001
3.00001
3
2.99999
2.99999
2.99991
2.9999
2.99938
2.99928
2.99587
2.9939
2.97423
2.98043
2.86235
3.11252
2.60793
1.86288
0.842596
0.445448
0.374059
0.431936
0.489829
0.512043
0.51686
0.51871
0.521986
0.527698
0.534963
0.541401
0.547963
0.555819
0.564394
0.573435
0.584119
0.596396
3.00001
3.00001
3.00001
3.00001
3.00001
3.00001
3.00001
3.00001
3.00001
3.00001
3.00001
3.00001
3.00001
3.00001
3.00001
3.00001
3.00001
3.00001
3
3
2.99997
2.99996
2.99985
2.99972
2.9992
2.99857
2.99868
2.99534
3.01691
2.9559
2.7461
1.99777
1.17025
0.403644
0.325075
0.396225
0.465464
0.495022
0.505577
0.511981
0.518679
0.526133
0.533839
0.540792
0.547262
0.553985
0.560931
0.568258
0.576689
0.585352
3.00001
3.00001
3.00001
3.00001
3.00001
3.00001
3.00001
3.00001
3.00001
3.00001
3.00001
3.00001
3.00001
3.00001
3.00001
3.00001
3.00001
3.00001
3
3
2.99997
2.99996
2.99981
2.99966
2.99887
2.99872
2.9938
2.98706
2.98459
2.9228
2.81371
2.08862
1.2696
0.466876
0.319719
0.389484
0.460479
0.490616
0.502571
0.508783
0.514859
0.522374
0.530493
0.538096
0.546132
0.554782
0.562525
0.569836
0.577034
0.584389
3.00001
3.00001
3.00001
3.00001
3.00001
3.00001
3.00001
3.00001
3.00001
3.00001
3.00001
3.00001
3.00001
3.00001
3.00001
3.00001
3.00001
3.00001
3
3
2.99997
2.99995
2.99972
2.99967
2.99791
2.99714
2.9854
2.99537
2.91626
3.06331
2.79533
2.26419
1.32557
0.657644
0.327789
0.395761
0.46671
0.498167
0.506517
0.507863
0.509989
0.514115
0.520868
0.529217
0.537789
0.546724
0.55569
0.56464
0.573303
0.581813
3.00001
3.00001
3.00001
3.00001
3.00001
3.00001
3.00001
3.00001
3.00001
3.00001
3.00001
3.00001
3.00001
3.00001
3.00001
3.00001
3.00001
3.00001
3
3
2.99997
2.99996
2.99981
2.99977
2.99881
2.99896
2.9953
2.99178
2.96725
2.94792
2.78484
2.3492
1.55769
0.560072
0.287675
0.374461
0.446513
0.486398
0.50312
0.507904
0.51025
0.514688
0.521502
0.530148
0.538685
0.547177
0.555439
0.563939
0.572216
0.580293
3.00001
3.00001
3.00001
3.00001
3.00001
3.00001
3.00001
3.00001
3.00001
3.00001
3.00001
3.00001
3.00001
3.00001
3.00001
3.00001
3.00001
3.00001
3
3
2.99998
2.99996
2.99981
2.99973
2.99881
2.99845
2.99318
2.99091
2.96119
2.94839
2.79396
2.42499
1.67194
0.637187
0.319534
0.37321
0.435604
0.484765
0.507693
0.512161
0.513233
0.516332
0.522457
0.531768
0.540233
0.547813
0.555213
0.563003
0.571079
0.579067
3.00001
3.00001
3.00001
3.00001
3.00001
3.00001
3.00001
3.00001
3.00001
3.00001
3.00001
3.00001
3.00001
3.00001
3.00001
3.00001
3.00001
3.00001
3
3
2.99999
2.99996
2.99984
2.99975
2.99893
2.99849
2.99332
2.98952
2.96194
2.94454
2.74936
2.47917
1.71982
0.672136
0.329054
0.36134
0.427197
0.486418
0.512555
0.516179
0.514982
0.51483
0.51893
0.527096
0.535115
0.543004
0.551245
0.560009
0.569211
0.578621
3.00001
3.00001
3.00001
3.00001
3.00001
3.00001
3.00001
3.00001
3.00001
3.00001
3.00001
3.00001
3.00001
3.00001
3.00001
3.00001
3.00001
3
3
2.99999
2.99999
2.99996
2.99989
2.9997
2.99905
2.99853
2.99337
2.99089
2.96311
2.94483
2.74936
2.49053
1.73501
0.692437
0.339847
0.363388
0.429138
0.48832
0.512054
0.51372
0.510287
0.508588
0.513486
0.522176
0.530167
0.537733
0.545981
0.55523
0.565416
0.576174
3.00001
3.00001
3.00001
3.00001
3.00001
3.00001
3.00001
3.00001
3.00001
3.00001
3.00001
3.00001
3.00001
3.00001
3.00001
3.00001
3.00001
3.00001
3.00001
3.00001
3.00001
3.00001
2.99999
3.00008
2.99996
3.00028
2.99624
3.00702
2.9448
3.14477
2.84546
2.45135
1.60609
0.833296
0.300564
0.348994
0.411763
0.461016
0.478761
0.481401
0.483362
0.489901
0.500565
0.513088
0.524245
0.534136
0.543426
0.553137
0.563395
0.573001
3.00001
3.00001
3.00001
3.00001
3.00001
3.00001
3.00001
3.00001
3.00001
3.00001
3.00001
3.00001
3.00001
3.00001
3.00001
3.00001
3.00001
3.00001
3.00001
3.00001
3
3.00001
2.99996
3.00013
3.00015
3.00127
2.99915
3.00883
2.95321
3.14492
2.86757
2.48938
1.66974
0.886005
0.323188
0.347686
0.401954
0.445226
0.458337
0.461611
0.467118
0.477698
0.491707
0.506529
0.520197
0.53193
0.541115
0.549321
0.558288
0.567051
3.00001
3.00001
3.00001
3.00001
3.00001
3.00001
3.00001
3.00001
3.00001
3.00001
3.00001
3.00001
3.00001
3.00001
3.00001
3.00001
3.00001
3.00001
3.00001
3.00001
3.00001
3.00001
2.99998
3.00011
3.00012
3.00096
2.99856
3.00821
2.95125
3.1445
2.85915
2.48773
1.65759
0.874205
0.312446
0.33557
0.394081
0.44403
0.462935
0.470112
0.478441
0.490665
0.504611
0.51809
0.529664
0.539002
0.54573
0.551417
0.558776
0.567137
3.00001
3.00001
3.00001
3.00001
3.00001
3.00001
3.00001
3.00001
3.00001
3.00001
3.00001
3.00001
3.00001
3.00001
3.00001
3.00001
3.00001
3.00001
3.00001
2.99999
2.99999
2.99992
2.99991
2.99951
2.99948
2.99704
2.99676
2.98586
2.98877
2.93764
2.78703
2.51785
1.71192
0.703948
0.348388
0.343177
0.405941
0.4647
0.487929
0.491341
0.492349
0.497353
0.504073
0.510706
0.516694
0.522987
0.529844
0.537662
0.546352
0.555147
3.00001
3.00001
3.00001
3.00001
3.00001
3.00001
3.00001
3.00001
3.00001
3.00001
3.00001
3.00001
3.00001
3.00001
3.00001
3.00001
3.00001
3.00001
3.00001
3
2.99999
2.99992
2.9999
2.99944
2.99934
2.99716
2.99621
2.98823
2.97132
2.94231
2.77523
2.59807
1.84227
0.800256
0.395431
0.331523
0.396801
0.464686
0.491038
0.49271
0.492415
0.495503
0.500801
0.506916
0.513402
0.520673
0.529365
0.538299
0.546532
0.554365
3.00001
3.00001
3.00001
3.00001
3.00001
3.00001
3.00001
3.00001
3.00001
3.00001
3.00001
3.00001
3.00001
3.00001
3.00001
3.00001
3.00001
3.00001
3
2.99999
2.99999
2.99991
2.9999
2.99949
2.99941
2.99703
2.99588
2.98358
2.97443
2.93978
2.7687
2.58447
1.84442
0.822004
0.397958
0.323276
0.394561
0.467107
0.494321
0.496478
0.496579
0.500531
0.50694
0.513704
0.520629
0.527934
0.536412
0.544967
0.552298
0.558951
1.13796
0.685378
0.287673
0.233318
0.372602
0.425418
0.456153
0.484863
0.512243
0.53066
0.536724
0.535365
0.529808
0.521387
0.509073
0.492369
0.472443
0.450206
0.426267
0.401165
0.375046
0.3483
0.321058
0.293367
0.265185
0.236492
0.20786
0.179293
0.151023
0.12303
0.0954147
0.068188
0.0414733
0.0202658
0.0231344
0.0466673
0.0726971
0.0976064
0.122077
0.145915
0.169306
0.192048
0.214353
0.235369
0.255906
0.276687
0.298041
0.318493
0.33855
0.357746
0.376804
0.395133
0.413418
0.431022
0.448612
0.465591
0.482543
0.499018
0.51539
0.531444
0.547318
0.562985
0.578445
0.593748
0.608869
0.623806
0.638647
0.653236
0.667818
0.682106
0.69645
0.710503
0.724592
0.738485
0.75228
0.765983
0.779492
0.79295
0.806173
0.819372
0.832331
0.845211
0.858013
0.870516
0.883213
0.895416
0.908047
0.920001
0.932479
0.944171
0.956365
0.967719
0.979544
0.990361
1.00159
1.01149
1.0215
1.02946
1.03638
1.04002
1.06713
0.815975
0.425804
0.326344
0.183507
0.0595166
0.0805036
0.1444
0.19476
0.223005
0.230645
0.226171
0.220699
0.213967
0.205473
0.192017
0.17605
0.157571
0.137447
0.116134
0.0942941
0.0724143
0.0516333
0.0350442
0.0306223
0.0434222
0.0635601
0.0851863
0.10768
0.130175
0.152849
0.175068
0.19714
0.21831
0.238476
0.258983
0.279759
0.300503
0.320941
0.341168
0.361027
0.380561
0.399836
0.41835
0.436163
0.45401
0.472348
0.490349
0.507738
0.524615
0.541167
0.55741
0.573348
0.589038
0.604424
0.619604
0.634504
0.64921
0.663696
0.677971
0.692079
0.705984
0.719733
0.733316
0.746741
0.760015
0.773155
0.786142
0.799039
0.811751
0.824473
0.836929
0.849483
0.861747
0.874093
0.886183
0.898272
0.910188
0.92202
0.933762
0.94543
0.957071
0.968809
0.980397
0.992253
1.00356
1.01547
1.02638
1.03819
1.04891
1.06027
1.07104
1.08174
1.0924
1.10236
1.1124
1.12126
1.12967
1.13579
1.14012
1.04203
0.940969
0.787164
0.671482
0.559883
0.450694
0.359334
0.290787
0.242955
0.209561
0.179226
0.148886
0.149021
0.156878
0.159366
0.166401
0.177488
0.190484
0.205167
0.220864
0.237447
0.254409
0.271603
0.288611
0.305511
0.32204
0.338447
0.354913
0.371302
0.387763
0.404051
0.420252
0.436108
0.451636
0.46674
0.481923
0.497145
0.512551
0.52788
0.543236
0.558354
0.573549
0.58835
0.602709
0.616475
0.630364
0.644662
0.659068
0.672963
0.686496
0.699783
0.71291
0.725897
0.738708
0.751395
0.763934
0.776391
0.788745
0.801075
0.813317
0.825544
0.837642
0.849726
0.861657
0.873567
0.88528
0.89693
0.908388
0.919814
0.931092
0.942357
0.9534
0.964452
0.975117
0.985922
0.996166
1.00676
1.01672
1.02711
1.0373
1.04752
1.05817
1.06794
1.07871
1.0883
1.09891
1.10835
1.11892
1.12817
1.1386
1.14764
1.15791
1.16666
1.17661
1.18489
1.19423
1.20157
1.20946
1.2145
1.21855
1.04155
1.01556
0.951178
0.88476
0.813201
0.739665
0.671461
0.620702
0.585495
0.561766
0.543891
0.532037
0.524227
0.525337
0.526917
0.526867
0.528479
0.533003
0.539497
0.547958
0.557437
0.568054
0.578586
0.589343
0.599458
0.609695
0.619569
0.630078
0.640401
0.65103
0.661376
0.67177
0.681839
0.691741
0.701403
0.711065
0.720917
0.730913
0.741041
0.751172
0.761387
0.771563
0.781723
0.791493
0.800925
0.810305
0.820159
0.830288
0.840262
0.849949
0.859543
0.869018
0.878476
0.887871
0.897262
0.906616
0.915965
0.925325
0.934734
0.94422
0.95383
0.963579
0.973494
0.983489
0.993628
1.00377
1.01412
1.02442
1.0349
1.0452
1.05556
1.06579
1.07592
1.08607
1.09594
1.10601
1.11582
1.12585
1.13553
1.14523
1.1544
1.16369
1.17236
1.18123
1.18953
1.19808
1.20611
1.21443
1.22224
1.23033
1.23792
1.24573
1.25304
1.26045
1.26735
1.27399
1.28017
1.28534
1.28959
1.29133
1.03105
1.04031
1.02011
0.989926
0.952888
0.913808
0.87797
0.852136
0.83647
0.827206
0.821272
0.817392
0.815261
0.817184
0.820845
0.823075
0.821344
0.820466
0.821606
0.824761
0.828305
0.832267
0.836337
0.840379
0.844536
0.848736
0.853057
0.857502
0.862055
0.86657
0.871038
0.875438
0.879841
0.884229
0.888662
0.893224
0.898019
0.903015
0.908296
0.91376
0.919338
0.925121
0.931034
0.936779
0.942439
0.948197
0.954567
0.961378
0.968432
0.975388
0.982535
0.989665
0.997092
1.00452
1.01218
1.01981
1.02763
1.03543
1.04335
1.05125
1.0592
1.06714
1.07518
1.08329
1.09153
1.09988
1.10833
1.1169
1.12555
1.13436
1.14315
1.15214
1.16102
1.17019
1.17926
1.18862
1.19776
1.20715
1.21631
1.22567
1.23476
1.24398
1.25287
1.26186
1.27047
1.27915
1.28749
1.29582
1.3039
1.31195
1.31976
1.32758
1.33504
1.34249
1.34953
1.35627
1.36266
1.3676
1.3717
1.37241
1.00426
1.03184
1.03716
1.03126
1.02047
1.00789
0.996657
0.99318
0.995419