/*--------------------------------*- C++ -*----------------------------------*\
| =========                 |                                                 |
| \\      /  F ield         | OpenFOAM: The Open Source CFD Toolbox           |
|  \\    /   O peration     | Version:  2412                                  |
|   \\  /    A nd           | Website:  www.openfoam.com                      |
|    \\/     M anipulation  |                                                 |
\*---------------------------------------------------------------------------*/
FoamFile
{
    version     2.0;
    format      ascii;
    arch        "LSB;label=32;scalar=64";
    class       volScalarField;
    location    "5";
    object      p;
}
// * * * * * * * * * * * * * * * * * * * * * * * * * * * * * * * * * * * * * //

dimensions      [1 -1 -2 0 0 0 0];

internalField   nonuniform List<scalar> 
7000
(
1
1
1
1
1
1
1
1
1.00001
1.00003
1.00003
1.00016
1.00018
1.00094
1.00107
1.00554
1.00811
1.03287
1.02436
1.08363
1.17504
1.10301
2.91026
4.94273
10.59
10.4212
10.0155
9.71002
9.69247
9.74855
9.88126
10.0217
10.1296
10.2206
10.3103
10.4021
10.494
10.5842
10.6716
10.7557
10.8363
10.9129
10.9843
11.0495
11.1081
11.1593
11.2023
11.2367
11.2611
11.2787
1
1
1
1
1
1
1
1
1
1.00002
1.00003
1.00013
1.00014
1.0008
1.0009
1.00512
1.00795
1.03294
1.02445
1.08348
1.17444
1.10189
2.909
4.9348
10.5864
10.4172
10.0125
9.70752
9.69092
9.74719
9.88011
10.0203
10.128
10.219
10.3088
10.4007
10.4926
10.5828
10.6701
10.7543
10.835
10.9116
10.9831
11.0484
11.1071
11.1585
11.2016
11.2361
11.2605
11.2781
1
1
1
1
1
1
1
1
1
1.00001
1.00002
1.00007
1.00006
1.00036
1.00014
0.999401
1.01412
1.03371
1.02585
1.08291
1.17281
1.0993
2.90577
4.91801
10.5784
10.4085
10.006
9.70188
9.6868
9.74339
9.87666
10.0163
10.1236
10.2145
10.3042
10.3961
10.4878
10.5777
10.6649
10.7488
10.8294
10.9059
10.9773
11.0426
11.1012
11.1526
11.1956
11.2301
11.2543
11.2719
1
1
1
1
1
1
1
1
0.999999
0.999999
0.999987
0.999976
0.99986
0.999967
0.999585
0.998577
1.01418
1.03407
1.02586
1.08179
1.17034
1.09514
2.90137
4.89223
10.5652
10.3951
9.99653
9.6932
9.68002
9.73709
9.8709
10.0099
10.1165
10.2072
10.2969
10.3885
10.4799
10.5695
10.6564
10.74
10.8203
10.8965
10.9677
11.0328
11.0913
11.1426
11.1854
11.2198
11.2437
11.2612
1
1
1
1
1
1
1
1
0.999999
1
1
0.999915
0.99978
0.999775
0.99926
0.998222
1.0138
1.03364
1.02514
1.07988
1.16682
1.08931
2.89538
4.85729
10.5457
10.3762
9.98341
9.68127
9.67034
9.728
9.86244
10.0006
10.1065
10.1968
10.2863
10.3776
10.4686
10.5577
10.644
10.7272
10.8071
10.8829
10.9538
11.0186
11.0769
11.128
11.1707
11.2049
11.2286
11.2461
1
1
1
1
1
1
1
1
0.999999
1
1.00001
0.999899
0.999761
0.999679
0.999107
0.998068
1.01333
1.03295
1.02395
1.07692
1.16186
1.08158
2.88706
4.81321
10.5188
10.3501
9.96552
9.66591
9.65759
9.71583
9.85082
9.98803
10.093
10.1829
10.2721
10.363
10.4533
10.5418
10.6275
10.71
10.7893
10.8646
10.9349
10.9994
11.0573
11.1081
11.1506
11.1846
11.2081
11.2256
1
1
1
1
1
1
0.999999
1
0.999998
0.999999
1
0.999896
0.999758
0.999662
0.999078
0.998063
1.01281
1.03207
1.02231
1.07291
1.15543
1.07193
2.87627
4.75948
10.4826
10.3153
9.94311
9.64831
9.6423
9.70074
9.8357
9.97186
10.076
10.1653
10.254
10.3443
10.4339
10.5214
10.6063
10.688
10.7664
10.8409
10.9106
10.9745
11.032
11.0824
11.1245
11.1584
11.1817
11.1993
1
1
1
1
1
1
0.999999
0.999999
0.999996
0.999997
1
0.999902
0.999774
0.999682
0.999142
0.998203
1.01213
1.03079
1.02022
1.06826
1.14805
1.06061
2.86453
4.69264
10.4278
10.2685
9.91663
9.62933
9.62478
9.68284
9.81696
9.95197
10.0551
10.1438
10.2318
10.3212
10.4098
10.4963
10.58
10.6607
10.7381
10.8115
10.8802
10.9433
11.0001
11.05
11.0917
11.1254
11.1485
11.1662
1
1
1
1
1
1
0.999999
0.999999
0.999994
0.999993
0.999964
0.999951
0.999792
0.999743
0.999264
0.998442
1.01058
1.02627
1.01693
1.06397
1.13955
1.04273
2.86503
4.61845
10.3653
10.2022
9.88073
9.60699
9.60368
9.66117
9.79407
9.92788
10.03
10.1178
10.205
10.2933
10.3807
10.4659
10.5482
10.6275
10.7036
10.7757
10.8432
10.9052
10.961
11.0102
11.0514
11.0848
11.1078
11.1256
1
1
1
1
1
1
0.999999
0.999999
0.999994
0.999994
0.999966
0.999957
0.999811
0.999802
0.999412
0.998742
1.00926
1.02432
1.01327
1.05803
1.12991
1.02763
2.84315
4.51342
10.2751
10.1549
9.84898
9.58139
9.57841
9.63535
9.76713
9.89971
10.0007
10.0876
10.1735
10.2605
10.3463
10.4298
10.5105
10.588
10.6624
10.7329
10.7988
10.8593
10.9139
10.9619
11.0025
11.0355
11.0582
11.0761
1
1
1
1
1
1
0.999999
0.999999
0.999995
0.999994
0.99997
0.999956
0.999835
0.99985
0.999585
0.999023
1.00811
1.0197
1.01132
1.05314
1.12037
1.01606
2.80647
4.39584
10.1501
10.1157
9.82048
9.55139
9.54752
9.60432
9.73575
9.86721
9.96692
10.0524
10.1369
10.2222
10.3061
10.3876
10.4662
10.5418
10.6139
10.6822
10.7461
10.8046
10.8576
10.9042
10.9437
10.9761
10.9985
11.0167
1
1
1
1
1
1
0.999999
0.999999
0.999996
0.999996
0.99998
0.999972
0.999873
0.999932
0.999751
0.99929
1.00709
1.01739
1.00848
1.04763
1.10986
1.0045
2.76065
4.25984
9.98455
10.0782
9.79113
9.51743
9.5116
9.56835
9.69934
9.82992
9.92831
10.0123
10.095
10.1782
10.2599
10.3389
10.415
10.4879
10.5574
10.623
10.6842
10.7401
10.7907
10.8354
10.8733
10.9047
10.9265
10.9449
1
1
1
1
1
1
1
1
0.999999
0.999998
0.999993
0.99999
0.999958
1
0.999892
0.999541
1.00585
1.01391
1.00598
1.04204
1.0987
0.992328
2.71099
4.09464
9.77827
10.0391
9.76075
9.48073
9.47081
9.52712
9.65748
9.78733
9.88434
9.96653
10.0472
10.1279
10.2069
10.283
10.3559
10.4256
10.4917
10.5539
10.6116
10.6642
10.7117
10.7536
10.7893
10.8191
10.84
10.8586
1
1
1
1
1
1
1
1
1
1
1
1.00001
1.00001
1.00009
1.00003
0.999817
1.00449
1.01096
1.00278
1.03624
1.08712
0.98042
2.65155
3.91411
9.52489
9.99248
9.73133
9.44112
9.42462
9.4802
9.60977
9.7391
9.83467
9.91477
9.99291
10.0709
10.1466
10.2192
10.2884
10.3541
10.4161
10.4738
10.5272
10.5753
10.6183
10.6562
10.6884
10.7157
10.7348
10.7532
1
1
1
1
1
1
1
1
1
1
1
1
1.00006
1.00016
1.00015
1.00008
1.00276
1.00703
0.999705
1.03052
1.07536
0.969054
2.58369
3.71814
9.22079
9.93675
9.6983
9.39663
9.37245
9.42718
9.55587
9.68481
9.7788
9.85646
9.93166
10.0062
10.0783
10.1467
10.2114
10.2722
10.329
10.3813
10.4288
10.4711
10.508
10.54
10.5668
10.5897
10.606
10.6239
1
1
1
1
1
1
1
1
1
1
1
1.00002
1.00002
1.00013
1.00025
1.00063
1.00129
1.00435
0.996574
1.02439
1.06318
0.958244
2.50833
3.50357
8.86797
9.86907
9.65806
9.3464
9.31476
9.3685
9.49604
9.62445
9.71665
9.79147
9.86324
9.93387
10.0014
10.0649
10.1241
10.179
10.2294
10.2746
10.3145
10.3488
10.3771
10.4005
10.4186
10.4338
10.4441
10.46
1
1
1
1
1
1
1
1
1
1
1
1.00001
1.00002
1.00006
1.00012
1.00038
1.00028
1.00188
0.993628
1.0181
1.05046
0.947949
2.4241
3.26876
8.46148
9.78103
9.6029
9.28941
9.25176
9.30416
9.42979
9.55738
9.64772
9.71947
9.78724
9.85324
9.91559
9.97327
10.026
10.0736
10.1158
10.1522
10.1822
10.2056
10.2219
10.232
10.236
10.2375
10.2366
10.2471
1
1
1
1
1
1
1
1
1
1
1
1
1.00001
0.999912
0.999792
0.999748
0.999321
1.00027
0.991845
1.01335
1.0405
0.94202
2.3391
3.02865
8.03036
9.65723
9.51513
9.22905
9.18605
9.23593
9.35785
9.48388
9.57191
9.64007
9.7033
9.76403
9.82038
9.87126
9.91631
9.95523
9.98753
10.0126
10.0296
10.038
10.0367
10.0274
10.0077
9.9835
9.9573
9.95331
1
1
1
1
1
1
1
1
1
1
1
1
0.999995
1.00002
1.00009
0.99882
0.996869
0.9974
0.978076
0.991739
1.00124
0.888614
2.31919
2.5584
7.63151
9.49462
9.39191
9.16248
9.12057
9.16722
9.2826
9.40556
9.49056
9.55465
9.61261
9.66711
9.71629
9.75897
9.79483
9.82339
9.84387
9.85493
9.85466
9.84512
9.81952
9.77669
9.71852
9.64796
9.56601
9.51288
1
1
1
1
1
1
1
1
1
1
1
0.999993
0.999991
0.999958
0.999918
0.999858
1.00077
1.00228
1.00141
1.01645
1.00519
0.947713
2.16838
2.19472
7.09787
9.33606
9.27161
9.09422
9.05221
9.09676
9.20517
9.32337
9.40414
9.46307
9.515
9.56251
9.60375
9.63699
9.66205
9.67809
9.68379
9.6791
9.6607
9.62139
9.5595
9.47188
9.35134
9.19076
8.98219
8.75438
1
1
1
1
1
1
1
1
1
1
1
0.999968
0.999924
0.999898
0.999704
0.999335
1.00485
1.01131
1.00973
1.03852
1.07031
1.00532
1.87486
2.09631
5.85729
9.15242
9.2419
9.10259
9.01324
9.04133
9.12487
9.23237
9.30617
9.35732
9.3996
9.4361
9.46507
9.48544
9.49615
9.49547
9.4862
9.4594
9.40625
9.32812
9.21732
9.05874
8.82717
8.46887
7.85554
6.52902
1
1
1
1
1
1
1
1
1
1
1.00001
1.00001
1.00005
1.00007
1.0003
1.00042
1.00165
1.0023
1.0109
1.01556
1.07422
1.07491
1.5974
1.59401
4.66927
8.63792
9.21886
9.11572
9.00094
9.00671
9.05047
9.13722
9.20061
9.24094
9.27045
9.29356
9.30843
9.31364
9.30964
9.29342
9.25673
9.19594
9.10934
8.98932
8.82169
8.58487
8.24266
7.738
6.9975
5.81576
1
1
1
1
1
1
1
1
1
1
1.00001
1.00001
1.00005
1.00006
1.00027
1.00033
1.00146
1.00221
1.00805
1.01292
1.04895
1.08241
1.3936
1.53774
3.73191
7.28861
9.1071
9.15181
9.05824
8.97649
8.98408
9.02058
9.07766
9.11389
9.13452
9.14602
9.14776
9.14254
9.12424
9.08393
9.01992
8.93376
8.81897
8.66462
8.45521
8.17406
7.79645
7.29067
6.65308
5.85687
1
1
1
1
1
1
1
1
1
1
1
1.00001
1.00002
1.00004
1.00003
1.00041
1.00101
1.00122
1.00561
1.00826
1.01266
1.07872
1.23297
1.17773
2.80935
4.85573
8.83965
9.36585
9.23779
9.00556
8.93936
8.9483
8.97374
8.99847
9.00875
9.0079
9.00161
8.98329
8.94415
8.88567
8.80817
8.70507
8.5692
8.39335
8.16796
7.88099
7.52741
7.09082
6.58946
5.98658
1
1
1
1
1
1
1
1
1
1
1
1.00001
1.00001
1.00003
1.00003
1.00016
1.0001
0.999838
1.00486
1.0113
1.00476
1.03401
1.07517
0.980625
2.42042
3.28644
8.0347
9.27666
9.17702
8.96082
8.82867
8.81604
8.82796
8.8542
8.86798
8.86625
8.85663
8.83121
8.7798
8.71284
8.62745
8.51687
8.37502
8.19772
7.97837
7.70957
7.39425
7.02552
6.61292
6.15591
1
1
1
1
1
1
1
1
1
1
1
1
1.00001
1.00003
1.00003
1.00014
1.00017
1.00076
1.001
1.00401
1.00239
1.01914
1.02051
0.974216
2.13335
2.34013
6.87642
8.97941
8.98008
8.85937
8.68415
8.64981
8.6631
8.69386
8.71654
8.71817
8.71097
8.68788
8.63871
8.57055
8.48521
8.37633
8.24003
8.07275
7.87217
7.63557
7.36728
7.04339
6.68384
6.31893
1
1
1
1
1
1
1
1
1
1
1
1
1.00002
1.00002
1.00011
1.00011
1.00061
1.00073
1.00332
1.0049
1.02072
1.01021
1.05117
1.11332
1.03677
2.58835
4.16386
8.41756
9.01739
8.89447
8.66243
8.56934
8.57114
8.58462
8.60666
8.60801
8.60107
8.57955
8.53367
8.46937
8.39055
8.29132
8.1677
8.01911
7.84282
7.63503
7.38531
7.1042
6.82493
6.52558
1
1
1
1
1
1
1
1
1
1
1
1
1.00001
1.00001
1.00003
1.00004
1.00019
1.00026
1.00093
1.00105
1.00267
0.99602
1.01695
1.04214
0.954734
2.22947
2.72308
7.05942
8.82962
8.79636
8.63456
8.48065
8.46353
8.47706
8.50792
8.52763
8.52649
8.51525
8.48485
8.43192
8.36296
8.27494
8.16456
8.02626
7.85976
7.66677
7.45202
7.2326
7.01002
6.76933
1
1
1
1
1
1
1
1
1
1
1
1
1
1.00001
1.00002
1.00006
1.00008
1.00038
1.00039
1.00205
1.0019
1.01076
1.01529
1.07944
1.00887
1.81787
1.8289
5.21799
8.30285
8.6248
8.53305
8.39728
8.38212
8.40147
8.44691
8.48966
8.50764
8.50463
8.48809
8.44656
8.38001
8.29763
8.19431
8.07053
7.92487
7.76213
7.59854
7.43026
7.24847
7.04764
1
1
1
1
1
1
1
1
1
1
1
1
1
1.00001
1.00001
1.00004
1.00006
1.00023
1.00037
1.00128
1.00213
1.00702
1.01294
1.05127
1.04067
1.44044
1.34832
3.84143
6.96507
8.41686
8.52979
8.46219
8.41464
8.4255
8.46088
8.50744
8.53345
8.53616
8.5283
8.50307
8.44998
8.37981
8.29252
8.19074
8.08097
7.96177
7.82682
7.67225
7.50135
7.31325
1
1
1
1
1
1
1
1
1
1
1
1
1
1
1.00001
1.00002
1.00003
1.00001
1.00037
1.00078
1.00096
1.00351
1.00517
1.00209
1.07722
1.20062
1.18481
2.52954
4.24096
7.86678
8.63814
8.61369
8.53611
8.51672
8.53433
8.579
8.62341
8.6454
8.64889
8.64194
8.6188
8.57033
8.50426
8.42158
8.31447
8.1875
8.04259
7.8814
7.7077
7.51985
1
1
1
1
1
1
1
1
1
1
1
1
1
1
1
1
0.999999
0.999991
0.999986
0.999939
0.999978
0.999755
1.00075
0.993674
1.01256
1.03312
0.945816
2.18734
2.52484
6.7037
8.54442
8.77507
8.73276
8.69072
8.70304
8.74489
8.82133
8.8787
8.90317
8.90043
8.8831
8.83786
8.7472
8.63061
8.4964
8.34782
8.18701
8.01624
7.83866
7.65221
1
1
1
1
1
1
1
1
1
1
1
1
1
1
1
1.00002
1.00003
1.00012
1.00014
1.00068
1.00079
1.00392
1.00543
1.02401
1.01351
1.05317
1.11525
1.03841
2.53384
3.8019
8.02773
9.07848
9.0634
9.02814
9.03488
9.07506
9.15878
9.2087
9.20546
9.18438
9.13083
9.02311
8.88883
8.74083
8.58575
8.42463
8.25799
8.08721
7.91429
7.7372
1
1
1
1
1
1
1
1
1
1
1
1
1
1
1
1.00001
1.00001
1.00004
1.00005
1.00023
1.00028
1.00115
1.00169
1.00587
1.00011
1.0123
1.02801
0.939311
2.19122
2.22305
6.67316
9.07198
9.4536
9.43314
9.43308
9.45164
9.49514
9.48791
9.45326
9.3739
9.24499
9.09821
8.94217
8.78183
8.6186
8.45492
8.29184
8.12942
7.96844
7.80608
1
1
1
1
1
1
1
1
1
1
1
1
1
1
1
1
1.00001
1.00001
1.00006
1.00007
1.00033
1.0004
1.00173
1.00186
1.01148
1.01018
1.0773
1.03871
1.67167
1.59401
5.01315
9.03226
10.0105
9.97289
9.87615
9.79058
9.71605
9.62405
9.51384
9.38766
9.24284
9.09156
8.93679
8.78063
8.6253
8.47169
8.32042
8.17164
8.02573
7.87959
1
1
1
1
1
1
1
1
1
1
1
1
1
1
1
1
1.00001
1.00001
1.00003
1.00003
1.00015
1.00019
1.00073
1.00102
1.00402
0.996598
1.01031
1.03477
0.941331
2.46158
3.04502
8.76609
10.6644
10.5497
10.258
9.95334
9.743
9.60582
9.48784
9.36079
9.22034
9.07216
8.92339
8.77854
8.63506
8.49472
8.35844
8.22521
8.09459
7.96353
1
1
1
1
1
1
1
1
1
1
1
1
1
1
1
1
1
1.00002
1.00002
1.0001
1.00011
1.00072
1.00082
1.00459
1.00708
1.02915
1.02579
1.08314
1.28765
1.28126
3.4434
6.84201
11.1542
11.0035
10.4729
9.95972
9.69079
9.54097
9.42185
9.30052
9.1739
9.04446
8.9171
8.78698
8.65806
8.53378
8.41336
8.29494
8.17779
8.05887
1
1
1
1
1
1
1
1
1
1
1
1
1
1
1
1
1
1
1
1.00002
1.00003
1.00024
1.00029
1.00197
1.00327
1.01621
1.00688
1.05498
1.14754
1.06428
3.07003
5.31649
11.2945
11.0028
10.4081
9.86915
9.56836
9.42418
9.33236
9.24466
9.14921
9.04546
8.93132
8.81641
8.70543
8.59783
8.49067
8.383
8.27468
8.16297
1
1
1
1
1
1
1
1
1
1
1
1
1
1
1
1
1
1
1.00001
1.00001
1.00001
1.00002
0.999947
1.00013
1.00076
1.00682
0.996017
1.03485
1.10065
1.00072
2.87153
4.56995
10.9819
10.7449
10.2312
9.70477
9.45698
9.37018
9.3202
9.2548
9.17058
9.07681
8.98109
8.88595
8.7903
8.69096
8.58894
8.48538
8.38052
8.27214
1
1
1
1
1
1
1
1
1
1
1
1
1
1
1
1
1
1
1
1.00001
1.00001
1.00004
1.00011
0.999234
0.998233
0.999178
0.988866
1.01941
1.06949
0.975509
2.6856
4.02735
10.3813
10.6282
10.2049
9.69049
9.45769
9.38313
9.34368
9.29128
9.22333
9.14456
9.06032
8.97184
8.88029
8.78622
8.68921
8.589
8.48657
8.38034
1
1
1
1
1
1
1
1
1
1
1
1
1
1
1
1
1
1
1.00002
1.00002
1.00016
1.00018
1.00098
1.00108
1.00569
1.00805
1.03275
1.03141
1.12271
1.43434
1.38329
4.8704
9.40711
10.6143
10.2699
9.72806
9.47977
9.41344
9.38812
9.35329
9.29663
9.22437
9.14242
9.05418
8.96255
8.86823
8.77271
8.67685
8.58076
8.48163
1
1
1
1
1
1
1
1
1
1
1
1
1
1
1
1
1
1
1.00001
1.00001
1.00007
1.00007
1.00033
1.00041
1.00141
1.00397
1.00172
1.01085
0.985968
0.89355
2.38332
2.69289
9.06864
10.7758
10.3841
9.77614
9.49065
9.40498
9.37941
9.35356
9.31034
9.24964
9.17705
9.09554
9.01139
8.92693
8.84097
8.75407
8.66546
8.57196
1
1
1
1
1
1
1
1
1
1
1
1
1
1
1
1
1
1
1.00001
1.00001
1.00006
1.00008
1.00033
1.00037
1.0019
1.00267
1.00922
1.01932
1.06804
1.01863
2.02784
2.33949
7.93375
11.021
10.6082
9.89139
9.54096
9.41469
9.38222
9.36382
9.3312
9.2731
9.20963
9.13893
9.06284
8.9863
8.90821
8.828
8.74614
8.65968
1
1
1
1
1
1
1
1
1
1
1
1
1
1
1
1
1
1
1
1
1.00001
1.00001
1.00015
1.00021
1.0014
1.00245
1.01254
1.00314
1.04807
1.1329
1.05118
3.05173
5.31968
11.1359
10.8536
10.2337
9.72193
9.4912
9.42447
9.39507
9.35881
9.30385
9.24072
9.18122
9.11096
9.0409
8.96953
8.89572
8.81916
8.73795
1
1
1
1
1
1
1
1
1
1
1
1
1
1
1
1
1
1
0.999999
0.999997
1
0.999986
1.00002
1.00005
0.999076
0.998406
1.00263
0.991688
1.02717
1.08463
0.980073
2.80444
4.37004
10.8152
10.6907
10.2458
9.72779
9.50067
9.44181
9.42286
9.39067
9.34376
9.28716
9.22535
9.16249
9.09505
9.02474
8.95428
8.87947
8.80128
1
1
1
1
1
1
1
1
1
1
1
1
1
1
1
1
1
1
1
1
1.00002
1.00002
1.00007
1.00019
0.99876
0.997275
0.998286
0.988513
1.01807
1.06333
0.96125
2.6685
3.95494
10.2608
10.6796
10.2721
9.75784
9.52073
9.46132
9.44192
9.41194
9.36879
9.31414
9.2536
9.19087
9.12492
9.05421
8.99017
8.91931
8.8466
1
1
1
1
1
1
1
1
1
1
1
1
1
1
1
1
1
1
1
1.00003
1.00003
1.00017
1.0002
1.00116
1.00137
1.00732
1.01216
1.0454
1.03986
1.09896
1.48035
1.5004
4.7601
9.52717
10.6563
10.3333
9.78678
9.52131
9.4549
9.4427
9.42223
9.38824
9.33914
9.27657
9.21438
9.14884
9.07984
9.00895
8.94426
8.87393
1
1
1
1
1
1
1
1
1
1
1
1
1
1
1
1
1
1
1
1.00001
1.00001
1.00006
1.00006
1.00031
1.00037
1.00115
1.00151
0.999991
1.00278
0.979709
0.93069
2.42455
2.9795
9.58077
10.8013
10.3632
9.77593
9.51217
9.44798
9.43726
9.42037
9.38687
9.3392
9.27836
9.21661
9.15119
9.0858
9.017
8.95444
8.8867
1
1
1
1
1
1
1
1
1
1
1
1
1
1
1
1
1
1
1
1.00001
1.00002
1.00007
1.00006
1.00039
1.00055
1.00116
1.00498
1.0032
1.02872
1.01295
0.910502
2.37418
2.6297
8.99538
11.0153
10.5119
9.84896
9.55573
9.47437
9.45376
9.43252
9.39535
9.34403
9.28027
9.22143
9.15717
9.09336
9.0296
8.96715
8.90346
1
1
1
1
1
1
1
1
1
1
1
1
1
1
1
1
1
1
1
1.00001
1.00001
1.00008
1.00008
1.00059
1.00064
1.00402
1.00633
1.0267
1.02597
1.1154
1.19546
1.19721
3.40153
6.78333
11.3267
10.9594
10.1469
9.71485
9.5552
9.50234
9.46758
9.41899
9.36049
9.29535
9.22927
9.16891
9.10631
9.04517
8.9849
8.92369
1
1
1
1
1
1
1
1
1
1
1
1
1
1
1
1
1
1
1
1.00001
1.00001
1.00006
1.00007
1.00035
1.00046
1.002
1.00279
1.00344
1.02503
1.07122
1.02658
1.8562
2.04482
6.84488
11.1587
10.8266
10.1345
9.73695
9.55994
9.50036
9.47275
9.4306
9.37644
9.31461
9.24979
9.18882
9.12894
9.06999
9.01113
8.95041
1
1
1
1
1
1
1
1
1
1
1
1
1
1
1
1
1
1
1
1.00001
1.00001
1.00006
1.00009
1.00035
1.00046
1.00204
1.00268
1.01158
1.01635
1.06764
1.04029
1.74012
1.84207
6.00533
11.0027
10.8172
10.2693
9.83016
9.60713
9.52977
9.50756
9.46507
9.416
9.35176
9.28469
9.22258
9.16309
9.10423
9.0446
8.98253
1
1
1
1
1
1
1
1
1
1
1
1
1
1
1
1
1
1
1
1.00001
1.00001
1.00005
1.00006
1.00032
1.00041
1.00185
1.00268
1.01152
1.01906
1.06822
1.0775
1.67395
1.74536
5.72898
10.8549
10.7666
10.3275
9.83928
9.58677
9.52144
9.51014
9.48411
9.44467
9.38252
9.31892
9.25846
9.19911
9.13987
9.08049
9.0161
1
1
1
1
1
1
1
1
1
1
1
1
1
1
1
1
1
1
1
1
1.00002
1.00002
1.00007
1.00033
1.00029
1.00206
1.00176
1.01181
1.0139
1.0707
1.07888
1.6447
1.70902
5.61243
10.7533
10.7166
10.3179
9.82804
9.58699
9.53906
9.53676
9.52223
9.49525
9.43565
9.36869
9.30431
9.24075
9.17748
9.11562
9.0515
1
1
1
1
1
1
1
1
1
1
1
1
1
1
1
1
1
1
1
1
1
1
0.999991
1
0.99998
1.00032
1.00118
1.0077
0.997771
1.03749
1.10603
1.01113
2.8947
4.67
11.0489
10.8037
10.3109
9.83991
9.6382
9.59044
9.58803
9.57449
9.54092
9.47832
9.40856
9.33867
9.27071
9.20561
9.14003
9.07403
1
1
1
1
1
1
1
1
1
1
1
1
1
1
1
1
1
1
1
1
1
1.00001
0.999999
1.00003
1.00005
0.999235
0.998666
1.00116
0.992946
1.02731
1.08398
0.977914
2.79534
4.36201
10.7596
10.7431
10.3186
9.87044
9.68807
9.649
9.63924
9.61722
9.57068
9.50308
9.42865
9.35412
9.28264
9.21546
9.15274
9.08822
1
1
1
1
1
1
1
1
1
1
1
1
1
1
1
1
1
1
1
1
1
1
0.999992
1.00001
0.999992
0.999487
0.99924
1.00371
0.992897
1.02973
1.08966
0.991463
2.82578
4.4526
10.9149
10.8783
10.4296
9.94942
9.73485
9.67616
9.65783
9.62613
9.57062
9.49979
9.4239
9.35062
9.28158
9.21459
9.15984
9.09917
1
1
1
1
1
1
1
1
1
1
1
1
1
1
1
1
1
1
1
1
1.00002
1.00003
1.00014
1.00017
1.00081
1.00114
1.00475
1.00378
1.0176
1.05235
1.08467
1.59047
1.76274
5.42993
10.5071
10.7807
10.3973
9.89125
9.64806
9.57017
9.57072
9.55403
9.51053
9.4367
9.36903
9.3029
9.24368
9.18535
9.13449
9.08187
1
1
1
1
1
1
1
1
1
1
1
1
1
1
1
1
1
1
1
1.00001
1.00001
1.00006
1.00016
1.00021
1.00091
1.00102
1.00444
1.00486
1.02309
1.06838
1.06073
1.53646
1.6337
5.12132
10.2901
11.0357
10.5984
9.98089
9.66015
9.57044
9.55513
9.51154
9.44989
9.38246
9.32167
9.26605
9.21716
9.16532
9.1194
9.07579
1
1
1
1
1
1
1
1
1
1
1
1
1
1
1
1
1
1
1
1
1.00003
1.00003
1.00015
1.0002
1.00081
1.00125
1.00504
1.00562
1.0287
1.07094
1.06612
1.54534
1.69547
5.05917
10.3118
11.2102
10.7184
10.02
9.65561
9.55233
9.50947
9.45819
9.39446
9.33364
9.27854
9.2288
9.18562
9.14047
9.0978
9.06172
2.91075
3.06472
4.26088
3.92277
3.76897
3.68044
3.60905
3.52067
3.44125
3.38835
3.36305
3.35361
3.35191
3.36324
3.3907
3.43202
3.48361
3.54252
3.60666
3.67427
3.74402
3.81468
3.88527
3.95528
4.02473
4.09248
4.15777
4.21968
4.27795
4.3326
4.38327
4.43021
4.47332
4.51203
4.55032
4.58357
4.6102
4.63241
4.65011
4.66374
4.67345
4.67967
4.68203
4.68173
4.67955
4.67402
4.66329
4.65033
4.63494
4.61768
4.59796
4.57636
4.55251
4.527
4.49955
4.47063
4.44007
4.40823
4.37505
4.34075
4.30535
4.26895
4.23162
4.1934
4.15434
4.1145
4.07388
4.03254
3.99048
3.94772
3.90423
3.86004
3.81517
3.76971
3.72374
3.67742
3.63089
3.58424
3.5376
3.49111
3.44481
3.39884
3.35329
3.30827
3.2637
3.21987
3.17678
3.13437
3.09273
3.05183
3.01178
2.97254
2.93423
2.89693
2.86088
2.82637
2.79404
2.76476
2.74024
2.72384
3.86032
3.9614
4.22458
3.93461
3.76978
3.71155
3.63068
3.52072
3.4262
3.37284
3.35097
3.3457
3.3476
3.36048
3.38579
3.42568
3.47714
3.53589
3.59982
3.6673
3.73683
3.80733
3.87777
3.94719
4.01699
4.08449
4.1499
4.21188
4.27009
4.32467
4.37533
4.42228
4.46536
4.505
4.54288
4.57587
4.60306
4.62545
4.64358
4.65757
4.6676
4.67387
4.6763
4.67601
4.67424
4.66931
4.65894
4.64497
4.62948
4.61239
4.59311
4.57171
4.54822
4.5229
4.4958
4.46709
4.43685
4.40521
4.37226
4.33813
4.30288
4.2666
4.22936
4.19121
4.1522
4.11239
4.07181
4.0305
3.98847
3.94574
3.9023
3.85816
3.81337
3.76799
3.72214
3.67596
3.62953
3.58301
3.53651
3.49012
3.44398
3.39802
3.35258
3.30761
3.26331
3.21952
3.17644
3.13404
3.0924
3.05149
3.0114
2.97214
2.93376
2.89644
2.86027
2.82568
2.79309
2.76351
2.73841
2.72084
4.79519
4.49593
4.31587
4.0162
3.8131
3.69806
3.60776
3.5102
3.42663
3.38093
3.36636
3.35385
3.34663
3.35443
3.38056
3.42328
3.47506
3.53377
3.59788
3.66563
3.73537
3.80607
3.87652
3.94617
4.01498
4.08223
4.14708
4.20876
4.26676
4.32113
4.37167
4.41854
4.46166
4.5013
4.53801
4.57042
4.59772
4.62005
4.63797
4.65168
4.66144
4.66732
4.66925
4.66884
4.66711
4.66257
4.6529
4.63817
4.62212
4.60491
4.58589
4.56481
4.54169
4.5167
4.48997
4.4616
4.43171
4.4004
4.36776
4.33389
4.29887
4.26277
4.22567
4.18763
4.14871
4.10896
4.06843
4.02716
3.98518
3.94249
3.89909
3.85502
3.81034
3.76513
3.71951
3.67357
3.62741
3.58112
3.53473
3.48859
3.44266
3.39716
3.3518
3.30713
3.26283
3.21916
3.17604
3.13374
3.092
3.05114
3.01091
2.97165
2.93314
2.89576
2.85942
2.82469
2.79179
2.76174
2.73613
2.71665
5.24553
4.8046
4.51677
4.20857
3.9614
3.80721
3.69519
3.58469
3.48498
3.41485
3.37371
3.35358
3.35342
3.36001
3.38141
3.42579
3.4795
3.53834
3.60172
3.668
3.73649
3.80598
3.87559
3.94422
4.01158
4.07739
4.14114
4.20179
4.25913
4.31279
4.36282
4.40909
4.45173
4.49082
4.52662
4.55848
4.58568
4.60807
4.62592
4.63952
4.64911
4.65479
4.65622
4.65578
4.65412
4.64999
4.64118
4.6265
4.60999
4.59247
4.57355
4.55283
4.53019
4.50568
4.47941
4.45151
4.42208
4.39121
4.35899
4.32549
4.29083
4.25503
4.21819
4.18037
4.14163
4.10204
4.06166
4.02051
3.97861
3.93598
3.89268
3.84875
3.80427
3.75938
3.71404
3.66848
3.62282
3.57708
3.53137
3.48561
3.43999
3.39471
3.34971
3.30519
3.26111
3.21763
3.17471
3.13245
3.09082
3.04994
3.00979
2.97046
2.93196
2.89447
2.8581
2.82314
2.79002
2.75941
2.73391
2.71162
5.56246
5.11741
4.80135
4.50709
4.25431
4.05422
3.89924
3.75796
3.62738
3.52424
3.45593
3.41742
3.40221
3.40348
3.41217
3.43692
3.48889
3.55438
3.61902
3.68273
3.74814
3.81385
3.87955
3.94486
4.00973
4.07334
4.13507
4.19405
4.25002
4.30252
4.3515
4.39685
4.43863
4.47686
4.51164
4.54262
4.56938
4.59157
4.60924
4.6227
4.63205
4.63749
4.63837
4.63788
4.63622
4.6323
4.62415
4.61039
4.594
4.57625
4.5573
4.53688
4.51474
4.4908
4.46512
4.4378
4.40893
4.3786
4.3469
4.3139
4.27965
4.24427
4.20782
4.17036
4.13196
4.09269
4.0526
4.01172
3.97006
3.92764
3.88458
3.84095
3.79679
3.75238
3.70776
3.66293
3.61782
3.57262
3.52734
3.48209
3.43692
3.39201
3.34736
3.30311
3.25926
3.21593
3.17314
3.13095
3.08939
3.04851
3.00835
2.96899
2.93046
2.89289
2.85643
2.82128
2.78795
2.75686
2.73147
2.70656
5.84702
5.45557
5.15046
4.86572
4.60598
4.37804
4.17786
3.99412
3.82202
3.67884
3.56987
3.49934
3.46278
3.45646
3.46064
3.47508
3.50853
3.57054
3.6366
3.70071
3.76381
3.82512
3.88544
3.94536
4.00557
4.06519
4.12352
4.18001
4.23419
4.28537
4.33334
4.37786
4.41885
4.45634
4.49035
4.52065
4.54709
4.56932
4.58714
4.60074
4.61025
4.61581
4.61653
4.61604
4.61444
4.61074
4.60308
4.59047
4.57471
4.55701
4.53793
4.51753
4.49563
4.47209
4.44688
4.42004
4.39167
4.36183
4.33064
4.29812
4.26438
4.22948
4.19349
4.15646
4.11849
4.07961
4.03988
3.99928
3.95786
3.91559
3.87282
3.82975
3.78633
3.74265
3.69863
3.65447
3.61002
3.56553
3.52091
3.47636
3.43182
3.38748
3.34335
3.29952
3.25608
3.21305
3.17053
3.12855
3.08717
3.04643
3.0064
2.96712
2.9287
2.89116
2.85474
2.81954
2.78614
2.75462
2.7284
2.70319
6.14742
5.82613
5.53583
5.25671
4.98675
4.72778
4.48454
4.25831
4.0513
3.87316
3.73169
3.63161
3.56971
3.54119
3.54123
3.54579
3.5605
3.59396
3.6526
3.71521
3.77479
3.83225
3.8892
3.94559
4.00085
4.0554
4.10938
4.16257
4.21432
4.2639
4.3107
4.35436
4.39465
4.43149
4.46487
4.49469
4.52056
4.54274
4.5608
4.57463
4.58434
4.59022
4.59104
4.59056
4.58899
4.58538
4.57799
4.56638
4.55144
4.53407
4.51498
4.49452
4.47267
4.44937
4.42454
4.39815
4.37029
4.34098
4.31033
4.27838
4.2452
4.21085
4.17543
4.13898
4.10158
4.06327
4.02403
3.98381
3.94285
3.90149
3.85946
3.8171
3.77435
3.73137
3.68805
3.64459
3.60089
3.55714
3.51326
3.46943
3.42559
3.38187
3.33832
3.29499
3.25197
3.20929
3.16705
3.12531
3.08411
3.04354
3.00366
2.96451
2.92623
2.88883
2.85255
2.81744
2.78416
2.75248
2.72661
2.70006
6.46698
6.19589
5.92438
5.64073
5.34948
5.06342
4.78789
4.53063
4.29746
4.09447
3.92761
3.80017
3.71109
3.65772
3.633
3.63021
3.63332
3.64477
3.67173
3.72302
3.77702
3.83259
3.88723
3.94054
3.9921
4.04243
4.09214
4.14144
4.18993
4.23707
4.28217
4.3247
4.36426
4.40056
4.43346
4.46289
4.4887
4.51078
4.52892
4.54316
4.55339
4.55989
4.56111
4.56071
4.55921
4.55584
4.54883
4.53788
4.52364
4.50677
4.48783
4.46732
4.4454
4.42215
4.3975
4.37144
4.34398
4.31513
4.28501
4.25359
4.22103
4.18731
4.15254
4.11673
4.07999
4.0423
4.00355
3.96415
3.92404
3.88343
3.8423
3.80077
3.75882
3.71663
3.67415
3.63154
3.58876
3.54594
3.50302
3.46011
3.41719
3.37433
3.33156
3.28893
3.24653
3.20439
3.16262
3.12125
3.08042
3.04014
3.00057
2.96168
2.92369
2.88655
2.85058
2.81572
2.78267
2.75128
2.72443
2.6995
6.78979
6.54106
6.27021
5.97403
5.66571
5.3588
5.0655
4.79292
4.54693
4.33108
4.1488
4.00177
3.88881
3.80974
3.75844
3.73001
3.71718
3.71803
3.72388
3.74061
3.77607
3.82186
3.87249
3.92389
3.97444
4.02323
4.07064
4.11693
4.16217
4.20631
4.24896
4.28976
4.32818
4.36382
4.39636
4.4256
4.45143
4.47367
4.49223
4.50703
4.51781
4.52489
4.52689
4.52655
4.52527
4.52214
4.51561
4.50519
4.49152
4.47519
4.45652
4.43603
4.41404
4.39075
4.36615
4.34028
4.31313
4.28469
4.25505
4.22418
4.19223
4.15915
4.12511
4.09006
4.05411
4.01709
3.97935
3.9409
3.90185
3.86223
3.8221
3.78154
3.74057
3.69934
3.65788
3.61626
3.57453
3.53269
3.49082
3.44887
3.40694
3.36495
3.32306
3.28119
3.23953
3.19799
3.15683
3.11595
3.07562
3.03575
2.99663
2.95814
2.92061
2.88392
2.84845
2.81414
2.78163
2.75096
2.72414
2.70024
7.0688
6.82192
6.54439
6.24001
5.92695
5.61685
5.32102
5.04663
4.79851
4.57858
4.3877
4.22639
4.09386
3.98858
3.90879
3.85175
3.81383
3.79119
3.7836
3.78562
3.79444
3.81589
3.85479
3.89484
3.94326
3.99246
4.04073
4.0867
4.13042
4.17223
4.21232
4.25082
4.28738
4.32178
4.35363
4.38265
4.40859
4.43128
4.4505
4.46623
4.47803
4.48563
4.48869
4.48846
4.4874
4.48462
4.47871
4.46874
4.45541
4.43968
4.42132
4.40096
4.37895
4.35559
4.33098
4.30521
4.27827
4.25017
4.22096
4.19062
4.15927
4.12687
4.09358
4.05931
4.02413
3.98805
3.95131
3.91387
3.87587
3.83728
3.79824
3.75875
3.71894
3.67884
3.63855
3.59809
3.55753
3.51682
3.4761
3.43522
3.39438
3.3534
3.31251
3.27155
3.23078
3.19005
3.14967
3.10949
3.06984
3.03061
2.9921
2.95424
2.91733
2.88132
2.84655
2.81306
2.7815
2.75174
2.72545
2.70273
7.27047
7.01806
6.74864
6.45292
6.14766
5.84759
5.56194
5.29629
5.05289
4.833
4.6362
4.46277
4.3127
4.18442
4.07906
3.99499
3.93028
3.88286
3.85164
3.83366
3.83341
3.83692
3.84887
3.87511
3.90631
3.95021
3.99854
4.04617
4.09121
4.13328
4.17266
4.20961
4.24438
4.2771
4.30766
4.33591
4.3616
4.38444
4.4042
4.42053
4.43357
4.44186
4.44629
4.44624
4.44553
4.44338
4.43852
4.42898
4.41607
4.40078
4.38276
4.36267
4.3407
4.3173
4.29263
4.26685
4.23998
4.21208
4.18315
4.1532
4.12233
4.0905
4.05785
4.02427
3.98984
3.95471
3.91897
3.88255
3.84562
3.80815
3.77031
3.73207
3.69359
3.65482
3.61589
3.57675
3.53751
3.49809
3.45861
3.41894
3.37926
3.33941
3.2996
3.25971
3.21993
3.1802
3.14073
3.10149
3.06268
3.02434
2.98667
2.94973
2.91369
2.87873
2.84497
2.81289
2.78242
2.75412
2.72907
2.7084
7.409
7.16386
6.90277
6.62556
6.34433
6.06635
5.79769
5.54352
5.30575
5.08598
4.88393
4.70022
4.53503
4.38792
4.2612
4.15385
4.06535
3.99459
3.94028
3.90084
3.87675
3.8661
3.86724
3.87304
3.88807
3.91328
3.94903
3.99375
4.03954
4.08363
4.12485
4.16279
4.19765
4.22976
4.25937
4.28674
4.31179
4.33442
4.35437
4.37125
4.38515
4.39468
4.40029
4.40097
4.40047
4.39881
4.39474
4.38641
4.37388
4.35885
4.34127
4.32144
4.29961
4.27623
4.25149
4.22566
4.19875
4.17089
4.1421
4.1124
4.08187
4.05048
4.01834
3.98531
3.95166
3.91733
3.88247
3.84704
3.81121
3.77493
3.73839
3.70151
3.66445
3.62712
3.58967
3.55197
3.51417
3.47614
3.43802
3.39969
3.36129
3.32272
3.28413
3.24546
3.20684
3.1683
3.12994
3.09186
3.05414
3.01694
2.9804
2.94468
2.90987
2.87625
2.844
2.81362
2.7849
2.75885
2.73593
2.71823
7.50982
7.2824
7.04403
6.79054
6.53015
6.27113
6.01911
5.77679
5.54578
5.32755
5.12206
4.93056
4.75401
4.59296
4.44869
4.32222
4.21367
4.12227
4.04718
3.9874
3.94214
3.91141
3.89316
3.88764
3.88965
3.89755
3.91454
3.94289
3.98165
4.02452
4.06725
4.10775
4.14497
4.17855
4.20873
4.23593
4.26045
4.28251
4.30212
4.31901
4.33327
4.34367
4.35056
4.35251
4.35219
4.35088
4.34759
4.34064
4.32878
4.31431
4.29713
4.27773
4.25614
4.23286
4.20812
4.1822
4.15517
4.12724
4.0984
4.06876
4.03836
4.0072
3.97534
3.9427
3.90955
3.87582
3.8417
3.80716
3.77237
3.73726
3.70201
3.66651
3.63092
3.5951
3.55919
3.52305
3.48681
3.45033
3.41375
3.37694
3.34005
3.30295
3.26584
3.22858
3.19142
3.15423
3.11731
3.08056
3.04428
3.00847
2.97339
2.93911
2.90603
2.87418
2.84431
2.81596
2.78989
2.76689
2.74669
2.73328
7.59965
7.39383