/*--------------------------------*- C++ -*----------------------------------*\
| =========                 |                                                 |
| \\      /  F ield         | OpenFOAM: The Open Source CFD Toolbox           |
|  \\    /   O peration     | Version:  2412                                  |
|   \\  /    A nd           | Website:  www.openfoam.com                      |
|    \\/     M anipulation  |                                                 |
\*---------------------------------------------------------------------------*/
FoamFile
{
    version     2.0;
    format      ascii;
    arch        "LSB;label=32;scalar=64";
    class       surfaceScalarField;
    location    "5";
    object      phi;
}
// * * * * * * * * * * * * * * * * * * * * * * * * * * * * * * * * * * * * * //

dimensions      [1 0 -1 0 0 0 0];

oriented        oriented;

internalField   nonuniform List<scalar> 
13790
(
0.00290515
-7.37827e-14
0.00290515
2.55263e-12
0.00290515
5.00726e-12
0.00290515
2.00896e-11
0.00290515
3.54722e-11
0.00290515
1.28017e-10
0.00290515
2.194e-10
0.00290515
7.77117e-10
0.00290515
1.32653e-09
0.00290515
4.77272e-09
0.00290514
7.39184e-09
0.00290511
2.62301e-08
0.00290505
5.78173e-08
0.0029049
1.56542e-07
0.00290463
2.84303e-07
0.00290357
1.05027e-06
0.00290282
7.17476e-07
0.00290219
6.16098e-07
0.00290194
2.41024e-07
0.00290126
2.71219e-07
0.0029
6.1007e-07
0.00289752
1.4502e-06
0.00289314
3.83708e-06
0.00287187
1.58491e-05
0.00283171
3.96418e-05
0.00278093
5.08435e-05
0.00272567
5.69054e-05
0.00266423
6.20053e-05
0.00259811
6.60212e-05
0.00252701
7.02333e-05
0.0024512
7.44077e-05
0.00237005
7.94348e-05
0.00228303
8.49011e-05
0.00219118
9.02239e-05
0.00209482
9.53794e-05
0.00199272
0.000100549
0.00188566
0.000105822
0.00177397
0.00011141
0.00165579
0.000117159
0.00153155
0.000122905
0.00140244
0.000128788
0.00126745
0.000134796
0.00112528
0.000140631
0.000977107
0.000146081
0.000824754
0.000151345
0.000668159
0.000156445
0.000507232
0.000161018
0.000342408
0.000164627
0.000173201
0.000168586
0.000172705
0.00301309
-1.11349e-13
0.00301309
4.49315e-12
0.00301309
8.71285e-12
0.00301309
3.57288e-11
0.00301309
6.61631e-11
0.00301309
2.32999e-10
0.00301309
3.85487e-10
0.00301309
1.4715e-09
0.00301309
2.54369e-09
0.00301309
9.04605e-09
0.00301308
1.40553e-08
0.00301305
5.86051e-08
0.00301299
1.09491e-07
0.0030128
4.10789e-07
0.00301204
8.48983e-07
0.00300922
3.99432e-06
0.00301025
-3.91081e-07
0.0030102
6.82983e-07
0.0030105
-5.317e-08
0.00300983
5.27523e-07
0.00300844
1.33467e-06
0.00300576
3.1003e-06
0.00300067
8.32995e-06
0.00297872
3.22567e-05
0.00293595
8.18468e-05
0.00288287
0.000103976
0.00282594
0.000115472
0.00276296
0.000125527
0.00269447
0.000134381
0.00262059
0.000143188
0.00254158
0.000151963
0.00245708
0.000162165
0.00236671
0.000173062
0.00227145
0.000183777
0.00217152
0.000194289
0.00206558
0.000204867
0.00195445
0.000215639
0.00183852
0.000227033
0.00171584
0.000238756
0.00158687
0.000250485
0.00145284
0.00026249
0.00131266
0.000274765
0.00116497
0.000286724
0.00101097
0.00029793
0.000852551
0.000308737
0.000689711
0.000319136
0.000522468
0.000328355
0.000351181
0.0003357
0.00017648
0.000342633
0.000348656
0.00312505
-1.05401e-13
0.00312505
4.81935e-12
0.00312505
9.56484e-12
0.00312505
3.97108e-11
0.00312505
6.4562e-11
0.00312505
2.70338e-10
0.00312504
5.06475e-10
0.00312505
1.70623e-09
0.00312504
3.42021e-09
0.00312504
1.06178e-08
0.00312503
2.46196e-08
0.00312501
7.66356e-08
0.00312494
1.81613e-07
0.00312495
4.03768e-07
0.00312509
7.26905e-07
0.00312749
1.59127e-06
0.00312583
1.24896e-06
0.00312553
9.60067e-07
0.00312462
8.32846e-07
0.00312298
1.74401e-06
0.00312078
2.85456e-06
0.00311731
5.52195e-06
0.00311163
1.34108e-05
0.00308893
4.93434e-05
0.00304303
0.000127128
0.00298715
0.000159838
0.00292806
0.000176119
0.00286283
0.000191222
0.00279184
0.000205173
0.00271516
0.000218874
0.00263303
0.000232586
0.00254521
0.000248137
0.00245149
0.00026449
0.00235285
0.000280651
0.00224937
0.000296668
0.00213965
0.000312843
0.00202459
0.000329314
0.00190456
0.000346739
0.0017775
0.000364651
0.00164391
0.000382581
0.00150506
0.000400977
0.00135979
0.000419816
0.00120662
0.000438236
0.0010468
0.000455539
0.000882304
0.000472198
0.000713191
0.000488113
0.000539536
0.000502127
0.000361802
0.000513204
0.000181287
0.000522455
0.000529373
0.00324116
7.31029e-14
0.00324116
2.27753e-12
0.00324116
5.25229e-12
0.00324116
1.66253e-11
0.00324116
2.86731e-11
0.00324116
1.05105e-10
0.00324116
2.18958e-10
0.00324116
4.59246e-10
0.00324116
8.22628e-10
0.00324117
1.76927e-09
0.0032412
-1.29277e-09
0.00324123
4.22976e-08
0.00324132
8.70046e-08
0.00324148
2.1658e-07
0.00324181
4.30424e-07
0.00324274
6.72675e-07
0.00324306
9.23944e-07
0.00324284
1.15751e-06
0.00324218
1.4627e-06
0.00324034
3.15065e-06
0.00323793
4.59982e-06
0.0032343
8.09806e-06
0.00322802
1.90862e-05
0.00320563
6.6128e-05
0.00315752
0.000174482
0.00309818
0.000219025
0.00303516
0.000240541
0.00296668
0.000260073
0.00289278
0.00027881
0.00281321
0.00029739
0.00272788
0.000316348
0.00263662
0.000337465
0.00253942
0.000359324
0.00243723
0.000380962
0.00233011
0.000402588
0.00221663
0.000424539
0.00209759
0.000446918
0.00197332
0.000470542
0.0018418
0.000494833
0.00170359
0.000519218
0.00155991
0.00054432
0.00140943
0.000570076
0.00125069
0.000595277
0.00108496
0.000619021
0.000914232
0.000641876
0.000738657
0.000663554
0.000558537
0.000682339
0.000374329
0.000697161
0.000187439
0.000708605
0.000716191
0.00336158
7.87715e-13
0.00336158
1.95613e-12
0.00336158
6.92622e-12
0.00336158
1.17512e-11
0.00336158
2.23513e-11
0.00336158
8.67001e-11
0.00336158
1.98859e-10
0.00336158
2.9448e-10
0.00336158
6.07637e-10
0.00336158
6.03368e-10
0.00336158
-1.6996e-09
0.00336162
1.06213e-08
0.00336168
2.43526e-08
0.00336181
8.73456e-08
0.00336206
1.77763e-07
0.00336246
2.84555e-07
0.00336279
5.8532e-07
0.00336295
9.88539e-07
0.00336275
1.63392e-06
0.00336137
4.09947e-06
0.00335928
6.03123e-06
0.00335592
1.04235e-05
0.00334952
2.48914e-05
0.00332822
8.18926e-05
0.0032785
0.000223229
0.00321486
0.000282291
0.0031462
0.000310402
0.00307369
0.000332842
0.00299661
0.000355549
0.00291416
0.000378741
0.0028256
0.000403244
0.002731
0.000430133
0.00263047
0.000457545
0.00252474
0.000484725
0.00241385
0.000512041
0.0022965
0.000539926
0.00217345
0.000568409
0.00204496
0.000598426
0.00190913
0.000629314
0.00176633
0.000660539
0.00161769
0.000692655
0.00146177
0.000725723
0.00129708
0.000758075
0.00112515
0.00078857
0.000948139
0.000817873
0.000766015
0.000845621
0.000578995
0.000869563
0.00038796
0.000887932
0.000194294
0.000901481
0.000909802
0.00348648
6.37966e-13
0.00348648
1.65978e-12
0.00348648
6.84184e-12
0.00348648
1.24875e-11
0.00348648
6.19382e-11
0.00348648
4.43132e-11
0.00348648
1.57938e-10
0.00348648
2.68545e-10
0.00348648
7.37301e-10
0.00348648
1.27207e-09
0.00348648
1.81426e-09
0.00348648
4.10375e-09
0.0034865
6.22577e-09
0.00348657
1.85579e-08
0.00348672
3.78077e-08
0.00348697
4.48368e-08
0.00348716
3.71804e-07
0.00348727
8.81796e-07
0.00348708
1.7921e-06
0.00348581
4.94724e-06
0.00348388
7.31999e-06
0.00348077
1.25393e-05
0.00347477
3.02856e-05
0.00345465
9.65871e-05
0.00340299
0.000273741
0.00333315
0.000351489
0.00325798
0.00038647
0.00318138
0.000409592
0.00310109
0.000435438
0.00301596
0.000462817
0.00292422
0.000493287
0.00282627
0.000526032
0.00272241
0.000558952
0.00261341
0.000591658
0.00249924
0.000624764
0.0023786
0.000658752
0.00225195
0.000693581
0.0021194
0.00073025
0.00197913
0.000768077
0.00183168
0.00080641
0.0016778
0.000846082
0.00151628
0.00088668
0.00134575
0.000926575
0.00116758
0.000964342
0.000984015
0.00100048
0.000795231
0.00103439
0.000601396
0.00106363
0.000402961
0.00108609
0.000201876
0.00110169
0.00111091
0.00361602
1.03761e-12
0.00361602
1.70385e-12
0.00361602
6.52282e-12
0.00361602
1.13967e-11
0.00361602
3.75917e-11
0.00361602
5.90167e-11
0.00361602
1.98669e-10
0.00361602
3.55209e-10
0.00361602
1.40981e-09
0.00361602
2.61627e-09
0.00361602
6.56342e-09
0.00361602
8.60343e-10
0.00361603
-5.89973e-09
0.00361607
-1.60405e-08
0.00361616
-5.04619e-08
0.00361634
-1.26152e-07
0.00361637
3.24998e-07
0.00361609
1.154e-06
0.0036154
2.45454e-06
0.00361377
6.15277e-06
0.00361178
8.71374e-06
0.00360853
1.4831e-05
0.00360366
3.45579e-05
0.00358522
0.000109624
0.00353147
0.000327247
0.0034503
0.0004313
0.00336923
0.000467745
0.00328924
0.000489492
0.00320591
0.000518236
0.00311788
0.000549651
0.00302331
0.000586215
0.00292267
0.000624796
0.00281606
0.000663257
0.00270397
0.000701586
0.00258642
0.00074057
0.00246216
0.000780811
0.0023317
0.000822189
0.00219512
0.000865789
0.0020505
0.000910898
0.00189848
0.000956726
0.00173956
0.0010043
0.00157238
0.00105291
0.00139611
0.00110067
0.00121203
0.00114612
0.00102208
0.00118968
0.000826284
0.00123038
0.000625182
0.00126499
0.000419199
0.0012918
0.00021006
0.0013099
0.00132011
0.00375038
7.12167e-13
0.00375038
1.28278e-12
0.00375038
5.10772e-12
0.00375038
1.00971e-11
0.00375038
3.25583e-11
0.00375038
4.51155e-11
0.00375038
1.93683e-10
0.00375037
3.98452e-10
0.00375038
1.37957e-09
0.00375038
2.95311e-09
0.00375036
1.87094e-08
0.00375037
-1.02424e-08
0.00375038
-9.76428e-09
0.00375041
-4.2596e-08
0.00375046
-9.92205e-08
0.00375058
-2.35116e-07
0.00375034
6.06773e-07
0.00374889
2.6197e-06
0.00374775
3.62396e-06
0.00374618
7.20495e-06
0.00374411
1.01963e-05
0.00373876
1.91669e-05
0.00374116
3.17702e-05
0.00372641
0.000118182
0.00366773
0.000394576
0.00357301
0.000519581
0.00348341
0.000554501
0.00339998
0.00057236
0.0033131
0.000604424
0.00322127
0.000640227
0.00312324
0.000682574
0.00301921
0.000726896
0.00290927
0.00077085
0.00279382
0.000814749
0.00267285
0.000859663
0.00254517
0.000906209
0.0024111
0.000954264
0.00227071
0.00100494
0.00212216
0.00105748
0.00196584
0.00111131
0.00180239
0.00116681
0.00163057
0.00122376
0.00144901
0.00128023
0.00125933
0.00133387
0.00106323
0.00138563
0.000860593
0.00143348
0.000651657
0.00147435
0.000437325
0.0015058
0.000219331
0.00152689
0.00153848
0.00388972
6.38757e-14
0.00388972
1.24733e-13
0.00388972
9.32396e-13
0.00388972
1.58248e-12
0.00388972
4.6222e-12
0.00388972
6.77426e-12
0.00388972
2.11406e-11
0.00388972
4.69079e-11
0.00388972
1.52765e-10
0.00388973
3.25249e-10
0.00388974
2.68002e-09
0.00388973
-2.81477e-09
0.00388974
-1.28638e-08
0.00388974
-4.34506e-08
0.00388976
-1.18962e-07
0.0038898
-2.73135e-07
0.00389105
4.8177e-07
0.00389116
1.85943e-06
0.00389524
3.77185e-06
0.00389055
7.68227e-06
0.00388879
1.05963e-05
0.00388968
1.75787e-05
0.00387372
4.69884e-05
0.00383723
0.000150258
0.00373286
0.000497376
0.00366112
0.00058949
0.00358426
0.000630853
0.00350124
0.000654974
0.00341249
0.000692525
0.00331785
0.00073369
0.00321698
0.000781738
0.00311019
0.000831566
0.00299773
0.000880818
0.00287989
0.000930211
0.00275657
0.000981065
0.0026264
0.00103415
0.00248983
0.001089
0.00234649
0.0011472
0.00219522
0.00120714
0.00203553
0.00126961
0.00186781
0.00133369
0.00169167
0.00139902
0.00150585
0.00146467
0.00131096
0.0015278
0.00110827
0.00158808
0.00089809
0.00164407
0.000680976
0.00169173
0.00045751
0.00172882
0.000229556
0.00175379
0.00176698
0.00403424
-4.11458e-13
0.00403424
-7.22788e-13
0.00403424
-2.53491e-12
0.00403424
-4.47071e-12
0.00403424
-1.48312e-11
0.00403424
-2.63456e-11
0.00403424
-8.4776e-11
0.00403424
-1.59099e-10
0.00403424
-5.19901e-10
0.00403425
-6.64557e-10
0.00403425
-3.08043e-09
0.00403425
-4.00051e-09
0.00403426
-1.81573e-08
0.00403426
-4.37683e-08
0.0040343
-1.34309e-07
0.00403417
-2.80465e-07
0.00403474
4.25103e-07
0.00402818
2.22714e-06
0.00403228
3.01682e-06
0.00403503
6.72736e-06
0.00403545
9.945e-06
0.00403754
1.46624e-05
0.00402743
5.65877e-05
0.0040061
0.000167652
0.00388727
0.000612865
0.00379014
0.000685855
0.00370715
0.000713519
0.00361994
0.000741631
0.00352652
0.000785086
0.00342722
0.000831697
0.00332242
0.000884728
0.00321155
0.000939992
0.0030954
0.00099448
0.00297381
0.00104962
0.00284702
0.00110633
0.00271375
0.00116594
0.00257422
0.00122762
0.00242821
0.00129312
0.00227363
0.00136153
0.00211126
0.00143138
0.00194023
0.00150497
0.00175963
0.00158003
0.001569
0.00165505
0.00136801
0.0017281
0.0011591
0.00179715
0.000941277
0.00186229
0.000714666
0.00191857
0.000481045
0.00196217
0.000241725
0.00199189
0.00200754
0.00418414
-1.15471e-12
0.00418414
-1.07103e-12
0.00418414
-5.64542e-12
0.00418414
-9.37115e-12
0.00418414
-3.26911e-11
0.00418414
-5.59618e-11
0.00418414
-1.91178e-10
0.00418414
-3.25323e-10
0.00418414
-1.1127e-09
0.00418414
-1.93758e-09
0.00418414
-6.39367e-09
0.00418415
-1.30475e-08
0.00418417
-3.23321e-08
0.0041842
-7.19684e-08
0.00418421
-1.46514e-07
0.00418433
-2.78687e-07
0.00418339
2.89042e-07
0.0041901
1.43012e-06
0.00418467
2.82098e-06
0.00418486
6.56199e-06
0.00418473
9.88203e-06
0.0041852
1.40799e-05
0.00417938
6.18076e-05
0.00416137
0.000182795
0.00405099
0.000719487
0.00394385
0.000792051
0.00384679
0.000809758
0.00375179
0.000835692
0.00365284
0.000882877
0.00354917
0.000934041
0.00343967
0.000992682
0.00332442
0.0010528
0.0032042
0.00111202
0.00307963
0.00117211
0.00294969
0.00123474
0.00281347
0.0013005
0.00267076
0.00136932
0.00252198
0.00144206
0.0023643
0.00151874
0.00219712
0.0015981
0.00202218
0.00167989
0.00183753
0.00176515
0.00164166
0.00185091
0.00143473
0.00193431
0.00121717
0.00201473
0.000990709
0.00208905
0.000754352
0.00215499
0.000508098
0.0022079
0.000255608
0.00224311
0.00226189
0.0043396
-6.32193e-13
0.0043396
-1.79825e-12
0.0043396
-6.68693e-12
0.0043396
-1.19721e-11
0.0043396
-4.14713e-11
0.0043396
-7.13127e-11
0.0043396
-2.437e-10
0.0043396
-4.29229e-10
0.0043396
-1.44243e-09
0.0043396
-2.34063e-09
0.0043396
-8.571e-09
0.0043396
-1.58453e-08
0.00433965
-5.28168e-08
0.00433966
-7.83907e-08
0.00433963
-1.45009e-07
0.00433977
-2.74176e-07
0.00433854
3.53063e-07
0.00434475
1.75169e-06
0.00433951
2.73296e-06
0.00433897
6.44088e-06
0.00433861
9.96855e-06
0.00433853
1.41647e-05
0.00433543
6.42872e-05
0.004316
0.000199355
0.00421325
0.000818195
0.00410451
0.00089923
0.00400016
0.000913765
0.00389892
0.000936053
0.003794
0.000986552
0.00368438
0.00104189
0.00356975
0.00110543
0.00345024
0.00117026
0.0033254
0.00123408
0.0031962
0.00129865
0.00306259
0.00136638
0.00292304
0.00143813
0.00277712
0.00151349
0.00262426
0.00159383
0.00246406
0.00167792
0.00229469
0.00176685
0.00211514
0.00185936
0.00192624
0.00195438
0.001725
0.00205211
0.00151132
0.00214685
0.00128695
0.00223909
0.00104964
0.00232659
0.000801111
0.00240347
0.000541915
0.00246645
0.000273044
0.00251064
0.00253359
0.00450084
-5.01365e-13
0.00450084
-1.48376e-12
0.00450084
-5.74983e-12
0.00450084
-1.12513e-11
0.00450084
-3.5269e-11
0.00450084
-6.99061e-11
0.00450084
-2.02956e-10
0.00450084
-4.22739e-10
0.00450084
-1.13403e-09
0.00450084
-2.74163e-09
0.00450083
-7.09013e-09
0.00450084
-1.56444e-08
0.0045008
-3.69014e-08
0.00450082
-7.40032e-08
0.00450077
-1.344e-07
0.004501
-2.57924e-07
0.0045004
4.05899e-07
0.00450843
1.74195e-06
0.00450231
3.07095e-06
0.00449987
6.57924e-06
0.00449929
1.01099e-05
0.00449965
1.39033e-05
0.00449474
6.87712e-05
0.00448655
0.000204551
0.00438655
0.000914145
0.00427178
0.00101282
0.00416428
0.00102046
0.00405759
0.00104161
0.00394735
0.00109534
0.0038328
0.00115456
0.00371317
0.00122285
0.00358977
0.00129205
0.00346168
0.00136004
0.00332839
0.0014294
0.00319071
0.00150168
0.00304739
0.00157888
0.00289854
0.00166014
0.00274283
0.00174796
0.00257848
0.00184045
0.0024064
0.00193764
0.00222405
0.00204096
0.00203
0.00214805
0.00182384
0.00225758
0.00160299
0.00236636
0.00136859
0.00247278
0.00112149
0.00257375
0.00085888
0.00266609
0.000581926
0.00274284
0.000294053
0.00279712
0.00282621
0.00466806
-6.95602e-14
0.00466806
-8.13744e-13
0.00466806
-1.87988e-12
0.00466806
-5.93192e-12
0.00466806
-1.14102e-11
0.00466806
-3.11823e-11
0.00466806
-6.36452e-11
0.00466806
-1.51123e-10
0.00466806
-3.04291e-10
0.00466806
-6.88149e-10
0.00466806
-1.4242e-09
0.00466804
-1.48252e-09
0.00466802
-2.04923e-08
0.00466799
-4.39034e-08
0.00466794
-8.86489e-08
0.00466805
-2.11257e-07
0.00466734
5.41292e-07
0.00467357
2.2102e-06
0.00466902
3.02627e-06
0.00466736
6.43259e-06
0.00466698
1.00028e-05
0.00466757
1.33268e-05
0.00466417
7.16991e-05
0.00465897
0.000206758
0.00457556
0.000993164
0.00445869
0.00112884
0.00434265
0.0011355
0.00422896
0.00115406
0.00411302
0.00120967
0.00399379
0.00127209
0.00386966
0.00134476
0.00374163
0.00141792
0.00361048
0.00148959
0.00347426
0.00156343
0.00333247
0.00164052
0.00318517
0.00172266
0.00303269
0.00180986
0.00287503
0.00190389
0.00270831
0.00200492
0.00253228
0.00211126
0.00234749
0.00222435
0.00215076
0.00234377
0.00193897
0.00246807
0.00171224
0.00259133
0.00146976
0.00271423
0.00120889
0.0028342
0.000931146
0.00294355
0.000634896
0.00303848
0.0003219
0.00310865
0.00314658
0.00484151
1.15e-14
0.00484151
-9.74295e-14
0.00484151
-1.12918e-13
0.00484151
-5.03686e-13
0.00484151
-7.72055e-13
0.00484151
-1.12439e-12
0.00484151
-5.53779e-12
0.00484151
-4.3345e-12
0.00484151
1.16422e-11
0.00484151
-5.16489e-11
0.0048415
-4.74604e-12
0.00484151
-3.2086e-09
0.00484148
8.58186e-09
0.00484142
1.21379e-08
0.00484136
-2.2625e-08
0.00484136
-1.97374e-07
0.00484133
5.31041e-07
0.00484196
1.55536e-06
0.00484207
2.88694e-06
0.0048419
6.21503e-06
0.00484198
9.72362e-06
0.00484285
1.25563e-05
0.0048411
7.30195e-05
0.00483753
0.000207471
0.00477144
0.00105397
0.00465763
0.00124182
0.0045353
0.00125678
0.0044139
0.00127419
0.00429196
0.00132993
0.00416835
0.00139407
0.00404049
0.00147026
0.00390867
0.00154706
0.00377397
0.00162208
0.00363588
0.00169933
0.00349226
0.00178126
0.00334292
0.00186842
0.00318735
0.00196193
0.00302596
0.00206266
0.0028576
0.00217092
0.00267996
0.00228735
0.00249147
0.0024115
0.00229203
0.00254211
0.00207789
0.00268102
0.00184371
0.00282362
0.0015917
0.00296478
0.00132005
0.00310518
0.00102302
0.00324011
0.000701631
0.00335908
0.00035814
0.00345057
0.00350306
0.00502139
-5.36919e-15
0.00502139
1.91742e-13
0.00502139
3.49744e-13
0.00502139
1.25623e-12
0.00502139
2.30024e-12
0.00502139
6.13353e-12
0.00502139
1.85533e-11
0.00502139
4.40399e-11
0.00502139
6.18175e-11
0.00502139
4.14727e-10
0.00502139
1.03096e-09
0.00502139
2.41877e-09
0.0050214
4.08136e-09
0.00502134
3.5896e-08
0.00502123
8.83725e-08
0.00502089
1.65864e-07
0.00502086
5.58524e-07
0.00502084
1.51907e-06
0.00502122
2.52798e-06
0.00502147
5.63865e-06
0.00502197
9.10893e-06
0.00502344
1.1298e-05
0.00502366
7.24738e-05
0.00502426
0.000204016
0.00497498
0.00109751
0.00486646
0.00134834
0.0047372
0.0013844
0.00460747
0.00140235
0.00447964
0.00145599
0.0043516
0.00152033
0.0042209
0.00159911
0.00408614
0.00167939
0.00394844
0.00175725
0.00380805
0.00183725
0.00366353
0.00192273
0.00351332
0.00201462
0.00335885
0.00211287
0.00319752
0.00222132
0.00302822
0.00233749
0.00285047
0.00246311
0.00266122
0.00259925
0.00245843
0.00274373
0.00224183
0.00289607
0.00200623
0.00305739
0.00174567
0.00322337
0.00145961
0.00339026
0.00114537
0.00355328
0.000795476
0.00370793
0.00041037
0.00383391
0.00391168
0.00520796
-1.3852e-15
0.00520796
4.82897e-13
0.00520796
9.02897e-13
0.00520796
3.39268e-12
0.00520796
5.84264e-12
0.00520796
1.9631e-11
0.00520796
3.3647e-11
0.00520796
1.12361e-10
0.00520796
1.62657e-10
0.00520796
5.495e-10
0.00520796
1.21651e-09
0.00520796
4.24419e-09
0.00520796
6.40875e-09
0.00520794
5.12802e-08
0.00520791
1.21607e-07
0.00520775
3.21906e-07
0.00520767
6.6251e-07
0.00520788
1.35891e-06
0.00520823
2.40587e-06
0.00520823
5.83728e-06
0.00520778
1.01451e-05
0.00520691
1.27927e-05
0.00520619
7.3702e-05
0.00521236
0.000195516
0.00518634
0.00111666
0.00508025
0.00145159
0.00493694
0.00152524
0.00480362
0.00153363
0.00467305
0.00158491
0.00454383
0.00164798
0.00441315
0.00172824
0.00427893
0.00181137
0.00414069
0.00189283
0.00399894
0.00197591
0.0038534
0.00206509
0.00370233
0.00216124
0.00354715
0.0022642
0.00338832
0.00237752
0.00322093
0.00250188
0.00304509
0.00263565
0.00285889
0.00278289
0.00265783
0.00294245
0.0024391
0.00311306
0.00220115
0.00329331
0.00193827
0.00348383
0.00164437
0.0036823
0.00130807
0.0038886
0.000924987
0.00408975
0.000486564
0.00427037
0.00439621
0.00540147
3.75617e-14
0.00540147
1.84355e-13
0.00540147
5.38524e-13
0.00540147
1.65788e-12
0.00540147
3.90292e-12
0.00540147
1.09361e-11
0.00540147
2.60803e-11
0.00540147
7.6142e-11
0.00540147
1.70574e-10
0.00540146
5.37684e-10
0.00540146
6.61435e-10
0.00540147
1.64164e-09
0.00540147
7.55652e-09
0.00540153
-8.06279e-09
0.0054017
-4.02469e-08
0.00540182
2.50088e-07
0.00540202
5.99988e-07
0.00540266
9.24752e-07
0.0054027
2.76913e-06
0.00540216
6.66602e-06
0.00539875
1.4167e-05
0.00539186
1.97928e-05
0.00541734
4.86095e-05
0.0053572
0.000252256
0.00540339
0.00106845
0.00528361
0.00156806
0.00512763
0.00167724
0.00497887
0.00167857
0.00484412
0.00171727
0.00471573
0.00177445
0.00458897
0.0018536
0.00446099
0.00193768
0.00433006
0.00202163
0.00419531
0.00210774
0.00405604
0.00220123
0.00390986
0.00230292
0.00375727
0.00241207
0.00359997
0.00253136
0.0034363
0.00266242
0.00326412
0.00280523
0.00308332
0.00296102
0.00289057
0.00313283
0.00267938
0.00332202
0.00244705
0.0035232
0.00218683
0.00374152
0.00188727
0.00397921
0.00154118
0.00423255
0.0011242
0.00450533
0.000616167
0.00477649
0.00501019
0.00560216
-8.70267e-15
0.00560216
-1.86903e-14
0.00560216
-7.63076e-14
0.00560216
4.24106e-14
0.00560216
-3.65445e-13
0.00560216
-1.93986e-13
0.00560216
-2.31332e-12
0.00560216
-6.38756e-12
0.00560216
1.37972e-11
0.00560216
5.05998e-11
0.00560216
-9.95317e-11
0.00560215
3.49181e-09
0.00560215
6.76817e-09
0.0056021
2.32077e-08
0.00560198
5.69581e-08
0.00560219
-1.39711e-07
0.00560695
-1.14564e-06
0.0056033
-2.26361e-06
0.0056267
-7.85442e-06
0.00563403
-1.2028e-05
0.0056317
-8.98578e-06
0.0056903
-3.03342e-05
0.00572135
5.20319e-05
0.00575982
0.000166284
0.00564583
0.00123699
0.00544917
0.00177232
0.00526853
0.00185847
0.00511545
0.00182722
0.00498012
0.00184967
0.00485433
0.00189684
0.00473494
0.00197146
0.00461709
0.00205433
0.00449849
0.00213854
0.00437672
0.00222702
0.00425155
0.00232324
0.00411996
0.00243033
0.0039809
0.00254597
0.00383505
0.00267271
0.00368124
0.00281217
0.00351775
0.00296514
0.0033437
0.00313233
0.00316058
0.00331341
0.00296872
0.00351155
0.00275161
0.0037382
0.00250051
0.00398979
0.00221081
0.00426645
0.00186564
0.00457509
0.00143525
0.00493325
0.000857794
0.00535138
0.00586546
0.00581031
-5.88884e-14
0.00581031
-2.48293e-13
0.00581031
-6.01333e-13
0.00581031
-1.02437e-12
0.00581031
-5.27217e-12
0.00581031
-1.21619e-11
0.00581031
-2.7297e-11
0.00581031
-7.2028e-11
0.00581031
-1.10557e-10
0.00581031
-3.07165e-10
0.00581031
-9.34065e-10
0.00581031
3.75246e-09
0.0058103
1.15315e-08
0.00581031
1.74221e-08
0.00581028
5.41983e-08
0.00580985
2.36895e-08
0.00581095
-1.10295e-06
0.00580886
-2.94034e-06
0.0058145
-4.65143e-06
0.00582455
-1.17506e-05
0.00584474
-2.39594e-05
0.00589616
-3.76759e-05
0.00581746
6.33912e-05
0.00600756
9.61421e-05
0.00572942
0.00144841
0.00547713
0.00197872
0.0052947
0.00200823
0.00517171
0.00195193
0.00505383
0.00196616
0.00495125
0.00199894
0.00484615
0.00207287
0.00474095
0.00215631
0.0046372
0.00223979
0.00453247
0.00232907
0.00442555
0.00242685
0.00431402
0.00253781
0.00419503
0.00265948
0.00406907
0.00279331
0.00393672
0.00294003
0.00379541
0.00310251
0.00364768
0.00327667
0.00348741
0.00347073
0.00330489
0.00369128
0.00310978
0.00393085
0.00289663
0.00419997
0.00265142
0.00450792
0.00235145
0.00487213
0.00195708
0.00532513
0.00137272
0.00593292
0.0072353
0.00840003
-2.8225e-13
0.00840003
-3.70868e-13
0.00840003
-1.85147e-12
0.00840003
-3.07566e-12
0.00840003
-9.72494e-12
0.00840003
-1.35884e-11
0.00840003
-5.68956e-11
0.00840003
-8.15805e-11
0.00840003
-3.33628e-10
0.00840003
-5.18686e-10
0.00840003
-1.75908e-09
0.00840004
-8.22317e-09
0.00840008
-2.59987e-08
0.00840015
-4.47949e-08
0.00840032
-1.35051e-07
0.00840064
-2.72751e-07
0.00839919
1.82913e-07
0.00839551
1.14274e-06
0.00838871
-1.09669e-07
0.00837097
3.28732e-06
0.00840768
-1.59958e-06
0.00824653
-1.52711e-05
0.0083022
7.93278e-05
0.00810802
0.000159572
0.00850868
0.00115184
0.00819331
0.00231553
0.00787426
0.00232989
0.00758903
0.00223905
0.0073758
0.00217687
0.00720804
0.00216274
0.00706085
0.0022153
0.00691761
0.00229478
0.00677478
0.00237901
0.00663346
0.00246696
0.00649346
0.0025631
0.00635586
0.00267039
0.00621955
0.00279059
0.00608025
0.00292488
0.00594006
0.00307026
0.0058012
0.00323148
0.00565064
0.00341819
0.00548831
0.00362532
0.00532243
0.00385136
0.00514861
0.00409952
0.00496907
0.00437449
0.00479304
0.00467847
0.00465698
0.00500181
0.00462755
0.00534938
0.00494895
0.0056064
0.00536159
0.006817
0.00840003
1.28531e-14
0.00840003
2.08804e-14
0.00840003
1.52362e-13
0.00840003
-2.65592e-14
0.00840003
1.36107e-12
0.00840003
1.95614e-12
0.00840003
1.64805e-11
0.00840003
8.1337e-12
0.00840003
1.31927e-10
0.00840003
-1.6906e-10
0.00840002
2.14963e-10
0.00840004
-1.6939e-09
0.0084
-4.894e-09
0.00839998
-1.07744e-08
0.00839994
-2.14622e-08
0.00839919
-6.23627e-08
0.00840065
1.13541e-07
0.00839856
4.87654e-07
0.00839098
1.26669e-06
0.00841759
2.52016e-06
0.00834547
8.45663e-06
0.00828515
5.07684e-06
0.00832319
6.16022e-05
0.00872363
9.64684e-05
0.00894847
0.000781178
0.00858426
0.00254716
0.00814877
0.00274057
0.007823
0.00255905
0.0076428
0.00235681
0.00744326
0.00236166
0.00728242
0.002373
0.00712157
0.002448
0.00697103
0.002524
0.00682991
0.00260434
0.00669402
0.00269589
0.00656287
0.00279762
0.00643537
0.00291134
0.00631887
0.00303379
0.00621121
0.0031714
0.00610317
0.00333004
0.00600596
0.00350523
0.00592282
0.00369842
0.00585506
0.00390895
0.00580434
0.00414156
0.00578441
0.00438622
0.005807
0.0046483
0.00591782
0.00488333
0.0062033
0.00505677
0.00667307
0.00512902
0.00475604
0.00726893
0.00840003
1.30093e-13
0.00840003
2.13379e-13
0.00840003
8.18421e-13
0.00840003
1.57703e-12
0.00840003
4.79585e-12
0.00840003
9.12899e-12
0.00840003
4.14748e-11
0.00840003
2.09602e-11
0.00840003
2.53587e-11
0.00840003
4.06664e-10
0.00840003
1.48277e-09
0.00840004
1.36643e-09
0.0084
6.48373e-09
0.0084001
9.46006e-09
0.00839983
5.45375e-08
0.00840022
2.89344e-08
0.0084001
1.68235e-07
0.00839592
3.48659e-07
0.00840636
9.53916e-07
0.0083481
1.31525e-06
0.00842774
1.05418e-05
0.00806226
7.4537e-06
0.00848479
6.15088e-05
0.00770748
0.000124612
0.00850719
0.000663687
0.00877937
0.00220496
0.00854744
0.00298216
0.00836913
0.00274393
0.008112
0.00261829
0.00790473
0.00256868
0.00769373
0.00258167
0.00752339
0.00261136
0.00735889
0.00268134
0.00720147
0.00275542
0.00705598
0.00283678
0.00692014
0.00292856
0.00679612
0.00302884
0.00667806
0.00314363
0.00656595
0.0032744
0.00647231
0.00341486
0.00640436
0.00356289
0.00636385
0.00372797
0.0063559
0.00390489
0.00639086
0.00409436
0.00648064
0.00428459
0.00664319
0.00447418
0.00686778
0.00464738
0.00718815
0.00472441
0.00755003
0.00475598
0.00446634
0.00782838
0.00840003
1.48147e-13
0.00840003
3.33271e-14
0.00840003
6.07256e-13
0.00840003
1.8789e-13
0.00840003
3.12729e-12
0.00840003
4.71333e-12
0.00840003
2.98136e-13
0.00840003
3.16619e-11
0.00840003
9.34306e-11
0.00840003
9.52287e-11
0.00840003
3.15266e-10
0.00840003
1.08127e-09
0.00840005
4.39626e-09
0.00840004
5.098e-09
0.00840011
1.29832e-08
0.00839986
6.59625e-08
0.00839971
2.36327e-07
0.00839973
4.35003e-07
0.00840851
6.57552e-07
0.00840217
5.4437e-07
0.00834688
3.42036e-06
0.00851891
1.47659e-05
0.00844099
4.43068e-05
0.00898656
8.90834e-05
0.00870953
0.000310182
0.00992691
0.00100323
0.00993486
0.00299408
0.00958206
0.00311238
0.00918451
0.00302485
0.00884662
0.00290248
0.00856025
0.00286018
0.00829896
0.00286423
0.00806025
0.00291129
0.00784109
0.00296645
0.00764466
0.00302524
0.00747362
0.0030928
0.00732134
0.00317354
0.00718862
0.0032659
0.00707789
0.00337092
0.00698588
0.00349162
0.00691968
0.00361672
0.00688463
0.00375215
0.00688885
0.00388855
0.00694248
0.00402752
0.00705429
0.0041582
0.00724158
0.00427116
0.00749173
0.00437987
0.00778376
0.00441463
0.00812168
0.00439816
0.00426191
0.00830795
0.00840003
2.54258e-15
0.00840003
2.58338e-14
0.00840003
6.9314e-14
0.00840003
1.65115e-13
0.00840003
4.83655e-13
0.00840003
-3.10999e-12
0.00840003
1.00958e-12
0.00840003
8.83427e-12
0.00840003
3.07751e-11
0.00840003
8.92883e-11
0.00840003
8.45502e-12
0.00840003
4.32823e-10
0.00840003
1.21674e-09
0.00840004
2.80872e-09
0.00839998
-6.91359e-10
0.0084001
1.26145e-08
0.00840037
2.08747e-08
0.00840114
-5.916e-08
0.00840049
7.21944e-07
0.00841372
1.69091e-06
0.00840683
8.29447e-07
0.00841023
5.62945e-06
0.00843283
1.89072e-05
0.00850441
1.75309e-05
0.00861796
0.000192827
0.00911791
0.000485455
0.00974289
0.00235394
0.00963981
0.0032282
0.00940664
0.00326629
0.00920571
0.0030984
0.00899754
0.00305699
0.00877689
0.00307433
0.008568
0.00311013
0.00836711
0.00315774
0.00817554
0.0032065
0.00799914
0.00325877
0.00784425
0.00331719
0.00771138
0.0033852
0.00760756
0.00345767
0.00753067
0.00354933
0.00748097
0.00364662
0.00746406
0.00375069
0.00747637
0.00385816
0.0075283
0.00395727
0.00761764
0.0040495
0.00775668
0.00411231
0.00795813
0.00415593
0.00821701
0.00413134
0.00849554
0.00409765
0.00401739
0.00871579
0.00840003
-1.04008e-13
0.00840003
5.22716e-14
0.00840003
-2.81142e-13
0.00840003
3.43798e-13
0.00840003
-1.46407e-12
0.00840003
7.13834e-13
0.00840003
-7.15924e-12
0.00840003
9.58588e-12
0.00840003
-4.28068e-11
0.00840003
5.35351e-11
0.00840003
-2.62811e-10
0.00840003
2.61429e-10
0.00840004
-1.41646e-09
0.00840004
1.15649e-09
0.00840007
-9.00636e-09
0.00840002
5.10778e-09
0.00840025
-6.32812e-08
0.00840012
-3.12357e-08
0.00840002
-1.57943e-07
0.00840321
3.30793e-07
0.00839389
-1.68931e-06
0.00835786
2.11194e-06
0.00839908
1.21463e-06
0.00852234
-2.11076e-05
0.00829393
0.000278612
0.00900428
0.000172151
0.00902533
0.00189587
0.00904443
0.0031889
0.00910822
0.00323283
0.0090371
0.00317753
0.00893023
0.00315387
0.0088221
0.00317018
0.00870937
0.00320963
0.00858873
0.0032655
0.00846201
0.00331917
0.00833986
0.00336507
0.0082269
0.00341517
0.00812469
0.00346835
0.00803961
0.00352012
0.0079863
0.00357891
0.00795931
0.00364867
0.00796794
0.00371713
0.00800777
0.00379319
0.00807965
0.00385976