/*--------------------------------*- C++ -*----------------------------------*\
| =========                 |                                                 |
| \\      /  F ield         | OpenFOAM: The Open Source CFD Toolbox           |
|  \\    /   O peration     | Version:  2412                                  |
|   \\  /    A nd           | Website:  www.openfoam.com                      |
|    \\/     M anipulation  |                                                 |
\*---------------------------------------------------------------------------*/
FoamFile
{
    version     2.0;
    format      ascii;
    arch        "LSB;label=32;scalar=64";
    class       volScalarField;
    location    "5";
    object      T;
}
// * * * * * * * * * * * * * * * * * * * * * * * * * * * * * * * * * * * * * //

dimensions      [0 0 0 1 0 0 0];

internalField   nonuniform List<scalar> 
7000
(
1
1
1
1
1
1
1
1
1.00001
1.00001
1.00005
1.00004
1.00029
1.00027
1.0017
1.00214
1.0096
1.00497
1.05228
0.915315
1.13214
1.30227
1.91562
2.53944
2.68247
2.6491
2.63356
2.61849
2.62051
2.62814
2.63763
2.64752
2.65629
2.66456
2.67163
2.67854
2.68722
2.6931
2.69878
2.70657
2.7127
2.71613
2.72079
2.72901
2.73547
2.73697
2.7363
2.7346
2.7361
2.73683
1
1
1
1
1
1
1
1
1.00001
1.00001
1.00004
1.00003
1.00024
1.00025
1.00139
1.00225
1.00957
1.00505
1.05222
0.915279
1.13184
1.30155
1.9153
2.54039
2.68237
2.649
2.63343
2.61842
2.6205
2.62813
2.63763
2.64748
2.65622
2.6645
2.67156
2.67845
2.68712
2.69301
2.69868
2.70645
2.71256
2.71596
2.72062
2.72884
2.73525
2.73668
2.73597
2.73421
2.73564
2.73617
1
1
1
1
1
1
1
1
1
1
1.00002
1.00001
1.00013
0.999707
1.00151
1.00027
1.00894
1.00497
1.05174
0.915192
1.13116
1.3001
1.91469
2.54254
2.68235
2.64892
2.63334
2.61841
2.62059
2.62823
2.6377
2.6475
2.65618
2.6644
2.67143
2.67836
2.687
2.6928
2.69844
2.70621
2.71228
2.71568
2.72034
2.72856
2.73494
2.73635
2.73559
2.73379
2.73528
2.73582
1
1
1
1
1
1
1
1
1
0.999996
0.999995
0.999958
1.00002
0.999621
1.00091
1.00006
1.00893
1.00502
1.05132
0.914835
1.13009
1.298
1.91375
2.54537
2.68199
2.64839
2.63293
2.61814
2.62045
2.62811
2.63759
2.64732
2.65592
2.66411
2.67116
2.67803
2.68652
2.69231
2.69803
2.70579
2.71173
2.71503
2.71972
2.7279
2.73417
2.73562
2.73496
2.73308
2.73438
2.73477
1
1
1
1
1
1
1
1
1
0.999994
0.999998
0.999938
0.999967
0.999562
1.00056
0.999983
1.00878
1.0048
1.05073
0.914203
1.12861
1.29534
1.91253
2.54894
2.68139
2.6475
2.63227
2.61766
2.62015
2.62781
2.63735
2.64702
2.65539
2.66334
2.67054
2.67751
2.68593
2.69176
2.69754
2.70487
2.71066
2.71387
2.71866
2.7271
2.73343
2.73462
2.73375
2.73214
2.73354
2.7339
1
1
1
1
1
1
1
0.999999
1
0.999992
0.999997
0.99993
0.999942
0.999536
1.00052
0.999898
1.00857
1.00441
1.04979
0.913251
1.12665
1.29208
1.91102
2.55336
2.68058
2.64639
2.63151
2.61713
2.61978
2.62738
2.63686
2.64646
2.65484
2.66277
2.66993
2.6767
2.68468
2.69046
2.69631
2.70365
2.70915
2.7128
2.71765
2.72571
2.73186
2.73311
2.73211
2.73001
2.73154
2.73184
1
1
1
1
1
1
1
0.999999
1
0.999992
0.999997
0.999929
0.999937
0.99953
1.00053
0.999841
1.00831
1.00385
1.04849
0.911999
1.12416
1.28816
1.90914
2.55873
2.67937
2.64535
2.63062
2.61653
2.6193
2.62691
2.63631
2.64552
2.65346
2.66113
2.6684
2.67533
2.68345
2.68932
2.69517
2.70243
2.70768
2.71148
2.71676
2.72458
2.73014
2.73119
2.73054
2.72861
2.73009
2.73042
1
1
1
1
1
1
1
0.999999
1
0.99999
0.999996
0.999933
0.999941
0.999562
1.0005
0.99987
1.00794
1.00312
1.047
0.910566
1.12115
1.28414
1.90662
2.5659
2.67512
2.64352
2.62973
2.6163
2.61919
2.62689
2.6362
2.64539
2.65313
2.66063
2.66774
2.67456
2.6824
2.68829
2.69414
2.70104
2.70653
2.71039
2.71482
2.72246
2.7275
2.72808
2.72718
2.72548
2.72695
2.72714
1
1
1
1
1
1
1
0.999998
0.999998
0.999989
0.999987
0.999934
0.999949
0.999614
1.00044
0.999891
1.00696
1.00212
1.04579
0.908287
1.11735
1.28092
1.90733
2.60846
2.66285
2.63364
2.62078
2.60997
2.61323
2.62197
2.63199
2.64241
2.65101
2.65902
2.6664
2.67321
2.68111
2.6866
2.69288
2.69851
2.70427
2.7088
2.71296
2.71903
2.7232
2.72464
2.72443
2.72297
2.72447
2.72497
1
1
1
1
1
1
1
0.999998
0.999998
0.99999
0.999989
0.999942
0.999961
0.999671
1.00041
0.999915
1.00625
1.00107
1.0442
0.906594
1.11314
1.27354
1.90114
2.61013
2.66587
2.62763
2.61829
2.60668
2.60958
2.61748
2.62681
2.63663
2.64552
2.65336
2.66189
2.66883
2.67728
2.68298
2.68879
2.69565
2.69965
2.70417
2.7087
2.71434
2.71993
2.72011
2.7196
2.71907
2.71995
2.72004
1
1
1
1
1
1
1
0.999998
0.999998
0.999991
0.999988
0.999951
0.999967
0.999722
1.00041
0.999966
1.00546
1.00022
1.04221
0.906674
1.10883
1.26329
1.88838
2.60748
2.66627
2.61739
2.61633
2.60513
2.60821
2.61562
2.62407
2.63275
2.64104
2.64826
2.65521
2.66226
2.66971
2.67593
2.68064
2.68753
2.69425
2.69762
2.70196
2.70787
2.71263
2.71637
2.71572
2.71393
2.71648
2.71685
1
1
1
1
1
1
1
0.999999
0.999999
0.999994
0.999993
0.999965
0.999993
0.99978
1.00046
1.00003
1.00487
0.999272
1.03981
0.907171
1.10394
1.25117
1.87161
2.60213
2.66126
2.61973
2.61411
2.60278
2.60557
2.61336
2.62219
2.63041
2.63749
2.64498
2.6516
2.65792
2.66484
2.67075
2.67699
2.68147
2.68697
2.69233
2.6952
2.70211
2.70722
2.7085
2.71034
2.70935
2.70953
2.70963
1
1
1
1
1
1
1
1
0.999999
0.999998
0.999998
0.999987
1.00002
0.999843
1.00043
1.00009
1.00408
0.998443
1.03723
0.908157
1.09848
1.23772
1.85226
2.59958
2.63623
2.62973
2.61205
2.60065
2.60331
2.61092
2.62014
2.62823
2.63422
2.6405
2.64736
2.65312
2.66008
2.66453
2.67051
2.67625
2.67944
2.68399
2.68828
2.69327
2.69929
2.70352
2.70292
2.70244
2.70463
2.70485
1
1
1
1
1
1
1
1
1
1
1
1
1.00003
0.999911
1.00041
1.00013
1.0033
0.997525
1.03444
0.909621
1.09256
1.22272
1.82798
2.58837
2.62211
2.6224
2.60858
2.59727
2.59977
2.60771
2.61686
2.62551
2.63194
2.63658
2.64342
2.64972
2.6569
2.66165
2.66552
2.67138
2.67582
2.67804
2.68072
2.68719
2.69087
2.6931
2.69617
2.69437
2.69409
2.69413
1
1
1
1
1
1
1
1
1
1
1.00001
1
1.00004
0.999995
1.00036
1.00013
1.00224
0.997176
1.03158
0.911738
1.0863
1.20645
1.79895
2.57016
2.6122
2.61517
2.60354
2.59197
2.59414
2.60247
2.6114
2.62053
2.62722
2.63224
2.63725
2.64359
2.64953
2.65601
2.66057
2.6648
2.66868
2.67281
2.67349
2.67643
2.68336
2.6856
2.68454
2.68512
2.68663
2.68643
1
1
1
1
1
1
1
1
1
1
1
1.00001
1.00003
1.00006
1.00023
1.0002
1.00171
0.996578
1.02845
0.914273
1.07958
1.18938
1.76547
2.54457
2.59877
2.60935
2.5973
2.58596
2.58787
2.5971
2.6061
2.61545
2.62283
2.62853
2.63369
2.63923
2.64539
2.64849
2.65391
2.6574
2.66028
2.66391
2.66728
2.66763
2.66964
2.67336
2.67551
2.67113
2.67001
2.67024
1
1
1
1
1
1
1
1
1
1
1
1
1.00002
1.00002
1.00014
0.999874
1.00112
0.996012
1.0251
0.917524
1.07228
1.17095
1.727
2.51191
2.58135
2.60192
2.58976
2.57814
2.57944
2.58807
2.59712
2.60571
2.61279
2.61939
2.62571
2.63186
2.6392
2.64335
2.64592
2.65034
2.65155
2.65303
2.65567
2.65875
2.66023
2.65936
2.65812
2.65882
2.65716
2.65441
1
1
1
1
1
1
1
1
1
1
1
0.999994
0.999999
0.999939
0.999966
0.999633
1.00065
0.995748
1.02211
0.921859
1.06543
1.15614
1.68344
2.46869
2.55734
2.59077
2.58024
2.57252
2.57429
2.58384
2.59263
2.60186
2.60688
2.61227
2.61648
2.62169
2.62833
2.63442
2.63855
2.64241
2.64511
2.64462
2.64326
2.64301
2.64439
2.64578
2.64171
2.63259
2.62876
2.62562
1
1
1
1
1
1
1
1
1
1
1
0.999996
1.00003
0.999907
0.999989
0.999214
0.999594
0.993287
1.01499
0.914052
1.05742
1.09562
1.65372
2.45958
2.50972
2.55775
2.54963
2.55152
2.55616
2.5706
2.58289
2.5948
2.60184
2.60708
2.61135
2.61387
2.61819
2.62172
2.62497
2.62812
2.63166
2.63448
2.63339
2.63057
2.62558
2.6224
2.62067
2.61128
2.59906
2.58391
1
1
1
1
1
1
1
1
1
0.999999
1
0.999994
0.999995
0.999965
1.00002
0.999999
1.0006
1.00032
1.00471
0.994823
1.04163
1.0337
1.58355
2.37556
2.48112
2.53956
2.52715
2.52811
2.53268
2.5461
2.5588
2.57653
2.58979
2.5986
2.60561
2.60918
2.6126
2.61593
2.61688
2.61678
2.6164
2.61555
2.61554
2.61348
2.60896
2.5991
2.5858
2.56891
2.54089
2.47967
1
1
1
1
1
1
1
1
1
0.999998
0.999999
0.999978
0.999983
0.999843
1.00018
0.999985
1.00306
1.00218
1.01881
0.972779
1.04494
1.16439
1.45938
2.123
2.41146
2.53354
2.52586
2.5185
2.51716
2.52334
2.53135
2.54069
2.55313
2.56378
2.57712
2.58723
2.59614
2.59981
2.60432
2.60399
2.60222
2.59875
2.59022
2.58517
2.57475
2.56576
2.54601
2.50922
2.44965
2.32629
1
1
1
1
1
1
1
1
1
1
1
1.00001
1.00002
1.00009
1.00012
1.00048
1.00079
1.00219
1.00576
1.01643
1.03366
1.12502
1.29254
1.78268
2.28726
2.51495
2.51912
2.51659
2.5113
2.51738
2.52027
2.52692
2.53202
2.53962
2.54615
2.5571
2.56654
2.57705
2.58386
2.588
2.58667
2.58248
2.57399
2.55817
2.54175
2.51524
2.49475
2.45005
2.38538
2.29812
1
1
1
1
1
1
1
1
1
1
1
1.00001
1.00002
1.00008
1.0001
1.00043
1.00055
1.00253
1.00317
1.01418
1.02228
1.09817
1.20658
1.60805
2.11353
2.45135
2.51753
2.51191
2.51004
2.50632
2.50758
2.50761
2.50821
2.50975
2.51204
2.51589
2.52378
2.53203
2.54324
2.55293
2.56125
2.56089
2.55654
2.54405
2.52516
2.49105
2.45004
2.41178
2.33863
2.29054
1
1
1
1
1
1
1
1
1
1
1
1.00001
1.00001
1.00004
1.00003
1.00029
1.00027
1.00182
1.00137
1.00702
1.01109
1.04497
1.13526
1.2897
1.83225
2.28591
2.52144
2.51964
2.51551
2.50107
2.50523
2.50519
2.50399
2.50172
2.49872
2.49595
2.49248
2.49356
2.49466
2.49861
2.50632
2.51331
2.51822
2.51567
2.50583
2.48447
2.43858
2.40453
2.3384
2.29732
1
1
1
1
1
1
1
1
1
1
1
1
1.00001
1.00001
1.00005
0.99994
1.00048
1.00014
1.00334
0.998602
1.02999
0.922361
1.08165
1.18774
1.71006
2.42143
2.50804
2.5313
2.51871
2.51165
2.50389
2.50795
2.50748
2.50591
2.5032
2.49766
2.49204
2.48422
2.47907
2.46844
2.46625
2.46193
2.46236
2.46142
2.46003
2.45643
2.43362
2.40809
2.35221
2.31604
1
1
1
1
1
1
1
1
1
1
1
1
1.00001
1.00001
1.00004
1.00006
1.00021
1.00028
1.00119
1.00073
1.00628
0.99162
1.05355
1.03681
1.59432
2.34498
2.43187
2.48666
2.48033
2.48648
2.48679
2.48956
2.4975
2.50171
2.50168
2.49979
2.49551
2.48717
2.47968
2.46814
2.45552
2.44605
2.43112
2.42396
2.4105
2.40291
2.39451
2.38578
2.36194
2.33022
1
1
1
1
1
1
1
1
1
1
1
1.00001
1.00001
1.00003
1.00003
1.00019
1.00019
1.00104
1.00122
1.00587
1.00058
1.03965
0.914029
1.10695
1.23362
1.82056
2.36287
2.49569
2.49321
2.48041
2.4685
2.46715
2.4708
2.47832
2.4849
2.49154
2.49162
2.48954
2.4835
2.47528
2.46059
2.44867
2.43308
2.41747
2.40353
2.3825
2.36879
2.34675
2.33811
2.32265
1
1
1
1
1
1
1
1
1
1
1
1
1
1.00001
1.00001
1.00005
1.00007
1.00028
1.0002
1.00123
0.99702
1.02156
0.929485
1.06302
1.14118
1.61785
2.34416
2.45026
2.49051
2.47437
2.46853
2.46091
2.46174
2.46447
2.46767
2.47295
2.47513
2.47962
2.47899
2.47621
2.46945
2.45801
2.44487
2.4243
2.40942
2.38531
2.3697
2.34885
2.33436
2.32058
1
1
1
1
1
1
1
1
1
1
1
1
1
1
1.00002
1.00003
1.0001
1.00013
1.00058
1.00067
1.00286
1.005
1.01465
1.04374
1.08584
1.4089
1.9987
2.34663
2.46653
2.47047
2.46464
2.4601
2.46127
2.46466
2.4679
2.47214
2.47418
2.47776
2.47782
2.4768
2.47399
2.4668
2.45976
2.44307
2.43129
2.40775
2.38805
2.36568
2.3463
2.3289
1
1
1
1
1
1
1
1
1
1
1
1
1
1
1.00001
1.00001
1.00007
1.00009
1.00042
1.00054
1.00239
1.00318
1.01165
1.02832
1.07146
1.22359
1.54162
2.11474
2.3827
2.43613
2.43853
2.44292
2.44612
2.45393
2.46064
2.46536
2.46876
2.47203
2.47273
2.47351
2.47284
2.46973
2.4655
2.45701
2.44749
2.43635
2.42254
2.40432
2.38129
2.35939
1
1
1
1
1
1
1
1
1
1
1
1
1
1
1.00001
1
1.00004
1.00002
1.00023
1.00018
1.00127
1.00045
1.00606
1.00623
1.04287
1.1205
1.26521
1.7394
2.19127
2.42324
2.44946
2.44928
2.44983
2.45295
2.45909
2.46504
2.47103
2.47518
2.47715
2.4779
2.47765
2.47677
2.47481
2.47083
2.46485
2.45576
2.44496
2.43135
2.41487
2.3961
1
1
1
1
1
1
1
1
1
1
1
1
1
1
1
1
0.999996
0.999999
0.999972
1.00002
0.999753
1.00067
0.996505
1.01947
0.930557
1.05962
1.11755
1.59173
2.27967
2.36019
2.40481
2.42046
2.43049
2.43795
2.45201
2.4622
2.4747
2.48235
2.48886
2.49087
2.49055
2.48823
2.48294
2.47594
2.46732
2.45809
2.44719
2.43581
2.4225
2.40953
1
1
1
1
1
1
1
1
1
1
1
1
1
1
1.00001
1.00001
1.00004
1.00004
1.00021
1.0002
1.00118
1.00141
1.00672
1.00156
1.03867
0.92
1.10421
1.23367
1.78327
2.3599
2.46196
2.47242
2.45887
2.45421
2.45998
2.46863
2.48117
2.49062
2.49558
2.49972
2.49792
2.49322
2.48472
2.47525
2.46482
2.45464
2.4434
2.43226
2.42032
2.40876
1
1
1
1
1
1
1
1
1
1
1
1
1
1
1
1
1.00001
1.00001
1.00007
1.00008
1.00037
1.00043
1.00187
1.00038
1.01051
0.961245
1.06355
1.05936
1.56648
2.30031
2.43345
2.50305
2.5203
2.51368
2.50466
2.49878
2.4978
2.49665
2.49532
2.49216
2.48672
2.48053
2.47375
2.46634
2.45725
2.44777
2.43795
2.42758
2.41714
2.40693
1
1
1
1
1
1
1
1
1
1
1
1
1
1
1
1
1
1.00002
1.00002
1.00008
1.00013
1.00049
1.0007
1.00244
1.00503
1.01497
1.03507
1.10081
1.32561
1.85202
2.30854
2.51951
2.57935
2.57255
2.56659
2.55856
2.54492
2.52838
2.51159
2.49516
2.48136
2.46851
2.45724
2.44715
2.43838
2.42993
2.42277
2.41469
2.40734
2.40009
1
1
1
1
1
1
1
1
1
1
1
1
1
1
1
1
1
1.00001
1.00001
1.00005
1.00005
1.00023
1.00024
1.00127
0.998787
1.01078
0.948742
1.07689
1.07629
1.72336
2.5616
2.57541
2.60541
2.57953
2.56339
2.54616
2.53234
2.52006
2.50844
2.49657
2.48375
2.46993
2.45696
2.44471
2.43326
2.42242
2.413
2.40391
2.39578
2.38827
1
1
1
1
1
1
1
1
1
1
1
1
1
1
1
1
1
1
1.00003
1.00003
1.00019
1.00019
1.00131
1.00149
1.00852
1.00281
1.05209
0.934963
1.1603
1.43957
2.07342
2.68481
2.79071
2.708
2.63179
2.57506
2.54429
2.52454
2.50932
2.49496
2.48147
2.46846
2.45636
2.44519
2.43474
2.42495
2.41589
2.40702
2.39827
2.38994
1
1
1
1
1
1
1
1
1
1
1
1
1
1
1
1
1
1
1
1.00001
1.00004
1.00006
1.00047
1.00042
1.00415
0.997339
1.04178
0.900878
1.12475
1.32261
1.97758
2.71375
2.82596
2.76435
2.69584
2.63376
2.59023
2.55921
2.53619
2.51739
2.50074
2.48517
2.46953
2.45507
2.44237
2.43061
2.42007
2.41032
2.40096
2.39331
1
1
1
1
1
1
1
1
1
1
1
1
1
1
1
1
1
1
1
1
1.00002
0.999941
1.00001
0.999778
1.00181
0.995598
1.034
0.902912
1.10201
1.25489
1.90933
2.73714
2.82077
2.76207
2.70307
2.63748
2.59389
2.56362
2.54082
2.52181
2.50482
2.489
2.47426
2.46064
2.44827
2.4365
2.42583
2.41591
2.40614
2.39794
1
1
1
1
1
1
1
1
1
1
1
1
1
1
1
1
1
1
1
1.00001
1.00001
0.999981
1.00002
0.99949
1.00029
0.994916
1.0267
0.902651
1.09203
1.21154
1.8495
2.71852
2.76981
2.71145
2.64684
2.59357
2.56576
2.55352
2.54652
2.54111
2.53561
2.52934
2.51709
2.50153
2.48187
2.4624
2.44489
2.43072
2.41821
2.40855
1
1
1
1
1
1
1
1
1
1
1
1
1
1
1
1
1
1.00001
1.00001
1.00004
1.00004
1.00028
1.00025
1.00174
1.002
1.00974
1.00524
1.05628
0.968478
1.24555
1.69531
2.3308
2.72218
2.76121
2.73781
2.68711
2.63969
2.60184
2.58099
2.57187
2.56791
2.56525
2.56197
2.55544
2.54344
2.52715
2.50509
2.48202
2.45898
2.43893
1
1
1
1
1
1
1
1
1
1
1
1
1
1
1
1
1
1
1
1.00002
1.00002
1.0001
1.00013
1.00042
1.00077
1.00185
1.00469
0.993109
1.04756
1.00955
1.64696
2.55767
2.68303
2.7061
2.69129
2.66702
2.64587
2.63169
2.61904
2.60896
2.60095
2.59461
2.59022
2.58704
2.58314
2.57464
2.56403
2.54847
2.53417
2.51554
1
1
1
1
1
1
1
1
1
1
1
1
1
1
1
1
1
1
1
1.00002
1.00002
1.0001
1.0001
1.00057
1.00068
1.00301
1.00435
1.01605
1.03893
1.11473
1.49048
2.41364
2.60337
2.64281
2.62967
2.61503
2.62034
2.63316
2.65494
2.67239
2.67738
2.67508
2.6625
2.63532
2.61135
2.59151
2.57613
2.56582
2.5507
2.54136
1
1
1
1
1
1
1
1
1
1
1
1
1
1
1
1
1
1
1
1
1
1.00002
1.00004
1.00032
1.00019
1.00338
0.996663
1.03944
0.900071
1.12269
1.2987
1.97785
2.73803
2.78799
2.73376
2.66936
2.6289
2.62839
2.63806
2.66285
2.67564
2.67613
2.66931
2.64676
2.61741
2.59332
2.57512
2.56093
2.55006
2.53856
1
1
1
1
1
1
1
1
1
1
1
1
1
1
1
1
1
1
1
1
0.99999
1.00003
0.999885
0.999974
0.999329
1.00063
0.994895
1.03053
0.902991
1.09359
1.23257
1.8877
2.73594
2.80626
2.74161
2.68925
2.62778
2.60479
2.60176
2.60481
2.61509
2.63144
2.63686
2.63533
2.62846
2.61365
2.5998
2.58262
2.57201
2.55911
1
1
1
1
1
1
1
1
1
1
1
1
1
1
1
1
1
1
1
1
1
1.00003
0.999949
1.00003
0.99922
1.0001
0.994108
1.02656
0.905035
1.0848
1.19382
1.84288
2.70615
2.767
2.71622
2.64941
2.58896
2.5726
2.57371
2.57953
2.59446
2.62035
2.64526
2.66492
2.67654
2.6785
2.67559
2.65766
2.62837
2.59537
1
1
1
1
1
1
1
1
1
1
1
1
1
1
1
1
1
1
1.00001
1.00001
1.00005
1.00005
1.00032
1.00031
1.00212
1.00272
1.0131
1.007
1.0842
0.888294
1.25445
1.79825
2.35385
2.71448
2.75377
2.73365
2.69729
2.66988
2.63867
2.61651
2.6076
2.60788
2.61477
2.63444
2.65476
2.66468
2.666
2.6612
2.64462
2.61073
1
1
1
1
1
1
1
1
1
1
1
1
1
1
1
1
1
1
1
1
1.00002
1.00002
1.00007
1.00014
1.00039
1.00061
1.00046
1.00211
0.988619
1.03646
1.05824
1.70989
2.63362
2.69385
2.69549
2.67448
2.65623
2.64493
2.63753
2.63346
2.62919
2.62684
2.62805
2.63437
2.643
2.64851
2.65092
2.64959
2.64171
2.62947
1
1
1
1
1
1
1
1
1
1
1
1
1
1
1
1
1
1
1
1
1.00002
1.00002
1.00009
1.00016
1.00058
1.00039
1.00332
1.00573
1.00545
1.05343
1.01561
1.64597
2.5462
2.67003
2.66867
2.63017
2.61109
2.61516
2.62967
2.66025
2.68681
2.69874
2.70026
2.69596
2.67968
2.65312
2.63167
2.61525
2.60503
2.594
1
1
1
1
1
1
1
1
1
1
1
1
1
1
1
1
1
1
1
1
1.00002
1.00003
1.00014
1.00015
1.00108
1.00126
1.00743
1.00011
1.05053
0.940432
1.12824
1.39243
2.07848
2.71268
2.81654
2.7778
2.70778
2.64809
2.62924
2.62935
2.63492
2.64964
2.65988
2.6623
2.66046
2.65182
2.63936
2.62327
2.60978
2.59451
1
1
1
1
1
1
1
1
1
1
1
1
1
1
1
1
1
1
1
1
1.00002
1.00002
1.0001
1.0001
1.00061
1.00035
1.00275
1.00316
1.01418
1.02689
1.07986
1.42504
2.17133
2.55653
2.68979
2.68687
2.67606
2.6617
2.66321
2.66922
2.67543
2.67599
2.67237
2.66283
2.65514
2.64637
2.63882
2.62839
2.62079
2.61107
1
1
1
1
1
1
1
1
1
1
1
1
1
1
1
1
1
1
1
1
1.00001
1.00002
1.0001
1.00013
1.0006
1.00069
1.00345
1.00406
1.01945
1.02616
1.08245
1.36204
2.03164
2.4478
2.66547
2.67248
2.6669
2.66797
2.68047
2.71101
2.728
2.72731
2.71152
2.67608
2.64648
2.62598
2.61282
2.60273
2.59653
2.59074
1
1
1
1
1
1
1
1
1
1
1
1
1
1
1
1
1
1
1
1.00001
1.00001
1.00003
1.00008
1.00012
1.00054
1.0007
1.00336
1.00468
1.01892
1.02754
1.12168
1.31681
1.96558
2.40977
2.67519
2.68321
2.67786
2.67969
2.69861
2.73145
2.74394
2.74114
2.71811
2.67328
2.6333
2.60303
2.58291
2.57109
2.56624
2.56341
1
1
1
1
1
1
1
1
1
1
1
1
1
1
1
1
1
1
1
1.00001
1.00001
1.00003
1.00005
1.00016
1.00045
1.0007
1.00335
1.00408
1.01822
1.02716
1.12469
1.31081
1.94203
2.39921
2.67631
2.69445
2.6954
2.70071
2.7268
2.75526
2.76034
2.74514
2.69913
2.64481
2.60504
2.5804
2.56743
2.56209
2.56122
2.56161
1
1
1
1
1
1
1
1
1
1
1
1
1
1
1
1
1
1
1
1
1
0.999996
1.00001
0.99995
1.00005
0.999838
1.00219
0.995662
1.03592
0.90098
1.10737
1.25704
1.92614
2.70137
2.82429
2.76418
2.67663
2.63997
2.64354
2.66365
2.67785
2.67788
2.67158
2.65827
2.6488
2.64415
2.64046
2.63124
2.61871
2.60696
1
1
1
1
1
1
1
1
1
1
1
1
1
1
1
1
1
1
1
1
1
0.999996
1.00003
0.999912
0.999989
0.999404
1.00077
0.995
1.03087
0.902883
1.09443
1.23285
1.88775
2.73068
2.81875
2.75923
2.677
2.62759
2.62431
2.63042
2.64393
2.66169
2.68309
2.70076
2.70995
2.71216
2.71076
2.69908
2.67069
2.6315
1
1
1
1
1
1
1
1
1
1
1
1
1
1
1
1
1
1
1
1
1
0.999996
1.00002
0.99993
0.999981
0.999531
1.001
0.995286
1.032
0.902607
1.09924
1.23143
1.90067
2.72869
2.83653
2.7683
2.67716
2.6214
2.61495
2.61929
2.62927
2.64482
2.6701
2.69593
2.71273
2.71878
2.7183
2.70679
2.67348
2.62456
1
1
1
1
1
1
1
1
1
1
1
1
1
1
1
1
1
1
1
1.00001
1.00001
1.00004
1.00004
1.00025
1.00022
1.00152
1.00142
1.0072
1.00208
1.03523
1.09735
1.29327
1.96817
2.40381
2.71242
2.72469
2.7188
2.72771
2.75203
2.75023
2.71792
2.66965
2.63651
2.6218
2.61966
2.62187
2.62441
2.62393
2.62088
2.61655
1
1
1
1
1
1
1
1
1
1
1
1
1
1
1
1
1
1
1
1.00001
1
1.00004
1.00004
1.00029
1.00028
1.00142
1.0017
1.00559
1.01264
1.03057
1.11222
1.22593
1.8253
2.31467
2.71326
2.76297
2.76668
2.77512
2.78032
2.76535
2.71637
2.66144
2.61693
2.58959
2.57713
2.57364
2.57476
2.58451
2.60569
2.63091
1
1
1
1
1
1
1
1
1
1
1
1
1
1
1
1
1
1
1
1.00001
1.00001
1.00005
1.00004
1.00026
1.00025
1.00151
1.00196
1.00828
1.01023
1.03269
1.11923
1.23471
1.82273
2.29788
2.73192
2.76889
2.77269
2.77578
2.77409
2.75263
2.70678
2.65649
2.61442
2.58787
2.57428
2.56993
2.57058
2.5801
2.60364
2.63296
2.19733
2.64986
2.95918
3.09417
3.04236
3.02503
3.01271
2.99666
2.9787
2.96203
2.95427
2.94909
2.94131
2.93786
2.93522
2.93484
2.9374
2.94132
2.94607
2.94976
2.9553
2.95973
2.96406
2.96848
2.97065
2.9718
2.97186
2.97096
2.96779
2.9642
2.95789
2.95277
2.94596
2.94262
2.93284
2.92472
2.91511
2.90667
2.89777
2.89008
2.88079
2.87434
2.86548
2.86069
2.85102
2.84572
2.8354
2.82993
2.81989
2.81457
2.80467
2.79919
2.78909
2.78305
2.77298
2.76644
2.7569
2.74957
2.74069
2.73263
2.7242
2.71577
2.70744
2.69884
2.69028
2.68184
2.67281
2.66455
2.65508
2.64681
2.63703
2.62847
2.6187
2.6094
2.59985
2.58996
2.5804
2.57022
2.56062
2.55032
2.5407
2.53077
2.52063
2.51167
2.50102
2.4927
2.48163
2.47381
2.46264
2.45504
2.44416
2.43682
2.4262
2.41945
2.4092
2.4034
2.39411
2.39001
2.38341
2.38283
2.20668
2.39378
2.79158
3.01959
3.14996
3.21768
3.30307
3.36199
3.38203
3.38866
3.38778
3.38801
3.38442
3.38039
3.37228
3.36372
3.35481
3.3436
3.33088
3.31814
3.3032
3.28884
3.27185
3.2565
3.2384
3.2225
3.20198
3.18379
3.16126
3.14122
3.11755
3.09717
3.07435
3.05238
3.03092
3.00743
2.98512
2.96176
2.9403
2.91847
2.89807
2.87827
2.85756
2.83756
2.81843
2.80059
2.78215
2.76473
2.7477
2.73166
2.71609
2.70114
2.68683
2.67263
2.65921
2.6458
2.63316
2.6207
2.60871
2.5972
2.5859
2.57514
2.56463
2.55444
2.54458
2.53498
2.52554
2.5164
2.50716
2.49844
2.48905
2.48069
2.47116
2.46274
2.45321
2.44447
2.43507
2.42591
2.41655
2.40712
2.39762
2.38801
2.37787
2.36838
2.35741
2.34871
2.33674
2.32901
2.3167
2.3088
2.29756
2.28833
2.27871
2.26847
2.26002
2.24977
2.24213
2.23302
2.22761
2.2218
2.23295
2.32846
2.41075
2.58301
2.75293
2.96017
3.10975
3.23131
3.3002
3.32288
3.31907
3.30956
3.31467
3.33997
3.34644
3.34283
3.33201
3.31712
3.29757
3.27997
3.26085
3.24371
3.22575
3.20959
3.19162
3.17397
3.15568
3.13528
3.11583
3.09412
3.07323
3.05071
3.02964
3.00774
2.98643
2.96373
2.94201
2.91874
2.89593
2.87216
2.85005
2.82659
2.80553
2.78481
2.7658
2.74622
2.72739
2.70873
2.69138
2.67465
2.65863
2.64304
2.6278
2.61316
2.59875
2.58477
2.57082
2.55711
2.54315
2.52945
2.51558
2.5023
2.48894
2.47634
2.46376
2.45219
2.44087
2.43051
2.42022
2.41064
2.40104
2.39245
2.38368
2.37663
2.36866
2.36311
2.35566
2.35095
2.34412
2.33831
2.33241
2.32442
2.31988
2.31054
2.3058
2.29633
2.29134
2.28127
2.27614
2.26584
2.26058
2.25002
2.24473
2.23411
2.2289
2.2184
2.21358
2.20391
2.20041
2.19375
2.24012
2.26549
2.30492
2.36606
2.44387
2.53542
2.6472
2.75031
2.84027
2.90073
2.95209
2.97589
2.99992
3.00012
2.99574
2.98653
2.9726
2.95255
2.93239
2.90624
2.88064
2.85157
2.82871
2.80704
2.79266
2.77705
2.76483
2.74746
2.73203
2.71419
2.69846
2.68184
2.66696
2.65221
2.63829
2.62452
2.61038
2.5963
2.58214
2.5686
2.55503
2.54248
2.53008
2.51887
2.50852
2.49899
2.48945
2.48025
2.47139
2.46339
2.45551
2.44819
2.44096
2.43405
2.42708
2.4202
2.41323
2.40607
2.39854
2.39051
2.3818
2.37235
2.36207
2.35141
2.3401
2.32883
2.31672
2.30494
2.29253
2.28104
2.26949
2.25872
2.24843
2.23821
2.22924
2.21974
2.2117
2.20319
2.19634
2.18941
2.18444
2.1789
2.17556
2.17136
2.16912
2.16575
2.16411
2.16123
2.15991
2.15734
2.15618
2.15391
2.15291
2.15096
2.15002
2.14894
2.14795
2.14781
2.14781
2.15016
2.25685
2.2487
2.2636
2.28573
2.31863
2.35671
2.39796
2.43693
2.47085
2.49688
2.51524
2.53083
2.54308
2.5425
2.54016
2.53297
2.53077
2.52493
2.51789
2.50585
2.49585
2.48664
2.47872
2.47196
2.46511
2.4584
2.45141
2.44428
2.43717
2.43092
2.42549
2.42089
2.4166
2.41261
2.40865
2.40462
2.40039
2.39631
2.39191
2.38769
2.38395
2.38042
2.37686
2.37374
2.3708
2.36807
2.36446
2.36066
2.35623
2.35227
2.34737
2.3427
2.3369
2.33141
2.32506
2.31906
2.31241
2.30594
2.29911
2.29248
2.28573
2.27912
2.27223
2.26516
2.25765
2.24986
2.24175
2.23336
2.22481
2.21586
2.20712
2.19783
2.18919
2.17981
2.17122
2.16179
2.15319
2.14373
2.13512
2.12579
2.11739
2.10852
2.10077
2.09272
2.08591
2.07889
2.07298
2.06707
2.06191
2.05681
2.05233
2.04769
2.04398
2.03997
2.03676
2.03381
2.03093
2.03034
2.03065
2.03625
2.29845
2.26481
2.25818
2.26421
2.27115
2.28027
2.29421
2.2981
2.30072
2.30199
2.30198
2.30121
2.3013
2.30185
2.30114
2.30069
2.30115
2.30342
2.30455
2.30502
2.30524
2.30526
2.30526
2.30538
2.30557
2.30595
2.30628
2.30699
2.30766
2.30914
2.31074
2.31298
2.31474
2.31615
2.31691
2.31699
2.31685
2.31648
2.3159
2.31537
2.31502
2.31465
2.31403
2.3136
2.31298
2.3122
2.31059
2.30837
2.30517
2.30221
2.29828
2.29463
2.28953
2.28475
2.27856
2.27306
2.2663
2.26019
2.25287
2.24594
2.23776
2.23003
2.22099
2.21257
2.20297
2.19359
2.18359
2.17289
2.16262
2.15079
2.14055
2.12844
2.1188
2.10779
2.09955
2.09025
2.08357
2.07557
2.06966
2.06255
2.05656
2.0502
2.04393
2.03847
2.03225
2.02756
2.02216
2.01804
2.01373
2.01031
2.00666
2.00387
2.00047
1.99794
1.9945
1.99216
1.98867
1.987
1.98453
1.98623
2.30133
2.2971
2.28477
2.2697
2.26403
2.25555
2.24798
2.23758
2.22462
2.21293
2.20308
2.19428
2.19076
2.18854
2.18853
2.18834
2.18899
2.19163
2.19765
2.20354
2.20855
2.21332
2.21763
2.222
2.22558
2.22971
2.23269
2.23661
2.23967
2.24371
2.24678
2.25035
2.25259
2.25495
2.25569
2.25681
2.25679
2.25665
2.25629
2.25567
2.25493
2.25376
2.25237
2.25056
2.2493
2.24692
2.24498
2.24116
2.23814
2.23336
2.2299
2.22521
2.22124
2.21651
2.21192
2.20744
2.20212
2.19715
2.19133
2.18564
2.17927
2.17243
2.16512
2.15718
2.1489
2.14017
2.1313
2.12205
2.11294
2.10347
2.09461
2.08525
2.07669
2.06733
2.05857
2.04881
2.03972
2.02995
2.02109
2.01208
2.00383
1.99595
1.9883
1.98135
1.97428
1.96778
1.96153
1.95535
1.94977
1.94429
1.93919
1.93461
1.93032
1.92668
1.92333
1.92086
1.91881
1.91761
1.91767
1.92182
2.30201
2.30009
2.29581
2.28799
2.27125
2.25403
2.23777
2.21836
2.19818
2.17999
2.16213
2.14832
2.13717
2.13158
2.12888
2.12794
2.12758
2.12822
2.13045
2.13596
2.14128
2.14574
2.15077
2.15426
2.15827
2.16139
2.16479
2.16826
2.17147
2.17423
2.17691
2.17837
2.17978
2.18052
2.18091
2.18146
2.18156
2.18184
2.18212
2.18193
2.18148
2.18038
2.17922
2.17684
2.17539
2.17228
2.17029
2.16616
2.16332
2.15817
2.15468
2.14939
2.14522
2.14008
2.13519
2.12996
2.12419
2.11899
2.1125
2.1069
2.10015
2.09419
2.08758
2.0813
2.07483
2.06825
2.06183
2.05498
2.04865
2.04163
2.0355
2.0285
2.02258
2.01577
2.01008
2.0034
1.99805
1.99149
1.98644
1.98004
1.97495
1.96864
1.96327
1.95692
1.95117
1.94481
1.93873
1.93236
1.92606
1.9198
1.91328
1.90731
1.90078
1.89538
1.88906
1.88467
1.87894
1.87607
1.8717
1.8724
2.306
2.29804
2.29084
2.28159
2.26892
2.24969
2.22927
2.20887
2.18632
2.16736
2.14831
2.13161
2.11864
2.1081
2.10164
2.09679
2.09435
2.09218
2.09197
2.09205
2.0946
2.0982
2.10098
2.10431
2.10693
2.10984
2.11245
2.11508
2.11705
2.11923
2.12028
2.12145
2.12264
2.12354
2.12503
2.12602
2.12684
2.12796
2.12835
2.1283
2.12775
2.12649
2.12513
2.12263
2.12124
2.11865
2.11704
2.11367
2.11163
2.10754
2.10485
2.10033
2.09717
2.09275
2.08908
2.0847
2.08033
2.07616
2.07125
2.06737
2.06227
2.05847
2.0534
2.04944
2.04445
2.04021
2.03516
2.03058
2.02556
2.02056
2.01557
2.01017
2.0051
1.99954
1.99423
1.98883
1.98315
1.97801
1.972
1.96691
1.96059
1.95535
1.9486
1.94317
1.93592
1.93027
1.92265
1.91675
1.90904
1.9031
1.8955
1.88983
1.88251
1.87733
1.8705
1.86594
1.8599
1.85633
1.85165
1.85052
2.32252
2.30016
2.28422
2.26637
2.25112
2.23599
2.21801
2.19983
2.17951
2.15872
2.14041
2.12219
2.1081
2.09395
2.08332
2.0732
2.06598
2.06043
2.05584
2.05377
2.05001
2.05024
2.05144
2.05287
2.05577
2.05876
2.06175
2.06476
2.06756
2.0709
2.07333
2.07658
2.07934
2.08221
2.08485
2.08673
2.08869
2.08977
2.09065
2.09103
2.09148
2.09121
2.09081
2.09001
2.08953
2.08855
2.0877
2.08572
2.08425
2.08113
2.07927
2.07557
2.07338
2.0697
2.06698
2.06325
2.05979
2.05622
2.05224
2.04902
2.04472
2.04162
2.03718
2.03394
2.02937
2.02578
2.02104
2.01713
2.01221
2.00794
2.00296
1.99837
1.99344
1.98863
1.98369
1.97893
1.97374
1.9692
1.96352
1.95906
1.9529
1.94818
1.9416
1.93649
1.92944
1.92397
1.91651
1.9107
1.90297
1.89692
1.88904
1.88293
1.87515
1.86903
1.86175
1.85581
1.84946
1.84416
1.8394
1.83624
2.36569
2.32276
2.29106
2.2667
2.24401
2.22393
2.20364
2.18432
2.16634
2.14695
2.12926
2.11117
2.09439
2.07862
2.06448
2.05223
2.04168
2.03228
2.02502
2.01929
2.01634
2.01387
2.01342
2.01474
2.01744
2.02167
2.027
2.03183
2.03727
2.042
2.04651
2.05135
2.05501
2.0593
2.06232
2.06569
2.0681
2.07073
2.07238
2.07409
2.07544
2.07596
2.076
2.07587
2.07559
2.07489
2.07412
2.0723
2.07089
2.06791
2.06603
2.06223
2.05986
2.05579
2.05311
2.04928
2.04617
2.04277
2.03927
2.03619
2.03231
2.02937
2.02518
2.02203
2.01756
2.01415
2.00953
2.00594
2.00118
1.99743
1.99261
1.98866
1.98382
1.97967
1.97478
1.97047
1.96546
1.96099
1.95562
1.95093
1.94498
1.93983
1.93332
1.92759
1.92067
1.91445
1.90737
1.90083
1.89387
1.8872
1.88062
1.87392
1.86788
1.86128
1.85589
1.84948
1.84466
1.83881
1.8351
1.8314
2.38599
2.36169
2.32717
2.29039
2.25788
2.23165
2.20808
2.18593
2.16656
2.14575
2.12719
2.10802
2.0899
2.07255
2.05621
2.04228
2.02975
2.01945
2.01143
2.00475
2.00076
1.99848
1.99856
1.99968
2.0015
2.0065
2.0118
2.01795
2.02501
2.03083
2.03678
2.04217
2.04635
2.05096
2.05399
2.05769
2.06013
2.06283
2.06457
2.0662
2.06731
2.06796
2.06777
2.06723
2.06662
2.0651
2.0639
2.0614
2.05967
2.05625
2.05407
2.05016
2.04786
2.04394
2.04176
2.03802
2.03557
2.03217
2.02905
2.02595
2.02223
2.01929
2.01518
2.01212
2.00786
2.00455
2.00014
1.99661
1.99195
1.98829
1.98338
1.97958
1.97457
1.97064
1.96558
1.96151
1.95636
1.95207
1.94671
1.94213
1.9364
1.93133
1.92519
1.91944
1.91297
1.90656
1.89988
1.89303
1.88627
1.87927
1.87248
1.8654
1.85864
1.85163
1.84535
1.83895
1.83371
1.82838
1.82473
1.82149
2.39052
2.37371
2.35167
2.32646
2.29627
2.2666
2.23737
2.20954
2.1845
2.15996
2.1385
2.11739
2.09752
2.07923
2.06111
2.04595
2.03182
2.02008
2.01076
2.00285
1.99823
1.99489
1.99524
1.9968
1.99854
2.00219
2.00502
2.0112
2.01735
2.02295
2.02909
2.03353
2.03783
2.04144
2.04422
2.04722
2.04926
2.05107
2.05234
2.05337
2.05399
2.05392
2.05325
2.05234
2.05127
2.04975
2.04871
2.04654
2.04505
2.04196
2.04008
2.03627
2.03411
2.03
2.02778
2.02365
2.02104
2.01707
2.01374
2.01008
2.00613
2.00289
1.99852
1.99544
1.99094
1.98764
1.98307
1.97933
1.97447
1.97039
1.96508
1.96087
1.95527
1.95098
1.94535
1.94105
1.93541
1.93102
1.92527
1.9206
1.91463
1.90959
1.90335
1.89798
1.89146
1.88584
1.87913
1.8733
1.86666
1.86064
1.85427
1.84835
1.84249
1.83688
1.83166
1.82646
1.822
1.81775
1.81479
1.81223
2.391
2.37692
2.35971
2.34114
2.31863
2.29513
2.27096
2.24581
2.22159
2.1972
2.17332