/*--------------------------------*- C++ -*----------------------------------*\
| =========                 |                                                 |
| \\      /  F ield         | OpenFOAM: The Open Source CFD Toolbox           |
|  \\    /   O peration     | Version:  2412                                  |
|   \\  /    A nd           | Website:  www.openfoam.com                      |
|    \\/     M anipulation  |                                                 |
\*---------------------------------------------------------------------------*/
FoamFile
{
    version     2.0;
    format      ascii;
    arch        "LSB;label=32;scalar=64";
    class       volVectorField;
    location    "5";
    object      U;
}
// * * * * * * * * * * * * * * * * * * * * * * * * * * * * * * * * * * * * * //

dimensions      [0 1 -1 0 0 0 0];

internalField   nonuniform List<vector> 
7000
(
(3 -2.07284e-11 0)
(3 7.68649e-10 0)
(3 1.5386e-09 0)
(3 6.1144e-09 0)
(3 1.09289e-08 0)
(3 3.87671e-08 0)
(3 6.72721e-08 0)
(3 2.35727e-07 0)
(3 4.05884e-07 0)
(2.99999 1.43901e-06 0)
(2.99998 2.26993e-06 0)
(2.99996 7.9645e-06 0)
(2.99986 1.74774e-05 0)
(2.99976 4.48059e-05 0)
(2.99919 6.60134e-05 0)
(2.9984 0.000164023 0)
(2.99507 0.000204747 0)
(2.99322 0.000199856 0)
(2.98693 0.000174894 0)
(2.9682 0.00020194 0)
(2.97085 0.000309896 0)
(2.72993 0.00055503 0)
(2.13423 0.000881443 0)
(1.28586 0.00240819 0)
(0.553069 0.00307551 0)
(0.627895 0.00392601 0)
(0.715857 0.00456721 0)
(0.75727 0.00513684 0)
(0.752626 0.00551806 0)
(0.728086 0.0058701 0)
(0.691305 0.00617997 0)
(0.656807 0.00655267 0)
(0.628293 0.0069841 0)
(0.601438 0.00742223 0)
(0.573322 0.00784837 0)
(0.543539 0.00827534 0)
(0.512495 0.00871994 0)
(0.480524 0.00918919 0)
(0.447699 0.00968192 0)
(0.413815 0.0101963 0)
(0.378813 0.0107328 0)
(0.342854 0.0112886 0)
(0.305944 0.011858 0)
(0.267841 0.0124386 0)
(0.228519 0.0130277 0)
(0.188331 0.0136126 0)
(0.147454 0.0141754 0)
(0.106517 0.0146819 0)
(0.0631415 0.0153055 0)
(0.0266905 0.0160965 0)
(3 -5.52825e-11 0)
(3 2.12019e-09 0)
(3 4.23894e-09 0)
(3 1.70059e-08 0)
(3 3.14561e-08 0)
(3 1.10026e-07 0)
(3 1.8533e-07 0)
(3 6.76616e-07 0)
(3 1.1672e-06 0)
(2.99999 4.11845e-06 0)
(2.99998 6.11806e-06 0)
(2.99997 2.45361e-05 0)
(2.99988 4.79815e-05 0)
(2.99979 0.000167893 0)
(2.99926 0.000345644 0)
(2.99848 0.00161826 0)
(2.99509 9.84232e-05 0)
(2.9932 0.000421626 0)
(2.98693 -9.48896e-06 0)
(2.96829 0.000106276 0)
(2.97105 0.00048291 0)
(2.73024 0.00127513 0)
(2.13571 0.00242296 0)
(1.2875 0.00703455 0)
(0.553416 0.00911201 0)
(0.628208 0.0116036 0)
(0.716029 0.0134005 0)
(0.757272 0.0149871 0)
(0.752476 0.0160667 0)
(0.727877 0.017038 0)
(0.691091 0.0178684 0)
(0.656646 0.0188474 0)
(0.628148 0.0199591 0)
(0.601267 0.0210667 0)
(0.573117 0.0221219 0)
(0.543313 0.0231571 0)
(0.512255 0.0242131 0)
(0.480268 0.0253025 0)
(0.447419 0.0264156 0)
(0.413508 0.0275408 0)
(0.378475 0.0286709 0)
(0.342477 0.0297921 0)
(0.305518 0.0308849 0)
(0.267356 0.0319357 0)
(0.227962 0.032928 0)
(0.187688 0.0338262 0)
(0.146709 0.0345875 0)
(0.10571 0.0351439 0)
(0.0622353 0.0357701 0)
(0.0258159 0.0363345 0)
(3 -6.60197e-11 0)
(3 2.85576e-09 0)
(3 5.86317e-09 0)
(3 2.38495e-08 0)
(3 4.25905e-08 0)
(3 1.6077e-07 0)
(3 2.94374e-07 0)
(3 1.03076e-06 0)
(3 2.02134e-06 0)
(3 6.54632e-06 0)
(2.99999 1.39627e-05 0)
(2.99999 4.43919e-05 0)
(2.99995 9.60171e-05 0)
(2.99994 0.00026254 0)
(3.00007 0.00052104 0)
(2.99825 0.0018488 0)
(2.99433 0.000251941 0)
(2.99316 0.000528416 0)
(2.98676 0.000129888 0)
(2.96858 0.000438449 0)
(2.97157 0.0011274 0)
(2.73099 0.00253131 0)
(2.13865 0.00440731 0)
(1.29069 0.012076 0)
(0.553708 0.015782 0)
(0.628409 0.0199089 0)
(0.715954 0.0227773 0)
(0.756963 0.0253968 0)
(0.75193 0.0273198 0)
(0.727226 0.0290602 0)
(0.690436 0.030567 0)
(0.656105 0.0322777 0)
(0.627674 0.0341719 0)
(0.600795 0.0360675 0)
(0.572642 0.0379016 0)
(0.542861 0.0397189 0)
(0.511847 0.0415763 0)
(0.479908 0.0434935 0)
(0.4471 0.0454564 0)
(0.413227 0.0474474 0)
(0.37823 0.0494558 0)
(0.342257 0.0514593 0)
(0.305303 0.0534291 0)
(0.267127 0.0553404 0)
(0.227702 0.0571524 0)
(0.187377 0.0587902 0)
(0.146319 0.0601759 0)
(0.10529 0.0612143 0)
(0.0617736 0.0622014 0)
(0.0252942 0.0629426 0)
(3 -5.52756e-11 0)
(3 2.05093e-09 0)
(3 4.29144e-09 0)
(3 1.66288e-08 0)
(3 2.79973e-08 0)
(3 1.11595e-07 0)
(3 2.17767e-07 0)
(3 6.33861e-07 0)
(3 1.24589e-06 0)
(3 3.51954e-06 0)
(3 6.26363e-06 0)
(3.00002 3.66345e-05 0)
(3.00002 8.61636e-05 0)
(3.00006 0.000195264 0)
(3.00024 0.000357645 0)
(2.99832 0.000581782 0)
(2.99427 0.000614511 0)
(2.99313 0.00063937 0)
(2.9869 0.000777768 0)
(2.96902 0.00135453 0)
(2.97234 0.00235734 0)
(2.73198 0.00437413 0)
(2.1431 0.00680795 0)
(1.296 0.017363 0)
(0.555074 0.0229372 0)
(0.629358 0.0287423 0)
(0.71631 0.0326247 0)
(0.756986 0.0361995 0)
(0.751612 0.0389391 0)
(0.726724 0.0414352 0)
(0.689897 0.0436288 0)
(0.655696 0.0460619 0)
(0.627341 0.0487082 0)
(0.600459 0.0513637 0)
(0.5723 0.0539606 0)
(0.542549 0.0565495 0)
(0.511595 0.0591976 0)
(0.479722 0.0619313 0)
(0.446974 0.0647365 0)
(0.41316 0.0675905 0)
(0.378222 0.0704792 0)
(0.342291 0.0733752 0)
(0.305353 0.0762383 0)
(0.267173 0.0790332 0)
(0.227727 0.0816948 0)
(0.187364 0.0841065 0)
(0.146244 0.086143 0)
(0.105202 0.0876821 0)
(0.0616546 0.0890185 0)
(0.0250235 0.0899189 0)
(3 2.46714e-10 0)
(3 1.22119e-09 0)
(3 3.33538e-09 0)
(3 7.44086e-09 0)
(3 1.07231e-08 0)
(3 4.65721e-08 0)
(3 1.03528e-07 0)
(3 1.42764e-07 0)
(3 1.99127e-07 0)
(3 -7.18441e-08 0)
(3.00001 -3.7404e-06 0)
(3.00004 1.20656e-05 0)
(3.00005 2.6948e-05 0)
(3.00012 7.93577e-05 0)
(3.00032 0.000164096 0)
(2.99841 0.000262204 0)
(2.99437 0.00041526 0)
(2.99326 0.000605653 0)
(2.98722 0.000951641 0)
(2.96966 0.00184403 0)
(2.97341 0.00322088 0)
(2.73327 0.00586774 0)
(2.14895 0.00912459 0)
(1.30328 0.0223658 0)
(0.557303 0.0301995 0)
(0.630838 0.0380097 0)
(0.716855 0.0431103 0)
(0.7571 0.047586 0)
(0.751314 0.0511018 0)
(0.726213 0.0543447 0)
(0.689355 0.0572722 0)
(0.655329 0.0604547 0)
(0.627085 0.0638548 0)
(0.600229 0.0672723 0)
(0.57209 0.0706465 0)
(0.542396 0.0740323 0)
(0.511532 0.0775 0)
(0.479757 0.0810761 0)
(0.447097 0.0847467 0)
(0.413362 0.088489 0)
(0.378494 0.0922823 0)
(0.342598 0.0960983 0)
(0.305654 0.0998844 0)
(0.267451 0.103586 0)
(0.227977 0.1071 0)
(0.187577 0.110265 0)
(0.146395 0.11292 0)
(0.105322 0.114904 0)
(0.0617087 0.11651 0)
(0.0248805 0.117486 0)
(3 4.37818e-10 0)
(3 1.09704e-09 0)
(3 4.17777e-09 0)
(3 7.36881e-09 0)
(3 2.56684e-08 0)
(3 3.89348e-08 0)
(3 1.07065e-07 0)
(3 1.69876e-07 0)
(3 4.02719e-07 0)
(3 5.81981e-07 0)
(3.00001 5.15593e-07 0)
(3.00004 4.21519e-06 0)
(3.00006 7.7197e-06 0)
(3.00015 2.79272e-05 0)
(3.00036 5.68033e-05 0)
(2.99849 8.55024e-05 0)
(2.9945 0.000268491 0)
(2.99349 0.000523868 0)
(2.98772 0.00102112 0)
(2.9706 0.00225795 0)
(2.97487 0.00404641 0)
(2.73495 0.00732491 0)
(2.156 0.0115749 0)
(1.31206 0.0273849 0)
(0.559758 0.037857 0)
(0.632295 0.0480729 0)
(0.717007 0.0544404 0)
(0.756687 0.0595391 0)
(0.75048 0.0636876 0)
(0.725199 0.0676283 0)
(0.688355 0.0713653 0)
(0.654551 0.075357 0)
(0.626479 0.0795422 0)
(0.599726 0.0837441 0)
(0.571696 0.0879188 0)
(0.542152 0.0921268 0)
(0.511468 0.0964408 0)
(0.479865 0.100892 0)
(0.447348 0.105471 0)
(0.413727 0.110153 0)
(0.378946 0.114917 0)
(0.343091 0.119722 0)
(0.306146 0.124495 0)
(0.267929 0.129165 0)
(0.228438 0.133578 0)
(0.188011 0.13752 0)
(0.146767 0.140799 0)
(0.105644 0.143222 0)
(0.061908 0.145085 0)
(0.024824 0.146117 0)
(3 4.93809e-10 0)
(3 9.94974e-10 0)
(3 3.96402e-09 0)
(3 7.13012e-09 0)
(3 3.11672e-08 0)
(3 3.06716e-08 0)
(3 1.0413e-07 0)
(3 1.7837e-07 0)
(3 6.21394e-07 0)
(3 1.13025e-06 0)
(3.00001 1.91684e-06 0)
(3.00004 1.29933e-06 0)
(3.00007 -6.30943e-07 0)
(3.00015 -9.06387e-07 0)
(3.00036 -7.31403e-06 0)
(2.99856 -3.08205e-05 0)
(2.99467 0.00018786 0)
(2.99379 0.000523065 0)
(2.98841 0.00115449 0)
(2.97183 0.00264076 0)
(2.97673 0.00474261 0)
(2.73703 0.00858466 0)
(2.16434 0.0134268 0)
(1.32254 0.0322789 0)
(0.562745 0.0463424 0)
(0.633796 0.059833 0)
(0.716524 0.0673506 0)
(0.75546 0.0726167 0)
(0.748943 0.077124 0)
(0.72362 0.0815902 0)
(0.686889 0.0860866 0)
(0.653353 0.0908384 0)
(0.62551 0.0957662 0)
(0.598933 0.100732 0)
(0.571079 0.105711 0)
(0.541738 0.110766 0)
(0.51127 0.115971 0)
(0.479873 0.121353 0)
(0.447529 0.126908 0)
(0.414056 0.132599 0)
(0.379403 0.138405 0)
(0.343634 0.144274 0)
(0.30674 0.150105 0)
(0.268573 0.155798 0)
(0.229123 0.161165 0)
(0.188705 0.16594 0)
(0.14739 0.169889 0)
(0.106172 0.172795 0)
(0.0622522 0.174944 0)
(0.0248418 0.176057 0)
(3 5.41035e-10 0)
(3 9.79606e-10 0)
(3 3.61357e-09 0)
(3 6.87427e-09 0)
(3 2.12153e-08 0)
(3 3.2396e-08 0)
(3 1.24824e-07 0)
(3 2.48695e-07 0)
(3 9.10346e-07 0)
(3 1.90007e-06 0)
(3.00001 8.65829e-06 0)
(3.00004 -2.00755e-06 0)
(3.00006 -4.59557e-06 0)
(3.00014 -1.84723e-05 0)
(3.00033 -4.73849e-05 0)
(2.99863 -0.000113754 0)
(2.99491 0.000273497 0)
(2.99418 0.00111432 0)
(2.98922 0.00192768 0)
(2.97326 0.00346695 0)
(2.9789 0.00584452 0)
(2.73934 0.0110949 0)
(2.17444 0.0131644 0)
(1.33671 0.0350589 0)
(0.568917 0.054145 0)
(0.637216 0.0715925 0)
(0.716321 0.0804484 0)
(0.754071 0.0859572 0)
(0.747314 0.0909585 0)
(0.722027 0.0960449 0)
(0.6854 0.10134 0)
(0.652014 0.106873 0)
(0.624293 0.112563 0)
(0.597809 0.118315 0)
(0.570073 0.124124 0)
(0.540904 0.130056 0)
(0.510657 0.136186 0)
(0.479503 0.142537 0)
(0.447402 0.14911 0)
(0.414175 0.155865 0)
(0.379768 0.162762 0)
(0.344209 0.169747 0)
(0.307489 0.1767 0)
(0.269477 0.183485 0)
(0.230148 0.189877 0)
(0.189775 0.195548 0)
(0.148385 0.200238 0)
(0.107002 0.203703 0)
(0.0627927 0.206199 0)
(0.0249553 0.207432 0)
(3 2.25551e-10 0)
(3 4.14196e-10 0)
(3 1.7998e-09 0)
(3 3.55775e-09 0)
(3 1.13819e-08 0)
(3 1.66315e-08 0)
(3 6.46771e-08 0)
(3 1.36891e-07 0)
(3 4.56374e-07 0)
(3.00001 9.35426e-07 0)
(3.00001 6.69207e-06 0)
(3.00003 -3.72192e-06 0)
(3.00006 -6.9197e-06 0)
(3.00012 -2.65394e-05 0)
(3.00029 -6.70169e-05 0)
(2.9988 -0.00015571 0)
(2.9956 0.000327734 0)
(2.99503 0.00135227 0)
(2.99014 0.00237597 0)
(2.97484 0.00393643 0)
(2.98203 0.00652721 0)
(2.74068 0.0122719 0)
(2.18476 0.0162712 0)
(1.35238 0.0427323 0)
(0.569361 0.0678912 0)
(0.635277 0.0843548 0)
(0.710743 0.0934088 0)
(0.747923 0.0993729 0)
(0.741744 0.105142 0)
(0.717149 0.111016 0)
(0.68118 0.11712 0)
(0.648408 0.12344 0)
(0.621233 0.12991 0)
(0.595224 0.13646 0)
(0.567933 0.143115 0)
(0.539215 0.149944 0)
(0.509427 0.157024 0)
(0.478732 0.164382 0)
(0.447072 0.172001 0)
(0.414267 0.17988 0)
(0.380262 0.187939 0)
(0.345057 0.196099 0)
(0.308633 0.204247 0)
(0.270876 0.21221 0)
(0.231712 0.219723 0)
(0.191373 0.226417 0)
(0.149857 0.23197 0)
(0.108218 0.236104 0)
(0.0635814 0.239046 0)
(0.0251735 0.24045 0)
(3 -1.02205e-10 0)
(3 -1.91372e-10 0)
(3 -5.73272e-10 0)
(3 -1.09834e-09 0)
(3 -3.93019e-09 0)
(3 -7.23708e-09 0)
(3 -2.56016e-08 0)
(3 -4.97118e-08 0)
(3 -1.71047e-07 0)
(3 -2.87533e-07 0)
(3.00001 -1.26035e-06 0)
(3.00003 -1.9886e-06 0)
(3.00005 -8.77185e-06 0)
(3.00009 -2.42678e-05 0)
(3.00023 -7.32152e-05 0)
(2.99893 -0.000163712 0)
(2.99607 0.000268769 0)
(2.99577 0.00119031 0)
(2.9912 0.00206663 0)
(2.97658 0.00365467 0)
(2.98488 0.00628069 0)
(2.74491 0.0105423 0)
(2.20328 0.022431 0)
(1.37897 0.052983 0)
(0.581265 0.0866902 0)
(0.639342 0.0984097 0)
(0.710866 0.106264 0)
(0.746525 0.112873 0)
(0.73983 0.119647 0)
(0.714918 0.12645 0)
(0.678811 0.133319 0)
(0.646052 0.14038 0)
(0.618996 0.147618 0)
(0.593204 0.154988 0)
(0.566235 0.162526 0)
(0.53793 0.170299 0)
(0.508621 0.178376 0)
(0.478425 0.186791 0)
(0.447282 0.195521 0)
(0.414987 0.204554 0)
(0.381448 0.213855 0)
(0.346669 0.2233 0)
(0.310601 0.232756 0)
(0.273117 0.242034 0)
(0.234113 0.250802 0)
(0.193769 0.258676 0)
(0.152029 0.265265 0)
(0.109981 0.270224 0)
(0.0647245 0.273731 0)
(0.0255432 0.275368 0)
(3 -4.95875e-10 0)
(3 -5.8968e-10 0)
(3 -2.52039e-09 0)
(3 -4.27618e-09 0)
(3 -1.44396e-08 0)
(3 -2.5159e-08 0)
(3 -8.33068e-08 0)
(3 -1.46658e-07 0)
(3 -4.89527e-07 0)
(3 -7.56381e-07 0)
(3.00001 -2.79235e-06 0)
(3.00003 -4.75072e-06 0)
(3.00004 -1.45741e-05 0)
(3.00007 -3.3025e-05 0)
(3.00018 -8.27317e-05 0)
(2.99907 -0.000166999 0)
(2.99669 0.00020881 0)
(2.99648 0.00105586 0)
(2.99209 0.00176599 0)
(2.97833 0.00335548 0)
(2.98725 0.00606216 0)
(2.75097 0.0094179 0)
(2.22718 0.0259636 0)
(1.41247 0.0593696 0)
(0.59742 0.104618 0)
(0.643681 0.114004 0)
(0.712775 0.120536 0)
(0.748001 0.127653 0)
(0.740943 0.135316 0)
(0.715497 0.142905 0)
(0.678982 0.150454 0)
(0.646005 0.158135 0)
(0.618834 0.166027 0)
(0.593032 0.174136 0)
(0.566192 0.182495 0)
(0.538148 0.191175 0)
(0.509211 0.200238 0)
(0.479453 0.209714 0)
(0.448766 0.21961 0)
(0.416962 0.229883 0)
(0.383907 0.240503 0)
(0.349547 0.251345 0)
(0.313835 0.262238 0)
(0.27659 0.273004 0)
(0.23768 0.283243 0)
(0.197231 0.292514 0)
(0.155121 0.300359 0)
(0.112467 0.306353 0)
(0.0663142 0.310611 0)
(0.0260871 0.31258 0)
(3 -5.57019e-10 0)
(3 -9.08522e-10 0)
(3 -3.78131e-09 0)
(3 -6.64064e-09 0)
(3 -2.27029e-08 0)
(3 -3.9586e-08 0)
(3 -1.3307e-07 0)
(3 -2.34498e-07 0)
(3 -7.83016e-07 0)
(3 -1.33623e-06 0)
(3.00001 -4.56733e-06 0)
(3.00002 -8.99491e-06 0)
(3.00002 -2.64393e-05 0)
(3.00004 -4.74057e-05 0)
(3.00012 -8.99639e-05 0)
(2.99917 -0.000167166 0)
(2.99709 0.000184234 0)
(2.99707 0.000902439 0)
(2.99309 0.00164348 0)
(2.98026 0.00327006 0)
(2.98974 0.00611866 0)
(2.75842 0.00939584 0)
(2.25624 0.0279339 0)
(1.4545 0.0662998 0)
(0.618907 0.122643 0)
(0.648128 0.130981 0)
(0.715782 0.13675 0)
(0.751412 0.144029 0)
(0.744233 0.152279 0)
(0.718343 0.160479 0)
(0.681467 0.168673 0)
(0.648234 0.176918 0)
(0.620908 0.185378 0)
(0.59503 0.194128 0)
(0.568223 0.203226 0)
(0.540339 0.212749 0)
(0.511673 0.222767 0)
(0.482279 0.233306 0)
(0.452011 0.244383 0)
(0.420657 0.255972 0)
(0.388059 0.267995 0)
(0.354095 0.280349 0)
(0.318717 0.292842 0)
(0.28169 0.305271 0)
(0.242802 0.317219 0)
(0.202143 0.328167 0)
(0.159469 0.337581 0)
(0.115939 0.344905 0)
(0.0685712 0.350138 0)
(0.026907 0.352567 0)
(3 -3.33168e-10 0)
(3 -9.923e-10 0)
(3 -3.82904e-09 0)
(3 -7.31231e-09 0)
(3 -2.3872e-08 0)
(3 -4.48773e-08 0)
(3 -1.39767e-07 0)
(3 -2.7222e-07 0)
(3 -8.09345e-07 0)
(3 -1.65778e-06 0)
(3 -4.9914e-06 0)
(3.00001 -1.0504e-05 0)
(3 -2.89361e-05 0)
(3.00001 -4.88248e-05 0)
(3.00007 -8.66504e-05 0)
(2.99931 -0.000161196 0)
(2.99762 0.000222536 0)
(2.99774 0.00101494 0)
(2.99411 0.00175525 0)
(2.98232 0.00334854 0)
(2.99237 0.00625473 0)
(2.76659 0.00941932 0)
(2.29133 0.0298199 0)
(1.50616 0.0722762 0)
(0.644825 0.140353 0)
(0.652693 0.148905 0)
(0.719552 0.153983 0)
(0.756006 0.161319 0)
(0.749076 0.170133 0)
(0.72295 0.178976 0)
(0.685849 0.187824 0)
(0.652436 0.196637 0)
(0.625031 0.205647 0)
(0.599148 0.215005 0)
(0.572412 0.224804 0)
(0.544692 0.235131 0)
(0.516282 0.246076 0)
(0.487225 0.257677 0)
(0.45736 0.269949 0)
(0.426437 0.282876 0)
(0.394288 0.296388 0)
(0.36074 0.310389 0)
(0.32567 0.324674 0)
(0.288825 0.33901 0)
(0.249901 0.352974 0)
(0.208898 0.365952 0)
(0.165487 0.377331 0)
(0.120742 0.38641 0)
(0.0716629 0.39298 0)
(0.0280662 0.396072 0)
(3 -1.53805e-10 0)
(3 -6.83214e-10 0)
(3 -2.27963e-09 0)
(3 -5.2212e-09 0)
(3 -1.40068e-08 0)
(3 -3.08135e-08 0)
(3 -7.96038e-08 0)
(3 -1.74411e-07 0)
(3 -4.27595e-07 0)
(3 -1.01606e-06 0)
(3 -2.4161e-06 0)
(3 -4.05896e-06 0)
(2.99999 -1.7265e-05 0)
(2.99999 -3.63664e-05 0)
(3.00002 -7.05469e-05 0)
(2.99945 -0.000143322 0)
(2.99814 0.000285635 0)
(2.99844 0.00119127 0)
(2.99516 0.00193179 0)
(2.98442 0.00343408 0)
(2.99503 0.00632537 0)
(2.77623 0.00920565 0)
(2.33072 0.0320829 0)
(1.56699 0.0764224 0)
(0.677418 0.157605 0)
(0.658053 0.167574 0)
(0.723382 0.172136 0)
(0.761486 0.179663 0)
(0.755175 0.189052 0)
(0.728943 0.198494 0)
(0.691718 0.207943 0)
(0.658211 0.217283 0)
(0.630847 0.226818 0)
(0.6051 0.236761 0)
(0.578564 0.247241 0)
(0.551107 0.258364 0)
(0.523033 0.270216 0)
(0.494373 0.282874 0)
(0.464966 0.296366 0)
(0.434538 0.310695 0)
(0.402889 0.325796 0)
(0.36981 0.34158 0)
(0.335114 0.357865 0)
(0.298488 0.374392 0)
(0.259524 0.390742 0)
(0.218092 0.406238 0)
(0.173724 0.420135 0)
(0.127426 0.431543 0)
(0.0760663 0.439992 0)
(0.0297672 0.444074 0)
(3 5.97302e-12 0)
(3 -2.16979e-10 0)
(3 -4.04782e-10 0)
(3 -1.48775e-09 0)
(3 -2.53782e-09 0)
(3 -6.41084e-09 0)
(3 -1.31736e-08 0)
(3 -2.78618e-08 0)
(3 -3.52898e-08 0)
(3 -9.69227e-08 0)
(3 -8.95578e-08 0)
(2.99999 -3.88997e-07 0)
(2.99997 -9.49165e-07 0)
(2.99996 -6.69533e-06 0)
(2.99997 -3.35775e-05 0)
(2.99964 -0.000136959 0)
(2.99886 0.000301345 0)
(2.99927 0.00111429 0)
(2.99616 0.00185476 0)
(2.98653 0.00335589 0)
(2.99762 0.00622136 0)
(2.78711 0.00876886 0)
(2.37422 0.0334583 0)
(1.63681 0.0798565 0)
(0.717071 0.173925 0)
(0.664892 0.185877 0)
(0.727899 0.191046 0)
(0.767848 0.199017 0)
(0.762302 0.20888 0)
(0.736045 0.218822 0)
(0.698783 0.228798 0)
(0.665278 0.238647 0)
(0.638104 0.248706 0)
(0.612665 0.259239 0)
(0.586515 0.270397 0)
(0.559497 0.282318 0)
(0.53192 0.295109 0)
(0.503816 0.30886 0)
(0.475 0.323629 0)
(0.445205 0.339437 0)
(0.4142 0.356253 0)
(0.381722 0.373997 0)
(0.347521 0.392532 0)
(0.311237 0.411592 0)
(0.272315 0.430811 0)
(0.230454 0.449432 0)
(0.185004 0.466646 0)
(0.136716 0.481288 0)
(0.0822813 0.492487 0)
(0.0322494 0.498169 0)
(3 7.20888e-13 0)
(3 4.42609e-11 0)
(3 1.36508e-10 0)
(3 3.88985e-10 0)
(3 7.41662e-10 0)
(3 2.45623e-09 0)
(3 5.1603e-09 0)
(3 1.59899e-08 0)
(3 2.94216e-08 0)
(3 9.54135e-08 0)
(3 2.35346e-07 0)
(3 -8.9274e-07 0)
(2.99998 4.57759e-06 0)
(2.99996 1.61712e-05 0)
(2.9999 1.97877e-05 0)
(2.99977 -1.86402e-05 0)
(2.99934 0.000307118 0)
(2.99993 0.000874651 0)
(2.99729 0.00160776 0)
(2.98875 0.00313204 0)
(3.00017 0.0059952 0)
(2.79898 0.0082032 0)
(2.42175 0.0344831 0)
(1.71512 0.083194 0)
(0.762737 0.189958 0)
(0.672984 0.205034 0)
(0.732931 0.211947 0)
(0.774563 0.220275 0)
(0.769888 0.230211 0)
(0.743781 0.240314 0)
(0.706644 0.250595 0)
(0.673296 0.260828 0)
(0.646491 0.271326 0)
(0.62156 0.282382 0)
(0.596008 0.294186 0)
(0.569672 0.306886 0)
(0.542831 0.320619 0)
(0.515519 0.335484 0)
(0.487539 0.351578 0)
(0.458608 0.368961 0)
(0.428487 0.387637 0)
(0.396885 0.407571 0)
(0.363445 0.428662 0)
(0.327767 0.450679 0)
(0.289167 0.473354 0)
(0.247069 0.495961 0)
(0.200538 0.517597 0)
(0.149953 0.536863 0)
(0.0915196 0.552276 0)
(0.0361121 0.560751 0)
(3 -4.37968e-12 0)
(3 2.17728e-10 0)
(3 4.20943e-10 0)
(3 1.53103e-09 0)
(3 2.74068e-09 0)
(3 8.07497e-09 0)
(3 1.69254e-08 0)
(3 4.95302e-08 0)
(3 6.9332e-08 0)
(3 3.03009e-07 0)
(3 7.44367e-07 0)
(3 2.53268e-06 0)
(2.99999 3.17019e-06 0)
(2.99998 3.0065e-05 0)
(2.99994 7.98395e-05 0)
(2.99992 0.000179529 0)
(2.99975 0.000404308 0)
(3.00056 0.000861015 0)
(2.99839 0.00139001 0)
(2.99103 0.00268253 0)
(3.00265 0.00521004 0)
(2.81202 0.0066968 0)
(2.4735 0.0335133 0)
(1.80208 0.0831462 0)
(0.813988 0.200209 0)
(0.682414 0.221709 0)
(0.737656 0.233471 0)
(0.780049 0.242167 0)
(0.776409 0.252055 0)
(0.750925 0.262212 0)
(0.714388 0.272775 0)
(0.681571 0.283401 0)
(0.655466 0.294353 0)
(0.631391 0.305952 0)
(0.60678 0.31842 0)
(0.581432 0.331916 0)
(0.555633 0.346598 0)
(0.529417 0.362601 0)
(0.502609 0.380059 0)
(0.474906 0.399095 0)
(0.446039 0.419774 0)
(0.415709 0.442116 0)
(0.383496 0.466121 0)
(0.348912 0.491636 0)
(0.311158 0.518533 0)
(0.269378 0.546143 0)
(0.222195 0.573833 0)
(0.169149 0.599952 0)
(0.105634 0.622353 0)
(0.0424205 0.635992 0)
(3 1.16764e-11 0)
(3 2.16105e-10 0)
(3 4.85161e-10 0)
(3 1.6872e-09 0)
(3 3.30011e-09 0)
(3 1.03376e-08 0)
(3 2.02195e-08 0)
(3 6.32099e-08 0)
(3 1.16233e-07 0)
(3 3.61356e-07 0)
(3 6.30898e-07 0)
(3 1.72546e-06 0)
(3.00001 4.37179e-06 0)
(3.00004 9.1837e-06 0)
(3.00005 1.16386e-05 0)
(3.00011 0.000189041 0)
(3.00004 0.000501969 0)
(3.00095 0.000944751 0)
(2.99915 0.00245065 0)
(2.99281 0.00497708 0)
(3.00435 0.00988109 0)
(2.82496 0.0161368 0)
(2.52627 0.0297534 0)
(1.89419 0.104638 0)
(0.865391 0.209492 0)
(0.692803 0.239248 0)
(0.740052 0.257302 0)
(0.780629 0.266083 0)
(0.77889 0.275212 0)
(0.755018 0.284821 0)
(0.719958 0.295296 0)
(0.688407 0.306106 0)
(0.663682 0.317406 0)
(0.641091 0.329491 0)
(0.617997 0.342601 0)
(0.594177 0.35691 0)
(0.569925 0.372598 0)
(0.545282 0.389829 0)
(0.520101 0.408756 0)
(0.494126 0.429551 0)
(0.467066 0.452356 0)
(0.438622 0.477303 0)
(0.408344 0.504589 0)
(0.375736 0.533975 0)
(0.339765 0.565845 0)
(0.299456 0.600136 0)
(0.252879 0.636127 0)
(0.198256 0.67242 0)
(0.128825 0.706957 0)
(0.0536648 0.732019 0)
(3 1.05249e-11 0)
(3 4.3891e-11 0)
(3 1.12086e-10 0)
(3 3.90433e-10 0)
(3 9.12978e-10 0)
(3 3.05925e-09 0)
(3 6.76298e-09 0)
(3 1.98228e-08 0)
(3 4.92224e-08 0)
(3 1.60265e-07 0)
(3 1.54732e-07 0)
(3 1.24689e-06 0)
(3 3.12888e-06 0)
(2.99999 -3.12485e-06 0)
(3.00013 -1.69794e-05 0)
(3.00045 -2.17069e-05 0)
(3.00056 -0.000183571 0)
(3.00267 -0.000366567 0)
(3.00277 -0.00135413 0)
(2.99933 -0.00123603 0)
(3.01424 0.00285898 0)
(2.83212 -0.00152259 0)
(2.61601 0.0251965 0)
(2.04083 0.102044 0)
(0.894862 0.227548 0)
(0.69674 0.261291 0)
(0.732877 0.282052 0)
(0.769453 0.289887 0)
(0.770676 0.298058 0)
(0.750338 0.307077 0)
(0.718585 0.317449 0)
(0.689858 0.32842 0)
(0.667892 0.340059 0)
(0.648039 0.352642 0)
(0.627611 0.366407 0)
(0.606353 0.381539 0)
(0.584584 0.398231 0)
(0.562369 0.416715 0)
(0.53959 0.437175 0)
(0.516063 0.459839 0)
(0.491588 0.484947 0)
(0.465974 0.512615 0)
(0.438485 0.543135 0)
(0.408961 0.577118 0)
(0.376925 0.615096 0)
(0.340435 0.657626 0)
(0.296799 0.704745 0)
(0.243504 0.756465 0)
(0.170106 0.812283 0)
(0.076839 0.865717 0)
(3 -1.22499e-11 0)
(3 -6.71938e-11 0)
(3 -1.62772e-10 0)
(3 -2.22228e-10 0)
(3 -1.52568e-09 0)
(3 -3.55459e-09 0)
(3 -8.81103e-09 0)
(3 -2.36167e-08 0)
(3 -2.60484e-08 0)
(3 -7.97483e-08 0)
(3 -3.14738e-07 0)
(3 2.95851e-06 0)
(3.00001 8.37419e-06 0)
(3.00001 1.98402e-05 0)
(3.00003 5.7514e-05 0)
(2.9999 -8.19027e-06 0)
(2.99963 -0.000749555 0)
(2.99955 -0.00192301 0)
(2.99801 -0.00487593 0)
(2.99757 -0.00879491 0)
(3.00449 -0.0138994 0)
(2.85352 -0.0273591 0)
(2.69895 0.0268777 0)
(2.15181 0.062777 0)
(0.938443 0.283395 0)
(0.680483 0.304586 0)
(0.707695 0.311434 0)
(0.742792 0.310988 0)
(0.749773 0.31615 0)
(0.734738 0.323711 0)
(0.707768 0.334369 0)
(0.683235 0.346128 0)
(0.665444 0.358613 0)
(0.649726 0.37212 0)
(0.633304 0.386971 0)
(0.615882 0.403363 0)
(0.597833 0.421466 0)
(0.579246 0.441473 0)
(0.560025 0.463621 0)
(0.540096 0.48825 0)
(0.519202 0.51539 0)
(0.497252 0.5456 0)
(0.474446 0.579786 0)
(0.450503 0.618859 0)
(0.424504 0.663396 0)
(0.3952 0.714812 0)
(0.360348 0.775519 0)
(0.316673 0.849906 0)
(0.250902 0.947025 0)
(0.131717 1.09619 0)
(3 -1.17242e-10 0)
(3 -2.3035e-10 0)
(3 -9.08335e-10 0)
(3 -1.60911e-09 0)
(3 -5.54188e-09 0)
(3 -9.82642e-09 0)
(3 -3.17836e-08 0)
(3 -5.82474e-08 0)
(3 -1.79783e-07 0)
(3 -3.17888e-07 0)
(3 -9.65017e-07 0)
(3.00001 -1.79583e-06 0)
(3.00002 -5.42013e-06 0)
(3.00005 -1.20339e-05 0)
(3.00012 -3.67137e-05 0)
(2.99945 -6.83612e-05 0)
(2.99809 -0.000182171 0)
(2.99761 -0.000298772 0)
(2.99422 -0.00106926 0)
(2.98692 -0.00128977 0)
(2.99157 -0.0069422 0)
(2.88567 -0.0157856 0)
(2.75214 0.0400921 0)
(2.29588 0.0721688 0)
(1.11094 0.330695 0)
(0.717654 0.3678 0)
(0.717377 0.35974 0)
(0.745806 0.348767 0)
(0.753651 0.345657 0)
(0.738469 0.34723 0)
(0.712015 0.355224 0)
(0.686849 0.366264 0)
(0.669408 0.378696 0)
(0.655674 0.392631 0)
(0.642549 0.408452 0)
(0.629266 0.426299 0)
(0.615856 0.446245 0)
(0.602316 0.468343 0)
(0.588652 0.492643 0)
(0.574321 0.519449 0)
(0.559588 0.549363 0)
(0.545747 0.583253 0)
(0.532393 0.62193 0)
(0.518943 0.666135 0)
(0.50615 0.717312 0)
(0.495239 0.778036 0)
(0.488827 0.852396 0)
(0.494716 0.947016 0)
(0.54167 1.07202 0)
(0.605206 1.25149 0)
(3 -8.61146e-11 0)
(3 -1.21221e-10 0)
(3 -5.53008e-10 0)
(3 -1.07508e-09 0)
(3 -2.73093e-09 0)
(3 -3.96574e-09 0)
(3 -1.43982e-08 0)
(3 -2.2691e-08 0)
(3 -4.88257e-08 0)
(3 -2.37091e-07 0)
(3 -5.69454e-07 0)
(2.99999 -3.80737e-06 0)
(2.99999 -1.23534e-05 0)
(2.99996 -2.34707e-05 0)
(2.99992 -6.40403e-05 0)
(2.99975 -0.000137673 0)
(2.99953 0.000136982 0)
(2.99843 0.000768794 0)
(2.99707 0.000825902 0)
(2.98952 0.00288556 0)
(2.9834 0.00407253 0)
(2.91779 -0.000246568 0)
(2.85222 0.0374033 0)
(2.49151 0.0720216 0)
(1.35266 0.286793 0)
(0.814496 0.405085 0)
(0.742304 0.402224 0)
(0.764065 0.387713 0)
(0.773516 0.375781 0)
(0.761856 0.373544 0)
(0.738349 0.378215 0)
(0.711748 0.388782 0)
(0.691582 0.400752 0)
(0.676401 0.414064 0)
(0.663327 0.429415 0)
(0.651273 0.447142 0)
(0.640119 0.46739 0)
(0.629554 0.489976 0)
(0.619587 0.515145 0)
(0.610896 0.543573 0)
(0.603811 0.576035 0)
(0.598236 0.612675 0)
(0.594305 0.653692 0)
(0.592938 0.70021 0)
(0.596043 0.753897 0)
(0.606875 0.816789 0)
(0.631047 0.891742 0)
(0.67717 0.981843 0)
(0.775927 1.0867 0)
(0.906629 1.19445 0)
(3 6.28924e-11 0)
(3 1.21118e-10 0)
(3 4.82494e-10 0)
(3 8.94763e-10 0)
(3 2.99283e-09 0)
(3 5.2855e-09 0)
(3 2.45281e-08 0)
(3 2.25516e-08 0)
(3 8.1089e-08 0)
(3 1.3596e-07 0)
(3 7.01031e-07 0)
(2.99999 6.16524e-07 0)
(2.99999 2.8115e-06 0)
(2.99996 4.39365e-06 0)
(2.99993 2.41698e-05 0)
(2.99978 2.0117e-05 0)
(2.9996 7.81552e-05 0)
(2.99876 0.000150413 0)
(2.99775 0.000502065 0)
(2.99238 0.000902033 0)
(2.98663 0.00562519 0)
(2.94241 0.00381096 0)
(2.89621 0.0333097 0)
(2.5974 0.0628484 0)
(1.65489 0.250613 0)
(1.01296 0.480858 0)
(0.786367 0.481366 0)
(0.787614 0.446759 0)
(0.802319 0.41827 0)
(0.80174 0.408577 0)
(0.78423 0.408317 0)
(0.758944 0.41494 0)
(0.734183 0.425142 0)
(0.715088 0.437101 0)
(0.699688 0.451194 0)
(0.68653 0.467796 0)
(0.674859 0.48684 0)
(0.664827 0.508603 0)
(0.657726 0.533904 0)
(0.653808 0.563038 0)
(0.652336 0.595925 0)
(0.653348 0.632754 0)
(0.657887 0.673986 0)
(0.667605 0.720231 0)
(0.684593 0.772217 0)
(0.711834 0.830662 0)
(0.754679 0.895592 0)
(0.818045 0.96646 0)
(0.917215 1.03805 0)
(1.03563 1.09165 0)
(3 8.70861e-11 0)
(3 7.47911e-11 0)
(3 4.40475e-10 0)
(3 4.95122e-10 0)
(3 2.39595e-09 0)
(3 4.55357e-09 0)
(3 1.09013e-08 0)
(3 1.48751e-08 0)
(3 1.21875e-08 0)
(3 1.45961e-07 0)
(3 5.56121e-07 0)
(3 8.27786e-07 0)
(2.99999 3.52241e-06 0)
(2.99999 4.96393e-06 0)
(2.99994 2.1622e-05 0)
(2.99984 3.20441e-05 0)
(2.99975 0.000133521 0)
(2.99914 0.000276884 0)
(2.99833 0.000517971 0)
(2.99802 0.000453159 0)
(2.98821 0.00400862 0)
(2.96269 0.00566281 0)
(2.95339 0.0301244 0)
(2.75407 0.0649157 0)
(2.17331 0.193545 0)
(1.4268 0.460507 0)
(0.929035 0.510544 0)
(0.869922 0.492393 0)
(0.886696 0.470758 0)
(0.894935 0.45818 0)
(0.876044 0.455412 0)
(0.846722 0.457261 0)
(0.815986 0.463506 0)
(0.788677 0.471756 0)
(0.766006 0.482001 0)
(0.746503 0.494751 0)
(0.730035 0.51002 0)
(0.717827 0.528635 0)
(0.710034 0.551474 0)
(0.706032 0.578059 0)
(0.706137 0.608242 0)
(0.711078 0.642358 0)
(0.721567 0.680726 0)
(0.738719 0.723349 0)
(0.764344 0.769977 0)
(0.800111 0.820233 0)
(0.849377 0.87252 0)
(0.914617 0.924371 0)
(1.00412 0.971769 0)
(1.10281 1.00231 0)
(3 4.88884e-11 0)
(3 1.28272e-11 0)
(3 2.0445e-10 0)
(3 3.95819e-11 0)
(3 1.06316e-09 0)
(3 7.64205e-11 0)
(3 -1.77116e-09 0)
(3 1.1217e-08 0)
(3 5.0054e-08 0)
(3 5.26093e-08 0)
(3 5.36424e-08 0)
(3 3.93223e-07 0)
(2.99999 1.66539e-06 0)
(2.99999 2.35546e-06 0)
(2.99998 2.34075e-06 0)
(2.99997 2.342e-05 0)
(3.00001 8.04502e-05 0)
(2.9994 0.000108197 0)
(2.99804 0.000474965 0)
(2.99818 0.000742592 0)
(2.9953 0.00118944 0)
(2.98636 0.00633733 0)
(2.99577 0.020191 0)
(2.80999 0.0354965 0)
(2.46748 0.100968 0)
(1.81415 0.285783 0)
(0.977455 0.455032 0)
(0.868269 0.482585 0)
(0.89617 0.490882 0)
(0.924995 0.49034 0)
(0.925956 0.495281 0)
(0.907512 0.501833 0)
(0.882424 0.508971 0)
(0.856239 0.516118 0)
(0.832879 0.523517 0)
(0.811865 0.532315 0)
(0.793621 0.543023 0)
(0.780197 0.556406 0)
(0.771258 0.573395 0)
(0.765944 0.594099 0)
(0.765436 0.618526 0)
(0.770929 0.646752 0)
(0.783175 0.678717 0)
(0.803017 0.714181 0)
(0.831849 0.752464 0)
(0.870338 0.792502 0)
(0.91991 0.832627 0)
(0.981782 0.870856 0)
(1.05901 0.904616 0)
(1.14108 0.924646 0)
(3 -4.4175e-11 0)
(3 3.56417e-12 0)
(3 -1.47689e-10 0)
(3 5.45007e-11 0)
(3 -7.57642e-10 0)
(3 -1.71495e-09 0)
(3 -2.94862e-09 0)
(3 2.77722e-09 0)
(3 -2.09847e-08 0)
(3 2.2627e-08 0)
(3 -1.30126e-07 0)
(3 1.02625e-07 0)
(3 -6.32829e-07 0)
(2.99999 3.6727e-07 0)
(2.99998 -5.34499e-06 0)
(2.99997 -6.52929e-07 0)
(2.99989 -3.96545e-05 0)
(2.99979 -0.000101025 0)
(2.99938 2.63987e-05 0)
(2.99921 0.000488008 0)
(2.99746 -0.000695913 0)
(2.99551 0.00117278 0)
(3.00056 0.0029235 0)
(2.8556 -0.00930877 0)
(2.69025 0.114471 0)
(2.13997 0.150259 0)
(1.01872 0.526699 0)
(0.814499 0.552937 0)
(0.847198 0.544337 0)
(0.893759 0.534244 0)
(0.920052 0.533208 0)
(0.919035 0.538255 0)
(0.906545 0.544479 0)
(0.889871 0.551735 0)
(0.873908 0.558797 0)
(0.858768 0.566363 0)
(0.8446 0.574816 0)
(0.834126 0.584665 0)
(0.827494 0.596656 0)
(0.823586 0.611387 0)
(0.823618 0.62904 0)
(0.829144 0.649743 0)
(0.84116 0.673449 0)
(0.860495 0.69985 0)
(0.888052 0.728249 0)
(0.924192 0.757552 0)
(0.971092 0.787103 0)
(1.02946 0.814778 0)
(1.09661 0.837688 0)
(1.16443 0.851648 0)
(3 -1.95949e-11 0)
(3 4.00251e-11 0)
(3 1.9473e-11 0)
(3 3.37909e-10 0)
(3 1.91546e-10 0)
(3 1.88852e-09 0)
(3 1.34142e-09 0)
(3 1.05776e-08 0)
(3 6.95225e-09 0)
(3 5.87054e-08 0)
(3 3.75614e-08 0)
(3 3.16751e-07 0)
(3 2.22612e-07 0)
(2.99998 1.61899e-06 0)
(2.99997 1.57233e-06 0)
(2.99991 8.78843e-06 0)
(2.99984 6.14114e-06 0)
(2.99951 4.54551e-05 0)
(2.99903 4.49474e-05 0)
(2.99698 0.000277074 0)
(2.99642 0.000268214 0)
(2.9925 0.00192374 0)
(2.97957 0.00193246 0)
(2.98555 -0.00277431 0)
(2.77676 0.0957444 0)
(2.30138 0.0853851 0)
(1.55525 0.40672 0)
(0.954234 0.532395 0)
(0.896652 0.545379 0)
(0.92384 0.54617 0)
(0.949341 0.545622 0)
(0.949633 0.552567 0)
(0.938215 0.561264 0)
(0.923923 0.570819 0)
(0.910169 0.579625 0)
(0.898156 0.587607 0)
(0.887346 0.595745 0)
(0.879964 0.604069 0)
(0.876052 0.612887 0)
(0.874314 0.623127 0)
(0.875626 0.635163 0)
(0.881591 0.649127 0)
(0.893113 0.665083 0)
(0.91092 0.682997 0)
(0.93597 0.702639 0)
(0.969613 0.723231 0)
(1.01255 0.743873 0)
(1.06224 0.761638 0)