/*--------------------------------*- C++ -*----------------------------------*\
| =========                 |                                                 |
| \\      /  F ield         | OpenFOAM: The Open Source CFD Toolbox           |
|  \\    /   O peration     | Version:  2412                                  |
|   \\  /    A nd           | Website:  www.openfoam.com                      |
|    \\/     M anipulation  |                                                 |
\*---------------------------------------------------------------------------*/
FoamFile
{
    version     2.0;
    format      ascii;
    arch        "LSB;label=32;scalar=64";
    class       volScalarField;
    location    "2";
    object      Ma;
}
// * * * * * * * * * * * * * * * * * * * * * * * * * * * * * * * * * * * * * //

dimensions      [0 0 0 0 0 0 0];

internalField   nonuniform List<scalar> 
7000
(
3.00001
3.00001
3.00001
3.00001
3.00001
3.00001
3.00001
3.00001
3.00001
3
3
2.99999
2.99998
2.99989
2.99986
2.99928
2.99923
2.996
2.99499
2.97818
2.96445
2.87153
2.73079
2.34082
1.5572
0.812136
0.343092
0.389721
0.445274
0.474286
0.472754
0.457607
0.433971
0.410549
0.390503
0.371323
0.351386
0.330568
0.308925
0.286487
0.262198
0.235816
0.208788
0.181124
0.152418
0.123918
0.0960622
0.0677306
0.0382272
0.0173416
3.00001
3.00001
3.00001
3.00001
3.00001
3.00001
3.00001
3.00001
3.00001
3.00001
3
2.99999
2.99999
2.99991
2.99988
2.99933
2.99928
2.99601
2.99497
2.97726
2.96546
2.87135
2.73104
2.34158
1.55789
0.811896
0.340912
0.388325
0.444606
0.473938
0.472574
0.457487
0.433824
0.410383
0.390344
0.371215
0.351375
0.330666
0.309111
0.286728
0.262463
0.236109
0.209254
0.181995
0.15401
0.126538
0.0998738
0.0728242
0.0449532
0.0259562
3.00001
3.00001
3.00001
3.00001
3.00001
3.00001
3.00001
3.00001
3.00001
3
3
2.99999
2.99998
2.99988
2.99985
2.99928
2.99924
2.99597
2.99492
2.97837
2.96502
2.87286
2.73209
2.34415
1.56014
0.814285
0.343027
0.390549
0.446379
0.475347
0.473735
0.458552
0.434925
0.4116
0.391626
0.372474
0.352563
0.331795
0.310215
0.287857
0.263694
0.237624
0.211243
0.184687
0.157695
0.131474
0.106232
0.0809386
0.0558092
0.0399348
3.00001
3.00001
3.00001
3.00001
3.00001
3.00001
3.00001
3.00001
3.00001
3
3
2.99998
2.99998
2.99988
2.99985
2.99927
2.99924
2.996
2.99496
2.97933
2.96495
2.87417
2.7338
2.34628
1.5623
0.815512
0.340737
0.388973
0.445551
0.474967
0.473757
0.458913
0.435582
0.412541
0.392787
0.373801
0.354048
0.333434
0.312015
0.289856
0.26595
0.240328
0.214602
0.188939
0.163119
0.138314
0.114677
0.091379
0.0690922
0.0557053
3.00001
3.00001
3.00001
3.00001
3.00001
3.00001
3.00001
3.00001
3.00001
3
3
2.99998
2.99998
2.99987
2.99985
2.99927
2.99924
2.99608
2.99501
2.97914
2.96632
2.87637
2.73657
2.3503
1.5655
0.817887
0.339537
0.387935
0.444742
0.474427
0.473614
0.459168
0.436164
0.413467
0.394046
0.375378
0.355949
0.335672
0.314603
0.292823
0.269347
0.244323
0.219392
0.194757
0.170242
0.14698
0.12507
0.103822
0.0841262
0.0726257
3.00001
3.00001
3.00001
3.00001
3.00001
3.00001
3.00001
3.00001
3.00001
3
3
2.99998
2.99998
2.99987
2.99985
2.99929
2.99925
2.99618
2.99513
2.98019
2.96711
2.87965
2.74049
2.35523
1.56979
0.821824
0.340242
0.388417
0.444694
0.474076
0.473136
0.458843
0.436183
0.413996
0.395088
0.376892
0.357936
0.338166
0.317648
0.296466
0.27366
0.24947
0.225553
0.202142
0.179089
0.157499
0.137376
0.118137
0.100704
0.0906614
3.00001
3.00001
3.00001
3.00001
3.00001
3.00001
3.00001
3.00001
3.00001
3
3
2.99998
2.99998
2.99988
2.99986
2.99931
2.99927
2.9963
2.99525
2.98038
2.96892
2.88395
2.74572
2.36145
1.57546
0.826975
0.341745
0.389831
0.445425
0.474159
0.472481
0.457756
0.435106
0.413416
0.395194
0.377751
0.359586
0.340637
0.320974
0.300675
0.278791
0.255716
0.233073
0.211093
0.189656
0.169815
0.151508
0.13416
0.118667
0.109806
3.00001
3.00001
3.00001
3.00001
3.00001
3.00001
3.00001
3.00001
3.00001
3
3
2.99998
2.99998
2.99988
2.99986
2.99933
2.99928
2.99644
2.99541
2.9816
2.97041
2.8889
2.75165
2.36963
1.58231
0.832975
0.343185
0.391274
0.44628
0.474275
0.471439
0.455697
0.432381
0.410733
0.393151
0.376719
0.359799
0.342193
0.323915
0.304996
0.284475
0.262907
0.241861
0.221569
0.201919
0.183932
0.167421
0.15182
0.137971
0.130018
3.00001
3.00001
3.00001
3.00001
3.00001
3.00001
3.00001
3.00001
3.00001
3
3
2.99998
2.99998
2.99988
2.99986
2.99935
2.9993
2.99657
2.99547
2.98256
2.97154
2.89527
2.75901
2.38367
1.59266
0.840905
0.346243
0.394373
0.448751
0.476415
0.472954
0.45647
0.432456
0.410537
0.393001
0.376984
0.360884
0.344373
0.327433
0.309985
0.290997
0.27119
0.252017
0.233634
0.215907
0.199792
0.185022
0.171009
0.158571
0.151373
3.00001
3.00001
3.00001
3.00001
3.00001
3.00001
3.00001
3.00001
3.00001
3
3
2.99998
2.99998
2.99988
2.99984
2.99932
2.99912
2.99648
2.99519
2.98356
2.97295
2.90158
2.76795
2.39616
1.59976
0.845194
0.350576
0.398074
0.451302
0.478406
0.474998
0.458561
0.434468
0.412608
0.395283
0.379596
0.363999
0.348245
0.3324
0.316284
0.298826
0.280922
0.263796
0.247468
0.231751
0.217539
0.204453
0.191916
0.180665
0.174046
3.00001
3.00001
3.00001
3.00001
3.00001
3.00001
3.00001
3.00001
3.00001
3
3
2.99999
2.99995
2.99994
2.9997
3.00011
2.99803
2.99801
2.98368
2.99072
2.9207
3.11885
2.80801
2.40822
1.57729
0.842572
0.355637
0.401598
0.4536
0.479797
0.476807
0.460801
0.437029
0.41555
0.398638
0.383468
0.368505
0.35356
0.338815
0.324024
0.308079
0.292108
0.277095
0.262918
0.249292
0.237027
0.225642
0.214449
0.204324
0.198256
3.00001
3.00001
3.00001
3.00001
3.00001
3.00001
3.00001
3.00001
3
3
2.99999
2.99999
2.99992
2.99991
2.9995
2.99939
2.99718
2.99603
2.98403
2.99105
2.92356
3.12052
2.81873
2.42177
1.58841
0.84878
0.360857
0.403909
0.453179
0.478888
0.476563
0.461653
0.438937
0.418294
0.402188
0.387907
0.373918
0.360057
0.346601
0.333024
0.318633
0.304953
0.292252
0.280345
0.26887
0.258556
0.248826
0.239088
0.229893
0.224201
3.00001
3.00001
3.00001
3.00001
3.00001
3.00001
3.00001
3.00001
3
3
2.99999
2.99999
2.99992
2.99991
2.99953
2.99945
2.99745
2.99649
2.98599
2.99328
2.92748
3.12477
2.83035
2.43923
1.61166
0.868117
0.373704
0.410511
0.455214
0.479604
0.47721
0.462646
0.440707
0.421102
0.40605
0.392834
0.379994
0.367422
0.355406
0.343142
0.330652
0.319369
0.309129
0.299647
0.290468
0.282276
0.274369
0.265906
0.257833
0.252633
3.00001
3.00001
3.00001
3.00001
3.00001
3.00001
3.00001
3.00001
3
3
2.99999
2.99999
2.99993
2.99992
2.99958
2.99949
2.99777
2.99696
2.98799
2.99541
2.93228
3.12635
2.84126
2.4605
1.64238
0.898333
0.389398
0.414409
0.457095
0.480998
0.478601
0.464254
0.442965
0.424333
0.410417
0.398424
0.38688
0.375749
0.365239
0.354522
0.344346
0.335532
0.327847
0.320897
0.314151
0.308273
0.302371
0.295696
0.288696
0.283904
3.00001
3.00001
3.00001
3.00001
3.00001
3.00001
3.00001
3.00001
3.00001
3
2.99999
2.99999
2.99994
2.99993
2.99965
2.99957
2.99815
2.9975
2.98971
2.99791
2.9377
3.12713
2.85244
2.48542
1.68223
0.93812
0.414228
0.420868
0.462769
0.48633
0.483467
0.468968
0.447902
0.429802
0.416495
0.405378
0.395056
0.385431
0.376451
0.367566
0.360034
0.353874
0.348799
0.344495
0.340385
0.336975
0.333482
0.328741
0.323487
0.319522
3.00001
3.00001
3.00001
3.00001
3.00001
3.00001
3.00001
3.00001
3.00001
3.00001
3
3
2.99995
2.99995
2.99973
2.99966
2.99862
2.99807
2.992
3.00011
2.94372
3.12671
2.86498
2.51378
1.73104
0.986404
0.443928
0.430269
0.46939
0.493509
0.490684
0.476147
0.455439
0.437806
0.425125
0.41476
0.405411
0.397106
0.389518
0.382672
0.377656
0.374219
0.371984
0.370583
0.369455
0.369238
0.368655
0.366707
0.363443
0.360802
3.00001
3.00001
3.00001
3.00001
3.00001
3.00001
3.00001
3.00001
3.00001
3.00001
3
3
2.99997
2.99996
2.99981
2.99974
2.99899
2.99868
2.99415
3.00268
2.94979
3.12515
2.878
2.54559
1.78808
1.04457
0.478233
0.441528
0.478029
0.502663
0.50038
0.485958
0.465631
0.448398
0.436332
0.42681
0.418484
0.411232
0.405032
0.400217
0.397791
0.39703
0.39758
0.399223
0.401441
0.404791
0.40866
0.410721
0.411483
0.411144
3.00001
3.00001
3.00001
3.00001
3.00001
3.00001
3.00001
3.00001
3.00001
3.00001
3
3
2.99998
2.99998
2.99988
2.99982
2.99936
2.99921
2.99641
3.00438
2.95626
3.12178
2.89139
2.58039
1.85392
1.11341
0.518572
0.454261
0.488121
0.513255
0.511962
0.497945
0.478209
0.461354
0.44975
0.441005
0.433731
0.427837
0.423171
0.420538
0.420434
0.422493
0.426147
0.4313
0.437437
0.445308
0.454407
0.463121
0.47034
0.476727
3.00001
3.00001
3.00001
3.00001
3.00001
3.00001
3.00001
3.00001
3.00001
3.00001
3
3
2.99999
2.99998
2.99992
2.99986
2.99951
2.99966
2.99773
3.00576
2.96271
3.11648
2.9049
2.61698
1.92938
1.19403
0.564831
0.4691
0.499165
0.524203
0.52492
0.512053
0.493381
0.477018
0.46582
0.457833
0.4517
0.447192
0.444368
0.443543
0.445706
0.450364
0.457191
0.466255
0.477546
0.491712
0.509062
0.527013
0.547835
0.570371
3.00001
3.00001
3.00001
3.00001
3.00001
3.00001
3.00001
3.00001
3.00001
3.00001
3.00001
3.00001
3
3
2.99998
3.00001
2.99991
3.00041
2.99888
3.00656
2.96872
3.11044
2.91802
2.65734
2.01502
1.28821
0.616933
0.486883
0.510761
0.533587
0.536925
0.525866
0.508809
0.493318
0.483008
0.47593
0.47108
0.468261
0.46738
0.468805
0.473201
0.48018
0.490309
0.504086
0.521236
0.542602
0.571021
0.606766
0.654478
0.743681
3.00001
3.00001
3.00001
3.00001
3.00001
3.00001
3.00001
3.00001
3.00001
3.00001
3.00001
3.00001
3
3
2.99996
2.99994
2.99976
2.99972
2.99858
3.00019
2.99288
3.02901
2.93537
2.79584
2.16833
1.37012
0.648103
0.492632
0.510894
0.532469
0.539995
0.532882
0.519407
0.506976
0.499752
0.495922
0.494257
0.494665
0.497258
0.501942
0.509703
0.521451
0.537417
0.557565
0.582837
0.615228
0.660238
0.724267
0.826263
0.983029
3.00001
3.00001
3.00001
3.00001
3.00001
3.00001
3.00001
3.00001
3.00001
3.00001
3.00001
3
3
2.99997
2.99996
2.9998
2.99971
2.99873
2.99814
2.99257
2.98698
2.95221
2.93002
2.7723
2.36338
1.61641
0.777262
0.530419
0.524604
0.542652
0.55049
0.544532
0.532616
0.521732
0.516115
0.514408
0.515514
0.51887
0.524172
0.532139
0.5446
0.561506
0.582839
0.60962
0.642726
0.68516
0.743269
0.824112
0.948795
1.10957
3.00001
3.00001
3.00001
3.00001
3.00001
3.00001
3.00001
3.00001
3.00001
3.00001
3.00001
3
3
2.99997
2.99996
2.9998
2.99975
2.99891
2.9987
2.99432
2.98971
2.96927
2.93091
2.78975
2.53399
1.92693
0.977433
0.620842
0.56152
0.568499
0.572839
0.566935
0.556767
0.546782
0.541205
0.539371
0.541239
0.545282
0.552284
0.563509
0.579471
0.599508
0.624578
0.656138
0.695813
0.744436
0.808832
0.891102
1.00925
1.14003
3.00001
3.00001
3.00001
3.00001
3.00001
3.00001
3.00001
3.00001
3.00001
3.00001
3.00001
3
3
2.99998
2.99998
2.99985
2.99981
2.99915
2.99881
2.99537
2.99235
2.97378
2.95165
2.84223
2.67258
2.18244
1.25542
0.798758
0.628765
0.610698
0.608833
0.604946
0.595552
0.585716
0.578864
0.576312
0.57683
0.580959
0.589186
0.601526
0.617745
0.638267
0.664627
0.697332
0.738401
0.788066
0.85132
0.927993
1.03006
1.14031
3.00001
3.00001
3.00001
3.00001
3.00001
3.00001
3.00001
3.00001
3.00001
3.00001
3
3
2.99999
2.99999
2.99992
2.9999
2.99953
2.99935
2.99745
2.99568
2.98482
2.98461
2.92363
3.01549
2.80268
2.47683
1.71305
1.07463
0.714675
0.66474
0.661635
0.65982
0.650805
0.639482
0.630184
0.624509
0.622524
0.625813
0.633567
0.645447
0.661459
0.681767
0.70733
0.738753
0.777581
0.824606
0.881637
0.949265
1.03491
1.12576
3.00001
3.00001
3.00001
3.00001
3.00001
3.00001
3.00001
3.00001
3.00001
3.00001
3.00001
3.00001
3
3
2.99997
2.99997
2.99983
2.99978
2.9991
2.99882
2.99479
3.00124
2.96033
3.09935
2.90258
2.64524
2.0145
1.30787
0.780551
0.686202
0.683844
0.68961
0.693099
0.687428
0.679752
0.674281
0.672267
0.674278
0.680513
0.690177
0.705107
0.724664
0.74952
0.779815
0.816372
0.859712
0.910863
0.968673
1.03891
1.11483
3.00001
3.00001
3.00001
3.00001
3.00001
3.00001
3.00001
3.00001
3.00001
3.00001
3.00001
3.00001
3
3
2.99999
2.99998
2.99989
2.99988
2.9994
2.99923
2.99678
2.99539
2.98486
2.9695
2.89874
2.76863
2.42941
1.69259
1.06485
0.751047
0.718931
0.727048
0.736025
0.737204
0.73196
0.72664
0.723883
0.724358
0.729062
0.736869
0.749163
0.766253
0.788839
0.817271
0.850983
0.891047
0.937433
0.990568
1.05083
1.11249
3.00001
3.00001
3.00001
3.00001
3.00001
3.00001
3.00001
3.00001
3.00001
3.00001
3.00001
3.00001
3.00001
3
3
2.99998
2.99997
2.99983
2.99978
2.9991
2.99869
2.99443
3.00067
2.95906
3.09825
2.89946
2.63422
2.00923
1.31683
0.805349
0.727074
0.740607
0.758919
0.772069
0.773323
0.770031
0.768177
0.769129
0.773773
0.781535
0.792909
0.807647
0.826986
0.851859
0.882144
0.917858
0.959757
1.0069
1.06213
1.11798
3.00001
3.00001
3.00001
3.00001
3.00001
3.00001
3.00001
3.00001
3.00001
3.00001
3.00001
3.00001
3.00001
3.00001
3.00001
3.00001
3.00005
3.00004
3.00026
2.99978
2.99923
2.99284
2.99289
2.96426
3.02271
2.92188
2.65363
2.37429
1.69872
0.957088
0.75708
0.74951
0.771398
0.788034
0.793288
0.793578
0.794864
0.798527
0.80518
0.814633
0.827106
0.842507
0.860904
0.883136
0.910081
0.941575
0.978729
1.02043
1.06906
1.11893
3.00001
3.00001
3.00001
3.00001
3.00001
3.00001
3.00001
3.00001
3.00001
3.00001
3.00001
3.00001
3.00001
3.00001
3
3
2.99998
2.99997
2.99985
2.99978
2.99912
2.9987
2.99574
2.99099
2.97523
2.94696
2.81727
2.64323
2.07903
1.24066
0.887318
0.797426
0.795594
0.80418
0.81207
0.815636
0.818362
0.82339
0.831111
0.841215
0.854082
0.869792
0.887934
0.908958
0.93377
0.962293
0.995242
1.03268
1.07564
1.12068
3.00001
3.00001
3.00001
3.00001
3.00001
3.00001
3.00001
3.00001
3.00001
3.00001
3.00001
3.00001
3.00001
3.00001
3
3
2.99999
2.99999
2.99991
2.99989
2.99946
2.9993
2.99719
2.99537
2.98632
2.96936
2.90098
2.78634
2.49145
1.80245
1.19937
0.88868
0.841708
0.839711
0.843719
0.847607
0.850354
0.8545
0.86108
0.870496
0.882042
0.896288
0.913398
0.932664
0.954972
0.980815
1.0101
1.04331
1.08101
1.12034
3.00001
3.00001
3.00001
3.00001
3.00001
3.00001
3.00001
3.00001
3.00001
3.00001
3.00001
3.00001
3.00001
3.00001
3.00001
3.00001
3.00001
3.00001
3.00002
3.00004
3.00015
3.00026
3.00107
3.00032
3.00743
2.97596
3.10212
2.93251
2.73416
2.16007
1.48893
0.963354
0.873311
0.862544
0.871541
0.880515
0.886321
0.889627
0.89387
0.900999
0.910534
0.922778
0.937806
0.956017
0.976231
0.999266
1.02545
1.05509
1.08873
1.12363
3.00001
3.00001
3.00001
3.00001
3.00001
3.00001
3.00001
3.00001
3.00001
3.00001
3.00001
3.00001
3.00001
3.00001
3.00001
3.00001
3
2.99999
2.99994
2.99993
2.99964
2.99958
2.99798
2.99723
2.98866
2.99418
2.94546
3.09308
2.86715
2.58172
1.93518
1.284
0.929824
0.891085
0.896039
0.907523
0.919415
0.925723
0.930045
0.934602
0.94183
0.95155
0.963738
0.979144
0.997893
1.01953
1.04336
1.06983
1.09988
1.13071
3.00001
3.00001
3.00001
3.00001
3.00001
3.00001
3.00001
3.00001
3.00001
3.00001
3.00001
3.00001
3.00001
3.00001
3.00001
3.00001
3
3
2.99999
2.99999
2.99991
2.99989
2.99945
2.99929
2.99706
2.99662
2.98407
2.98601
2.9319
2.83123
2.37443
1.72392
1.08436
0.919353
0.906321
0.920061
0.935524
0.948762
0.95661
0.962575
0.969384
0.97798
0.988515
1.00137
1.01714
1.0365
1.05863
1.08394
1.11192
1.14108
3.00001
3.00001
3.00001
3.00001
3.00001
3.00001
3.00001
3.00001
3.00001
3.00001
3.00001
3.00001
3.00001
3.00001
3.00001
3.00001
3.00001
3
3
2.99998
2.99997
2.99984
2.99981
2.99909
2.99879
2.99553
2.99236
2.97157
2.95836
2.8479
2.6986
2.23279
1.48138
1.08612
0.968427
0.955529
0.962058
0.972178
0.981651
0.988727
0.995704
1.00418
1.01428
1.02618
1.04012
1.05635
1.07508
1.09712
1.12268
1.14925
3.00001
3.00001
3.00001
3.00001
3.00001
3.00001
3.00001
3.00001
3.00001
3.00001
3.00001
3.00001
3.00001
3.00001
3.00001
3.00001
3.00001
3.00001
3
3
2.99997
2.99997
2.9998
2.99978
2.99892
2.99862
2.99425
2.99209
2.9676
2.94861
2.78772
2.62161
2.03818
1.3894
1.09726
1.01768
1.00366
1.00388
1.0093
1.01552
1.02156
1.02857
1.03757
1.04935
1.06298
1.07884
1.09626
1.11522
1.13725
1.16033
3.00001
3.00001
3.00001
3.00001
3.00001
3.00001
3.00001
3.00001
3.00001
3.00001
3.00001
3.00001
3.00001
3.00001
3.00001
3.00001
3.00001
3.00001
3.00001
3
3
2.99996
2.99995
2.99975
2.99968
2.99868
2.99796
2.99268
2.98809
2.9598
2.93507
2.79962
2.50953
1.97064
1.34837
1.11718
1.05659
1.04505
1.043
1.04641
1.05153
1.05745
1.06483
1.07371
1.08612
1.09961
1.11702
1.13464
1.15611
1.17735
3.00001
3.00001
3.00001
3.00001
3.00001
3.00001
3.00001
3.00001
3.00001
3.00001
3.00001
3.00001
3.00001
3.00001
3.00001
3.00001
3.00001
3.00001
3.00001
3.00001
3
3
2.99995
2.99994
2.99977
2.99957
2.99894
2.99666
2.99462
2.98136
2.97061
2.90248
2.79491
2.51682
1.90493
1.40721
1.15787
1.0996
1.08639
1.08348
1.08605
1.09075
1.09612
1.10253
1.11136
1.12324
1.1376
1.15541
1.17455
1.19531
3.00001
3.00001
3.00001
3.00001
3.00001
3.00001
3.00001
3.00001
3.00001
3.00001
3.00001
3.00001
3.00001
3.00001
3.00001
3.00001
3.00001
3.00001
3.00001
3.00001
3
3
2.99998
2.99998
2.99991
2.99991
2.99958
2.9995
2.99744
2.99729
2.98863
3.00877
2.91567
2.79911
2.38256
1.84098
1.31526
1.1496
1.11504
1.11057
1.11196
1.11695
1.12404
1.13167
1.13911
1.14861
1.16015
1.17538
1.19275
1.2114
3.00001
3.00001
3.00001
3.00001
3.00001
3.00001
3.00001
3.00001
3.00001
3.00001
3.00001
3.00001
3.00001
3.00001
3.00001
3.00001
3.00001
3.00001
3.00001
3.00001
3.00001
3
3
2.99999
2.99997
2.99994
2.9998
2.99943
2.99874
2.99667
2.99542
2.97992
2.96713
2.88378
2.76039
2.4108
1.81216
1.36699
1.19222
1.15414
1.14642
1.14575
1.15047
1.15811
1.16655
1.17644
1.18592
1.19709
1.21182
1.22781
3.00001
3.00001
3.00001
3.00001
3.00001
3.00001
3.00001
3.00001
3.00001
3.00001
3.00001
3.00001
3.00001
3.00001
3.00001
3.00001
3.00001
3.00001
3.00001
3.00001
3.00001
3.00001
3.00001
3.00001
2.99999
2.99999
2.9999
2.99987
2.9993
2.9991
2.99613
2.99446
2.97767
2.96668
2.89079
2.74819
2.40879
1.81179
1.40167
1.22657
1.18761
1.17898
1.17806
1.1834
1.19267
1.20216
1.21261
1.22315
1.23553
1.24795
3.00001
3.00001
3.00001
3.00001
3.00001
3.00001
3.00001
3.00001
3.00001
3.00001
3.00001
3.00001
3.00001
3.00001
3.00001
3.00001
3.00001
3.00001
3.00001
3.00001
3.00001
3.00001
3.00001
3.00001
3
2.99999
2.99998
2.99988
2.99986
2.99929
2.99906
2.99628
2.99343
2.97968
2.95994
2.89475
2.74937
2.40403
1.83966
1.44121
1.25953
1.21689
1.20794
1.20794
1.21432
1.22389
1.23482
1.24688
1.25903
1.27318
3.00001
3.00001
3.00001
3.00001
3.00001
3.00001
3.00001
3.00001
3.00001
3.00001
3.00001
3.00001
3.00001
3.00001
3.00001
3.00001
3.00001
3.00001
3.00001
3.00001
3.00001
3.00001
3.00001
3.00001
3.00001
3
3
2.99999
2.99998
2.99998
2.99997
3.00028
3.00004
3.00497
2.99572
3.03551
2.90699
2.76908
2.3707
1.87797
1.42068
1.27401
1.23722
1.22973
1.23272
1.2409
1.25226
1.26475
1.2777
1.29079
3.00001
3.00001
3.00001
3.00001
3.00001
3.00001
3.00001
3.00001
3.00001
3.00001
3.00001
3.00001
3.00001
3.00001
3.00001
3.00001
3.00001
3.00001
3.00001
3.00001
3.00001
3.00001
3.00001
3.00001
3.00001
3
3
2.99999
2.99999
2.9999
2.99994
2.9995
2.99956
2.99673
2.99798
2.98087
3.04099
2.91754
2.78896
2.39075
1.91797
1.44054
1.29401
1.26052
1.25361
1.25753
1.26591
1.27839
1.29211
1.30533
3.00001
3.00001
3.00001
3.00001
3.00001
3.00001
3.00001
3.00001
3.00001
3.00001
3.00001
3.00001
3.00001
3.00001
3.00001
3.00001
3.00001
3.00001
3.00001
3.00001
3.00001
3.00001
3.00001
3.00001
3.00001
3.00001
3.00001
3
2.99999
2.99999
2.99991
2.99989
2.99947
2.99919
2.99709
2.9954
2.98166
2.97061
2.89142
2.78933
2.51094
1.97486
1.55016
1.34458
1.29852
1.28931
1.29167
1.29924
1.31073
1.32259
3.00001
3.00001
3.00001
3.00001
3.00001
3.00001
3.00001
3.00001
3.00001
3.00001
3.00001
3.00001
3.00001
3.00001
3.00001
3.00001
3.00001
3.00001
3.00001
3.00001
3.00001
3.00001
3.00001
3.00001
3.00001
3.00001
3.00001
3
3
2.99999
2.99999
2.99995
2.99988
2.99963
2.99951
2.99789
2.99671
2.98634
2.97911
2.92922
2.8462
2.4828
2.04841
1.56539
1.37119
1.32561
1.31856
1.32301
1.33239
1.34311
3.00001
3.00001
3.00001
3.00001
3.00001
3.00001
3.00001
3.00001
3.00001
3.00001
3.00001
3.00001
3.00001
3.00001
3.00001
3.00001
3.00001
3.00001
3.00001
3.00001
3.00001
3.00001
3.00001
3.00001
3.00001
3.00001
3.00001
3.00001
3.00001
3
2.99999
2.99999
2.99994
2.99992
2.99947
2.9995
2.99777
2.9968
2.98329
2.98069
2.94259
2.8585
2.55062
2.09981
1.62561
1.42332
1.3681
1.35932
1.36168
1.36789
3.00001
3.00001
3.00001
3.00001
3.00001
3.00001
3.00001
3.00001
3.00001
3.00001
3.00001
3.00001
3.00001
3.00001
3.00001
3.00001
3.00001
3.00001
3.00001
3.00001
3.00001
3.00001
3.00001
3.00001
3.00001
3.00001
3.00001
3.00001
3.00001
3.00001
3
3
2.99997
2.99996
2.99977
2.99975
2.99877
2.99855
2.99373
2.99003
2.96566
2.93963
2.79781
2.62952
2.21559
1.74643
1.50853
1.42636
1.40575
1.40145
3.00001
3.00001
3.00001
3.00001
3.00001
3.00001
3.00001
3.00001
3.00001
3.00001
3.00001
3.00001
3.00001
3.00001
3.00001
3.00001
3.00001
3.00001
3.00001
3.00001
3.00001
3.00001
3.00001
3.00001
3.00001
3.00001
3.00001
3.00001
3.00001
3.00001
3.00001
3.00001
3
2.99999
2.99996
2.99994
2.99981
3.00009
2.99815
3.00385
2.99535
2.98294
2.94019
2.88219
2.70826
2.34058
1.91503
1.58971
1.47853
1.44908
3.00001
3.00001
3.00001
3.00001
3.00001
3.00001
3.00001
3.00001
3.00001
3.00001
3.00001
3.00001
3.00001
3.00001
3.00001
3.00001
3.00001
3.00001
3.00001
3.00001
3.00001
3.00001
3.00001
3.00001
3.00001
3.00001
3.00001
3.00001
3.00001
3.00001
3.00001
3.00001
3.00001
3.00001
3
3
2.99997
2.99994
2.99984
2.99963
2.99925
2.99709
2.99349
2.96837
2.92081
2.79626
2.46266
2.08006
1.70073
1.53663
3.00001
3.00001
3.00001
3.00001
3.00001
3.00001
3.00001
3.00001
3.00001
3.00001
3.00001
3.00001
3.00001
3.00001
3.00001
3.00001
3.00001
3.00001
3.00001
3.00001
3.00001
3.00001
3.00001
3.00001
3.00001
3.00001
3.00001
3.00001
3.00001
3.00001
3.00001
3.00001
3.00001
3.00001
3
3
2.99996
2.99996
2.99978
2.99974
2.99879
2.99834
2.99357
2.98938
2.96654
2.93039
2.85542
2.58428
2.23061
1.83963
3.00001
3.00001
3.00001
3.00001
3.00001
3.00001
3.00001
3.00001
3.00001
3.00001
3.00001
3.00001
3.00001
3.00001
3.00001
3.00001
3.00001
3.00001
3.00001
3.00001
3.00001
3.00001
3.00001
3.00001
3.00001
3.00001
3.00001
3.00001
3.00001
3.00001
3.00001
3.00001
3.00001
3.00001
3.00001
3
3
2.99997
2.99996
2.99979
2.99971
2.99879
2.9982
2.99277
2.99269
2.96238
2.99976
2.90128
2.75097
2.29932
3.00001
3.00001
3.00001
3.00001
3.00001
3.00001
3.00001
3.00001
3.00001
3.00001
3.00001
3.00001
3.00001
3.00001
3.00001
3.00001
3.00001
3.00001
3.00001
3.00001
3.00001
3.00001
3.00001
3.00001
3.00001
3.00001
3.00001
3.00001
3.00001
3.00001
3.00001
3.00001
3.00001
3.00001
3.00001
3
3
2.99999
2.99999
2.99995
2.99993
2.99977
2.99965
2.99884
3.00057
2.98889
3.03321
2.96858
2.90257
2.64731
3.00001
3.00001
3.00001
3.00001
3.00001
3.00001
3.00001
3.00001
3.00001
3.00001
3.00001
3.00001
3.00001
3.00001
3.00001
3.00001
3.00001
3.00001
3.00001
3.00001
3.00001
3.00001
3.00001
3.00001
3.00001
3.00001
3.00001
3.00001
3.00001
3.00001
3.00001
3.00001
3.00001
3.00001
3.00001
3.00001
3.00001
3.00001
3.00001
3
3.00005
2.9999
2.99987
2.99857
2.99913
2.99343
3.01215
2.98203
2.94327
2.84291
3.00001
3.00001
3.00001
3.00001
3.00001
3.00001
3.00001
3.00001
3.00001
3.00001
3.00001
3.00001
3.00001
3.00001
3.00001
3.00001
3.00001
3.00001
3.00001
3.00001
3.00001
3.00001
3.00001
3.00001
3.00001
3.00001
3.00001
3.00001
3.00001
3.00001
3.00001
3.00001
3.00001
3.00001
3.00001
3.00001
3.00001
3.00001
3
3
2.99996
2.99996
2.99977
2.9997
2.99875
2.99838
2.99335
2.99304
2.97376
2.95473
3.00001
3.00001
3.00001
3.00001
3.00001
3.00001
3.00001
3.00001
3.00001
3.00001
3.00001
3.00001
3.00001
3.00001
3.00001
3.00001
3.00001
3.00001
3.00001
3.00001
3.00001
3.00001
3.00001
3.00001
3.00001
3.00001
3.00001
3.00001
3.00001
3.00001
3.00001
3.00001
3.00001
3.00001
3.00001
3.00001
3.00001
3.00001
3
3
2.99998
2.99998
2.99988
2.99986
2.99933
2.99919
2.99645
2.99588
2.98678
2.9774
3.00001
3.00001
3.00001
3.00001
3.00001
3.00001
3.00001
3.00001
3.00001
3.00001
3.00001
3.00001
3.00001
3.00001
3.00001
3.00001
3.00001
3.00001
3.00001
3.00001
3.00001
3.00001
3.00001
3.00001
3.00001
3.00001
3.00001
3.00001
3.00001
3.00001
3.00001
3.00001
3.00001
3.00001
3.00001
3.00001
3.00001
3.00001
3.00001
3
3
2.99999
2.99994
2.99993
2.99965
2.99959
2.99813
2.9981
2.9931
2.98904
3.00001
3.00001
3.00001
3.00001
3.00001
3.00001
3.00001
3.00001
3.00001
3.00001
3.00001
3.00001
3.00001
3.00001
3.00001
3.00001
3.00001
3.00001
3.00001
3.00001
3.00001
3.00001
3.00001
3.00001
3.00001
3.00001
3.00001
3.00001
3.00001
3.00001
3.00001
3.00001
3.00001
3.00001
3.00001
3.00001
3.00001
3.00001
3.00001
3
3
2.99999
2.99998
2.99991
2.9999
2.99949
3.00031
2.99876
2.99576
2.99106
3.00001
3.00001
3.00001
3.00001
3.00001
3.00001
3.00001
3.00001
3.00001
3.00001
3.00001
3.00001
3.00001
3.00001
3.00001
3.00001
3.00001
3.00001
3.00001
3.00001
3.00001
3.00001
3.00001
3.00001
3.00001
3.00001
3.00001
3.00001
3.00001
3.00001
3.00001
3.00001
3.00001
3.00001
3.00001
3.00001
3.00001
3.00001
3.00001
3.00001
3.00001
3.00001
3
3.00003
2.99997
2.99991
2.99965
2.99925
2.99759
2.99496
3.00001
3.00001
3.00001
3.00001
3.00001
3.00001
3.00001
3.00001
3.00001
3.00001
3.00001
3.00001
3.00001
3.00001
3.00001
3.00001
3.00001
3.00001
3.00001
3.00001
3.00001
3.00001
3.00001
3.00001
3.00001
3.00001
3.00001
3.00001
3.00001
3.00001
3.00001
3.00001
3.00001
3.00001
3.00001
3.00001
3.00001
3.00001
3.00001
3.00001
3.00001
3.00001
3
3.00003
2.99998
2.99994
2.99974
2.99948
2.99856
2.9961
1.39595
1.56626
1.59284
1.50337
1.38165
1.23698
1.11795
1.04753
1.03194
1.03981
1.05175
1.062
1.07035
1.07443
1.07767
1.08139
1.08551
1.0894
1.09193
1.09253
1.09124
1.08806
1.08371
1.07877
1.07304
1.06672
1.06036
1.05439
1.04872
1.04332
1.03777
1.03215
1.02719
1.02278
1.01745
1.00657
0.980396
0.917545
0.772416
0.468634
0.132983
0.120812
0.103112
0.0986282
0.129348
0.181467
0.238491
0.293309
0.34462
0.389247
0.428752
0.467293
0.506261
0.542515
0.576202
0.607114
0.636409
0.663687
0.689958
0.714726
0.738843
0.761684
0.784158
0.805505
0.826642
0.846778
0.866833
0.886007
0.90513
0.923409
0.941635
0.95906
0.976464
0.993113
1.00995
1.02603
1.04257
1.05828
1.07463
1.09009
1.10623
1.12148
1.13744
1.1525
1.16827
1.18302
1.19848
1.21287
1.22796
1.24199
1.25669
1.27038
1.28468
1.29799
1.31189
1.32468
1.33786
1.34907
1.35938
1.36468
1.36101
1.46604
1.50319
1.50507
1.50676
1.52116
1.53543
1.52668
1.50157
1.47115
1.44985
1.44344
1.445
1.45089
1.4564
1.46056
1.46285
1.46434
1.4658
1.46716
1.46799
1.46866
1.46904
1.46823
1.46621
1.4633
1.45985
1.45635
1.45324
1.45066
1.44813
1.44527
1.44328
1.44114
1.43867
1.43022
1.40814
1.35441
1.23151
0.974636
0.596475
0.402444
0.410944
0.490146
0.566085
0.6207
0.661104
0.695814
0.728504
0.759015
0.786025
0.811822
0.838805
0.866655
0.893102
0.918128
0.941948
0.964833
0.986889
1.00817
1.02869
1.04853
1.0677
1.08627
1.10419
1.12153
1.13831
1.15458
1.17036
1.18566
1.20066
1.21518
1.22957
1.24348
1.25753
1.27124
1.28525
1.29895
1.3131
1.32698
1.3414
1.35565
1.37039
1.38496
1.39996
1.41477
1.42984
1.44471
1.45969
1.47431
1.48898
1.50316
1.51725
1.5309
1.54426
1.55702
1.56954
1.58015
1.59006
1.59406
1.31831
1.41141
1.48289
1.55557
1.6306
1.69354
1.72606
1.7229
1.71367
1.6928
1.66416
1.64353
1.63027
1.62586
1.62511
1.62682
1.62957
1.63144
1.63307
1.63487
1.63695
1.63886
1.64023
1.64162
1.64282
1.6433
1.64342
1.64334
1.64411
1.64408
1.64521
1.64379
1.64364
1.64077
1.6379
1.62925
1.60899
1.56589
1.47354
1.30163
1.03186
0.800993
0.78477
0.832117
0.877864
0.913383
0.937518
0.953976
0.967613
0.97968
0.991321
1.00362
1.0178
1.03444
1.05239
1.07068
1.08923
1.10769
1.12606
1.14412
1.16187
1.17903
1.19577
1.21178
1.22747
1.24251
1.25738
1.27164
1.28585
1.29943
1.31325
1.32642
1.34013
1.3531
1.3667
1.37953
1.39308
1.40595
1.41959
1.43259
1.44642
1.45963
1.47376
1.48731
1.50179
1.51568
1.53045
1.54458
1.55939
1.57354
1.58809
1.60196
1.61604
1.62925
1.64279
1.65499
1.66783
1.67809
1.68859
1.69284
1.29362
1.38909
1.47095
1.54714
1.61866
1.67904
1.73103
1.76872
1.7884
1.79255
1.78958
1.78027
1.76532
1.75293
1.74184
1.73663
1.73473
1.73504
1.73721
1.73917
1.74117
1.74279
1.74365
1.74496
1.74598
1.74746
1.74844
1.74925
1.75093
1.75187
1.7535
1.7524
1.75197
1.74841
1.74375
1.73111
1.7018
1.64358
1.52635
1.37071
1.23274
1.1107
1.02821
0.998405
1.00778
1.02535
1.04359
1.05986
1.07253
1.08263
1.09256
1.1033
1.11501
1.12815
1.14289
1.15888
1.1759
1.19258
1.2092
1.22481
1.24017
1.2546
1.26885
1.28225
1.29575
1.30855
1.32169
1.33422
1.34719
1.35953
1.3723
1.38442
1.3971
1.40927
1.4223
1.43479
1.4482
1.46103
1.47482
1.48805
1.50234
1.51609
1.53097
1.54526
1.56062
1.57522
1.59074
1.60529
1.62055
1.63461
1.64918
1.66239
1.67599
1.68823
1.70079
1.71202
1.72361
1.73311
1.74249
1.74613
1.26296
1.35925
1.44562
1.52286
1.59403
1.65723
1.71546
1.76647
1.80954
1.83774
1.85137
1.85382
1.85369
1.8477
1.83828
1.83003
1.82055
1.81528
1.81161
1.80967
1.81016
1.81061
1.81124
1.81231
1.81319
1.81469
1.8151
1.81656
1.81676
1.81846
1.81779
1.81802
1.81517
1.81184
1.80178
1.77744
1.72768
1.62327
1.48089
1.37127
1.32215
1.28036
1.22939
1.1771
1.13617
1.11525
1.11041
1.11732
1.12684
1.13877
1.15257
1.16558
1.17904
1.19335
1.20811
1.22231
1.236
1.24876
1.26148
1.27347
1.28593
1.29783
1.31015
1.32196
1.33427
1.34596
1.35818
1.36979
1.38205
1.39372
1.40616
1.41806
1.43082
1.44308
1.45626
1.46891
1.48255
1.49569
1.50995
1.5238
1.53886
1.55345
1.56917
1.58417
1.60008
1.61496
1.63053
1.6448
1.65959
1.67289
1.68669
1.69889
1.71165
1.72283
1.73459
1.74492
1.75581
1.76486
1.77379
1.77729
1.23545
1.32587
1.40888
1.48585
1.55731
1.62259
1.68272
1.73644
1.78508
1.82789
1.86381
1.88723
1.90095
1.9057
1.90776
1.90476
1.89805
1.8907
1.88098
1.87403
1.86849
1.86559
1.86531
1.86539
1.86672
1.86765
1.86893
1.87
1.871
1.87128
1.87184
1.86972
1.8672
1.8581
1.83687
1.79022
1.69355
1.54587
1.42545
1.38177
1.3723
1.36546
1.34932
1.32517
1.29328
1.2549
1.2175
1.19253
1.18186
1.18378
1.19384
1.20604
1.22162
1.23803
1.25237
1.26511
1.27612
1.28551
1.29442
1.30327
1.31314
1.32337
1.33501
1.34653
1.35915
1.37146
1.3845
1.39682
1.40985
1.4223
1.43558
1.4482
1.46163
1.47442
1.48818
1.50138
1.51572
1.52945
1.54442
1.55862
1.57399
1.58838
1.60373
1.61792
1.63287
1.64646
1.66067
1.67355
1.68675
1.699
1.71115
1.72275
1.73434
1.74489
1.75633
1.76613
1.77702
1.78594
1.79498
1.79862
1.21859
1.30216
1.38072
1.4555
1.52492
1.5906
1.65019
1.70691
1.75769
1.80541
1.84748
1.88588
1.91451
1.9341
1.94533
1.94833
1.94941
1.94795
1.94134
1.93398
1.92448
1.91658
1.91063
1.90705
1.90656
1.90707
1.90789
1.90937
1.90985
1.91069
1.90976
1.90726
1.89932
1.87909
1.83582
1.74181
1.59274
1.45686
1.40373