/*--------------------------------*- C++ -*----------------------------------*\
| =========                 |                                                 |
| \\      /  F ield         | OpenFOAM: The Open Source CFD Toolbox           |
|  \\    /   O peration     | Version:  2412                                  |
|   \\  /    A nd           | Website:  www.openfoam.com                      |
|    \\/     M anipulation  |                                                 |
\*---------------------------------------------------------------------------*/
FoamFile
{
    version     2.0;
    format      ascii;
    arch        "LSB;label=32;scalar=64";
    class       volScalarField;
    location    "2";
    object      p;
}
// * * * * * * * * * * * * * * * * * * * * * * * * * * * * * * * * * * * * * //

dimensions      [1 -1 -2 0 0 0 0];

internalField   nonuniform List<scalar> 
7000
(
1
1
1
1
1
1
1
1
1
1
1.00001
1.00001
1.00004
1.00004
1.0002
1.00026
1.00123
1.00126
1.00686
1.00766
1.0394
1.05877
1.27382
1.25507
2.96012
4.98164
10.7146
10.5573
10.1594
9.83036
9.80414
9.86279
10.0071
10.1735
10.3062
10.4181
10.5257
10.6352
10.7461
10.8561
10.9618
11.0634
11.1587
11.2455
11.3223
11.3908
11.4452
11.4854
11.5124
11.5304
1
1
1
1
1
1
1
1
1
1
1
1.00001
1.00002
1.00006
1.00007
1.00047
1.00116
1.00133
1.00688
1.00836
1.03826
1.06007
1.2719
1.25305
2.95793
4.97399
10.7126
10.5526
10.154
9.82632
9.80142
9.8604
10.0051
10.1713
10.3038
10.4156
10.5234
10.6331
10.744
10.8542
10.96
11.0618
11.1573
11.2442
11.3211
11.3897
11.4442
11.4846
11.5118
11.5302
1
1
1
1
1
1
1
1
1
1
1.00001
1.00001
1.00004
1.00004
1.00021
1.00026
1.00124
1.00128
1.00688
1.00784
1.0381
1.05871
1.27087
1.24721
2.95701
4.95577
10.7062
10.544
10.1453
9.81873
9.79556
9.8549
10.0001
10.1656
10.2976
10.4093
10.5171
10.6267
10.7375
10.8477
10.9531
11.0549
11.1501
11.2369
11.3136
11.382
11.4366
11.4778
11.5056
11.5249
1
1
1
1
1
1
1
1
1
1
1.00001
1.00001
1.00004
1.00005
1.00022
1.00026
1.00123
1.00128
1.00678
1.00734
1.03782
1.05803
1.26785
1.24173
2.95319
4.93325
10.6967
10.5298
10.131
9.80707
9.78607
9.84589
9.99152
10.1564
10.2876
10.399
10.5067
10.6162
10.7268
10.8368
10.9418
11.0433
11.1383
11.2247
11.3011
11.3693
11.4241
11.4659
11.4944
11.5147
1
1
1
1
1
1
1
1
1
1
1.00001
1.00001
1.00004
1.00005
1.00022
1.00026
1.00121
1.00126
1.00664
1.00756
1.03665
1.05675
1.26372
1.23324
2.94876
4.90344
10.6827
10.5112
10.1132
9.79185
9.77281
9.83306
9.9791
10.143
10.2734
10.3843
10.4918
10.601
10.7113
10.821
10.9253
11.0265
11.1211
11.2072
11.2832
11.3513
11.4063
11.4488
11.4779
11.499
1
1
1
1
1
1
1
1
1
1
1.00001
1.00001
1.00004
1.00005
1.00022
1.00026
1.00119
1.00124
1.00642
1.00715
1.0357
1.05443
1.2588
1.22267
2.94351
4.86449
10.6639
10.4893
10.0934
9.7727
9.75523
9.81602
9.96256
10.1254
10.2546
10.3649
10.472
10.5807
10.6904
10.7997
10.9031
11.0039
11.0979
11.1835
11.2592
11.3272
11.3823
11.4255
11.4551
11.4769
1
1
1
1
1
1
1
1
1
1
1.00001
1.00001
1.00004
1.00005
1.00021
1.00025
1.00115
1.0012
1.00622
1.00728
1.03388
1.05231
1.25184
1.20966
2.93603
4.81565
10.6393
10.4621
10.0693
9.74794
9.73241
9.79413
9.94172
10.1032
10.231
10.3405
10.447
10.5548
10.6637
10.7722
10.8745
10.9746
11.0679
11.153
11.2282
11.296
11.3513
11.395
11.4251
11.4475
1
1
1
1
1
1
1
1
1
1
1.00001
1.00001
1.00004
1.00005
1.00021
1.00025
1.00111
1.00119
1.00596
1.00701
1.03171
1.05055
1.24356
1.19326
2.92713
4.758
10.6087
10.4285
10.0396
9.71786
9.70485
9.76772
9.91663
10.0765
10.2026
10.3108
10.4163
10.523
10.6306
10.7381
10.8389
10.9381
11.0305
11.1148
11.1894
11.2569
11.3122
11.3563
11.3868
11.4097
1
1
1
1
1
1
1
1
1
1
1.00001
1.00001
1.00004
1.00005
1.0002
1.00024
1.00108
1.00114
1.00579
1.00674
1.0303
1.04726
1.23481
1.17367
2.91214
4.68776
10.5654
10.3834
10.0025
9.68301
9.6732
9.73709
9.88724
10.0456
10.1697
10.2763
10.3804
10.4854
10.5913
10.6972
10.7959
10.8937
10.9848
11.068
11.1419
11.209
11.2642
11.3086
11.3392
11.3625
1
1
1
1
1
1
1
1
1
1
1.00001
1.00001
1.00004
1.00005
1.00022
1.00027
1.00114
1.00133
1.00587
1.00693
1.02903
1.04563
1.22184
1.15924
2.88732
4.63871
10.5054
10.32
9.95316
9.64359
9.63753
9.70193
9.85252
10.0094
10.1317
10.2366
10.3389
10.4418
10.5454
10.6491
10.7451
10.8409
10.93
11.0116
11.0844
11.1507
11.2056
11.2501
11.2808
11.3045
1
1
1
1
1
1
1
1
1
1
1
1.00002
1.00002
1.0001
1.00009
1.0005
1.00034
0.99973
1.01184
1.02912
1.01853
1.06718
1.15114
1.05791
2.88124
4.64354
10.4199
10.2429
9.8946
9.60033
9.59836
9.66273
9.81271
9.96778
10.0879
10.1909
10.2913
10.3917
10.4923
10.5927
10.6859
10.779
10.8655
10.9449
11.016
11.081
11.1352
11.1795
11.21
11.2338
1
1
1
1
1
1
1
1
1
1
1.00001
1.00003
1.00003
1.00015
1.00016
1.00083
1.00102
1.00446
1.00652
1.0277
1.01548
1.06215
1.13963
1.04672
2.84634
4.5658
10.3139
10.1511
9.83132
9.55361
9.55426
9.61896
9.76724
9.92024
10.0383
10.139
10.2369
10.3344
10.4315
10.5273
10.6177
10.707
10.7898
10.8662
10.9348
10.998
11.0507
11.0944
11.1244
11.1487
1
1
1
1
1
1
1
1
1
1
1.00001
1.00003
1.00003
1.00014
1.00017
1.00076
1.00093
1.00404
1.0059
1.02346
1.01289
1.05729
1.12678
1.02375
2.81927
4.42788
10.1607
10.0724
9.77504
9.50563
9.50673
9.57081
9.7171
9.86705
9.9823
10.0803
10.1752
10.2694
10.3625
10.4519
10.5399
10.6238
10.7019
10.7743
10.8393
10.8994
10.9499
10.9921
11.0212
11.0453
1
1
1
1
1
1
1
1
1
1
1.00001
1.00002
1.00003
1.00013
1.00014
1.00069
1.00084
1.00346
1.0052
1.02026
1.00973
1.0515
1.11508
1.00997
2.76817
4.27824
9.9568
10.0077
9.72223
9.45314
9.45421
9.51707
9.66132
9.80834
9.92049
10.0152
10.1063
10.1963
10.285
10.3678
10.4505
10.5283
10.6007
10.6676
10.7275
10.7829
10.8294
10.8689
10.896
10.9201
1
1
1
1
1
1
1
1
1
1
1
1.00002
1.00002
1.00011
1.00012
1.00058
1.00071
1.00289
1.00435
1.01761
1.0066
1.04461
1.10181
0.995591
2.70577
4.09208
9.69787
9.94634
9.67284
9.39941
9.39822
9.45916
9.60069
9.74433
9.85293
9.94379
10.0304
10.1149
10.1973
10.2739
10.3495
10.4197
10.4845
10.5439
10.5965
10.6449
10.6851
10.7195
10.7428
10.7657
1
1
1
1
1
1
1
1
1
1
1
1.00002
1.00002
1.00009
1.0001
1.00044
1.00056
1.00214
1.00343
1.0135
1.00314
1.03789
1.08808
0.981447
2.63573
3.86969
9.38385
9.87691
9.62772
9.34514
9.3371
9.39625
9.53423
9.67425
9.77893
9.86549
9.94703
10.0255
10.0996
10.1697
10.2359
10.2967
10.3518
10.4009
10.4429
10.4805
10.5103
10.5358
10.5524
10.5729
1
1
1
1
1
1
1
1
1
1
1
1.00001
1.00001
1.00006
1.00007
1.00032
1.00044
1.0015
1.00256
1.00859
1.0009
1.03094
1.074
0.968168
2.55393
3.62857
9.00731
9.79648
9.57774
9.28696
9.26979
9.32684
9.46076
9.59703
9.69763
9.77946
9.8551
9.92634
9.99208
10.0529
10.1085
10.1579
10.2004
10.2361
10.2632
10.2843
10.2972
10.306
10.3093
10.3228
1
1
1
1
1
1
1
1
1
1
1
1.00001
1.00001
1.00004
1.00005
1.00021
1.00032
1.00095
1.00159
1.00492
0.997363
1.02411
1.06023
0.956691
2.46198
3.36541
8.55984
9.69969
9.51864
9.22379
9.19604
9.25014
9.37877
9.51156
9.60824
9.68491
9.754
9.81773
9.87335
9.92363
9.9664
10.0014
10.028
10.0455
10.0514
10.0479
10.0341
10.0127
9.98776
9.98263
1
1
1
1
1
1
1
1
1
1
1
1.00001
1.00001
1.00003
1.00003
1.00016
1.00024
1.00074
1.00073
1.00236
0.994619
1.01786
1.04729
0.947843
2.36083
3.07967
8.03554
9.58052
9.44196
9.16427
9.11842
9.16697
9.28714
9.41721
9.50999
9.58064
9.64242
9.69761
9.74333
9.78071
9.80872
9.82674
9.83265
9.82673
9.80527
9.76282
9.70353
9.62716
9.5399
9.47694
1
1
1
1
1
1
1
1
1
1
1
1
1
1.00001
1.00001
1.00002
0.999988
1.00001
0.999686
1.0006
0.992747
1.01229
1.03492
0.940777
2.25415
2.77938
7.44595
9.41892
9.33055
9.1028
9.03764
9.07893
9.18734
9.31413
9.40275
9.4665
9.51978
9.56493
9.59866
9.62192
9.6336
9.63127
9.61562
9.57737
9.51183
9.41654
9.28717
9.10838
8.87508
8.61816
1
1
1
1
1
1
1
1
1
1
1
1
1
1.00002
1.00002
1.00008
1.0001
1.00039
1.00061
1.00273
0.99899
1.00128
1.01268
0.96986
2.0834
2.42233
6.6583
9.18669
9.17007
9.00256
8.92861
8.96402
9.06315
9.18482
9.26812
9.32313
9.3651
9.39721
9.41613
9.4211
9.41403
9.38829
9.33268
9.24737
9.12566
8.95039
8.69589
8.29444
7.60795
6.11185
1
1
1
1
1
1
1
1
1
1
1
1
1.00001
1.00001
1.00007
1.00006
1.0004
1.0004
1.0024
1.00264
1.01432
1.0234
1.08035
1.04735
1.81572
1.94339
5.523
8.84597
9.03172
8.90627
8.82353
8.85456
8.94421
9.05468
9.12432
9.16311
9.18762
9.20209
9.20183
9.19153
9.15915
9.09216
8.99428
8.85941
8.67218
8.40719
8.02346
7.44457
6.58371
5.1079
1
1
1
1
1
1
1
1
1
1
1
1
1.00001
1.00001
1.00006
1.00009
1.00034
1.0004
1.00187
1.00174
1.011
1.01336
1.06996
1.0813
1.52532
1.65185
4.30521
8.11492
8.96566
8.89545
8.77928
8.78556
8.83191
8.92013
8.976
9.00173
9.00784
9.00437
8.98926
8.95226
8.88227
8.78483
8.65245
8.47388
8.23436
7.91092
7.47019
6.86468
6.08142
5.00398
1
1
1
1
1
1
1
1
1
1
1
1
1.00001
1.00001
1.00005
1.00005
1.00027
1.00027
1.00159
1.00146
1.00903
1.01112
1.05095
1.0773
1.35569
1.31773
3.54338
6.6382
8.76928
8.91483
8.82594
8.74687
8.7551
8.78814
8.8264
8.83722
8.83342
8.81855
8.78428
8.71965
8.62596
8.50052
8.3372
8.12801
7.86195
7.51962
7.08403
6.53124
5.86684
5.03447
1
1
1
1
1
1
1
1
1
1
1
1
1.00001
1.00003
1.00003
1.00015
1.00016
1.00085
1.00076
1.00503
1.00615
1.02596
1.02317
1.10055
1.16489
1.10826
2.57692
4.17494
8.2915
8.99725
8.91345
8.74965
8.68019
8.67866
8.68327
8.68109
8.6683
8.63565
8.57442
8.49255
8.38454
8.24444
8.06756
7.84758
7.57579
7.23774
6.82665
6.33753
5.78197
5.11112
1
1
1
1
1
1
1
1
1
1
1
1
1
1.00001
1.00001
1.00006
1.00006
1.00029
1.00038
1.00141
1.00221
1.00912
1.00108
1.02547
1.05429
0.967679
2.2445
2.80157
7.13637
8.87647
8.8686
8.75657
8.59124
8.53011
8.51758
8.50576
8.48104
8.43373
8.36505
8.27545
8.15949
8.01221
7.83024
7.60905
7.34334
7.02766
6.66012
6.23393
5.7514
5.19109
1
1
1
1
1
1
1
1
1
1
1
1
1
1.00001
1.00001
1.00004
1.00004
1.00019
1.00021
1.00104
1.00113
1.00564
1.00507
1.03171
1.05028
1.21905
1.2142
2.59715
4.42179
8.32649
8.88286
8.77405
8.54699
8.41081
8.35866
8.33024
8.29508
8.24003
8.16696
8.07119
7.95079
7.80153
7.62079
7.40583
7.15354
6.8615
6.52806
6.15164
5.74205
5.2628
1
1
1
1
1
1
1
1
1
1
1
1
1
1
1.00001
1.00001
1.00005
1.00006
1.00028
1.00037
1.00141
1.00251
1.00856
1.00253
1.02686
1.05803
0.973213
2.24557
2.8232
7.0398
8.6656
8.63277
8.46847
8.25138
8.16165
8.13419
8.10477
8.0521
7.9776
7.88032
7.75948
7.6124
7.43726
7.23233
6.99595
6.72671
6.4242
6.08666
5.72083
5.30077
1
1
1
1
1
1
1
1
1
1
1
1
1
0.999999
0.999999
1
0.999969
0.999926
0.999928
0.999751
0.99935
1.00548
1.0124
1.01131
1.04256
1.0788
1.03957
1.77415
1.90005
4.99009
8.07694
8.40027
8.28964
8.07051
7.96968
7.94195
7.91917
7.87342
7.80192
7.70594
7.58782
7.44553
7.27834
7.08524
6.86531
6.61811
6.3438
6.04052
5.71373
5.34208
1
1
1
1
1
1
1
1
1
1
1
1
1
1
1
1.00001
1.00001
1.00005
1.00007
1.00026
1.00036
1.0015
1.00156
1.00952
1.00792
1.05964
1.06957
1.39301
1.5024
3.49991
6.63877
8.08193
8.14759
8.07056
7.93017
7.85024
7.80202
7.74416
7.66525
7.56429
7.44324
7.30321
7.14304
6.96121
6.75673
6.52908
6.27759
6.0023
5.70698
5.37201
1
1
1
1
1
1
1
1
1
1
1
1
1
1
1
1.00001
1.00001
1.00003
1.00004
1.00015
1.00021
1.00086
1.00107
1.00511
1.00395
1.03326
1.04988
1.20721
1.20795
2.41168
3.90644
7.36764
8.10422
8.06503
7.94656
7.81463
7.72061
7.63922
7.54895
7.44411
7.32335
7.18662
7.03295
6.86064
6.66797
6.45624
6.2263
5.97685
5.70881
5.40785
1
1
1
1
1
1
1
1
1
1
1
1
1
1
1
1
1
0.999996
0.999995
0.999968
0.999961
0.999751
0.99951
0.998387
0.998757
0.990762
1.00554
1.01792
0.929485
2.12935
2.15209
6.03916
7.81045
7.99697
7.91797
7.74767
7.60963
7.51082
7.42008
7.31955
7.20544
7.0755
6.93011
6.76943
6.59323
6.39894
6.18421
5.95184
5.7083
5.43485
1
1
1
1
1
1
1
1
1
1
1
1
1
1
1
1
1
1.00002
1.00002
1.00011
1.00013
1.0006
1.00071
1.00329
1.00465
1.02004
1.01096
1.04396
1.0906
1.01957
2.31824
3.06126
6.88645
7.85482
7.82856
7.72863
7.53776
7.40233
7.30237
7.20693
7.09976
6.97791
6.84138
6.69156
6.5256
6.34459
6.15014
5.93944
5.71177
5.45895
1
1
1
1
1
1
1
1
1
1
1
1
1
1
1
1
1
1.00001
1.00001
1.00003
1.00003
1.00017
1.00019
1.00093
1.00109
1.00503
1.00522
1.02674
1.02989
1.05154
1.73758
1.90904
4.56823
7.21608
7.66141
7.61541
7.48319
7.31163
7.19253
7.09861
7.00113
6.88931
6.76244
6.62084
6.46585
6.29649
6.11422
5.91789
5.70945
5.47625
1
1
1
1
1
1
1
1
1
1
1
1
1
1
1
1
1
1
1.00001
1.00001
1.00005
1.00006
1.00029
1.00031
1.00154
1.00167
1.00864
1.01371
1.0448
1.07478
1.32549
1.36604
3.04879
5.53212
7.16745
7.45199
7.40565
7.28244
7.13673
7.02428
6.92475
6.81863
6.6986
6.56398
6.41695
6.25655
6.08444
5.89904
5.70492
5.48749
1
1
1
1
1
1
1
1
1
1
1
1
1
1
1
1
1
1
1
1.00001
1.00001
1.00006
1.00007
1.00034
1.00037
1.00182
1.00211
1.01033
1.01071
1.06263
1.08399
1.43355
1.55325
3.34881
5.94344
7.07806
7.26584
7.22353
7.11356
6.98382
6.86704
6.75886
6.64386
6.51632
6.37612
6.2244
6.06156
5.88872
5.70552
5.49851
1
1
1
1
1
1
1
1
1
1
1
1
1
1
1
1
1
1
1
1
1.00002
1.00002
1.00008
1.00009
1.00042
1.00051
1.00231
1.00325
1.01288
1.01934
1.0761
1.05788
1.57748
1.65876
3.59219
6.02433
6.98219
7.14048
7.10127
6.99905
6.8686
6.73825
6.61165
6.48281
6.348
6.20262
6.04865
5.88467
5.70927
5.51454
1
1
1
1
1
1
1
1
1
1
1
1
1
1
1
1
1
1
1
1
1
1
1.00004
1.00007
1.00013
1.00029
1.001
1.00131
1.00627
1.00728
1.03037
1.05097
1.20317
1.20868
2.24001
3.55615
6.08973
6.95057
7.05555
7.01097
6.89746
6.7499
6.61415
6.48035
6.34339
6.2017
6.05051
5.88912
5.71951
5.53378
1
1
1
1
1
1
1
1
1
1
1
1
1
1
1
1
1
1
1
1
1
1.00001
1.00001
1.00004
1.00004
1.00015
1.00022
1.00021
1.00189
1.00449
1.004
1.00915
1.04953
1.03591
1.73283
1.87396
3.94885
6.20727
6.87279
6.93954
6.89034
6.77916
6.62866
6.48644
6.34817
6.20631
6.0576
5.9012
5.74003
5.56237
1
1
1
1
1
1
1
1
1
1
1
1
1
1
1
1
1
1
1
1
1
1
1
1.00002
1.00001
1.00007
1.00016
1.0003
1.00137
1.00119
1.00689
1.00708
1.03766
1.04935
1.25968
1.27427
2.43149
4.05239
6.08871
6.73331
6.82198
6.77872
6.6733
6.51527
6.36804
6.22316
6.0769
5.92622
5.76955
5.59709
1
1
1
1
1
1
1
1
1
1
1
1
1
1
1
1
1
1
1
1
1
1
1
1
1.00001
1.00001
1.00007
1.00021
1.00023
1.00124
1.00158
1.00666
1.01085
1.03777
1.03443
1.2752
1.25114
2.49956
3.95977
5.94106
6.60369
6.71369
6.67606
6.57939
6.42033
6.26367
6.11629
5.96833
5.81687
5.6473
1
1
1
1
1
1
1
1
1
1
1
1
1
1
1
1
1
1
1
1
1
1
1
1
1.00001
1.00001
1.00004
1.00004
1.00023
1.00024
1.00129
1.0012
1.0074
1.00963
1.03966
1.05109
1.26788
1.28483
2.4219
3.86109
5.77295
6.47504
6.60035
6.56634
6.47187
6.32197
6.16546
6.01124
5.85748
5.6914
1
1
1
1
1
1
1
1
1
1
1
1
1
1
1
1
1
1
1
1
1
1
1
1
1
1
1
1.00002
1.00002
1.00003
1.00001
0.999919
0.999276
0.999138
0.990306
0.988329
1.06434
1.01067
1.77682
1.81245
3.93284
5.70293
6.35434
6.46992
6.43706
6.34376
6.18664
6.02792
5.87525
5.71449
1
1
1
1
1
1
1
1
1
1
1
1
1
1
1
1
1
1
1
1
1
1
1
1
1
1
1.00001
1.00001
1.00003
1.00004
1.00018
1.00014
0.999975
1.00251
1.00655
1.0024
1.01769
1.03367
0.987517
1.73759
1.77487
3.71862
5.56555
6.21263
6.33489
6.30551
6.22313
6.0622
5.89954
5.7359
1
1
1
1
1
1
1
1
1
1
1
1
1
1
1
1
1
1
1
1
1
1
1
1
1
1
1
1
1.00001
1.00003
1.00003
1.00017
1.0002
1.00088
1.00152
1.00494
1.00645
1.036
1.03544
1.23248
1.21994
2.18516
3.344
5.27533
6.02741
6.19899
6.17859
6.10084
5.95131
5.78043
1
1
1
1
1
1
1
1
1
1
1
1
1
1
1
1
1
1
1
1
1
1
1
1
1
1
1
1
1.00001
1.00001
1.00002
1.00003
1.00012
1.00028
1.00029
1.00172
1.00306
1.00578
1.02219
1.0525
1.00806
1.63062
1.66685
3.23744
5.0735
5.84306
6.03544
6.02117
5.94961
5.79601
1
1
1
1
1
1
1
1
1
1
1
1
1
1
1
1
1
1
1
1
1
1
1
1
1
1
1
1
1
1
1.00001
1.00003
1.00004
1.00003
1.00041
1.00093
1.00121
1.00127
1.01152
1.02715
1.0381
1.06697
1.51182
1.56897
3.00829
4.7556
5.58271
5.82834
5.83804
5.78564
1
1
1
1
1
1
1
1
1
1
1
1
1
1
1
1
1
1
1
1
1
1
1
1
1
1
1
1
1
1
1
1
1.00003
1.00006
1.00009
1.00039
1.00042
1.00207
1.00221
1.01138
1.01522
1.06817
1.07009
1.44774
1.4438
2.72623
4.22547
5.21334
5.58742
5.66614
1
1
1
1
1
1
1
1
1
1
1
1
1
1
1
1
1
1
1
1
1
1
1
1
1
1
1
1
1
1
1
1
1
1.00002
1.00002
1.00008
1.00009
1.00034
1.00012
1.0019
1.00115
0.996752
1.05359
1.13286
1.11057
1.77863
2.00725
3.64981
4.88109
5.37969
1
1
1
1
1
1
1
1
1
1
1
1
1
1
1
1
1
1
1
1
1
1
1
1
1
1
1
1
1
1
1
1
1
1
1.00001
1.00001
1.00003
1.00006
1.00017
1.00014
1.00131
1.00189
1.00056
1.03177
1.07551
1.05101
1.58554
1.78853
3.03234
4.49508
1
1
1
1
1
1
1
1
1
1
1
1
1
1
1
1
1
1
1
1
1
1
1
1
1
1
1
1
1
1
1
1
1
1
1
1.00001
1.00002
1.00007
1.00008
1.00039
1.0004
1.00215
1.00233
1.01073
1.01858
1.06238
1.03806
1.48611
1.55018
2.55804
1
1
1
1
1
1
1
1
1
1
1
1
1
1
1
1
1
1
1
1
1
1
1
1
1
1
1
1
1
1
1
1
1
1
1
1
1.00001
1.00001
1.00007
1.00009
1.00037
1.00049
1.00214
1.00339
1.01185
1.01395
1.05635
1.07302
1.03406
1.69402
1
1
1
1
1
1
1
1
1
1
1
1
1
1
1
1
1
1
1
1
1
1
1
1
1
1
1
1
1
1
1
1
1
1
1
1
1
1
1.00002
1.00002
1.00009
1.00011
1.0004
1.0006
1.00177
0.999844
1.00636
1.01081
0.982085
1.35313
1
1
1
1
1
1
1
1
1
1
1
1
1
1
1
1
1
1
1
1
1
1
1
1
1
1
1
1
1
1
1
1
1
1
1
1
1
1
1
0.999999
1.00001
0.999981
0.999906
1.00107
1.00264
1.00166
1.00582
1.00995
0.999813
1.15842
1
1
1
1
1
1
1
1
1
1
1
1
1
1
1
1
1
1
1
1
1
1
1
1
1
1
1
1
1
1
1
1
1
1
1
1
1
1
1
1.00001
1.00002
1.00008
1.00007
1.00041
1.0005
1.00214
1.00245
1.01101
1.01646
1.01714
1
1
1
1
1
1
1
1
1
1
1
1
1
1
1
1
1
1
1
1
1
1
1
1
1
1
1
1
1
1
1
1
1
1
1
1
1
1
1
1.00001
1.00001
1.00004
1.00004
1.00022
1.00022
1.00118
1.00114
1.00597
1.00925
1.00998
1
1
1
1
1
1
1
1
1
1
1
1
1
1
1
1
1
1
1
1
1
1
1
1
1
1
1
1
1
1
1
1
1
1
1
1
1
1
1
1
1
1.00002
1.00002
1.00011
1.00015
1.00057
1.00076
1.00301
1.0045
1.00438
1
1
1
1
1
1
1
1
1
1
1
1
1
1
1
1
1
1
1
1
1
1
1
1
1
1
1
1
1
1
1
1
1
1
1
1
1
1
1
1
1.00001
1.00001
1.00003
1.00005
1.00017
1.00017
1.00063
1.00102
1.00073
1.00873
1
1
1
1
1
1
1
1
1
1
1
1
1
1
1
1
1
1
1
1
1
1
1
1
1
1
1
1
1
1
1
1
1
1
1
1
1
1
1
1
1
1
1
1.00001
1.00002
0.99999
1.0003
1.00078
1.0007
1.00523
1
1
1
1
1
1
1
1
1
1
1
1
1
1
1
1
1
1
1
1
1
1
1
1
1
1
1
1
1
1
1
1
1
1
1
1
1
1
1
1
1
1
0.999999
1
1
0.999982
1.00023
1.00055
1.00038
1.00399
2.01788
0.994823
0.658283
0.599784
0.624211
0.702294
0.873645
1.05555
1.1409
1.16292
1.16513
1.17002
1.18097
1.20261
1.22534
1.24497
1.26002
1.27025
1.27717
1.28276
1.28733
1.29115
1.29425
1.29626
1.29675
1.29664
1.29618
1.29504
1.29274
1.28975
1.28679
1.28542
1.2859
1.28804
1.29453
1.31134
1.35222
1.44955
1.68182
2.24856
3.52098
4.24869
4.1204
4.31298
4.54121
4.70308
4.78823
4.84232
4.86437
4.8612
4.84548
4.80776
4.75339
4.69575
4.63663
4.57619
4.51423
4.45143
4.38752
4.3229
4.25757
4.19184
4.12563
4.05915
3.99248
3.92593
3.85965
3.79392
3.72895
3.66496
3.60214
3.54055
3.48027
3.42122
3.3635
3.30689
3.25138
3.19681
3.14325
3.09051
3.03888
2.98821
2.93849
2.88941
2.84113
2.79348
2.74667
2.70055
2.65533
2.61082
2.56721
2.52431
2.48232
2.44109
2.40086
2.36157
2.32388
2.28819
2.25812
2.23443
2.67216
1.59155
1.16079
1.01268
0.972006
0.965822
0.968291
0.985276
1.02456
1.09415
1.15705
1.19905
1.21719
1.2251
1.23306
1.24218
1.25291
1.2642
1.27458
1.28325
1.28959
1.29395
1.29638
1.29748
1.29746
1.29729
1.29675
1.29556
1.29327
1.29038
1.28717
1.28487
1.28519
1.28673
1.29156
1.30509
1.33911
1.42272
1.62447
2.11171
3.266
4.54411
4.45456
4.37616
4.42435
4.54517
4.67134
4.75375
4.80031
4.8095
4.80488
4.788
4.74897
4.68634
4.62318
4.56154
4.50053
4.43925
4.37707
4.31393
4.24993
4.18519
4.11981
4.05394
3.98779
3.9216
3.85558
3.79002
3.72522
3.66139
3.59877
3.53733
3.47731
3.41842
3.36106
3.30478
3.24957
3.19527
3.142
3.08961
3.03805
2.98714
2.93711
2.88786
2.83952
2.79194
2.74523
2.69924
2.65409
2.60967
2.5661
2.52328
2.48131
2.44013
2.3999
2.36056
2.32282
2.2865
2.25645
2.23
3.48673
2.4886
1.87423
1.48501
1.23555
1.07607
0.981436
0.982551
0.994169
1.0247
1.08717
1.14173
1.18604
1.21414
1.23104
1.24292
1.25201
1.26093
1.26974
1.27778
1.2842
1.28882
1.29231
1.29442
1.2952
1.29514
1.2948
1.29387
1.29184
1.2888
1.28535
1.28365
1.28402
1.2857
1.29056
1.30329
1.33366
1.40383
1.56284
1.92189
2.72331
4.37664
5.02593
4.97248
4.83636
4.75403
4.71751
4.72035
4.72531
4.72731
4.72627
4.72048
4.70273
4.66249
4.60774
4.55024
4.49057
4.42937
4.36721
4.30435
4.24093
4.17687
4.11228
4.04721
3.98182
3.91614
3.85046
3.78512
3.72064
3.65708
3.59498
3.53409
3.47459
3.41625
3.3589
3.30252
3.24735
3.19303
3.13975
3.08719
3.03558
2.98461
2.93461
2.88531
2.83701
2.78942
2.74279
2.69683
2.65181
2.60746
2.56402
2.52128
2.47946
2.43835
2.39827
2.3589
2.32123
2.28451
2.25369
2.22639
3.94156
3.06116
2.39457
1.91302
1.58459
1.3629
1.22648
1.13358
1.08204
1.07918
1.08472
1.10148
1.13579
1.17338
1.20872
1.23649
1.25477
1.26664
1.27397
1.27982
1.28411
1.28789
1.29109
1.29351
1.29502
1.29504
1.29489
1.29433
1.29304
1.29042
1.28699
1.28605
1.28668
1.28924
1.29655
1.31498
1.3578
1.45208
1.65311
2.06562
2.74604
3.54387
4.30379
4.81212
4.89566
4.86952
4.80584
4.73651
4.69335
4.67358
4.65838
4.6417
4.62353
4.59822
4.56469
4.52085
4.46859
4.41176
4.35195
4.29055
4.22808
4.16475
4.10099
4.03677
3.97227
3.90741
3.84255
3.77787
3.71399
3.65119
3.58953
3.52891
3.46987
3.41169
3.3547
3.29859
3.24365
3.1895
3.13636
3.08388
3.03236
2.98144
2.93148
2.88213
2.8338
2.78613
2.73949
2.69352
2.64857
2.60427
2.56097
2.51832
2.47667
2.43566
2.39576
2.35643
2.3189
2.28175
2.25127
2.22217
4.24358
3.47695
2.83239
2.32488
1.94643
1.66792
1.46507
1.31916
1.21095
1.14411
1.11042
1.11109
1.11658
1.13069
1.15926
1.18713
1.21552
1.24042
1.2587
1.27124
1.27849
1.28321
1.28602
1.28777
1.28871
1.28881
1.28875
1.2885
1.28789
1.28657
1.28574
1.28617
1.28805
1.2936
1.30819
1.3427
1.41993
1.5836
1.91855
2.47868
2.87236
3.17059
3.50624
3.87778
4.29688
4.59437
4.7456
4.76722
4.7539
4.71948
4.66018
4.6172
4.58575
4.54862
4.50889
4.46903
4.42627
4.38035
4.32913
4.27349
4.21361
4.15128
4.08748
4.02319
3.95917
3.89525
3.83178
3.76884
3.70662
3.64501
3.58431
3.5243
3.46544
3.40739
3.35045
3.2943
3.23927
3.18497
3.13173
3.07914
3.02756
2.97659
2.92664
2.87731
2.82903
2.7814
2.73487
2.68899
2.64419
2.60006
2.55695
2.51451
2.47309
2.43228
2.39263
2.35344
2.31611
2.27879
2.24843
2.21839
4.46631
3.80362
3.20965
2.70379
2.29764
1.98017
1.73597
1.55063
1.40938
1.30423
1.222
1.17495
1.14701
1.14612
1.14911
1.15826
1.17738
1.20064
1.22581
1.24922
1.26729
1.2789
1.28539
1.28874
1.28907
1.28893
1.28854
1.2877
1.28713
1.28725
1.28787
1.28984
1.29513
1.30846
1.33953
1.4099
1.55806
1.86317
2.41809
2.80242
2.95907
3.05367
3.17186
3.31997
3.51422
3.78659
4.12413
4.42175
4.61022
4.70687
4.6957
4.66431
4.61316
4.53967
4.48198
4.42501
4.3752
4.33207
4.29073
4.24564
4.19452
4.1375
4.07406
4.00893
3.9439
3.87972
3.81713
3.75555
3.69508
3.63522
3.57612
3.51742
3.45949
3.40204
3.34545
3.28941
3.23434
3.17988
3.12648
3.07369
3.02199
2.9709
2.92094
2.8716
2.82342
2.77586
2.72947
2.68373
2.63909
2.59514
2.55221
2.50999
2.46877
2.42821
2.38876
2.34979
2.31253
2.27538
2.2444
2.21451
4.62842
4.04821
3.50869
3.02416
2.61181
2.27421
2.00163
1.78543
1.61289
1.47616
1.37011
1.28398
1.2216
1.18479
1.16274
1.16184
1.1642
1.17145
1.18657
1.20574
1.22772
1.249
1.26579
1.27646
1.28192
1.28383
1.28374
1.28339
1.28335
1.28379
1.28553
1.29043
1.30299
1.33199
1.39776
1.53549
1.81832
2.37737
2.80035
2.95723
3.0015
3.02109
3.04212
3.06889
3.1277
3.23363
3.38707
3.62572
3.9466
4.27345
4.51168
4.6521
4.64146
4.60777
4.5449
4.44194
4.36251
4.29536
4.24014
4.19561
4.15607
4.1125
4.06202
4.00151
3.93697
3.871
3.80614
3.7431
3.68222
3.62268
3.56434
3.50661
3.44971
3.39316
3.33732
3.28179
3.22704
3.1727
3.1193
3.06644
3.01469
2.96355
2.91364
2.86435
2.81634
2.76894
2.72281
2.67728
2.63295
2.5892
2.54663
2.50463
2.46372
2.4235
2.38425
2.34562
2.30835
2.27182
2.23886
2.21103
4.75404
4.2402
3.74938
3.29366
2.88948
2.54524
2.25656
2.0193
1.82406
1.66501
1.53513
1.42979
1.34371
1.27414
1.22601
1.19604
1.17811
1.17542
1.17711
1.18268
1.19462
1.21226
1.23204
1.25121
1.26593
1.27574
1.28033
1.28252
1.28352
1.28569
1.29055
1.30285
1.32941
1.39255
1.52076
1.79306
2.33446
2.81012
2.98313
3.02702
3.02419
3.01397
2.98903
2.95614
2.95501
2.96815
3.01147
3.10198
3.24239
3.45344
3.75743
4.10564
4.38585
4.57618
4.56386
4.52555
4.45771
4.32897
4.22195
4.14108
4.08652
4.04373
4.01074
3.9699
3.91947
3.8621
3.80121
3.73881
3.67659
3.61495
3.55487
3.49606
3.4387
3.38219
3.32676
3.27185
3.21774
3.16397
3.111
3.05846
3.00692
2.95592
2.90612
2.85692
2.80904
2.76173
2.71581
2.67039
2.6264
2.58273
2.5406
2.49869
2.45823
2.41821
2.37921
2.34083
2.30361
2.26748
2.23394
2.2062
4.85396
4.39492
3.94876
3.52339
3.13427
2.79184
2.49587
2.24507
2.0333
1.8561
1.70735
1.58348
1.47891
1.39423
1.32105
1.26567
1.22518
1.20071
1.18392
1.18222
1.18375
1.18862
1.19915
1.21487
1.23247
1.24948
1.26274
1.27225
1.27883
1.28479
1.29824
1.32358
1.3841
1.50315
1.76179
2.27725
2.81715
3.01731
3.06485
3.06208
3.04939
3.01662
2.96017
2.90611
2.86939
2.84418
2.8439
2.85433
2.88978
2.96723
3.09721
3.29083
3.58723
3.95219
4.2644
4.4958
4.48267
4.44231
4.37033
4.23044
4.10532
4.00911
3.93947
3.89288
3.85592
3.81798
3.77366
3.72164
3.66498
3.60599
3.54664
3.48705
3.42841
3.3708
3.31467
3.25946
3.20542
3.15202
3.09962
3.04772
2.9968
2.94639
2.89707
2.84827
2.80074
2.75361
2.70814
2.6626
2.61927
2.5754
2.53401
2.49187
2.4521
2.41213
2.37347
2.33525
2.29833
2.26235
2.22893
2.20083
4.93504
4.52283
4.11888
3.72349
3.35205
3.01575
2.7179
2.45927
2.236
2.04509
1.88166
1.74258
1.62366
1.52269
1.43684
1.36386
1.30298
1.25751
1.22328
1.20215
1.18823
1.18687
1.18829
1.1928
1.20259
1.21775
1.23523
1.25318
1.26989
1.28759
1.31484
1.37342
1.48843
1.73392
2.22831
2.81514
3.04934
3.10632
3.10555
3.09396
3.06167
3.00318
2.94017
2.88234
2.83185
2.78824
2.75692
2.73402
2.73065
2.73935
2.77047
2.83867
2.96278
3.1458
3.43207
3.80721
4.14321
4.38494
4.38007
4.34831
4.2741
4.1213
3.98684
3.88418
3.80904
3.75472
3.71133
3.67187
3.62991
3.58269
3.53056
3.47533
3.41897
3.36199
3.30528
3.24903
3.19411
3.14013
3.08757
3.03585
2.98537
2.93554
2.88685
2.83864
2.7916
2.74502
2.69974
2.6548
2.61138
2.56814
2.52653
2.48503
2.44511
2.40536
2.36708
2.329
2.29245
2.25651
2.22337
2.19503
5.00798
4.62887
4.25888
3.89268
3.54143
3.21656
2.92195
2.66015
2.42945
2.22854
2.05357
1.90219
1.77078
1.65709
1.55869
1.47331
1.40031
1.33689
1.2859
1.2468
1.21788
1.19963
1.18892
1.18916
1.19133
1.19729
1.20976
1.22883
1.25438
1.28899
1.34566
1.45957
1.68503
2.14039
2.79019
3.06614
3.13899
3.14242
3.13261
3.10618
3.053
2.98817
2.92555
2.86622
2.81144
2.76123
2.71656
2.67847
2.64875
2.62646
2.62108
2.62833
2.65504
2.71561
2.83272
3.00509
3.27417
3.63454
3.9871
4.2557
4.26499
4.23596
4.16025
4.00706
3.86863
3.76377
3.6849
3.62501
3.57627
3.5334
3.49154
3.44649
3.39803
3.34606
3.29255
3.2378
3.18324
3.12895
3.07592
3.02381
2.97318
2.9234
2.87499
2.82727
2.78077
2.73474
2.68995
2.64559
2.6025
2.55977
2.51838
2.47729
2.43758
2.3981
2.36006
2.32218
2.28591
2.25006
2.21725
2.18872
5.07212
4.72451
4.38288
4.04117
3.70862
3.39532
3.1061
2.84449
2.61003
2.40243
2.21906
2.05806
1.91659
1.79256
1.68369
1.58824
1.50449
1.43153
1.36778
1.31196
1.26899
1.23581
1.21235
1.19655
1.19433
1.19632
1.20303
1.21797
1.24966
1.30472
1.41461
1.63628
2.02051
2.71237
3.04547
3.15156
3.16217
3.15624
3.13777
3.09663
3.03106
2.96543
2.90404
2.84706
2.79398
2.74395
2.69665
2.65167
2.61017
2.57233
2.54214
2.51965
2.51223
2.51804
2.54077
2.59351
2.69875
2.85563
3.09728
3.43739
3.7989
4.09987
4.13272
4.10794
4.03707
3.89188
3.75244
3.64716
3.566
3.50095
3.44764
3.4014
3.35807
3.31373
3.26757
3.21884
3.16861
3.11689
3.06513
3.01333
2.96253
2.91239
2.86366
2.8157
2.7692
2.72337
2.67893
2.63501
2.59239
2.55019
2.50925
2.46864
2.42932
2.39021
2.35248
2.31486
2.27891
2.243
2.21066
2.182
5.12033
4.79919
4.48359
4.16427
3.85011
3.54975
3.26854
3.00999
2.77517
2.56395
2.3753
2.20728
2.0583
1.92589
1.80878
1.70457
1.61244
1.53069
1.45821
1.39574
1.33931
1.29141
1.2547
1.22678
1.21181
1.21332
1.22035
1.23734
1.2811
1.36563
1.54969
1.91098
2.5463
2.98085
3.1234
3.16587
3.16262
3.1477
3.11265
3.04828
2.98569
2.92783
2.87447
2.82396
2.7753
2.72734
2.68016
2.63358
2.58836
2.54486
2.50412
2.46752
2.43592
2.41352
2.4031
2.40756
2.42614
2.46927
2.56208
2.70477
2.92255
3.24869
3.61668
3.94701
3.9952
3.97187
3.90858
3.77706
3.63652
3.53035
3.44698
3.37866
3.32222
3.27278
3.22849
3.18501
3.14104
3.09525
3.04819
2.99953
2.95067
2.90139
2.85291
2.80479
2.75805
2.712
2.6675
2.62366
2.58128
2.53943
2.49894
2.45882
2.41998
2.38136
2.34406
2.30679
2.27127
2.23539
2.20374
2.17467
5.16555
4.86409
4.56497
4.26505
3.96892
3.68231
3.4105
3.15726
2.92456
2.71257
2.52112
2.3486
2.19429
2.05549
1.93202
1.82057
1.72167
1.63235
1.55298
1.482
1.41895
1.36336
1.31515
1.27558
1.25242
1.25454
1.26542
1.29253
1.3654
1.50826
1.81234
2.39591
2.89345
3.083
3.13346
3.13123
3.11863
3.08929
3.03376
2.97844
2.92918
2.88333
2.839
2.79457
2.74987
2.7044
2.65875
2.61286
2.5676
2.52282
2.47968
2.43781
2.39879
2.36321
2.33137
2.30853
2.29541
2.29861
2.3128
2.34916
2.42854
2.56165
2.75955
3.06911
3.44193
3.78905
3.85671
3.83518
3.77833
3.65949
3.52085
3.41415
3.32962
3.26036
3.20174
3.14992
3.1047
3.06172
3.01926
2.97568
2.93144
2.88576
2.83982
2.79318
2.74723
2.7014
2.65689
2.6129
2.57044
2.52856
2.48819
2.44828
2.40978
2.37153
2.33468
2.29779
2.26272
2.22708
2.19581
2.16683
5.19575
4.91367
4.63668
4.35377
4.0707
3.79593
3.53426
3.28824
3.05951
2.8491
2.65685
2.48201
2.32425
2.18082
2.05241
1.93521
1.83046
1.73512
1.64943
1.57225
1.50294
1.44076
1.38826
1.3402
1.32158
1.32626
1.34668
1.39831
1.52651
1.78265
2.31057
2.8228
3.05975
3.11697
3.11325
3.09599
3.05569
2.99764
2.94807
2.9047
2.86653
2.8292
2.79135
2.75209
2.71162
2.66979
2.6273
2.58407
2.5409
2.49772
2.45521
2.41314
2.37247
2.33267
2.29531
2.26042
2.22962
2.20572
2.19039
2.19279
2.20403
2.23388
2.30176
2.42385
2.60565
2.89296
3.26162
3.61788
3.71409
3.69557
3.64454
3.53829
3.40717
3.30046
3.21589
3.14639
3.08639
3.03349
2.98694
2.9437
2.90219
2.86039
2.81861
2.77573
2.73272
2.6889
2.64575
2.60241
2.56026
2.51835
2.47794
2.43792
2.39948
2.36129
2.32467
2.28801
2.25326
2.21813
2.18681
2.15811
5.22141
4.95408
4.69394
4.42697
4.16049
3.89888
3.64665
3.40761
3.18315
2.97536
2.78385
2.60811
2.44826
2.30159
2.16908
2.0477
1.93759
1.83776
1.74637
1.66426
1.58961
1.52274
1.46703
1.41975
1.42131
1.43404
1.47702
1.58214
1.81569
2.29128
2.82831
3.08638
3.13883
3.13138
3.10535
3.0486
2.98288
2.92434
2.87488
2.83371
2.7997
2.76527
2.73118
2.6958
2.65943
2.62179
2.58336
2.54402
2.50445
2.46441
2.42453
2.3845
2.34495
2.3055
2.26708
2.22927
2.19354
2.15982
2.12995
2.10594
2.08863
2.09021
2.0986
2.1234
2.17922
2.28932
2.45656
2.71734
3.07743
3.43463
3.56829
3.55195
3.50771
3.41469
3.29654
3.18984
3.10583
3.03585
2.97636
2.92311
2.8753
2.83153