/*--------------------------------*- C++ -*----------------------------------*\
| =========                 |                                                 |
| \\      /  F ield         | OpenFOAM: The Open Source CFD Toolbox           |
|  \\    /   O peration     | Version:  2412                                  |
|   \\  /    A nd           | Website:  www.openfoam.com                      |
|    \\/     M anipulation  |                                                 |
\*---------------------------------------------------------------------------*/
FoamFile
{
    version     2.0;
    format      ascii;
    arch        "LSB;label=32;scalar=64";
    class       surfaceScalarField;
    location    "2";
    object      phi;
}
// * * * * * * * * * * * * * * * * * * * * * * * * * * * * * * * * * * * * * //

dimensions      [1 0 -1 0 0 0 0];

oriented        oriented;

internalField   nonuniform List<scalar> 
13790
(
0.00290515
2.46371e-13
0.00290515
-2.85058e-13
0.00290515
9.94076e-13
0.00290515
-1.67363e-12
0.00290515
5.1492e-12
0.00290515
-7.04492e-12
0.00290515
3.86764e-11
0.00290515
-5.03858e-11
0.00290515
1.90886e-10
0.00290515
-2.17878e-10
0.00290515
1.46699e-09
0.00290515
-1.80574e-09
0.00290515
6.18502e-09
0.00290515
-7.42079e-09
0.0029051
5.52055e-08
0.00290516
-7.56407e-08
0.00290511
1.14061e-08
0.00290515
-3.59097e-08
0.00290522
-7.95975e-09
0.00290572
-2.80964e-07
0.00290443
2.84295e-07
0.00290538
-1.78504e-07
0.00290811
8.00028e-07
0.00290966
1.5653e-06
0.00291057
2.63415e-06
0.0029226
1.30837e-05
0.0028936
2.79645e-05
0.00285199
4.07413e-05
0.00279711
4.96249e-05
0.00273723
5.59674e-05
0.00267342
6.184e-05
0.00260378
6.80505e-05
0.00252782
7.44435e-05
0.0024414
8.18609e-05
0.00234481
8.97052e-05
0.00224105
9.75205e-05
0.00213302
0.000105274
0.00201988
0.000113292
0.00189792
0.00012172
0.00176315
0.00013057
0.00160706
0.000139581
0.00144321
0.000148424
0.00127557
0.000158091
0.00110195
0.000168336
0.000921694
0.000178164
0.000735813
0.000186459
0.000541364
0.000188559
0.000347885
0.000182172
0.000165555
0.000171635
0.000155637
0.00301309
-3.87805e-13
0.00301309
1.82363e-15
0.00301309
-1.91919e-12
0.00301309
-3.37118e-13
0.00301309
-1.01003e-11
0.00301309
-2.27186e-12
0.00301309
-6.34786e-11
0.00301309
-8.97639e-12
0.00301309
-3.08845e-10
0.00301309
-1.56827e-11
0.0030131
-1.94395e-09
0.0030131
2.5176e-10
0.00301311
-8.1939e-09
0.0030131
1.93008e-09
0.00301322
-6.06914e-08
0.00301308
5.05163e-08
0.00301311
-3.20009e-08
0.003013
7.51039e-09
0.0030128
2.14777e-09
0.00301182
-1.06654e-08
0.0030151
2.73482e-07
0.00300558
5.56257e-07
0.00301311
1.54355e-06
0.00301521
5.08391e-06
0.00301551
5.17233e-06
0.00302343
2.98202e-05
0.00298739
6.21658e-05
0.00294687
8.01628e-05
0.00289564
9.60664e-05
0.00283656
0.000111531
0.00277144
0.000125106
0.00269928
0.000138486
0.00261954
0.000152346
0.00252912
0.000167351
0.00242879
0.000182876
0.00232157
0.000198437
0.00221008
0.00021413
0.00209312
0.00023059
0.00196674
0.000248081
0.00182668
0.00026658
0.00166407
0.000285023
0.0014936
0.000302833
0.00132002
0.000321803
0.00114163
0.000341256
0.000958243
0.000359333
0.000771025
0.000374316
0.000574571
0.000379
0.00037558
0.000369538
0.000183019
0.000353006
0.000328307
0.00312505
-1.57394e-13
0.00312505
-2.58171e-13
0.00312505
-1.04285e-12
0.00312505
-1.47342e-12
0.00312505
-5.67579e-12
0.00312505
-9.02997e-12
0.00312505
-3.16958e-11
0.00312505
-3.86979e-11
0.00312505
-1.55804e-10
0.00312505
-2.31043e-10
0.00312504
-8.56456e-10
0.00312505
-7.68404e-10
0.00312504
-3.60848e-09
0.00312505
-4.02745e-09
0.003125
-2.00025e-08
0.00312506
-1.72347e-10
0.00312502
-8.52161e-09
0.00312504
-6.63962e-09
0.00312499
3.4222e-08
0.00312422
1.12929e-07
0.00312534
3.34605e-07
0.00312903
7.99239e-07
0.00312697
2.41259e-06
0.00313226
6.22562e-06
0.00312814
9.87532e-06
0.00314112
3.95583e-05
0.00311239
8.9744e-05
0.00306866
0.000123314
0.00301018
0.00014993
0.00294763
0.000170848
0.00287937
0.000191553
0.00280436
0.000212025
0.00272162
0.000233439
0.00262768
0.000256426
0.0025232
0.000280095
0.00241119
0.000303931
0.00229451
0.000328115
0.00217204
0.000353498
0.00203975
0.000380333
0.00189333
0.000408554
0.00172408
0.000436394
0.00154729
0.000463089
0.00136782
0.000490995
0.00118426
0.000519083
0.000996473
0.000544651
0.00080562
0.000565895
0.000604739
0.0005738
0.000398894
0.000563497
0.000196675
0.000543579
0.000514206
0.00324116
-9.44301e-14
0.00324116
-2.01026e-13
0.00324116
-6.20761e-13
0.00324116
-1.16505e-12
0.00324116
-3.48188e-12
0.00324116
-6.09769e-12
0.00324116
-1.77323e-11
0.00324116
-2.96682e-11
0.00324116
-8.17039e-11
0.00324116
-1.44396e-10
0.00324116
-3.78997e-10
0.00324116
-6.35039e-10
0.00324115
-1.41535e-09
0.00324115
-2.63888e-09
0.00324114
-4.50289e-09
0.00324115
-6.9199e-09
0.00324114
6.9994e-10
0.00324111
1.84431e-09
0.00324134
8.03685e-08
0.00324088
6.31619e-08
0.00324098
6.44105e-07
0.00324186
1.39332e-06
0.00324168
3.67612e-06
0.00324417
9.047e-06
0.00324171
1.45716e-05
0.00324879
5.36491e-05
0.00321137
0.000126381
0.00316652
0.000167805
0.0031121
0.000200979
0.00305168
0.000229254
0.00298364
0.000258269
0.00290779
0.000286699
0.00282286
0.000316443
0.00272586
0.000347987
0.00261786
0.000380406
0.00250214
0.000413192
0.0023814
0.000446563
0.00225419
0.000481489
0.00211645
0.000518184
0.00196376
0.000556458
0.00178775
0.000593764
0.00160446
0.00062934
0.00141883
0.00066599
0.00122954
0.000702401
0.0010364
0.000735189
0.000840561
0.000762602
0.000633812
0.000774481
0.000420316
0.000764839
0.000208475
0.000743273
0.000711495
0.00336158
-5.40483e-14
0.00336158
-1.09875e-13
0.00336158
-3.9948e-13
0.00336158
-7.26936e-13
0.00336158
-2.0835e-12
0.00336158
-3.6695e-12
0.00336158
-9.77766e-12
0.00336158
-1.71e-11
0.00336158
-4.20069e-11
0.00336158
-7.39975e-11
0.00336158
-1.61859e-10
0.00336158
-2.86603e-10
0.00336158
-4.5878e-10
0.00336158
-8.30936e-10
0.00336158
-2.63043e-10
0.00336157
-1.66616e-10
0.00336158
1.19632e-08
0.00336151
1.61189e-08
0.00336153
1.23968e-07
0.00336058
2.92895e-07
0.00336264
9.07274e-07
0.0033608
1.90421e-06
0.00336174
4.97133e-06
0.00336577
1.21014e-05
0.00336042
2.05669e-05
0.00336303
7.06744e-05
0.00331793
0.000172087
0.00326851
0.000217664
0.00321561
0.000252313
0.00315664
0.000287572
0.00308892
0.000325199
0.00301212
0.000362227
0.00292504
0.000400888
0.00282523
0.000441705
0.00271421
0.000483531
0.00259536
0.000525794
0.00247116
0.000568937
0.00233978
0.000614046
0.00219705
0.000661251
0.00203836
0.000710155
0.00185548
0.000757329
0.00166527
0.000802041
0.00147281
0.000847384
0.00127703
0.000891977
0.00107763
0.000931852
0.000875791
0.000965627
0.000662122
0.000982097
0.000440525
0.000973958
0.000219306
0.00095189
0.000919126
0.00348648
-2.72218e-14
0.00348648
-4.16269e-14
0.00348648
-2.83605e-13
0.00348648
-4.30199e-13
0.00348648
-1.21651e-12
0.00348648
-2.16997e-12
0.00348648
-5.24281e-12
0.00348648
-9.30437e-12
0.00348648
-1.90522e-11
0.00348648
-3.40244e-11
0.00348648
-4.626e-11
0.00348648
-8.48447e-11
0.00348648
6.16818e-11
0.00348648
8.23148e-11
0.00348648
2.35208e-09
0.00348648
4.24501e-09
0.00348649
2.28098e-08
0.00348643
3.38256e-08
0.00348667
1.58944e-07
0.00348597
2.17419e-07
0.00348667
1.24135e-06
0.00348794
2.23553e-06
0.00348807
6.3558e-06
0.00349189
1.47926e-05
0.00348606
2.69334e-05
0.00348738
8.73734e-05
0.00343987
0.000221871
0.00338411
0.000275175
0.00332516
0.000311038
0.00326212
0.000350552
0.00319191
0.000394564
0.00311337
0.000439243
0.00302462
0.000486278
0.00292289
0.000536889
0.00280958
0.000588837
0.00268806
0.000641258
0.00256079
0.000694777
0.00242572
0.000750681
0.00227858
0.000808976
0.00211443
0.000869208
0.00192518
0.000926802
0.00172828
0.000981051
0.00152898
0.00103538
0.00132641
0.00108826
0.00112021
0.00113535
0.000911538
0.00117583
0.000690349
0.00119711
0.000460183
0.00119123
0.000229259
0.00116958
0.00113612
0.00361602
-1.89006e-14
0.00361602
-3.72838e-14
0.00361602
-1.47253e-13
0.00361602
-2.72019e-13
0.00361602
-7.6936e-13
0.00361602
-1.37639e-12
0.00361602
-3.25814e-12
0.00361602
-5.77627e-12
0.00361602
-1.06064e-11
0.00361602
-1.83062e-11
0.00361602
-1.02315e-11
0.00361602
-1.655e-11
0.00361602
2.23044e-10
0.00361602
4.11284e-10
0.00361603
2.923e-09
0.00361602
5.41981e-09
0.00361604
2.66859e-08
0.00361603
3.77654e-08
0.00361606
1.84861e-07
0.00361654
2.33857e-07
0.00361623
1.4352e-06
0.00361458
2.30862e-06
0.00361833
7.31086e-06
0.00362071
1.7221e-05
0.00361787
3.28562e-05
0.00361841
0.000103036
0.00357164
0.000272256
0.00351026
0.000339787
0.00344135
0.000380738
0.00336906
0.000422594
0.00329169
0.000470185
0.00320833
0.000520095
0.00311635
0.000574037
0.00301273
0.000633413
0.0028984
0.000695249
0.00277604
0.000758211
0.00264745
0.00082275
0.00251014
0.0008902
0.00235973
0.00096038
0.00219077
0.00103274
0.00199581
0.00110135
0.00179287
0.00116591
0.00158698
0.00122977
0.00137748
0.00129134
0.00116401
0.00134594
0.000948099
0.00139341
0.000718718
0.00142039
0.000479586
0.00141718
0.00023929
0.00139622
0.00136283
0.00375038
-7.88009e-15
0.00375038
-3.57194e-14
0.00375038
-5.09999e-14
0.00375038
-2.01555e-13
0.00375038
-6.7234e-13
0.00375038
-1.08039e-12
0.00375038
-3.36737e-12
0.00375038
-6.94914e-12
0.00375038
-1.55807e-11
0.00375038
-2.206e-11
0.00375038
-5.21101e-11
0.00375038
-1.15754e-10
0.00375038
-1.67378e-10
0.00375038
-7.0998e-11
0.00375038
5.76594e-10
0.00375039
1.51297e-09
0.00375044
1.31402e-08
0.00375037
1.04823e-08
0.00375069
9.43004e-08
0.0037496
1.41803e-07
0.00375243
1.0674e-06
0.00375224
2.02944e-06
0.00375476
7.59247e-06
0.00375976
1.89274e-05
0.00375405
4.01805e-05
0.00375313
0.000118562
0.0037055
0.000325129
0.00363818
0.000412063
0.00355935
0.000462009
0.00347504
0.000506401
0.00338648
0.000555874
0.00329314
0.000609167
0.00319234
0.000667948
0.00308399
0.00073326
0.00296907
0.000802555
0.00284841
0.000874582
0.00272189
0.000949884
0.00258568
0.00102927
0.00243507
0.0011123
0.00226368
0.00119807
0.00206497
0.00127891
0.00185741
0.00135498
0.0016459
0.00142942
0.00143008
0.0015005
0.0012098
0.00156325
0.000986503
0.00161875
0.000748705
0.00165193
0.00050005
0.00165217
0.000249399
0.00163266
0.00159893
0.00388972
1.38949e-13
0.00388972
-3.28979e-14
0.00388972
1.09301e-13
0.00388972
-9.62859e-13
0.00388972
-1.23808e-15
0.00388972
-5.18586e-12
0.00388972
-2.39852e-12
0.00388972
-3.44079e-11
0.00388972
-1.09727e-11
0.00388972
-1.57724e-10
0.00388972
-7.98958e-11
0.00388972
-9.522e-10
0.00388972
-7.75876e-10
0.00388973
-4.63911e-09
0.00388973
-1.23028e-09
0.00388978
-2.35021e-08
0.00388977
2.70453e-08
0.00388972
1.4224e-07
0.00389013
-3.44646e-07
0.00389269
-2.00824e-06
0.00389334
-1.93017e-06
0.00391665
-2.54194e-06
0.00390812
6.73598e-06
0.00391143
2.16728e-05
0.00388545
6.49504e-05
0.00389745
0.000119764
0.00385419
0.000374939
0.00377995
0.000493275
0.00369095
0.000554992
0.00359867
0.00059791
0.0035012
0.00064946
0.00339848
0.000706162
0.00328791
0.000770285
0.00317114
0.000840699
0.00305048
0.000915572
0.00292707
0.00099475
0.00279941
0.00107924
0.00266234
0.00116963
0.00251067
0.00126553
0.00233639
0.00136519
0.00213418
0.00145885
0.00192286
0.00154777
0.00170657
0.00163423
0.00148491
0.00171612
0.00125769
0.00178818
0.00102683
0.00185216
0.000780094
0.00189266
0.000521523
0.00189698
0.000260269
0.00187942
0.0018455
0.00403424
6.98558e-13
0.00403424
-7.25075e-13
0.00403424
1.21944e-12
0.00403424
-5.05288e-12
0.00403424
5.3674e-12
0.00403424
-2.99659e-11
0.00403424
2.29103e-11
0.00403424
-1.55632e-10
0.00403424
1.28514e-10
0.00403424
-8.93699e-10
0.00403424
5.88155e-10
0.00403425
-4.63397e-09
0.00403425
1.49209e-09
0.00403428
-2.71851e-08
0.00403426
1.76865e-08
0.0040344
-1.15929e-07
0.0040343
1.31158e-07
0.00403458
1.26812e-07
0.00403607
-2.19301e-06
0.00404287
-1.00049e-05
0.00404561
-1.87e-06
0.00405917
-1.35657e-05
0.00404925
1.81182e-05
0.00401836
5.96482e-05
0.00401237
7.17306e-05
0.00404151
0.00010401
0.00398406
0.000443373
0.00390665
0.00057293
0.00381955
0.000649509
0.00372463
0.000692113
0.00362284
0.000746609
0.0035146
0.000807187
0.0033972
0.000877438
0.00327423
0.000953842
0.00314866
0.00103469
0.00302079
0.00112078
0.0028888
0.0012138
0.00274778
0.00131437
0.00259258
0.00142257
0.00241358
0.00153583
0.00220756
0.00164212
0.00199283
0.00174427
0.00177223
0.00184355
0.00154495
0.00193724
0.00131089
0.00201985
0.00107193
0.00209415
0.00081565
0.00214329
0.000545765
0.00215325
0.000272274
0.00213816
0.00210453
0.00418414
1.32972e-13
0.00418414
-3.5735e-13
0.00418414
-2.95537e-13
0.00418414
-3.0267e-12
0.00418414
-4.09797e-12
0.00418414
-1.88891e-11
0.00418414
-2.24495e-11
0.00418414
-1.15172e-10
0.00418414
-1.53214e-10
0.00418414
-6.98711e-10
0.00418414
-9.21247e-10
0.00418414
-4.22828e-09
0.00418416
-4.79815e-09
0.00418413
-2.61449e-08
0.00418431
-3.63478e-08
0.0041843
-1.73518e-07
0.0041847
-3.1586e-07
0.0041867
-1.90062e-06
0.0041844
2.74231e-07
0.0041761
-1.65992e-06
0.00417504
-5.51709e-07
0.00416445
-9.47558e-07
0.00417804
6.79692e-06
0.00422214
1.94974e-05
0.00422257
7.34661e-05
0.00419019
0.000151372
0.00413576
0.000510617
0.00403972
0.000672661
0.00395393
0.000744058
0.0038583
0.000787066
0.00375279
0.000847085
0.00363852
0.000912909
0.00351426
0.000989975
0.00338514
0.0010724
0.00325468
0.00115924
0.00312269
0.00125257
0.00298625
0.00135431
0.00284069
0.00146513
0.00268094
0.00158534
0.00249582
0.00171145
0.00228498
0.00182822
0.002066
0.00194427
0.00184107
0.00205702
0.0016086
0.00216345
0.0013682
0.00225774
0.00112153
0.00234371
0.000854841
0.00240358
0.000573527
0.00242031
0.000286599
0.00240992
0.00237682
0.0043396
2.62247e-15
0.0043396
-1.02885e-13
0.0043396
-2.13062e-13
0.0043396
-7.87945e-13
0.0043396
-1.61317e-12
0.0043396
-4.74309e-12
0.0043396
-8.70396e-12
0.0043396
-2.43355e-11
0.0043396
-4.84174e-11
0.0043396
-1.23148e-10
0.0043396
-2.36965e-10
0.00433959
-6.00027e-10
0.00433959
-7.22578e-10
0.00433957
-2.15586e-09
0.00433954
-8.8748e-09
0.00433944
-1.46212e-08
0.00433912
-4.77842e-08
0.00433773
-2.95467e-07
0.00433817
2.7683e-07
0.00432969
1.98846e-06
0.00432812
2.83555e-06
0.00432673
6.58113e-06
0.00432544
1.08055e-05
0.00432769
2.02038e-05
0.00434703
5.53215e-05
0.00433475
0.000180688
0.00421893
0.000635814
0.00413796
0.000760249
0.00406164
0.000827135
0.00397197
0.000876164
0.00387074
0.00094416
0.0037572
0.00101727
0.00363117
0.00110241
0.00349862
0.00119344
0.00336511
0.00128829
0.00323054
0.00138985
0.00309087
0.0015009
0.00294117
0.00162209
0.00277543
0.00175338
0.00258103
0.00188831
0.00236793
0.00201679
0.00214686
0.00214716
0.00191878
0.00227454
0.00168141
0.00239539
0.00143416
0.00250334
0.00117876
0.00260319
0.000901616
0.00267567
0.000605631
0.00270316
0.000302614
0.00269713
0.00266493
0.00450084
-1.12092e-14
0.00450084
1.44799e-13
0.00450084
2.72943e-13
0.00450084
1.06704e-12
0.00450084
1.85269e-12
0.00450084
6.48963e-12
0.00450084
1.11487e-11
0.00450084
3.88437e-11
0.00450084
6.66914e-11
0.00450084
2.33196e-10
0.00450083
3.97196e-10
0.00450083
1.4301e-09
0.00450083
2.26405e-09
0.00450083
7.97565e-09
0.00450079
1.97317e-08
0.00450077
5.1076e-08
0.00450056
8.92598e-08
0.0045001
3.60634e-07
0.00450037
6.36386e-07
0.00449785
2.32019e-06
0.00450319
3.48336e-06
0.00450145
7.36604e-06
0.00450154
1.10903e-05
0.00450764
1.6598e-05
0.00449986
6.70359e-05
0.00450494
0.000191534
0.00440364
0.000768964
0.00428782
0.000868018
0.00419054
0.000920426
0.00409151
0.000970413
0.00398548
0.00104388
0.00386943
0.00112343
0.0037425
0.00121551
0.00361015
0.00131434
0.00347625
0.00141762
0.00334037
0.00152814
0.00319825
0.00164894
0.00304485
0.0017807
0.00287265
0.00192277
0.00267096
0.00206459
0.00245682
0.00220598
0.00223528
0.00235036
0.00200589
0.00249317
0.00176505
0.00263001
0.00151212
0.00275421
0.00124795
0.00287181
0.00095708
0.00296178
0.000646097
0.00300051
0.000323694
0.00300493
0.00297464
0.00466806
-7.84577e-15
0.00466806
2.98451e-13
0.00466806
5.90675e-13
0.00466806
2.259e-12
0.00466806
3.96554e-12
0.00466806
1.3336e-11
0.00466806
2.29793e-11
0.00466806
7.56535e-11
0.00466806
1.30108e-10
0.00466806
4.24973e-10
0.00466806
7.31452e-10
0.00466806
2.37156e-09
0.00466806
4.11436e-09
0.00466806
1.33364e-08
0.00466806
2.13703e-08
0.00466808
7.39192e-08
0.00466799
1.24747e-07
0.00466815
3.91865e-07
0.00466895
7.53159e-07
0.00466313
2.06762e-06
0.00467059
3.50597e-06
0.00467212
7.67952e-06
0.00467292
1.1455e-05
0.00467377
1.60758e-05
0.00467054
7.30021e-05
0.00466222
0.000214272
0.00455738
0.000894191
0.00443656
0.000990946
0.00432491
0.00103008
0.00421643
0.00107377
0.00410392
0.00114955
0.00398372
0.0012335
0.00385459
0.00133177
0.00372216
0.00143746
0.00358896
0.00154795
0.00345282
0.00166661
0.00330876
0.00179655
0.003152
0.00193819
0.00297343
0.00208984
0.0027694
0.0022394
0.00255582
0.00239496
0.00233502
0.0025542
0.00210536
0.00271296
0.00186189
0.00286705
0.00160386
0.00300976
0.0013312
0.00314768
0.00102778
0.00325882
0.000696268
0.0033189
0.000349645
0.00333566
0.00331056
0.00484151
-7.60619e-15
0.00484151
3.58883e-13
0.00484151
7.25025e-13
0.00484151
2.71447e-12
0.00484151
4.81055e-12
0.00484151
1.57399e-11
0.00484151
2.73162e-11
0.00484151
8.7178e-11
0.00484151
1.50917e-10
0.00484151
4.77952e-10
0.00484151
8.27983e-10
0.00484151
2.61307e-09
0.00484151
4.56697e-09
0.00484151
1.46431e-08
0.00484151
2.32518e-08
0.00484152
8.02344e-08
0.00484148
1.3446e-07
0.00484151
4.44006e-07
0.00484254
7.7414e-07
0.00483506
2.54851e-06
0.00484144
3.56461e-06
0.00484423
7.59746e-06
0.00484576
1.15396e-05
0.00484645
1.5737e-05
0.00484618
7.64384e-05
0.00484693
0.00023074
0.0047428
0.00100737
0.00461582
0.00112873
0.00449645
0.00115232
0.00437777
0.00118941
0.00425526
0.00126552
0.00412693
0.00135163
0.00399162
0.00145482
0.00385273
0.0015658
0.00371378
0.00168169
0.00357395
0.00180665
0.00342732
0.00194407
0.00326768
0.00209413
0.00308412
0.00225254
0.00288297
0.00241209
0.00267372
0.00258227
0.00245514
0.0027574
0.00222562
0.00293324
0.00198004
0.00310667
0.00171639
0.00327134
0.00143475
0.00343443
0.00111557
0.00357317
0.000763966
0.00365727
0.000386415
0.00369743
0.00368375
0.00502139
-1.16774e-14
0.00502139
3.70833e-13
0.00502139
7.38674e-13
0.00502139
2.7802e-12
0.00502139
4.91121e-12
0.00502139
1.60779e-11
0.00502139
2.78048e-11
0.00502139
8.8972e-11
0.00502139
1.53356e-10
0.00502139
4.86959e-10
0.00502139
8.42401e-10
0.00502139
2.65423e-09
0.00502139
4.63909e-09
0.0050214
1.45266e-08
0.00502139
2.3081e-08
0.00502144
7.62992e-08
0.0050214
1.22829e-07
0.00502163
3.98949e-07
0.00502271
7.77003e-07
0.00501304
2.46862e-06
0.0050228
3.47305e-06
0.00502594
7.50763e-06
0.00502734
1.13938e-05
0.00502778
1.49036e-05
0.00502755
7.99592e-05
0.00504341
0.000232165
0.00496261
0.00110683
0.00481791
0.00127161
0.00468271
0.00128866
0.00455337
0.00131576
0.00442305
0.00138961
0.00428955
0.00147647
0.00414974
0.00158328
0.00400646
0.00169875
0.00386253
0.00181977
0.00371691
0.00195032
0.00356519
0.00209352
0.00340035
0.00224977
0.00321364
0.00241242
0.00301581
0.00258196
0.00281178
0.00276587
0.00259837
0.00295682
0.00237185
0.00315036
0.00212662
0.00334408
0.00186065
0.00353317
0.00157077
0.00372783
0.00123511
0.00390556
0.000854087
0.00402851
0.000437231
0.00410024
0.0041072
0.00520796
-8.9222e-15
0.00520796
3.21775e-13
0.00520796
6.44246e-13
0.00520796
2.42304e-12
0.00520796
4.26269e-12
0.00520796
1.39984e-11
0.00520796
2.40309e-11
0.00520796
7.74737e-11
0.00520796
1.30831e-10
0.00520796
4.18863e-10
0.00520796
7.62529e-10
0.00520796
2.29344e-09
0.00520796
4.0336e-09
0.00520797
1.19854e-08
0.00520797
2.11572e-08
0.00520801
6.1806e-08
0.00520798
1.05032e-07
0.00520827
3.23286e-07
0.00520782
6.54845e-07
0.00521471
2.28322e-06
0.00521176
3.25993e-06
0.0052132
6.79834e-06
0.00521486
1.0598e-05
0.00521586
1.32393e-05
0.00521895
8.07613e-05
0.00523838
0.00022959
0.00518815
0.00118324
0.00504548
0.00141419
0.00489528
0.00143546
0.00475358
0.0014531
0.0046146
0.00152188
0.00447527
0.00160804
0.0043299
0.00171746
0.00418262
0.00183597
0.00403623
0.0019603
0.00388748
0.00209524
0.00373081
0.00224322
0.0035591
0.00240338
0.00337161
0.00257156
0.00317859
0.00274989
0.00298119
0.0029467
0.00277259
0.00315334
0.00254923
0.00336409
0.00230591
0.00357945
0.00203865
0.00379493
0.00174755
0.00402136
0.00139838
0.00424799
0.000988445
0.00442782
0.000514728
0.00456022
0.0046099
0.00540147
-4.67668e-15
0.00540147
2.19873e-13
0.00540147
4.63584e-13
0.00540147
1.67438e-12
0.00540147
3.04769e-12
0.00540147
9.40196e-12
0.00540147
1.67046e-11
0.00540147
4.98666e-11
0.00540147
8.92159e-11
0.00540147
2.63547e-10
0.00540147
4.58018e-10
0.00540147
1.38765e-09
0.00540147
2.30367e-09
0.00540147
7.46146e-09
0.00540149
1.30562e-08
0.00540155
3.7895e-08
0.00540153
7.58318e-08
0.00540169
1.94952e-07
0.00540182
5.49323e-07
0.00540308
1.56076e-06
0.00540373
2.58041e-06
0.00540732
5.61642e-06
0.00540989
9.1785e-06
0.00541152
1.08445e-05
0.00541749
7.87271e-05
0.00544177
0.000222015
0.00542071
0.00123399
0.00528536
0.00155094
0.0051242
0.00159343
0.00497647
0.00159556
0.00483003
0.00166042
0.00468419
0.0017454
0.00453227
0.00185791
0.00437912
0.0019784
0.00422881
0.00210374
0.00407797
0.00224075
0.00392082
0.00239195
0.003749
0.00255662
0.00356468
0.00272958
0.00337802
0.0029159
0.00318869
0.00312166
0.00298882
0.00334134
0.00277324
0.00357068
0.00253739
0.00380764
0.00227673
0.00405041
0.00198483
0.00431701
0.00162733
0.00460195
0.00118641
0.004855
0.000647793
0.00508329
0.00524521
0.00560216
-6.56028e-15
0.00560216
1.83517e-13
0.00560216
3.62931e-13
0.00560216
1.3972e-12
0.00560216
2.42338e-12
0.00560216
8.15633e-12
0.00560216
1.38114e-11
0.00560216
4.57882e-11
0.00560216
7.82359e-11
0.00560216
2.6499e-10
0.00560216
4.07049e-10
0.00560216
1.38754e-09
0.00560217
2.3423e-09
0.00560216
8.00997e-09
0.0056022
1.27753e-08
0.00560217
5.066e-08
0.00560216
1.04859e-07
0.00560215
2.86399e-07
0.00560232
5.23478e-07
0.0056032
1.00748e-06
0.00560428
1.27594e-06
0.00560883
3.28597e-06
0.00561151
7.25176e-06
0.00561324
7.84324e-06
0.00562512
7.11456e-05
0.00565152
0.000210437
0.00566601
0.00125408
0.00554106
0.00167834
0.00537619
0.00175603
0.00522273
0.00174337
0.00507161
0.00180327
0.00492172
0.00188624
0.00476686
0.00200174
0.00460882
0.00212472
0.00445342
0.00224999
0.00430116
0.00238653
0.00414565
0.00253949
0.00397865
0.00270714
0.00379906
0.00288684
0.00361764
0.00307819
0.00343572
0.00329089
0.00324778
0.00351763
0.00305123
0.00375581
0.00283237
0.00401511
0.00258153
0.00429199
0.0023058
0.00459445
0.00195814
0.00494782
0.00150646
0.00529941
0.000893551
0.00568329
0.00612665
0.00581031
-1.08805e-14
0.00581031
5.91697e-14
0.00581031
1.26426e-13
0.00581031
5.1562e-13
0.00581031
8.74523e-13
0.00581031
3.00178e-12
0.00581031
5.70891e-12
0.00581031
1.70766e-11
0.00581031
2.13382e-11
0.00581031
1.56806e-10
0.00581031
2.30251e-11
0.00581031
2.68677e-10
0.00581031
3.88263e-10
0.00581032
1.15192e-09
0.00581033
8.9422e-10
0.00581042
2.01009e-09
0.00581059
-1.89045e-09
0.00581097
-5.89658e-09
0.0058117
-1.22002e-07
0.00581319
-2.81386e-07
0.00581646
-1.97261e-06
0.00582301
-3.56937e-07
0.00582696
3.28304e-06
0.00583236
-7.90948e-06
0.00586336
5.81976e-05
0.00584323
0.000213492
0.00594285
0.00120408
0.00581301
0.00181194
0.00564063
0.0019253
0.00546586
0.00191436
0.00530548
0.00195603
0.00515321
0.00203127
0.00500237
0.00214158
0.00484827
0.00226547
0.00469386
0.00239124
0.0045437
0.00252641
0.00439467
0.00267901
0.00423939
0.00284885
0.00407231
0.00303102
0.00390308
0.00322826
0.00373647
0.00344324
0.00356726
0.00367324
0.0033822
0.00392882
0.00318196
0.00420277
0.00296746
0.00449454
0.00273485
0.00482257
0.00245
0.00522945
0.00204018
0.00569815
0.00142764
0.0062835
0.00754298
0.00840003
-7.04456e-14
0.00840003
-8.87853e-16
0.00840003
-2.62627e-13
0.00840003
4.40856e-14
0.00840003
-1.44753e-12
0.00840003
2.54663e-13
0.00840003
-9.11335e-12
0.00840003
-1.63123e-12
0.00840003
-4.80676e-11
0.00840003
-6.0991e-11
0.00840003
-1.96012e-10
0.00840003
-6.84493e-11
0.00840003
-1.44375e-09
0.00840004
-3.13846e-10
0.00840005
-9.72475e-09
0.00840005
-4.65191e-09
0.00840013
-6.33992e-08
0.00840024
-5.16121e-08
0.00840051
-4.27465e-07
0.00839613
-3.8694e-07
0.0084116
-3.41449e-06
0.0083853
-4.63015e-06
0.00846622
-1.54335e-05
0.00833979
-3.38793e-05
0.00872279
6.96387e-05
0.00733317
0.00013456
0.00831086
0.00134426
0.00820305
0.0020784
0.00799645
0.00215568
0.00776849
0.002135
0.00756067
0.0021539
0.00737635
0.00220675
0.00720158
0.00230034
0.0070261
0.00242044
0.00684901
0.00254693
0.00667621
0.00268203
0.00650708
0.00283342
0.00633529
0.00300118
0.00615387
0.003183
0.00597866
0.00337554
0.0058041
0.00359371
0.00561645
0.00383706
0.00542785
0.00409405
0.00524206
0.00436932
0.00506106
0.00466076
0.00490364
0.00497293
0.00480522
0.00533137
0.00480522
0.0056882
0.00512983
0.00594076
0.00548233
0.00717743
0.00840003
-1.22595e-14
0.00840003
7.60636e-16
0.00840003
-6.06653e-14
0.00840003
-1.18975e-14
0.00840003
-1.74584e-13
0.00840003
-1.40722e-13
0.00840003
-5.87041e-13
0.00840003
4.49196e-13
0.00840003
-2.04788e-12
0.00840003
-8.97416e-12
0.00840003
-1.85445e-11
0.00840003
1.0339e-10
0.00840003
-1.85707e-10
0.00840006
-9.55049e-11
0.00839998
-6.63837e-10
0.00840007
-2.10266e-09
0.00839972
-7.36331e-10
0.00840072
-4.79258e-10
0.0083991
1.58656e-08
0.00840222
6.82092e-08
0.00839693
8.33391e-08
0.00835861
8.45627e-07
0.00841468
-6.53466e-07
0.00848411
-9.18161e-06
0.00820956
7.34663e-05
0.00830566
0.000133519
0.00858083
0.00104839
0.00830816
0.0022865
0.00801166
0.00243364
0.00777347
0.00239608
0.00757824
0.0023687
0.00741795
0.0023868
0.0072551
0.00246497
0.00708674
0.0025741
0.00692268
0.00268988
0.00677439
0.00281134
0.00663885
0.00295352
0.006511
0.00311038
0.0063908
0.00327858
0.00627093
0.00347021
0.00615194
0.0036864
0.00605047
0.00391073
0.00596764
0.00415129
0.00590099
0.00440955
0.00586269
0.0046738
0.00589494
0.00492425
0.00606508
0.00517037
0.00642511
0.00533494
0.00699552
0.00536606
0.00482105
0.00764923
0.00840003
1.4923e-14
0.00840003
6.51519e-15
0.00840003
6.57781e-14
0.00840003
-2.09148e-15
0.00840003
3.0567e-13
0.00840003
-1.36839e-13
0.00840003
1.57473e-12
0.00840003
-1.22035e-12
0.00840003
8.78362e-12
0.00840003
-7.70043e-12
0.00840003
6.08728e-11
0.00840003
-4.81755e-11
0.00840003
3.89566e-10
0.00840004
2.49244e-11
0.00840002
2.41036e-09
0.00840002
2.01204e-09
0.00839995
1.49295e-08
0.00840039
6.8053e-09
0.00839995
8.0785e-08
0.00840139
2.2157e-08
0.00839773
4.76448e-07
0.00841005
6.1402e-07
0.00839671
5.02741e-06
0.00837593
5.73144e-06
0.00833596
5.56391e-05
0.00852813
0.000127926
0.0086061
0.000708643
0.00871637
0.00243417
0.00832218
0.00284784
0.00800722
0.00272132
0.00783117
0.00256877
0.00764693
0.00259438
0.00749824
0.0026261
0.00733662
0.00272396
0.00716664
0.00283115
0.00701369
0.0029459
0.00688353
0.00307335
0.00677163
0.00321467
0.00666397
0.00337342
0.00657229
0.00354747
0.00650709
0.00373221
0.0064669
0.00392873
0.00645807
0.00413716
0.00649118
0.00435041
0.00656762
0.00456372
0.00671904
0.00474085
0.00698424
0.00488961
0.0073774
0.00493843
0.00784324
0.00489895
0.00446272
0.0081997
0.00840003
6.76636e-14
0.00840003
-1.54041e-14
0.00840003
2.18933e-13
0.00840003
-7.49291e-14
0.00840003
1.09231e-12
0.00840003
-8.23107e-13
0.00840003
5.64589e-12
0.00840003
-3.73578e-12
0.00840003
2.94657e-11
0.00840003
-3.56021e-11
0.00840003
1.66494e-10
0.00840003
-1.47211e-10
0.00840003
8.43119e-10
0.00840003
-1.24067e-09
0.00840003
4.93923e-09
0.00840004
-8.23595e-09
0.00839995
2.35942e-08
0.0084004
-5.12131e-08
0.00839958
1.60143e-07
0.00840217
-3.00893e-07
0.00840104
5.80515e-07
0.00840622
-1.01638e-06
0.008398
6.53302e-06
0.0084004
4.17446e-06
0.00836902
5.4934e-05
0.00884719
0.000103755
0.00852591
0.00059163
0.00916591
0.00195578
0.00892887
0.00309059
0.00866478
0.00299179
0.0083481
0.00289924
0.00813602
0.00282111
0.00794514
0.00282508
0.00778428
0.00287325
0.0076276
0.00296751
0.00747743
0.00307302
0.00734703
0.00318794
0.00722709
0.00332452
0.00712406
0.00347558
0.00704338
0.00363193
0.00698206
0.00379357
0.00695212
0.00395524
0.00696261
0.0041197
0.00702314
0.00427765
0.00713798
0.00442569
0.00731576
0.00453662
0.00757427
0.0046083
0.00790724
0.00459733
0.00828614
0.00451528
0.00419272
0.00855467
0.00840003
8.99706e-15
0.00840003
1.15379e-13
0.00840003
2.20145e-13
0.00840003
8.93107e-13
0.00840003
1.08832e-12
0.00840003
4.19244e-12
0.00840003
7.39116e-12
0.00840003
2.85212e-11
0.00840003
3.29311e-11
0.00840003
1.27857e-10
0.00840003
2.115e-10
0.00840003
8.87217e-10
0.00840003
9.47981e-10
0.00840002
3.90576e-09
0.00840003
6.2209e-09
0.00839996
2.12136e-08
0.00840007
3.85032e-08
0.00839962
1.24931e-07
0.00840094
1.93819e-07
0.00839739
7.6437e-07
0.00841305
1.41365e-06
0.00839094
4.09737e-06
0.00845041
7.8076e-06
0.00841594
2.22138e-05
0.00841441
3.69671e-05
0.00843163
6.22496e-05
0.00876457
0.000304356
0.00994611
0.000842561
0.0100652
0.00298664
0.00959149
0.00347339
0.0091693
0.00332768
0.00888539
0.00310792
0.00864169
0.00306082
0.00841536
0.00308286
0.00822408
0.00313848
0.00805418
0.0032222
0.00790138
0.00332244
0.00777447
0.00343779
0.0076801
0.00356121
0.00761627
0.00369394
0.0075722
0.00383614
0.00755004
0.00397529
0.00755903
0.00411037
0.00760719
0.00423165
0.00770578
0.00433275
0.00784888
0.00439588
0.00803839
0.00441075
0.00827779
0.00435135
0.0085572
0.00423611
0.00398612
0.00876516
0.00840003
-4.43986e-15
0.00840003
2.40581e-14
0.00840003
5.40479e-14
0.00840003
1.38482e-13
0.00840003
6.35394e-13
0.00840003
1.41616e-12
0.00840003
2.65488e-12
0.00840003
4.87196e-12
0.00840003
2.37735e-11
0.00840003
4.74795e-11
0.00840003
9.18791e-11
0.00840003
1.70551e-10
0.00840003
7.98941e-10
0.00840003
1.68766e-09
0.00840004
3.28591e-09
0.00840004
1.02344e-08
0.00840007
1.84183e-08
0.00840013
5.81322e-08
0.00840023
1.12475e-07
0.00840059
3.06444e-07
0.0084028
6.89466e-07
0.00839142
1.89819e-06
0.00840782
2.09123e-06
0.00842881
6.1182e-06
0.0084538
1.27165e-05
0.00852767
-1.62717e-05
0.00852586
0.000314687
0.00901859
0.000378697
0.00977056
0.00229067
0.0096518
0.00360037
0.00955179
0.00342274
0.00931152
0.00333915
0.0090933
0.00325826
0.00889768
0.00325256
0.00871563
0.00329972
0.00854803
0.00337134
0.00840125
0.00345367
0.00828314
0.00354167
0.00818897
0.00364318
0.00812825