/*--------------------------------*- C++ -*----------------------------------*\
| =========                 |                                                 |
| \\      /  F ield         | OpenFOAM: The Open Source CFD Toolbox           |
|  \\    /   O peration     | Version:  2412                                  |
|   \\  /    A nd           | Website:  www.openfoam.com                      |
|    \\/     M anipulation  |                                                 |
\*---------------------------------------------------------------------------*/
FoamFile
{
    version     2.0;
    format      ascii;
    arch        "LSB;label=32;scalar=64";
    class       volScalarField;
    location    "2";
    object      T;
}
// * * * * * * * * * * * * * * * * * * * * * * * * * * * * * * * * * * * * * //

dimensions      [0 0 0 1 0 0 0];

internalField   nonuniform List<scalar> 
7000
(
1
1
1
1
1
1
1
1
1
1
1
1.00001
1.00001
1.00006
1.00007
1.00037
1.00032
1.00201
1.00224
1.01086
1.01621
1.06259
1.15899
1.34099
1.90873
2.54315
2.68446
2.64743
2.63554
2.62118
2.6226
2.6312
2.63969
2.65132
2.66369
2.67628
2.6863
2.69069
2.69248
2.69683
2.71344
2.74166
2.76167
2.76838
2.765
2.74477
2.73334
2.74649
2.76399
2.80251
1
1
1
1
1
1
1
1
1
1
1
1.00001
1.00001
1.00005
1.00004
1.00033
1.00029
1.002
1.00223
1.0115
1.01551
1.06278
1.15888
1.34013
1.90846
2.5445
2.6848
2.64821
2.63531
2.62088
2.62229
2.63102
2.63988
2.65177
2.66421
2.6767
2.68647
2.69065
2.69228
2.69637
2.71273
2.74132
2.76136
2.768
2.76466
2.74448
2.73256
2.74495
2.76258
2.80132
1
1
1
1
1
1
1
1
1
1
1
1.00001
1.00001
1.00006
1.00007
1.00037
1.00032
1.00203
1.00225
1.01079
1.01589
1.06184
1.15867
1.33776
1.90895
2.5488
2.68474
2.6473
2.63438
2.62039
2.62206
2.63094
2.63966
2.65119
2.66332
2.67572
2.68557
2.68979
2.6915
2.69584
2.71267
2.74099
2.76101
2.76782
2.7647
2.74473
2.73227
2.74383
2.76165
2.80045
1
1
1
1
1
1
1
1
1
1
1
1.00001
1.00001
1.00007
1.00007
1.00037
1.00032
1.00202
1.00224
1.01017
1.016
1.06112
1.15787
1.33595
1.90919
2.55359
2.68503
2.64819
2.63405
2.62011
2.62172
2.63066
2.63945
2.65118
2.66347
2.6757
2.68497
2.68871
2.6903
2.69478
2.71215
2.74041
2.76045
2.7674
2.7644
2.74458
2.73144
2.74211
2.76006
2.79922
1
1
1
1
1
1
1
1
1
1
1
1.00001
1.00001
1.00007
1.00007
1.00037
1.00032
1.00197
1.00222
1.01037
1.01523
1.0599
1.15661
1.33253
1.90936
2.56005
2.6854
2.64938
2.63385
2.61985
2.62133
2.63032
2.63952
2.65154
2.66382
2.6757
2.68441
2.6877
2.68911
2.69354
2.71105
2.7391
2.75929
2.76652
2.76372
2.74401
2.73008
2.74026
2.75844
2.79719
1
1
1
1
1
1
1
1
1
1
1
1.00001
1.00001
1.00007
1.00007
1.00036
1.00031
1.00192
1.00217
1.00976
1.01492
1.05805
1.15478
1.32859
1.90948
2.56705
2.6855
2.64946
2.63327
2.61961
2.6213
2.63035
2.63976
2.65183
2.6639
2.67545
2.68378
2.68684
2.68817
2.6926
2.71
2.73773
2.75787
2.76516
2.76239
2.74248
2.72818
2.73785
2.75597
2.79566
1
1
1
1
1
1
1
1
1
1
1
1.00001
1.00001
1.00007
1.00006
1.00035
1.00031
1.00186
1.00212
1.00979
1.01398
1.05563
1.1523
1.32375
1.90902
2.57431
2.68539
2.64901
2.63222
2.61922
2.62157
2.63116
2.64097
2.65293
2.66447
2.67508
2.68252
2.68505
2.68621
2.69077
2.70859
2.73579
2.75561
2.76295
2.76038
2.74093
2.72621
2.7357
2.7542
2.79323
1
1
1
1
1
1
1
1
1
1
1
1.00001
1.00001
1.00006
1.00006
1.00034
1.0003
1.00179
1.00204
1.00914
1.01327
1.05292
1.14971
1.31725
1.90824
2.58243
2.68488
2.64845
2.63022
2.61733
2.6205
2.63057
2.64195
2.65532
2.66648
2.67568
2.68148
2.68309
2.68401
2.6887
2.70695
2.73365
2.75323
2.76058
2.75808
2.73824
2.72285
2.73182
2.75031
2.79016
1
1
1
1
1
1
1
1
1
1
1
1.00001
1.00001
1.00006
1.00006
1.00033
1.0003
1.00172
1.00203
1.00865
1.01281
1.0493
1.14645
1.30601
1.90598
2.59055
2.68559
2.64841
2.62974
2.61638
2.61989
2.63025
2.64242
2.65605
2.66718
2.67559
2.67987
2.68069
2.68133
2.68627
2.70537
2.73168
2.75067
2.75779
2.75531
2.73587
2.72027
2.72909
2.74761
2.78733
1
1
1
1
1
1
1
1
1
1
1
1.00001
1.00001
1.00007
1.00007
1.00034
1.0004
1.00176
1.0022
1.00803
1.01211
1.04605
1.1416
1.29693
1.89979
2.59148
2.68214
2.64855
2.6285
2.61641
2.62029
2.6312
2.64466
2.65877
2.66855
2.67508
2.67803
2.67832
2.67862
2.68375
2.70329
2.72818
2.74564
2.752
2.74942
2.73015
2.71445
2.7226
2.74185
2.78292
1
1
1
1
1
1
1
1
1
1
1.00001
1.00001
1.00003
1.00003
1.00015
0.999866
1.00132
1.00033
1.00768
1.00251
1.04753
0.908303
1.12458
1.29054
1.91061
2.56724
2.66157
2.63229
2.61103
2.6037
2.60887
2.6227
2.63993
2.6567
2.66761
2.67353
2.67551
2.67533
2.67537
2.68062
2.70082
2.72555
2.74245
2.74848
2.74585
2.72638
2.70975
2.71838
2.73645
2.776
1
1
1
1
1
1
1
1
1
1
1.00001
1.00001
1.00005
1.00004
1.00026
1.00026
1.00143
1.00176
1.00792
1.00247
1.04607
0.908465
1.11816
1.28132
1.90177
2.57256
2.65054
2.62676
2.60635
2.59629
2.60005
2.61153
2.62774
2.64612
2.65884
2.66518
2.66692
2.66692
2.66782
2.67679
2.69961
2.7215
2.73625
2.74146
2.73897
2.7204
2.70422
2.71022
2.7299
2.77165
1
1
1
1
1
1
1
1
1
1
1.00001
1.00001
1.00004
1.00004
1.00024
1.00024
1.0013
1.00154
1.00698
1.0015
1.04398
0.907415
1.11215
1.26861
1.8924
2.59964
2.64801
2.60442
2.6002
2.59388
2.59794
2.6092
2.62394
2.63972
2.65039
2.65566
2.65699
2.65742
2.66015
2.674
2.69829
2.71799
2.73019
2.73387
2.73075
2.71158
2.69452
2.70293
2.72083
2.76167
1
1
1
1
1
1
1
1
1
1
1.00001
1.00001
1.00004
1.00004
1.00021
1.00022
1.00113
1.00133
1.00597
1.00061
1.04131
0.907834
1.10595
1.25475
1.8739
2.59377
2.64812
2.6011
2.59476
2.58917
2.59358
2.60553
2.62009
2.63466
2.64328
2.64691
2.64798
2.64945
2.6551
2.67315
2.69606
2.71411
2.72448
2.72709
2.72364
2.70373
2.68603
2.69055
2.71033
2.75381
1
1
1
1
1
1
1
1
1
1
1.00001
1.00001
1.00003
1.00003
1.00018
1.00019
1.00094
1.00108
1.00512
0.999463
1.03835
0.908883
1.09959
1.23875
1.84989
2.58351
2.63153
2.61593
2.59203
2.58191
2.58549
2.59604
2.61015
2.62431
2.63439
2.63938
2.6411
2.64367
2.65221
2.6724
2.69081
2.7056
2.71497
2.71729
2.71401
2.69579
2.67685
2.68146
2.69695
2.73871
1
1
1
1
1
1
1
1
1
1
1.00001
1
1.00003
1.00002
1.00014
1.00015
1.0007
1.00083
1.00399
0.998566
1.03491
0.910658
1.09232
1.221
1.82087
2.57218
2.60598
2.60809
2.59441
2.58189
2.58462
2.59313
2.60415
2.61586
2.62412
2.62936
2.63301
2.63773
2.65009
2.6705
2.68636
2.69759
2.7043
2.70544
2.7017
2.6809
2.66215
2.6645
2.68261
2.7236
1
1
1
1
1
1
1
1
1
1
1
1
1.00002
1.00002
1.0001
1.00012
1.00052
1.00056
1.00296
0.997412
1.03153
0.91319
1.08471
1.2019
1.78521
2.54998
2.59063
2.597
2.58736
2.57834
2.58128
2.5901
2.60024
2.61055
2.61623
2.61914
2.62265
2.63053
2.64586
2.66597
2.6773
2.68627
2.69294
2.69465
2.6918
2.67296
2.64506
2.6448
2.65649
2.70116
1
1
1
1
1
1
1
1
1
1
1
1
1.00001
1.00001
1.00006
1.00008
1.00033
1.00032
1.00188
0.9969
1.02785
0.916714
1.07674
1.18188
1.74297
2.51593
2.57203
2.58871
2.5776
2.57065
2.57379
2.58454
2.59549
2.60641
2.61233
2.61454
2.61744
2.62418
2.63972
2.65586
2.66572
2.67097
2.6757
2.67622
2.67357
2.65735
2.6311
2.62127
2.63075
2.66668
1
1
1
1
1
1
1
1
1
1
1
1
1.00001
1.00001
1.00004
1.00007
1.00025
1.0001
1.00126
0.996402
1.02413
0.921309
1.06848
1.16186
1.69362
2.46908
2.54689
2.57715
2.56626
2.56001
2.5622
2.57278
2.58317
2.59456
2.60299
2.60634
2.60855
2.61399
2.62601
2.64252
2.65108
2.65648
2.65899
2.65812
2.65397
2.63624
2.60159
2.59256
2.58667
2.6163
1
1
1
1
1
1
1
1
1
1
1
1
1
1
1.00001
0.999994
1.00006
0.999743
1.00071
0.996163
1.0206
0.926251
1.0604
1.1398
1.63629
2.40575
2.51328
2.56258
2.552
2.55278
2.55574
2.56756
2.5766
2.58653
2.59425
2.59929
2.60092
2.60338
2.61152
2.62281
2.62939
2.63579
2.63955
2.6385
2.63379
2.61723
2.57358
2.54008
2.52589
2.49244
1
1
1
1
1
1
1
1
1
1
1
1
1
1
1.00002
1.00003
1.00012
1.00012
1.00073
0.999714
1.00398
0.979575
1.04793
1.04703
1.54955
2.43563
2.44946
2.53247
2.52281
2.52715
2.53442
2.55266
2.56622
2.57772
2.58626
2.59185
2.59449
2.59608
2.59969
2.60517
2.60674
2.60709
2.60646
2.60391
2.5968
2.57997
2.53491
2.47682
2.39884
2.30487
1
1
1
1
1
1
1
1
1
1
1
1
1
1.00002
1.00002
1.0001
1.00013
1.00063
1.00087
1.00362
1.00603
1.02422
1.03633
1.08815
1.39295
2.13578
2.40908
2.47818
2.49135
2.49187
2.49632
2.50866
2.52548
2.54411
2.56094
2.57327
2.5793
2.58364
2.58845
2.59196
2.59116
2.58752
2.57941
2.56617
2.55305
2.53225
2.48559
2.41422
2.30753
2.18987
1
1
1
1
1
1
1
1
1
1
1
1
1
1.00002
1.00002
1.0001
1.00012
1.00055
1.00057
1.00277
1.00492
1.01395
1.03554
1.09996
1.2753
1.7203
2.25634
2.4742
2.4928
2.49032
2.48177
2.48496
2.48889
2.49807
2.51069
2.52904
2.54078
2.55305
2.56335
2.57126
2.57203
2.56933
2.56187
2.54647
2.52202
2.49731
2.44629
2.37948
2.26752
2.16445
1
1
1
1
1
1
1
1
1
1
1
1
1
1.00001
1.00001
1.00008
1.00009
1.00042
1.00055
1.00224
1.00356
1.01267
1.02358
1.07637
1.19262
1.47307
2.0648
2.40057
2.49032
2.48576
2.48283
2.47648
2.47386
2.47331
2.47423
2.47838
2.48553
2.4912
2.4999
2.51036
2.51959
2.52711
2.52601
2.51872
2.49944
2.47709
2.43178
2.3735
2.27759
2.17496
1
1
1
1
1
1
1
1
1
1
1
1
1.00001
1.00001
1.00004
1.00005
1.00024
1.0003
1.00123
1.00197
1.00757
1.0063
1.0422
0.968823
1.1231
1.25332
1.77639
2.28208
2.4736
2.48691
2.48602
2.48019
2.47957
2.4778
2.47563
2.47127
2.47001
2.46621
2.46367
2.45955
2.45635
2.45637
2.45561
2.45349
2.44531
2.43098
2.40399
2.36182
2.29108
2.20973
1
1
1
1
1
1
1
1
1
1
1
1
1
1
1.00002
1.00002
1.00009
1.0001
1.00046
1.0005
1.00261
0.998409
1.02468
0.930526
1.06773
1.14948
1.62971
2.33715
2.42663
2.46389
2.46278
2.46247
2.46026
2.46519
2.46852
2.46705
2.46372
2.45935
2.45018
2.4433
2.42944
2.41661
2.40301
2.39053
2.37696
2.36069
2.33833
2.31615
2.27701
2.21701
1
1
1
1
1
1
1
1
1
1
1
1
1
1
1.00001
1.00001
1.00006
1.00006
1.00031
1.00035
1.00159
1.00217
1.0071
1.01411
1.04835
1.13709
1.29133
1.79758
2.25999
2.47031
2.47208
2.46408
2.45836
2.45212
2.45465
2.45462
2.45205
2.44839
2.43754
2.42963
2.41802
2.4037
2.38464
2.36124
2.33906
2.31336
2.28592
2.25345
2.22289
2.19201
1
1
1
1
1
1
1
1
1
1
1
1
1
1
1
1.00002
1.00002
1.00009
1.0001
1.00046
1.00057
1.0028
0.998654
1.02532
0.930763
1.06921
1.15806
1.6283
2.31768
2.42141
2.46424
2.45065
2.44981
2.44444
2.44232
2.44331
2.44129
2.43699
2.4259
2.41379
2.40008
2.38878
2.37415
2.35266
2.32699
2.29857
2.26523
2.23114
2.19084
2.1537
1
1
1
1
1
1
1
1
1
1
1
1
1
1
0.999998
0.999999
0.99998
0.99999
0.999852
1.00022
1.00008
1.00338
1.00293
1.01973
0.975615
1.04657
1.19085
1.37295
1.98792
2.28042
2.42472
2.43838
2.43003
2.42852
2.42998
2.43345
2.43302
2.43012
2.42192
2.41016
2.39524
2.37988
2.36521
2.34804
2.32533
2.2993
2.26631
2.23208
2.19204
2.15275
1
1
1
1
1
1
1
1
1
1
1
1
1
1
1
1
1.00001
1.00002
1.00008
1.0001
1.00044
1.00062
1.00195
1.00453
1.01115
1.02656
1.09133
1.20465
1.5917
2.05016
2.33732
2.39507
2.39423
2.39087
2.39138
2.39439
2.39956
2.40175
2.40063
2.39699
2.38817
2.37477
2.36082
2.34546
2.32536
2.3022
2.27389
2.24055
2.20369
2.16272
1
1
1
1
1
1
1
1
1
1
1
1
1
1
1
1
1.00001
1.00001
1.00005
1.00005
1.00028
1.00031
1.00138
1.00232
1.00614
1.01434
1.04807
1.12376
1.25405
1.69198
2.14325
2.36081
2.38679
2.38463
2.38055
2.38011
2.38156
2.38141
2.37961
2.37424
2.36862
2.35972
2.34729
2.33593
2.32133
2.30139
2.27794
2.24974
2.2189
2.18467
1
1
1
1
1
1
1
1
1
1
1
1
1
1
1
1
0.999999
0.999998
0.999992
0.999984
0.999929
0.99989
0.999461
1.00002
0.995904
1.01639
0.933014
1.05157
1.09135
1.54625
2.20417
2.26288
2.30861
2.33088
2.33215
2.33574
2.3393
2.34676
2.35251
2.35184
2.34919
2.34328
2.33372
2.31876
2.30502
2.28962
2.27131
2.24784
2.22124
2.1924
1
1
1
1
1
1
1
1
1
1
1
1
1
1
1
1
1.00001
1.00001
1.00003
1.00003
1.00019
1.00018
1.00103
1.00122
1.00563
1.00148
1.03269
0.930107
1.08671
1.19066
1.68001
2.29153
2.31624
2.32457
2.31472
2.30781
2.3008
2.30199
2.30604
2.3126
2.3143
2.3131
2.30924
2.2997
2.28464
2.26615
2.24796
2.22862
2.20711
2.18497
1
1
1
1
1
1
1
1
1
1
1
1
1
1
1
1
1
1
1.00001
1.00001
1.00005
1.00005
1.00028
1.00032
1.00147
1.00146
1.00806
1.00478
1.04243
1.04735
1.38304
1.96434
2.22428
2.33772
2.33633
2.31567
2.3009
2.2876
2.28287
2.28313
2.28396
2.28391
2.28288
2.2795
2.27134
2.2557
2.23692
2.21373
2.19108
2.16643
1
1
1
1
1
1
1
1
1
1
1
1
1
1
1
1
1
1
1
1.00002
1.00002
1.00009
1.00009
1.00046
1.00055
1.00215
1.00355
1.01437
1.01953
1.0746
1.17067
1.45188
1.89437
2.23461
2.31209
2.30844
2.29682
2.28527
2.27375
2.2668
2.26212
2.25704
2.25248
2.24767
2.24169
2.2336
2.2227
2.20532
2.18387
2.16152
1
1
1
1
1
1
1
1
1
1
1
1
1
1
1
1
1
1
1
1
1.00002
1.00002
1.00011
1.0001
1.00055
1.00061
1.00285
1.00364
1.01585
1.0247
1.11022
1.21069
1.63607
1.94898
2.21309
2.27345
2.27894
2.27767
2.27047
2.26342
2.25688
2.25029
2.24285
2.23158
2.22017
2.20677
2.19407
2.18214
2.16819
2.15282
1
1
1
1
1
1
1
1
1
1
1
1
1
1
1
1
1
1
1
1
1
1.00002
1.00002
1.00013
1.00014
1.00065
1.00096
1.00359
1.00554
1.01951
1.03266
1.08798
1.28943
1.69803
2.00909
2.1902
2.23271
2.23652
2.24279
2.24142
2.23896
2.23566
2.22938
2.22254
2.20837
2.19707
2.17714
2.16381
2.14505
2.12981
1
1
1
1
1
1
1
1
1
1
1
1
1
1
1
1
1
1
1
1
1
1
1.00003
1.00003
1.00012
1.00018
1.00053
1.00159
1.00253
1.0093
1.01321
1.04708
1.11722
1.24771
1.61789
1.96919
2.17141
2.21386
2.21917
2.22083
2.2189
2.21443
2.21013
2.207
2.20017
2.18803
2.17357
2.153
2.13549
2.11484
1
1
1
1
1
1
1
1
1
1
1
1
1
1
1
1
1
1
1
1
1
1
1.00001
1.00001
1.00005
1.00004
1.00025
1.00015
1.0012
1.00111
1.00618
0.989301
1.05374
1.07363
1.36913
1.80553
2.04146
2.18332
2.20553
2.20508
2.20351
2.19981
2.19203
2.18373
2.18008
2.17399
2.16604
2.1497
2.13247
2.1136
1
1
1
1
1
1
1
1
1
1
1
1
1
1
1
1
1
1
1
1
1
1
1
1.00001
1.00002
1.00003
1.00011
1.00026
1.00063
1.00154
1.00197
1.00994
1.01581
1.05604
1.1336
1.32752
1.66867
2.02487
2.16222
2.18513
2.18488
2.18451
2.17964
2.17052
2.16089
2.15022
2.14587
2.14008
2.12789
2.11382
1
1
1
1
1
1
1
1
1
1
1
1
1
1
1
1
1
1
1
1
1
1
1
1
1.00001
1.00001
1.00005
1.00006
1.00036
1.0004
1.00194
1.00248
1.01131
1.01628
1.04989
1.1424
1.3217
1.68189
2.00061
2.14576
2.16918
2.16871
2.1672
2.15957
2.14725
2.13612
2.12436
2.11639
2.10864
2.10383
1
1
1
1
1
1
1
1
1
1
1
1
1
1
1
1
1
1
1
1
1
1
1
1
1
1.00001
1.00001
1.00006
1.00006
1.00036
1.00043
1.0018
1.0031
1.00968
1.01989
1.04703
1.13987
1.33137
1.6563
1.96985
2.1219
2.15203
2.15468
2.15318
2.14436
2.13329
2.12082
2.10673
2.09674
2.08214
1
1
1
1
1
1
1
1
1
1
1
1
1
1
1
1
1
1
1
1
1
1
1
1
1
1
1
1.00001
1.00002
1.00001
1.00002
0.999848
1.00002
0.997301
1.00397
0.971715
1.05894
1.09475
1.36812
1.73866
1.97986
2.10602
2.12711
2.13544
2.13304
2.12777
2.1184
2.10565
2.09329
2.08115
1
1
1
1
1
1
1
1
1
1
1
1
1
1
1
1
1
1
1
1
1
1
1
1
1
1
1
1.00001
1.00001
1.00005
1.00002
1.00032
1.00008
1.00153
1.0007
1.011
0.969048
1.05581
1.08109
1.36049
1.71877
1.95792
2.0794
2.09811
2.11019
2.10893
2.10771
2.1005
2.0893
2.07828
1
1
1
1
1
1
1
1
1
1
1
1
1
1
1
1
1
1
1
1
1
1
1
1
1
1
1
1
1.00001
1.00001
1.00005
1.00005
1.00027
1.00037
1.00143
1.00224
1.00891
1.01397
1.0531
1.11496
1.25915
1.56852
1.87758
2.043
2.07235
2.07944
2.07925
2.07792
2.07366
2.06816
1
1
1
1
1
1
1
1
1
1
1
1
1
1
1
1
1
1
1
1
1
1
1
1
1
1
1
1
1
1.00001
1.00001
1.00003
1.00006
1.0002
1.00016
1.00108
1.0014
1.0067
1.00783
1.04266
1.04883
1.29705
1.60678
1.8637
2.02657
2.05327
2.05972
2.05708
2.05304
2.04995
1
1
1
1
1
1
1
1
1
1
1
1
1
1
1
1
1
1
1
1
1
1
1
1
1
1
1
1
1
1
1.00001
1.00001
1.00004
1.00002
1.00026
1.00018
1.00132
1.00102
1.00791
1.00756
1.03228
1.0486
1.25839
1.57306
1.81384
1.97746
2.02224
2.02829
2.02711
2.02477
1
1
1
1
1
1
1
1
1
1
1
1
1
1
1
1
1
1
1
1
1
1
1
1
1
1
1
1
1
1
1
1
1.00002
1.00002
1.00012
1.00011
1.00062
1.00063
1.00311
1.00459
1.01666
1.03064
1.10143
1.20472
1.47946
1.72433
1.91922
1.98026
1.99406
1.99974
1
1
1
1
1
1
1
1
1
1
1
1
1
1
1
1
1
1
1
1
1
1
1
1
1
1
1
1
1
1
1
1
1.00001
1.00001
1.00002
1.00003
1.0001
0.999919
1.00112
0.997207
1.0033
1.00715
1.02599
1.06295
1.13459
1.3713
1.68057
1.85543
1.94609
1.96253
1
1
1
1
1
1
1
1
1
1
1
1
1
1
1
1
1
1
1
1
1
1
1
1
1
1
1
1
1
1
1
1
1
1
1
1
1.00002
1.00003
1.00009
1.00017
1.00033
1.00187
1.00203
1.01397
1.04649
1.0878
1.29774
1.55549
1.76945
1.90765
1
1
1
1
1
1
1
1
1
1
1
1
1
1
1
1
1
1
1
1
1
1
1
1
1
1
1
1
1
1
1
1
1
1
1
1
1.00002
1.00002
1.00011
1.00012
1.00061
1.00076
1.00317
1.00472
1.01584
1.03912
1.05309
1.22791
1.46913
1.66224
1
1
1
1
1
1
1
1
1
1
1
1
1
1
1
1
1
1
1
1
1
1
1
1
1
1
1
1
1
1
1
1
1
1
1
1
1
1.00002
1.00002
1.00011
1.00014
1.00061
1.00081
1.00366
1.00304
1.02046
0.990486
1.06043
1.11127
1.37248
1
1
1
1
1
1
1
1
1
1
1
1
1
1
1
1
1
1
1
1
1
1
1
1
1
1
1
1
1
1
1
1
1
1
1
1
1
1.00001
1.00001
1.00003
1.00003
1.00011
1.00016
1.00058
0.999481
1.00689
0.976735
1.02216
1.03755
1.18506
1
1
1
1
1
1
1
1
1
1
1
1
1
1
1
1
1
1
1
1
1
1
1
1
1
1
1
1
1
1
1
1
1
1
1
1
1
1
0.999999
1
0.999973
1.00008
1
1.00067
1.00027
1.00381
0.99071
1.01158
1.02528
1.07555
1
1
1
1
1
1
1
1
1
1
1
1
1
1
1
1
1
1
1
1
1
1
1
1
1
1
1
1
1
1
1
1
1
1
1
1
1
1
1
1
1.00002
1.00002
1.00012
1.00014
1.00063
1.00073
1.00337
1.00252
1.0154
1.01707
1
1
1
1
1
1
1
1
1
1
1
1
1
1
1
1
1
1
1
1
1
1
1
1
1
1
1
1
1
1
1
1
1
1
1
1
1
1
1
1
1.00001
1.00001
1.00006
1.00006
1.00034
1.00036
1.00179
1.00159
1.00756
1.00882
1
1
1
1
1
1
1
1
1
1
1
1
1
1
1
1
1
1
1
1
1
1
1
1
1
1
1
1
1
1
1
1
1
1
1
1
1
1
1
1
1.00001
1.00001
1.00003
1.00003
1.00018
1.00018
1.00096
1.00069
1.00399
1.00407
1
1
1
1
1
1
1
1
1
1
1
1
1
1
1
1
1
1
1
1
1
1
1
1
1
1
1
1
1
1
1
1
1
1
1
1
1
1
1
1
1
1.00001
1.00001
1.00005
1.00005
1.00028
0.999671
1.00072
1.00208
1.00424
1
1
1
1
1
1
1
1
1
1
1
1
1
1
1
1
1
1
1
1
1
1
1
1
1
1
1
1
1
1
1
1
1
1
1
1
1
1
1
1
1
1
1
0.999985
1.00003
1.00004
1.00015
1.00041
1.00113
1.0023
1
1
1
1
1
1
1
1
1
1
1
1
1
1
1
1
1
1
1
1
1
1
1
1
1
1
1
1
1
1
1
1
1
1
1
1
1
1
1
1
1
0.999999
1
0.999983
1.00002
1.00003
1.00012
1.00028
1.00061
1.00184
2.01494
1.92844
1.9345
2.03673
2.14769
2.25782
2.32222
2.35367
2.34967
2.33316
2.31508
2.2994
2.28491
2.28002
2.27847
2.27754
2.27753
2.27908
2.28415
2.29349
2.30661
2.32399
2.34411
2.36577
2.38907
2.41191
2.43312
2.45307
2.47267
2.49052
2.50748
2.52239
2.5332
2.54109
2.54709
2.55755
2.58242
2.64374
2.78619
3.0586
3.40239
3.51392
3.43499
3.41667
3.3883
3.35908
3.31257
3.27411
3.23894
3.20713
3.17902
3.15636
3.12763
3.10362
3.08073
3.06473
3.04671
3.03329
3.01781
3.00636
2.99299
2.98374
2.97211
2.96435
2.95397
2.94683
2.93666
2.92898
2.91833
2.90991
2.89879
2.88982
2.87843
2.86923
2.85712
2.84781
2.8348
2.82534
2.8118
2.80216
2.78847
2.77881
2.76527
2.75585
2.74274
2.73402
2.72171
2.71377
2.70229
2.69501
2.68439
2.67763
2.66786
2.66167
2.65256
2.64711
2.63882
2.63512
2.62981
2.63514
1.99178
1.92237
1.8947
1.89506
1.89223
1.87657
1.84951
1.85168
1.86343
1.87889
1.89062
1.88939
1.88571
1.87702
1.86954
1.86439
1.86272
1.86265
1.86299
1.86435
1.86797
1.87271
1.87848
1.88712
1.89792
1.91039
1.92444
1.9394
1.95427
1.96828
1.98236
1.99602
2.00566
2.01432
2.01948
2.03027
2.05342
2.10695
2.2298
2.49483
2.88594
3.15608
3.09874
3.00272
2.92424
2.86083
2.81311
2.7746
2.74207
2.71067
2.68568
2.66204
2.63699
2.60943
2.58377
2.55969
2.53683
2.51489
2.49423
2.47515
2.45799
2.44269
2.42935
2.41775
2.40804
2.39984
2.39307
2.38729
2.38234
2.37806
2.37366
2.36983
2.36523
2.36127
2.35582
2.35091
2.34419
2.33798
2.32961
2.32169
2.31155
2.30161
2.28964
2.27794
2.26459
2.25163
2.23767
2.22424
2.21038
2.1975
2.18445
2.17278
2.1613
2.15104
2.14152
2.13337
2.12551
2.12106
2.11622
2.12209
2.01628
1.94267
1.89024
1.83139
1.76898
1.72046
1.68783
1.68857
1.6924
1.70184
1.72087
1.7324
1.74
1.7396
1.73795
1.73444
1.73017
1.72825
1.72749
1.72742
1.72781
1.72945
1.73308
1.73758
1.74303
1.74989
1.75736
1.76562
1.77281
1.78204
1.7882
1.79845
1.80452
1.81496
1.82177
1.83396
1.85638
1.89771
1.98722
2.1491
2.40583
2.71346
2.72612
2.67488
2.61764
2.57834
2.55038
2.5326
2.5188
2.50742
2.49601
2.4833
2.46902
2.45158
2.43192
2.41143
2.38981
2.36852
2.34759
2.328
2.30985
2.29426
2.28056
2.26982
2.26046
2.25356
2.2472
2.24268
2.2379
2.23469
2.23014
2.22717
2.22185
2.21841
2.21227
2.20791
2.20064
2.19493
2.18635
2.17935
2.16946
2.16107
2.14968
2.13967
2.1267
2.11517
2.10101
2.08843
2.07392
2.06111
2.04722
2.03509
2.02243
2.01196
2.00069
1.99259
1.9828
1.97796
1.97085
1.97413
2.03991
1.95683
1.89186
1.83312
1.77592
1.72837
1.68409
1.65543
1.63745
1.63147
1.63195
1.63533
1.64332
1.6474
1.65351
1.65456
1.65465
1.65432
1.65268
1.65265
1.65325
1.65503
1.65891
1.66265
1.66772
1.67238
1.6781
1.68442
1.6896
1.69675
1.7019
1.71087
1.71709
1.72724
1.73516
1.74982
1.77942
1.83075
1.9398
2.07789
2.21695
2.36094
2.45707
2.50692
2.49645
2.48088
2.45906
2.4386
2.42458
2.41371
2.40243
2.38922
2.37436
2.35721
2.33787
2.31714
2.2945
2.27406
2.25443
2.23892
2.22475
2.21434
2.20492
2.19878
2.19262
2.18908
2.18461
2.18222
2.17844
2.17655
2.17293
2.17091
2.16668
2.16364
2.15751
2.15256
2.14441
2.13757
2.12756
2.11885
2.10682
2.09602
2.08188
2.06912
2.05333
2.03939
2.02296
2.00896
1.99313
1.9803
1.96625
1.95552
1.94392
1.93553
1.92645
1.9203
1.91333
1.90991
1.90547
1.90977
2.08544
1.99483
1.91557
1.85109
1.79316
1.74494
1.69881
1.65951
1.62479
1.60167
1.58699
1.58166
1.57781
1.57872
1.58296
1.58617
1.59326
1.5964
1.60045
1.60464
1.60675
1.61029
1.6145
1.61857
1.62348
1.62754
1.63357
1.63777
1.64441
1.64836
1.65597
1.66094
1.67
1.67668
1.68884
1.71314
1.75607
1.85034
1.96826
2.08597
2.14158
2.19041
2.24771
2.30683
2.36048
2.39194
2.40429
2.39528
2.3855
2.37011
2.3494
2.3309
2.31095
2.28925
2.26662
2.24698
2.22993
2.21714
2.20561
2.19775
2.18939
2.18387
2.17765
2.1737
2.16859
2.16591
2.16178
2.15966
2.15549
2.15311
2.14835
2.14512
2.13915
2.13449
2.12689
2.12057
2.11114
2.10282
2.09105
2.08016
2.06569
2.05229
2.03572
2.02091
2.00366
1.98896
1.97256
1.9593
1.94481
1.93385
1.92179
1.91342
1.90384
1.89779
1.8905
1.88625
1.88078
1.87825
1.87486
1.87925
2.1164
2.03581
1.96093
1.89315
1.83161
1.77734
1.72705
1.68306
1.64217
1.60705
1.57603
1.5557
1.54164
1.53576
1.53258
1.53444
1.53955
1.54477
1.5543
1.56132
1.56899
1.57513
1.57891
1.58363
1.58706
1.59132
1.59512
1.59932
1.60336
1.60824
1.6121
1.61945
1.62492
1.63616
1.65649
1.69698
1.77965
1.90183
2.02924
2.08163
2.09838
2.11019
2.1329
2.16253
2.19702
2.2393
2.28443
2.31482
2.32468
2.31875
2.30117
2.28055
2.25737
2.2348
2.21699
2.20372
2.19433
2.1889
2.18491
2.18249
2.17859
2.17571
2.17001
2.16585
2.15889
2.15323
2.14536
2.13978
2.13204
2.12612
2.1178
2.1115
2.10288
2.09603
2.0863
2.07799
2.06634
2.05612
2.04234
2.03038
2.01519
2.00234
1.98694
1.97432
1.95977
1.94842
1.93557
1.92581
1.91527
1.90687
1.8987
1.89174
1.88481
1.88011
1.87351
1.87031
1.86477
1.86251
1.85889
1.86268
2.11357
2.04527
1.9788
1.91381
1.8548
1.79783
1.7484
1.69956
1.65803
1.61762
1.58388
1.55282
1.53046
1.5154
1.5066
1.50598
1.50706
1.50953
1.51744
1.52495
1.53539
1.54452
1.55292
1.56004
1.56409
1.56773
1.57128
1.57373
1.57763
1.58045
1.58518
1.59026
1.59944
1.61846
1.65456
1.73522
1.85285
1.99437
2.05778
2.07932
2.07458
2.07366
2.07193
2.07262
2.0788
2.09369
2.11027
2.13739
2.16979
2.19778
2.21289
2.21837
2.21192
2.20406
2.19713
2.18697
2.17953
2.1765
2.1728
2.17192
2.16966
2.16666
2.16002
2.15279
2.1417
2.13124
2.11791
2.10628
2.09248
2.08082
2.06708
2.05555
2.04207
2.03092
2.01782
2.00712
1.99457
1.98482
1.97321
1.96483
1.95414
1.94712
1.93724
1.93121
1.92211
1.91667
1.90827
1.90342
1.89559
1.89104
1.88399
1.87927
1.87351
1.8683
1.86332
1.85867
1.85309
1.8494
1.84315
1.84355
2.09376
2.03989
1.98205
1.9224
1.86708
1.8125
1.76343
1.7155
1.67355
1.63324
1.59893
1.56693
1.5408
1.51774
1.50438
1.49337
1.4926
1.49436
1.49948
1.50508
1.51425
1.52592
1.53647
1.54654
1.55382
1.55977
1.56293
1.56507
1.56733
1.57034
1.57408
1.58137
1.59916
1.6304
1.70856
1.81955
1.9706
2.04151
2.06217
2.05484
2.04697
2.03577
2.02212
2.00509
1.99169
1.98137
1.96949
1.97676
1.99442
2.03001
2.07982
2.13241
2.17034
2.19551
2.19749
2.19449
2.18858
2.17544
2.16376
2.15586
2.14785
2.14116
2.13154
2.12117
2.10549
2.09003
2.07166
2.05509
2.03731
2.02267
2.00755
1.99593
1.98382
1.97508
1.96557
1.95897
1.95098
1.9455
1.93817
1.93339
1.92649
1.92241
1.91573
1.91223
1.90553
1.90217
1.89541
1.89197
1.88503
1.88148
1.87422
1.87041
1.86256
1.85773
1.84983
1.84238
1.83429
1.82535
1.81717
1.81068
2.09215
2.04007
1.98617
1.92944
1.87631
1.82408
1.77684
1.73141
1.6906
1.65233
1.61851
1.58752
1.56114
1.53827
1.51909
1.50697
1.49799
1.49664
1.49863
1.50287
1.51165
1.51768
1.52628
1.5371
1.54472
1.55249
1.55779
1.56102
1.56394
1.56688
1.57346
1.58817
1.61708
1.68606
1.79647
1.95207
2.02535
2.04723
2.03988
2.02847
2.01042
1.99232
1.96744
1.94674
1.92021
1.90096
1.89481
1.89725
1.90638
1.92851
1.96133
2.00284
2.06003
2.11702
2.16056
2.19133
2.18744
2.17922
2.16811
2.14558
2.12186
2.10164
2.08244
2.06677
2.05179
2.03995
2.02625
2.01552
2.00303
1.99342
1.98261
1.97465
1.96544
1.95896
1.95101
1.94556
1.93865
1.93421
1.92811
1.92444
1.91857
1.91517
1.90907
1.90562
1.89905
1.89554
1.88835
1.88446
1.87627
1.87166
1.86184
1.85627
1.84451
1.83795
1.82487
1.81624
1.8039
1.79355
1.78329
1.77551
2.10137
2.04779
1.99556
1.94127
1.88956
1.83936
1.79407
1.75148
1.71329
1.67754
1.64591
1.61719
1.59211
1.5707
1.55224
1.53731
1.52618
1.51873
1.51482
1.5143
1.51563
1.51968
1.52304
1.52704
1.53245
1.54
1.54503
1.55152
1.55621
1.56322
1.57623
1.60366
1.66348
1.77315
1.92403
2.00085
2.0263
2.02046
2.00461
1.98713
1.96405
1.94489
1.91855
1.89453
1.8768
1.86809
1.86321
1.86423
1.8685
1.87648
1.88677
1.90903
1.93985
1.98032
2.03189
2.0887
2.12703
2.14929
2.13905
2.12412
2.10596
2.07711
2.05072
2.03255
2.01803
2.009
2.00064
1.99536
1.98801
1.98308
1.9749
1.96915
1.96092
1.95533
1.94761
1.9426
1.93558
1.93115
1.92478
1.92094
1.91475
1.91115
1.90462
1.90076
1.8933
1.88843
1.87937
1.87328
1.86233
1.85524
1.84248
1.83457
1.82036
1.81209
1.79715
1.78886
1.77458
1.7663
1.75502
1.74951
2.12868
2.07496
2.02231
1.96916
1.91917
1.87104
1.82724
1.78614
1.74972
1.71555
1.68594
1.65835
1.63491
1.61338
1.59488
1.57843
1.56324
1.55041
1.539
1.53063
1.52391
1.51962
1.51767
1.51762
1.51819
1.52061
1.52479
1.53121
1.5402
1.55335
1.58007
1.63191
1.74164
1.88368
1.9725
2.0033
1.99868
1.98478
1.96338
1.94604
1.92588
1.90404
1.88534
1.87327
1.8634
1.85783
1.8523
1.85102
1.84828
1.84868
1.8511
1.85517
1.85987
1.87382
1.89552
1.92377
1.96459
2.01308
2.05382
2.08055
2.0748
2.06584
2.05456
2.03192
2.0118
1.99961
1.98888
1.98291
1.97613
1.97245
1.96653
1.96294
1.95596
1.95152
1.94393
1.93909
1.93165
1.92702
1.91987
1.91536
1.90831
1.90376
1.89605
1.89074
1.8815
1.8748
1.86377
1.85553
1.84294
1.83383
1.82023
1.81112
1.79716
1.78868
1.77479
1.76736
1.75397
1.74792
1.7366
1.73397
2.14659
2.10395
2.05921
2.01067
1.96324
1.91624
1.87347
1.83238
1.79665
1.76273
1.73325
1.70554
1.68127
1.65803
1.63739
1.61661
1.59826
1.57886
1.56173
1.54445
1.53088
1.51914
1.51007
1.50518
1.50163
1.50192
1.50384
1.50971
1.5221
1.54879
1.59721
1.70267
1.83034
1.94155
1.97887
1.97678
1.96073
1.94343
1.92993
1.91321
1.89536
1.88459
1.87422
1.86774
1.86023
1.85501
1.84891
1.84502
1.83708
1.83233
1.82252
1.81541
1.80744
1.80168
1.7967
1.80473
1.82417
1.85503
1.90105
1.957
2.00991
2.04715
2.04685
2.04078
2.03108
2.01033
1.99031
1.9788
1.96726
1.96073
1.95272
1.94877
1.94252
1.93916
1.93245
1.92842
1.92067
1.91579
1.90778
1.90236
1.89359
1.88723
1.87755
1.87025
1.85936
1.85129
1.83949
1.83096
1.81858
1.80993
1.7975
1.78937
1.77725
1.77001
1.75826
1.75205
1.74077
1.7359
1.72584
1.72538
2.14555
2.11162
2.07526
2.03596
1.9949
1.95339
1.91318
1.87499
1.83902
1.80624
1.77515
1.74685
1.71917
1.69368
1.66784
1.64409
1.61963
1.59754
1.57499
1.55502
1.53554
1.51827
1.505
1.49498
1.48921
1.48956
1.49211
1.50047
1.52037
1.56314
1.65369
1.78154
1.89916
1.95293
1.95163
1.94078
1.92757
1.91793
1.9036
1.89232
1.88368
1.87875
1.87148
1.86694
1.85919
1.85385
1.84525
1.83613
1.82414
1.81093
1.79329
1.78015
1.76245
1.75217
1.74608
1.74685
1.75093
1.76319
1.78818
1.82113
1.86716
1.92457
1.98137
2.02447
2.02309
2.01556
2.00479
1.98439
1.96244
1.94963
1.93656
1.92911
1.9197
1.91492
1.90742
1.90364
1.8961
1.89133
1.88235
1.87634
1.86656
1.85951
1.84894
1.8416
1.8309
1.82345
1.81248
1.80509
1.79424
1.78724
1.77667
1.77019
1.75992
1.75404
1.74404
1.73886
1.72917
1.72501
1.71628
1.71665
2.1312
2.10553
2.07446
2.04086
2.00552
1.96992
1.93401
1.89936
1.86523
1.8331
1.80118
1.77156
1.74131
1.71363
1.68423
1.65895
1.63067
1.60767
1.58231
1.56091
1.54021
1.52084
1.50504
1.4909
1.48501
1.48599
1.49094
1.50565
1.53924
1.61718
1.73579
1.85649
1.91996
1.92506
1.91948
1.91354
1.90441
1.89731
1.88843
1.88427
1.87957
1.87638
1.86995
1.86435
1.85431
1.84456
1.83115
1.81798
1.80004
1.78484
1.76665
1.75215
1.73745
1.72951
1.72129
1.71743
1.71655
1.71843
1.72339
1.73407
1.75645
1.78698
1.82904
1.88466
1.94386
1.98931
1.98801
1.97944
1.96805
1.94843
1.92605
1.91293
1.89902
1.89069
1.87978
1.87376
1.86507
1.86061
1.85187
1.84679
1.83747
1.83208
1.82254
1.81667
1.80701
1.8012
1.7916
1.78576
1.77605
1.77035
1.76073
1.7553
1.74576
1.74062
1.73114
1.72638
1.71702
1.71294
1.7043
1.70451
2.12167
2.09233
2.06438
2.03547
2.00413
1.97131
1.9389
1.9063
1.87459
1.84282
1.81186
1.78154
1.75078
1.72307
1.69179
1.66682
1.63694
1.61329
1.58793
1.56464
1.54506
1.5232
1.50878
1.4934
1.49002
1.49257
1.50266
1.53022
1.58987
1.70297
1.82525
1.8916
1.90986
1.90692
1.90459
1.90033
1.89282
1.88679
1.88041
1.87714
1.87126
1.86673
1.85881
1.84916
1.83587
1.82368
1.80711
1.79289
1.77696
1.7627
1.74776
1.73734
1.72553
1.71868
1.70854
1.70244
1.6949
1.69024
1.68672
1.68751
1.69055
1.69748
1.71506
1.74264
1.78146
1.83477
1.89744
1.94681
1.94977
1.94192
1.93093
1.9134
1.89208
1.87804
1.86369
1.85473
1.84329
1.83682
1.82793
1.82322
1.81494
1.81041
1.80241
1.79824
1.78992
1.78551
1.77664
1.77204
1.76283
1.7581
1.74871
1.74395
1.7344
1.72957
1.7199
1.71509
1.70542
1.70103
1.69206
1.6909
2.11945
2.08766
2.05796
2.02795
1.99723
1.96694
1.93637
1.90502
1.8758
1.84416
1.81543
1.78574
1.75478
1.72773
1.69634
1.67007
1.64245
1.61528
1.59351
1.56708
1.54929
1.52733
1.51256
1.50288
1.50368
1.51045
1.53157
1.58764
1.68132
1.80768
1.87969
1.90748
1.90351
1.90333
1.90043
1.89351
1.88344
1.8753
1.86587
1.85957
1.85304
1.84715
1.83527
1.82385
1.80933
1.79599
1.78196
1.77048
1.75629
1.74577
1.73364
1.72443
1.71338
1.7054
1.69383
1.68666
1.67555
1.66832
1.65985
1.65423
1.6493
1.6494
1.65136
1.65614
1.6704
1.69696
1.73413
1.78516
1.85229
1.90496
1.9144
1.9074
1.89718
1.88112
1.86182
1.84782
1.83338
1.82384
1.81272
1.80638
1.79743
1.79274
1.78473
1.78068
1.77331
1.76945
1.76161
1.75744
1.749
1.74462
1.73574
1.73117
1.72195
1.71727
1.70781
1.70304
1.69346
1.6886
1.67983
1.67764
2.10961
2.08584
2.05642