/*--------------------------------*- C++ -*----------------------------------*\
| =========                 |                                                 |
| \\      /  F ield         | OpenFOAM: The Open Source CFD Toolbox           |
|  \\    /   O peration     | Version:  2412                                  |
|   \\  /    A nd           | Website:  www.openfoam.com                      |
|    \\/     M anipulation  |                                                 |
\*---------------------------------------------------------------------------*/
FoamFile
{
    version     2.0;
    format      ascii;
    arch        "LSB;label=32;scalar=64";
    class       volVectorField;
    location    "2";
    object      U;
}
// * * * * * * * * * * * * * * * * * * * * * * * * * * * * * * * * * * * * * //

dimensions      [0 1 -1 0 0 0 0];

internalField   nonuniform List<vector> 
7000
(
(3 1.28434e-10 0)
(3 -5.60781e-11 0)
(3 5.92357e-10 0)
(3 -3.81987e-10 0)
(3 3.12539e-09 0)
(3 -1.36696e-09 0)
(3 2.24601e-08 0)
(3 -1.11473e-08 0)
(3 1.09351e-07 0)
(3 -4.55678e-08 0)
(3 7.96368e-07 0)
(2.99999 -4.76111e-07 0)
(2.99999 3.32512e-06 0)
(2.99997 -2.06362e-06 0)
(2.99995 2.83499e-05 0)
(2.99982 -2.67351e-05 0)
(2.99971 4.45689e-06 0)
(2.999 -1.53181e-05 0)
(2.99833 -5.00414e-06 0)
(2.9943 -8.17434e-05 0)
(2.98836 4.98021e-05 0)
(2.96003 -8.15785e-05 0)
(2.93986 0.000154223 0)
(2.71069 0.000212062 0)
(2.15137 0.000203203 0)
(1.29513 0.00151871 0)
(0.562128 0.00178043 0)
(0.634103 0.00284085 0)
(0.722861 0.00379053 0)
(0.767856 0.00449408 0)
(0.765581 0.00500349 0)
(0.742261 0.00549241 0)
(0.705052 0.00596358 0)
(0.668459 0.00652301 0)
(0.637291 0.00716571 0)
(0.607409 0.00784084 0)
(0.575856 0.00851244 0)
(0.542162 0.00918302 0)
(0.506811 0.00987616 0)
(0.470348 0.0106247 0)
(0.431753 0.0114667 0)
(0.390266 0.0124022 0)
(0.346709 0.0134367 0)
(0.301012 0.0145189 0)
(0.252968 0.0155475 0)
(0.204649 0.0163214 0)
(0.157956 0.0165179 0)
(0.111096 0.0160295 0)
(0.061735 0.0150945 0)
(0.0255509 0.0137823 0)
(3 -3.41466e-11 0)
(3 -7.3719e-11 0)
(3 -2.25836e-10 0)
(3 -5.41851e-10 0)
(3 -1.19733e-09 0)
(3 -2.40451e-09 0)
(3 -5.94948e-09 0)
(3 -1.61034e-08 0)
(3 -2.84429e-08 0)
(3 -5.7622e-08 0)
(3 -1.08381e-07 0)
(3 -4.00679e-07 0)
(2.99999 -4.61772e-07 0)
(2.99998 -1.25681e-06 0)
(2.99993 -1.25374e-06 0)
(2.99981 -5.80737e-06 0)
(2.99972 -4.88032e-06 0)
(2.999 -7.22493e-06 0)
(2.99829 -2.4939e-06 0)
(2.99433 -9.10849e-05 0)
(2.98837 0.000143099 0)
(2.9601 8.44731e-05 0)
(2.93999 0.000643887 0)
(2.7107 0.00187599 0)
(2.15218 0.00157193 0)
(1.29507 0.00634626 0)
(0.558552 0.00690287 0)
(0.631866 0.009154 0)
(0.721666 0.011308 0)
(0.767147 0.01329 0)
(0.765116 0.0148935 0)
(0.74188 0.0163994 0)
(0.704638 0.0177833 0)
(0.667999 0.0192707 0)
(0.636792 0.0208677 0)
(0.606914 0.0224832 0)
(0.575415 0.0240612 0)
(0.541791 0.0256268 0)
(0.506461 0.0272333 0)
(0.469934 0.0289339 0)
(0.43119 0.0307609 0)
(0.389556 0.0326653 0)
(0.345996 0.0346247 0)
(0.300582 0.036505 0)
(0.25322 0.0381361 0)
(0.205928 0.0392161 0)
(0.160353 0.0392876 0)
(0.114461 0.0381569 0)
(0.0652978 0.0363146 0)
(0.0274292 0.0336889 0)
(3 -1.99014e-10 0)
(3 -8.38392e-11 0)
(3 -1.08587e-09 0)
(3 -5.62432e-10 0)
(3 -5.79422e-09 0)
(3 -3.62158e-09 0)
(3 -3.59308e-08 0)
(3 -1.49628e-08 0)
(3 -1.74829e-07 0)
(3 -7.83049e-08 0)
(3 -1.08598e-06 0)
(2.99999 -1.32143e-07 0)
(2.99999 -4.56302e-06 0)
(2.99997 -4.78259e-07 0)
(2.99994 -3.21841e-05 0)
(2.99982 1.81126e-05 0)
(2.99971 -1.27708e-05 0)
(2.99901 3.53334e-06 0)
(2.99828 9.68777e-06 0)
(2.99438 2.78604e-05 0)
(2.98847 0.000181253 0)
(2.96035 0.000353409 0)
(2.94086 0.00111125 0)
(2.71127 0.00324238 0)
(2.15556 0.00301455 0)
(1.29996 0.0102432 0)
(0.561938 0.0114718 0)
(0.635258 0.0152509 0)
(0.724258 0.0189799 0)
(0.769147 0.0223346 0)
(0.766695 0.0251424 0)
(0.743259 0.0277787 0)
(0.705974 0.0302459 0)
(0.669381 0.0328297 0)
(0.638129 0.0355693 0)
(0.608069 0.0383661 0)
(0.576302 0.0411482 0)
(0.542384 0.0439464 0)
(0.506771 0.0468311 0)
(0.469992 0.0498837 0)
(0.431046 0.0531253 0)
(0.389335 0.0564679 0)
(0.345869 0.0598343 0)
(0.300736 0.0629783 0)
(0.253862 0.0656169 0)
(0.207154 0.0673124 0)
(0.162084 0.0675466 0)
(0.116625 0.0661331 0)
(0.067422 0.0636855 0)
(0.0284916 0.060451 0)
(3 -6.44713e-11 0)
(3 -1.28761e-10 0)
(3 -4.50437e-10 0)
(3 -7.54413e-10 0)
(3 -2.52365e-09 0)
(3 -4.4104e-09 0)
(3 -1.28191e-08 0)
(3 -1.89722e-08 0)
(3 -6.19309e-08 0)
(3 -1.09746e-07 0)
(3 -2.94737e-07 0)
(2.99999 -4.00483e-07 0)
(2.99999 -1.21019e-06 0)
(2.99997 -2.07975e-06 0)
(2.99994 -3.95373e-06 0)
(2.99982 -5.00423e-06 0)
(2.99971 -3.5681e-06 0)
(2.99901 -4.6996e-06 0)
(2.99831 3.00955e-05 0)
(2.99444 6.60973e-05 0)
(2.98857 0.000273261 0)
(2.96069 0.000592614 0)
(2.94169 0.00168035 0)
(2.7119 0.00418663 0)
(2.15867 0.00463871 0)
(1.30311 0.0134705 0)
(0.558109 0.0158123 0)
(0.632618 0.0215123 0)
(0.722605 0.0271663 0)
(0.768149 0.0320113 0)
(0.766244 0.0360612 0)
(0.743257 0.0398083 0)
(0.706333 0.0433474 0)
(0.670067 0.047039 0)
(0.639005 0.0509454 0)
(0.608973 0.0549432 0)
(0.577137 0.0589272 0)
(0.543106 0.0629281 0)
(0.50736 0.0670382 0)
(0.470438 0.0713709 0)
(0.431348 0.075941 0)
(0.389586 0.0806286 0)
(0.3462 0.0852922 0)
(0.30127 0.0895891 0)
(0.254713 0.0931422 0)
(0.208327 0.0954233 0)
(0.163455 0.0959312 0)
(0.11816 0.0945259 0)
(0.0688092 0.0918751 0)
(0.0291233 0.0885324 0)
(3 -4.3987e-11 0)
(3 -9.41075e-11 0)
(3 -2.97963e-10 0)
(3 -5.58671e-10 0)
(3 -1.6514e-09 0)
(3 -2.86499e-09 0)
(3 -8.08286e-09 0)
(3 -1.37414e-08 0)
(3 -3.66931e-08 0)
(3 -6.37704e-08 0)
(3 -1.57451e-07 0)
(2.99999 -2.6855e-07 0)
(2.99999 -5.49323e-07 0)
(2.99997 -9.95402e-07 0)
(2.99994 -1.31934e-06 0)
(2.99982 -2.01156e-06 0)
(2.99971 3.72003e-06 0)
(2.99903 5.04456e-06 0)
(2.99832 5.99117e-05 0)
(2.99454 0.000108072 0)
(2.98882 0.0004501 0)
(2.96126 0.000982816 0)
(2.94305 0.00248167 0)
(2.71306 0.00610724 0)
(2.16319 0.00713479 0)
(1.3085 0.0186689 0)
(0.555959 0.0222508 0)
(0.630787 0.0286469 0)
(0.720929 0.034939 0)
(0.766805 0.0410475 0)
(0.765394 0.0464851 0)
(0.742902 0.0515555 0)
(0.706373 0.0563515 0)
(0.670471 0.06133 0)
(0.639674 0.0665715 0)
(0.609798 0.0719241 0)
(0.578051 0.0772592 0)
(0.544073 0.0826011 0)
(0.508331 0.0880558 0)
(0.471347 0.0937529 0)
(0.432135 0.0996915 0)
(0.390293 0.10573 0)
(0.34691 0.111649 0)
(0.30206 0.117025 0)
(0.255652 0.12141 0)
(0.209399 0.124221 0)
(0.164545 0.12502 0)
(0.119271 0.123741 0)
(0.069742 0.12107 0)
(0.0294993 0.117828 0)
(3 -2.39143e-11 0)
(3 -4.15307e-11 0)
(3 -1.99858e-10 0)
(3 -3.28227e-10 0)
(3 -9.48257e-10 0)
(3 -1.65188e-09 0)
(3 -4.26796e-09 0)
(3 -7.35266e-09 0)
(3 -1.69813e-08 0)
(3 -2.92485e-08 0)
(3 -5.43694e-08 0)
(2.99999 -9.35044e-08 0)
(2.99999 -6.85392e-08 0)
(2.99997 -1.18364e-07 0)
(2.99994 8.50339e-07 0)
(2.99982 1.64411e-06 0)
(2.99971 1.10386e-05 0)
(2.99905 1.61056e-05 0)
(2.99838 8.57446e-05 0)
(2.9947 0.000145349 0)
(2.98916 0.000634073 0)
(2.96205 0.00125426 0)
(2.94495 0.00326169 0)
(2.71472 0.0077977 0)
(2.16918 0.00959732 0)
(1.31651 0.0240166 0)
(0.556781 0.0296615 0)
(0.631145 0.0370305 0)
(0.720293 0.0437015 0)
(0.765609 0.0509059 0)
(0.763853 0.0576504 0)
(0.741403 0.0640639 0)
(0.705204 0.0701071 0)
(0.669824 0.0763918 0)
(0.63948 0.0829767 0)
(0.609916 0.0896783 0)
(0.578405 0.0963743 0)
(0.544634 0.103098 0)
(0.509062 0.109959 0)
(0.472169 0.117099 0)
(0.432961 0.124477 0)
(0.391127 0.131916 0)
(0.347778 0.139116 0)
(0.302979 0.145573 0)
(0.256636 0.150783 0)
(0.210405 0.15414 0)
(0.165462 0.155271 0)
(0.120122 0.15421 0)
(0.0703785 0.151644 0)
(0.0296905 0.148651 0)
(3 -1.37004e-11 0)
(3 -2.19741e-11 0)
(3 -1.30159e-10 0)
(3 -2.04465e-10 0)
(3 -5.80706e-10 0)
(3 -1.02114e-09 0)
(3 -2.44923e-09 0)
(3 -4.27192e-09 0)
(3 -8.31518e-09 0)
(3 -1.44003e-08 0)
(3 -1.37042e-08 0)
(2.99999 -2.39703e-08 0)
(2.99999 1.09753e-07 0)
(2.99997 1.91363e-07 0)
(2.99994 1.63486e-06 0)
(2.99983 2.99337e-06 0)
(2.99972 1.49443e-05 0)
(2.99908 2.18023e-05 0)
(2.99841 0.000103515 0)
(2.99492 0.000138954 0)
(2.98959 0.000799801 0)
(2.96307 0.0013824 0)
(2.94739 0.00400002 0)
(2.71692 0.0093587 0)
(2.17673 0.0120371 0)
(1.32653 0.0290811 0)
(0.558803 0.0369401 0)
(0.632825 0.0457831 0)
(0.720706 0.0531096 0)
(0.764942 0.0610843 0)
(0.761912 0.068712 0)
(0.738592 0.0762523 0)
(0.702142 0.0835309 0)
(0.667145 0.0912868 0)
(0.637368 0.0994593 0)
(0.608367 0.107749 0)
(0.577406 0.115996 0)
(0.544164 0.124253 0)
(0.509068 0.132643 0)
(0.472527 0.141344 0)
(0.433525 0.150264 0)
(0.391861 0.159182 0)
(0.348659 0.167717 0)
(0.303958 0.175292 0)
(0.257675 0.181362 0)
(0.211419 0.185317 0)
(0.166329 0.186851 0)
(0.120866 0.186094 0)
(0.0708967 0.183733 0)
(0.029824 0.181077 0)
(3 -5.90316e-12 0)
(3 -1.73164e-11 0)
(3 -4.33191e-11 0)
(3 -1.11122e-10 0)
(3 -3.56773e-10 0)
(3 -5.94298e-10 0)
(3 -1.51518e-09 0)
(3 -2.52436e-09 0)
(3 -4.4565e-09 0)
(3 -6.01806e-09 0)
(3 3.14827e-09 0)
(2.99999 1.09218e-08 0)
(2.99999 1.68886e-07 0)
(2.99997 3.6491e-07 0)
(2.99995 1.90833e-06 0)
(2.99983 3.85921e-06 0)
(2.99973 1.62928e-05 0)
(2.99911 2.4971e-05 0)
(2.99846 9.94472e-05 0)
(2.99519 0.000140371 0)
(2.99005 0.000780305 0)
(2.96434 0.00135588 0)
(2.95043 0.00437562 0)
(2.71964 0.0107374 0)
(2.18573 0.0151137 0)
(1.33813 0.0349944 0)
(0.560431 0.0461478 0)
(0.634168 0.0574018 0)
(0.720769 0.0658681 0)
(0.763684 0.0742926 0)
(0.758718 0.082233 0)
(0.733557 0.0902996 0)
(0.695886 0.0982888 0)
(0.660682 0.107023 0)
(0.631346 0.116419 0)
(0.603177 0.126101 0)
(0.5733 0.135859 0)
(0.541243 0.145717 0)
(0.507286 0.155779 0)
(0.471676 0.166223 0)
(0.433337 0.176863 0)
(0.392204 0.187416 0)
(0.349405 0.197409 0)
(0.304971 0.206198 0)
(0.258832 0.213203 0)
(0.212575 0.217827 0)
(0.167314 0.219832 0)
(0.121676 0.219456 0)
(0.0714197 0.21738 0)
(0.0299318 0.215105 0)
(3 2.0458e-13 0)
(3 -6.89926e-12 0)
(3 -7.18003e-11 0)
(3 -2.02376e-10 0)
(3 -6.52705e-10 0)
(3 -8.32151e-10 0)
(3 -3.90458e-09 0)
(3 -8.78117e-09 0)
(3 -2.15304e-08 0)
(3 -2.7687e-08 0)
(3 -1.06665e-07 0)
(2.99999 -2.30567e-07 0)
(2.99999 -5.43663e-07 0)
(2.99997 -6.27293e-07 0)
(2.99995 -2.25544e-06 0)
(2.99984 -4.72457e-06 0)
(2.99973 -8.1634e-06 0)
(2.99914 -2.66306e-05 0)
(2.9985 -9.1625e-06 0)
(2.99542 -6.1329e-07 0)
(2.9905 0.00040634 0)
(2.96577 0.00106834 0)
(2.95412 0.00455141 0)
(2.72404 0.0103439 0)
(2.1987 0.0181839 0)
(1.35297 0.0360124 0)
(0.564951 0.0528069 0)
(0.638149 0.0683401 0)
(0.723388 0.0792421 0)
(0.765525 0.0883719 0)
(0.759383 0.0967786 0)
(0.732758 0.105418 0)
(0.693653 0.114118 0)
(0.657549 0.123603 0)
(0.627708 0.13389 0)
(0.599426 0.144685 0)
(0.569862 0.155801 0)
(0.53846 0.167245 0)
(0.505364 0.179101 0)
(0.47059 0.191493 0)
(0.432943 0.204079 0)
(0.392461 0.216497 0)
(0.350214 0.228148 0)
(0.306169 0.238314 0)
(0.260256 0.246389 0)
(0.214022 0.251796 0)
(0.168563 0.254381 0)
(0.122688 0.254474 0)
(0.0720761 0.252771 0)
(0.0300974 0.250922 0)
(3 2.64678e-10 0)
(3 -1.79935e-10 0)
(3 4.70262e-10 0)
(3 -1.67891e-09 0)
(3 2.07686e-09 0)
(3 -9.65833e-09 0)
(3 8.60299e-09 0)
(3 -5.31443e-08 0)
(3 5.15117e-08 0)
(3 -2.83448e-07 0)
(3 2.51995e-07 0)
(2.99999 -1.50688e-06 0)
(2.99999 7.23742e-07 0)
(2.99997 -8.51448e-06 0)
(2.99994 8.82663e-06 0)
(2.99983 -3.27282e-05 0)
(2.99971 8.80331e-05 0)
(2.99911 0.000299526 0)
(2.99848 -0.000711874 0)
(2.99551 -0.00384912 0)
(2.99089 -0.00186965 0)
(2.96762 -0.00533326 0)
(2.95741 0.00670934 0)
(2.72868 0.0264792 0)
(2.20477 0.0307801 0)
(1.36006 0.0380422 0)
(0.570753 0.0623197 0)
(0.642715 0.0813165 0)
(0.725534 0.0946282 0)
(0.766792 0.104164 0)
(0.760561 0.112883 0)
(0.733757 0.121993 0)
(0.694217 0.13143 0)
(0.657709 0.141633 0)
(0.627417 0.152652 0)
(0.59871 0.164328 0)
(0.568897 0.17658 0)
(0.537513 0.189448 0)
(0.504711 0.203043 0)
(0.470319 0.217412 0)
(0.433085 0.232015 0)
(0.393156 0.246429 0)
(0.351462 0.259881 0)
(0.307854 0.271585 0)
(0.262214 0.280911 0)
(0.216019 0.287288 0)
(0.170315 0.290618 0)
(0.12411 0.291331 0)
(0.072994 0.290111 0)
(0.030356 0.288752 0)
(3 2.62052e-10 0)
(3 -3.33052e-10 0)
(3 2.67188e-10 0)
(3 -2.61766e-09 0)
(3 3.76453e-10 0)
(3 -1.59807e-08 0)
(3 1.81365e-10 0)
(3 -8.6975e-08 0)
(3 -6.76414e-09 0)
(3 -5.14122e-07 0)
(3 -1.02231e-07 0)
(2.99999 -2.84919e-06 0)
(2.99998 -1.06334e-06 0)
(2.99998 -1.73938e-05 0)
(2.99993 -5.91487e-06 0)
(2.9999 -9.58285e-05 0)
(3.00001 -6.19389e-05 0)
(2.99849 -0.000547663 0)
(2.99511 -0.000628924 0)
(2.99446 -0.00383213 0)
(2.98929 -0.00157248 0)
(2.97241 -0.00489469 0)
(2.97777 0.00627204 0)
(2.73565 0.0257935 0)
(2.17996 0.0323358 0)
(1.34935 0.0425148 0)
(0.575709 0.0720201 0)
(0.644728 0.0941308 0)
(0.724763 0.109278 0)
(0.764901 0.119621 0)
(0.759234 0.129127 0)
(0.733191 0.139017 0)
(0.694168 0.149467 0)
(0.658 0.160612 0)
(0.62782 0.172501 0)
(0.599055 0.185115 0)
(0.569142 0.198491 0)
(0.537746 0.212733 0)
(0.505106 0.228008 0)
(0.470887 0.244351 0)
(0.433917 0.260876 0)
(0.394505 0.277359 0)
(0.353375 0.292738 0)
(0.310264 0.306147 0)
(0.264953 0.316928 0)
(0.218806 0.324494 0)
(0.172801 0.328793 0)
(0.126128 0.33031 0)
(0.0743369 0.329721 0)
(0.030804 0.32888 0)
(3 -6.73827e-13 0)
(3 -1.77395e-10 0)
(3 -3.21563e-10 0)
(3 -1.29064e-09 0)
(3 -2.55995e-09 0)
(3 -7.96907e-09 0)
(3 -1.35411e-08 0)
(3 -4.60735e-08 0)
(3 -8.61209e-08 0)
(3 -2.6929e-07 0)
(3 -4.84548e-07 0)
(2.99999 -1.56378e-06 0)
(2.99998 -2.25254e-06 0)
(2.99996 -8.5351e-06 0)
(2.99988 -1.83864e-05 0)
(2.99978 -6.04227e-05 0)
(2.99932 -0.000145382 0)
(2.99866 -0.000804044 0)
(2.99582 0.000202253 0)
(2.99474 0.000663205 0)
(2.99013 0.00141894 0)
(2.97426 0.00284956 0)
(2.9806 0.00605014 0)
(2.7413 0.011334 0)
(2.19036 0.0236371 0)
(1.36039 0.0515671 0)
(0.580939 0.0874952 0)
(0.645505 0.108894 0)
(0.721103 0.123608 0)
(0.759795 0.134633 0)
(0.754588 0.145246 0)
(0.729517 0.156141 0)
(0.691484 0.167695 0)
(0.656198 0.179978 0)
(0.626771 0.192967 0)
(0.598588 0.206703 0)
(0.569112 0.221323 0)
(0.538114 0.237011 0)
(0.505949 0.253979 0)
(0.471969 0.272236 0)
(0.435373 0.290744 0)
(0.396736 0.309335 0)
(0.3563 0.326737 0)
(0.313784 0.342051 0)
(0.268863 0.354562 0)
(0.222763 0.363645 0)
(0.176351 0.369228 0)
(0.129028 0.371855 0)
(0.0762346 0.372108 0)
(0.0314467 0.371929 0)
(3 -1.64066e-12 0)
(3 2.13762e-11 0)
(3 4.13671e-11 0)
(3 1.55302e-10 0)
(3 2.64125e-10 0)
(3 1.04743e-09 0)
(3 1.85689e-09 0)
(3 7.98116e-09 0)
(3 1.39636e-08 0)
(3 6.16939e-08 0)
(3 1.0981e-07 0)
(2.99999 4.69518e-07 0)
(2.99998 8.95642e-07 0)
(2.99996 3.619e-06 0)
(2.99988 5.99375e-06 0)
(2.9998 2.59429e-05 0)
(2.99938 4.84144e-05 0)
(2.99879 0.000191441 0)
(2.99638 0.000363527 0)
(2.99552 0.00139266 0)
(2.99115 0.00212472 0)
(2.97659 0.00376176 0)
(2.98484 0.00698169 0)
(2.74734 0.0124549 0)
(2.21691 0.0264808 0)
(1.39832 0.0621034 0)
(0.598156 0.109611 0)
(0.650506 0.125436 0)
(0.72093 0.138094 0)
(0.757788 0.149661 0)
(0.752029 0.161484 0)
(0.726879 0.173554 0)
(0.689172 0.186195 0)
(0.654398 0.199635 0)
(0.625514 0.213816 0)
(0.597889 0.228789 0)
(0.568983 0.244772 0)
(0.538604 0.262018 0)
(0.507124 0.280777 0)
(0.473654 0.300838 0)
(0.437754 0.321524 0)
(0.400115 0.342246 0)
(0.36058 0.361774 0)
(0.318833 0.379227 0)
(0.274407 0.393824 0)
(0.228358 0.404857 0)
(0.181432 0.412214 0)
(0.133181 0.416384 0)
(0.079032 0.417885 0)
(0.0324969 0.418572 0)
(3 -5.62997e-12 0)
(3 1.34065e-10 0)
(3 2.69633e-10 0)
(3 1.0279e-09 0)
(3 1.84005e-09 0)
(3 6.16693e-09 0)
(3 1.08451e-08 0)
(3 3.5663e-08 0)
(3 6.25474e-08 0)
(3 2.04691e-07 0)
(3 3.57356e-07 0)
(2.99999 1.17692e-06 0)
(2.99998 2.00636e-06 0)
(2.99997 6.52886e-06 0)
(2.9999 1.30429e-05 0)
(2.99982 3.86112e-05 0)
(2.99946 6.5685e-05 0)
(2.99894 0.000226162 0)
(2.99689 0.000417025 0)
(2.99632 0.00127978 0)
(2.99222 0.00211473 0)
(2.97879 0.00383978 0)
(2.98796 0.00695129 0)
(2.75611 0.0107648 0)
(2.24804 0.0308841 0)
(1.44509 0.0699713 0)
(0.619879 0.131469 0)
(0.652759 0.143539 0)
(0.719967 0.154214 0)
(0.755957 0.16599 0)
(0.749774 0.178652 0)
(0.72444 0.19172 0)
(0.686973 0.205361 0)
(0.652742 0.219812 0)
(0.62448 0.235079 0)
(0.597524 0.251271 0)
(0.569348 0.268663 0)
(0.5398 0.287549 0)
(0.509117 0.308199 0)
(0.476455 0.330102 0)
(0.441651 0.353023 0)
(0.405208 0.375985 0)
(0.366795 0.397865 0)
(0.325994 0.41779 0)
(0.28217 0.434945 0)
(0.236205 0.448494 0)
(0.188637 0.458251 0)
(0.139176 0.46463 0)
(0.0830885 0.467962 0)
(0.0340418 0.469894 0)
(3 -4.46931e-12 0)
(3 1.97038e-10 0)
(3 4.0363e-10 0)
(3 1.51214e-09 0)
(3 2.7016e-09 0)
(3 8.85457e-09 0)
(3 1.54796e-08 0)
(3 4.95687e-08 0)
(3 8.63723e-08 0)
(3 2.74602e-07 0)
(3 4.78398e-07 0)
(2.99999 1.51355e-06 0)
(2.99998 2.65674e-06 0)
(2.99997 8.49616e-06 0)
(2.99991 1.36462e-05 0)
(2.99985 4.6281e-05 0)
(2.99955 7.86609e-05 0)
(2.99912 0.00025144 0)
(2.99735 0.000460855 0)
(2.99709 0.0013562 0)
(2.9935 0.00216054 0)
(2.98125 0.00392985 0)
(2.99109 0.00714676 0)
(2.76623 0.010664 0)
(2.28777 0.0335647 0)
(1.50576 0.0797024 0)
(0.653912 0.154689 0)
(0.660238 0.165655 0)
(0.724488 0.173808 0)
(0.7593 0.184732 0)
(0.751879 0.197503 0)
(0.725556 0.210989 0)
(0.687646 0.22534 0)
(0.653371 0.240609 0)
(0.625308 0.256845 0)
(0.598782 0.27421 0)
(0.571266 0.292996 0)
(0.542619 0.313525 0)
(0.512795 0.336003 0)
(0.481166 0.359903 0)
(0.447809 0.385046 0)
(0.412806 0.410371 0)
(0.375735 0.434887 0)
(0.336071 0.457749 0)
(0.292997 0.478123 0)
(0.247154 0.495001 0)
(0.198856 0.508083 0)
(0.147826 0.517623 0)
(0.0891614 0.523705 0)
(0.0365161 0.527514 0)
(3 -5.61908e-12 0)
(3 2.17979e-10 0)
(3 4.43316e-10 0)
(3 1.65476e-09 0)
(3 2.94975e-09 0)
(3 9.58674e-09 0)
(3 1.67064e-08 0)
(3 5.3024e-08 0)
(3 9.20377e-08 0)
(3 2.90113e-07 0)
(3 5.04252e-07 0)
(3 1.57936e-06 0)
(2.99999 2.76898e-06 0)
(2.99998 8.74575e-06 0)
(2.99993 1.39372e-05 0)
(2.99988 4.6809e-05 0)
(2.99966 7.74674e-05 0)
(2.9993 0.000252243 0)
(2.99795 0.00046751 0)
(2.99796 0.00148156 0)
(2.99466 0.00216774 0)
(2.98376 0.00393729 0)
(2.99429 0.00717313 0)
(2.77768 0.0103682 0)
(2.33558 0.0357059 0)
(1.57963 0.0864622 0)
(0.694565 0.176474 0)
(0.668731 0.188773 0)
(0.730337 0.195507 0)
(0.765882 0.205535 0)
(0.758062 0.21826 0)
(0.730836 0.231901 0)
(0.69232 0.246688 0)
(0.657629 0.262513 0)
(0.6294 0.279488 0)
(0.603 0.297838 0)
(0.575943 0.317876 0)
(0.548064 0.339963 0)
(0.51915 0.364093 0)
(0.488769 0.390084 0)
(0.457013 0.417463 0)
(0.423661 0.445286 0)
(0.388221 0.472738 0)
(0.350011 0.499031 0)
(0.307971 0.52338 0)
(0.26245 0.544632 0)
(0.213433 0.56236 0)
(0.160491 0.576669 0)
(0.0982694 0.587104 0)
(0.0403817 0.594072 0)
(3 -6.22721e-12 0)
(3 2.07018e-10 0)
(3 4.1918e-10 0)
(3 1.56981e-09 0)
(3 2.79496e-09 0)
(3 9.0983e-09 0)
(3 1.58382e-08 0)
(3 5.04701e-08 0)
(3 8.71424e-08 0)
(3 2.75381e-07 0)
(3 4.94201e-07 0)
(3 1.51251e-06 0)
(2.99999 2.68512e-06 0)
(2.99998 8.123e-06 0)
(2.99995 1.37868e-05 0)
(2.99991 4.23217e-05 0)
(2.99976 7.07255e-05 0)
(2.9995 0.000221204 0)
(2.99857 0.000441742 0)
(2.99879 0.00143497 0)
(2.99591 0.00213415 0)
(2.98641 0.00385369 0)
(2.99741 0.00700258 0)
(2.79074 0.00966 0)
(2.38878 0.0375141 0)
(1.66557 0.0905746 0)
(0.743928 0.197643 0)
(0.679147 0.212212 0)
(0.737082 0.218972 0)
(0.774158 0.228357 0)
(0.766974 0.240932 0)
(0.739478 0.25463 0)
(0.70072 0.269726 0)
(0.665681 0.285914 0)
(0.63723 0.303357 0)
(0.610877 0.32241 0)
(0.584238 0.343459 0)
(0.557013 0.366863 0)
(0.529081 0.392589 0)
(0.500166 0.420535 0)
(0.47013 0.45014 0)
(0.438662 0.480644 0)
(0.405153 0.511391 0)
(0.368816 0.541703 0)
(0.328366 0.570939 0)
(0.28369 0.59791 0)
(0.234379 0.621929 0)
(0.179441 0.643392 0)
(0.112696 0.661127 0)
(0.0469529 0.674088 0)
(3 -3.94127e-12 0)
(3 1.6074e-10 0)
(3 3.28109e-10 0)
(3 1.21117e-09 0)
(3 2.15279e-09 0)
(3 6.88596e-09 0)
(3 1.19324e-08 0)
(3 3.72677e-08 0)
(3 6.3977e-08 0)
(3 1.97965e-07 0)
(3 3.5187e-07 0)
(3 1.06037e-06 0)
(2.99999 1.79972e-06 0)
(2.99999 5.51101e-06 0)
(2.99997 9.64906e-06 0)
(2.99994 2.7778e-05 0)
(2.99985 4.86667e-05 0)
(2.99969 0.000136855 0)
(2.99921 0.000330503 0)
(2.99971 0.00110622 0)
(2.99713 0.00178776 0)
(2.98895 0.00330263 0)
(3.00027 0.00624095 0)
(2.80523 0.00820083 0)
(2.44728 0.0378815 0)
(1.76359 0.0932977 0)
(0.802493 0.218325 0)
(0.691707 0.236065 0)
(0.744653 0.244198 0)
(0.783286 0.252283 0)
(0.777546 0.264617 0)
(0.750535 0.27844 0)
(0.712088 0.294065 0)
(0.676959 0.31063 0)
(0.648485 0.328442 0)
(0.622381 0.348036 0)
(0.596312 0.369878 0)
(0.569966 0.394306 0)
(0.543227 0.421433 0)
(0.515935 0.451115 0)
(0.48789 0.482874 0)
(0.458647 0.516149 0)
(0.427546 0.550558 0)
(0.393801 0.585446 0)
(0.355935 0.620403 0)
(0.313149 0.654894 0)
(0.264665 0.68792 0)
(0.208575 0.720214 0)
(0.136602 0.75054 0)
(0.0589609 0.776256 0)
(3 -3.49606e-12 0)
(3 1.20439e-10 0)
(3 2.48215e-10 0)
(3 9.217e-10 0)
(3 1.64662e-09 0)
(3 5.27018e-09 0)
(3 9.15013e-09 0)
(3 2.85158e-08 0)
(3 5.01425e-08 0)
(3 1.56014e-07 0)
(3 2.58667e-07 0)
(3 8.36759e-07 0)
(3 1.41526e-06 0)
(2.99999 4.73964e-06 0)
(2.99998 7.93467e-06 0)
(2.99995 2.78229e-05 0)
(2.99987 5.86516e-05 0)
(2.99981 0.00015708 0)
(2.99961 0.000355611 0)
(3.00034 0.000820582 0)
(2.99824 0.00131932 0)
(2.99134 0.00264436 0)
(3.00271 0.00532931 0)
(2.82082 0.00667056 0)
(2.5106 0.0368867 0)
(1.87386 0.0939618 0)
(0.86986 0.236397 0)
(0.706753 0.260025 0)
(0.751938 0.272048 0)
(0.791234 0.27822 0)
(0.788699 0.289727 0)
(0.763256 0.303341 0)
(0.725769 0.319475 0)
(0.690797 0.336419 0)
(0.662654 0.354549 0)
(0.637183 0.374584 0)
(0.612024 0.397057 0)
(0.586867 0.422296 0)
(0.561693 0.450596 0)
(0.536367 0.481842 0)
(0.510649 0.515636 0)
(0.48421 0.551674 0)
(0.456235 0.589608 0)
(0.425965 0.629611 0)
(0.392533 0.671679 0)
(0.354222 0.715483 0)
(0.309167 0.760657 0)
(0.254719 0.80943 0)
(0.179564 0.862596 0)
(0.0837173 0.918767 0)
(3 -2.36892e-12 0)
(3 7.32419e-11 0)
(3 1.52034e-10 0)
(3 5.75855e-10 0)
(3 1.01583e-09 0)
(3 3.38544e-09 0)
(3 6.14848e-09 0)
(3 1.95606e-08 0)
(3 3.20985e-08 0)
(3 1.33689e-07 0)
(3 1.33946e-07 0)
(3 4.90251e-07 0)
(3 8.78843e-07 0)
(3 2.6301e-06 0)
(2.99999 4.41378e-06 0)
(2.99999 1.46833e-05 0)
(2.99999 3.13429e-05 0)
(3.00002 8.01944e-05 0)
(2.99994 0.000124337 0)
(3.00078 0.000181426 0)
(2.99914 -0.000222711 0)
(2.99354 0.000752369 0)
(3.00484 0.00462735 0)
(2.837 0.00216047 0)
(2.57734 0.0329922 0)
(1.99552 0.100999 0)
(0.946084 0.247973 0)
(0.72796 0.278472 0)
(0.759984 0.296949 0)
(0.796289 0.304524 0)
(0.798162 0.31579 0)
(0.775649 0.32922 0)
(0.740068 0.345461 0)
(0.70567 0.362617 0)
(0.678353 0.380872 0)
(0.654136 0.401082 0)
(0.63047 0.423899 0)
(0.607131 0.449698 0)
(0.584115 0.478832 0)
(0.561214 0.511342 0)
(0.538393 0.546718 0)
(0.515244 0.585031 0)
(0.491658 0.626757 0)
(0.467325 0.672351 0)
(0.440702 0.722043 0)
(0.410108 0.776121 0)
(0.374221 0.836127 0)
(0.330341 0.908866 0)
(0.263988 1.00611 0)
(0.141725 1.1655 0)
(3 -2.63338e-11 0)
(3 8.80028e-12 0)
(3 -7.63072e-11 0)
(3 9.47006e-11 0)
(3 -4.12691e-10 0)
(3 5.08332e-10 0)
(3 -2.55431e-09 0)
(3 1.46619e-09 0)
(3 -1.7001e-08 0)
(3 4.17251e-09 0)
(3 -1.08654e-07 0)
(3 -6.89415e-08 0)
(3 -6.09675e-07 0)
(3 -5.97722e-07 0)
(2.99999 -4.37892e-06 0)
(2.99998 -6.64099e-06 0)
(2.99994 -3.43855e-05 0)
(2.99988 -6.14745e-05 0)
(2.99967 -0.00025802 0)
(2.99975 -0.000396341 0)
(2.99882 -0.00204702 0)
(2.99791 -0.00232314 0)
(3.00488 -0.00503124 0)
(2.86077 -0.0160677 0)
(2.69901 0.0277941 0)
(2.1364 0.0893868 0)
(0.972518 0.288217 0)
(0.716144 0.31895 0)
(0.740846 0.331104 0)
(0.776544 0.33687 0)
(0.786594 0.346827 0)
(0.771783 0.359457 0)
(0.74266 0.375202 0)
(0.712894 0.392829 0)
(0.690106 0.411918 0)
(0.670793 0.432978 0)
(0.652165 0.456603 0)
(0.633842 0.483204 0)
(0.616023 0.513152 0)
(0.59823 0.546331 0)
(0.580784 0.583016 0)
(0.565095 0.624148 0)
(0.550903 0.670293 0)
(0.537317 0.721656 0)
(0.524592 0.779057 0)
(0.513516 0.844292 0)
(0.507553 0.920537 0)
(0.515936 1.01639 0)
(0.570631 1.14546 0)
(0.649104 1.34386 0)
(3 -2.7061e-11 0)
(3 -7.15004e-12 0)
(3 -1.15378e-10 0)
(3 -4.18256e-11 0)
(3 -5.89197e-10 0)
(3 -2.31268e-10 0)
(3 -3.495e-09 0)
(3 -2.00275e-09 0)
(3 -1.76371e-08 0)
(3 -3.44252e-08 0)
(3 -7.72634e-08 0)
(3 -4.10173e-09 0)
(3 -5.46976e-07 0)
(2.99999 -2.00564e-07 0)
(2.99998 -3.32354e-06 0)
(2.99995 -2.26775e-06 0)
(2.99991 -1.90998e-05 0)
(2.99967 -1.58235e-05 0)
(2.99944 -0.000114287 0)
(2.99798 -8.80917e-05 0)
(2.99597 -0.000892605 0)
(2.98775 -0.00115033 0)
(2.98276 -0.00575301 0)
(2.89186 -0.0148191 0)
(2.7891 0.0363272 0)
(2.36117 0.0722479 0)
(1.16334 0.319451 0)
(0.743994 0.379067 0)
(0.736329 0.378762 0)
(0.769566 0.376231 0)
(0.782474 0.379755 0)
(0.770502 0.387529 0)
(0.74559 0.400646 0)
(0.719793 0.417626 0)
(0.700845 0.437015 0)
(0.685966 0.458666 0)
(0.672339 0.483133 0)
(0.659464 0.510575 0)
(0.646894 0.541033 0)
(0.635068 0.575026 0)
(0.626051 0.61365 0)
(0.61979 0.657019 0)
(0.615549 0.705212 0)
(0.614397 0.759074 0)
(0.618463 0.81985 0)
(0.630974 0.889165 0)
(0.658704 0.969154 0)
(0.712513 1.06394 0)
(0.833506 1.17581 0)
(1.00095 1.30159 0)
(3 1.15158e-12 0)
(3 6.96735e-12 0)
(3 1.97862e-11 0)
(3 4.12636e-11 0)
(3 1.72902e-10 0)
(3 2.19065e-10 0)
(3 1.21246e-09 0)
(3 1.99493e-09 0)
(3 7.65065e-09 0)
(3 1.23658e-08 0)
(3 4.02954e-08 0)
(3 7.95755e-08 0)
(3 1.94203e-07 0)
(2.99999 3.36148e-07 0)
(2.99998 1.42037e-06 0)
(2.99995 2.2094e-06 0)
(2.99992 9.9608e-06 0)
(2.99973 1.73969e-05 0)
(2.99955 7.19069e-05 0)
(2.99846 0.000131692 0)
(2.99706 0.000518276 0)
(2.9899 0.00114417 0)
(2.98254 0.0034088 0)
(2.92585 0.00320392 0)
(2.86134 0.039013 0)
(2.52621 0.0763363 0)
(1.4416 0.278259 0)
(0.880914 0.421488 0)
(0.774857 0.430795 0)
(0.791604 0.422148 0)
(0.80142 0.414848 0)
(0.790529 0.416852 0)
(0.768372 0.425594 0)
(0.743214 0.440996 0)
(0.724019 0.459546 0)
(0.710274 0.480896 0)
(0.699357 0.505164 0)
(0.689686 0.532387 0)
(0.681903 0.562913 0)
(0.677407 0.597998 0)
(0.675975 0.637733 0)
(0.677343 0.681647 0)
(0.682775 0.7302 0)
(0.693903 0.784087 0)
(0.713313 0.843937 0)
(0.745045 0.910425 0)
(0.795794 0.983409 0)
(0.872551 1.06212 0)
(1.00198 1.14266 0)
(1.16624 1.20538 0)
(3 2.74869e-11 0)
(3 -9.89302e-12 0)
(3 7.59287e-11 0)
(3 -1.1313e-10 0)
(3 3.15146e-10 0)
(3 -7.96897e-10 0)
(3 1.45681e-09 0)
(3 -5.09363e-09 0)
(3 6.78199e-09 0)
(3 -3.1021e-08 0)
(3 4.36101e-08 0)
(3 -1.80272e-07 0)
(3 2.3612e-07 0)
(2.99999 -8.65518e-07 0)
(2.99999 1.58585e-06 0)
(2.99996 -4.34e-06 0)
(2.99993 8.19799e-06 0)
(2.99977 -2.86948e-05 0)
(2.99963 5.14099e-05 0)
(2.99872 -0.000182401 0)
(2.99766 0.000157044 0)
(2.99255 -0.00076748 0)
(2.98624 0.00263866 0)
(2.94875 0.000543524 0)
(2.9185 0.0289754 0)
(2.64805 0.0639515 0)
(1.78842 0.236354 0)
(1.13812 0.486087 0)
(0.851667 0.509113 0)
(0.830892 0.4865 0)
(0.839428 0.46442 0)
(0.835563 0.456203 0)
(0.817008 0.458175 0)
(0.793305 0.468153 0)
(0.771536 0.483529 0)
(0.755315 0.502645 0)
(0.742701 0.524793 0)
(0.733324 0.550494 0)
(0.728435 0.580682 0)
(0.727995 0.615104 0)
(0.731241 0.653283 0)
(0.738726 0.695547 0)
(0.751712 0.742116 0)
(0.771864 0.793097 0)
(0.80185 0.84842 0)
(0.845125 0.907823 0)
(0.906564 0.96982 0)
(0.990393 1.03107 0)
(1.1114 1.0869 0)
(1.25251 1.1222 0)
(3 2.35046e-11 0)
(3 3.11579e-11 0)
(3 1.45793e-10 0)
(3 2.60533e-10 0)
(3 7.40409e-10 0)
(3 9.88084e-10 0)
(3 4.26688e-09 0)
(3 7.90003e-09 0)
(3 2.14716e-08 0)
(3 2.66909e-08 0)
(3 1.23519e-07 0)
(3 2.33157e-07 0)
(3 6.1001e-07 0)
(2.99999 7.12184e-07 0)
(2.99998 3.5091e-06 0)
(2.99996 3.055e-06 0)
(2.99988 1.92242e-05 0)
(2.9998 1.72745e-05 0)
(2.99929 0.000108011 0)
(2.99863 0.000113163 0)
(2.99608 0.000613361 0)
(2.99399 0.000724206 0)
(2.98466 0.00438984 0)
(2.9681 0.00694457 0)
(2.97004 0.028149 0)
(2.77228 0.0562506 0)
(2.27579 0.183315 0)
(1.56128 0.444762 0)
(0.988547 0.534965 0)
(0.905688 0.527863 0)
(0.909319 0.511286 0)
(0.912175 0.497708 0)
(0.896366 0.49673 0)
(0.871654 0.503463 0)
(0.846974 0.515542 0)
(0.825522 0.531346 0)
(0.808775 0.550543 0)
(0.797898 0.57378 0)
(0.792189 0.601137 0)
(0.790738 0.631966 0)
(0.794277 0.666214 0)
(0.8037 0.704129 0)
(0.820006 0.745764 0)
(0.844616 0.790962 0)
(0.879864 0.839253 0)
(0.928316 0.889509 0)
(0.99261 0.93984 0)
(1.07444 0.986821 0)
(1.18302 1.02678 0)
(1.30325 1.04976 0)
(3 -3.48906e-12 0)
(3 4.14667e-11 0)
(3 8.66766e-11 0)
(3 3.35622e-10 0)
(3 6.0137e-10 0)
(3 1.98564e-09 0)
(3 3.50586e-09 0)
(3 1.11258e-08 0)
(3 2.00964e-08 0)
(3 6.32901e-08 0)
(3 1.07336e-07 0)
(3 3.56911e-07 0)
(3 6.29376e-07 0)
(3 2.06352e-06 0)
(2.99999 3.44583e-06 0)
(2.99999 1.17859e-05 0)
(2.99996 2.08661e-05 0)
(2.99992 6.92531e-05 0)
(2.99979 0.00011374 0)
(2.99957 0.000402863 0)
(2.99868 0.000777173 0)
(2.99884 0.00225016 0)
(2.99662 0.00356248 0)
(2.98973 0.00873674 0)
(2.99921 0.0165104 0)
(2.83604 0.00645189 0)
(2.56781 0.141608 0)
(1.9838 0.249579 0)
(1.07313 0.571696 0)
(0.90243 0.588046 0)
(0.910114 0.568672 0)
(0.93242 0.549223 0)
(0.942219 0.542304 0)
(0.931072 0.545931 0)
(0.912334 0.555205 0)
(0.893796 0.568138 0)
(0.878592 0.584408 0)
(0.867873 0.604097 0)
(0.861335 0.626711 0)
(0.859174 0.652431 0)
(0.86235 0.681327 0)
(0.87182 0.713426 0)
(0.888536 0.74864 0)
(0.91373 0.786636 0)
(0.949013 0.826754 0)
(0.996046 0.867572 0)
(1.05688 0.907217 0)
(1.13315 0.943011 0)
(1.2299 0.9721 0)
(1.33349 0.988516 0)
(3 -3.27427e-12 0)
(3 5.99097e-12 0)
(3 8.50741e-13 0)
(3 -2.93042e-12 0)
(3 1.0512e-10 0)
(3 5.05609e-10 0)
(3 4.52989e-10 0)
(3 3.14863e-10 0)
(3 4.49076e-09 0)
(3 1.90865e-08 0)
(3 1.91848e-08 0)
(3 1.51978e-08 0)
(3 1.68033e-07 0)
(3 6.65024e-07 0)
(2.99999 7.70642e-07 0)
(2.99999 4.00568e-06 0)
(2.99997 4.0892e-06 0)
(2.99995 2.14415e-05 0)
(2.99985 2.52226e-05 0)
(2.99974 0.000102923 0)
(2.99916 0.000153204 0)
(2.99863 0.000610686 0)
(2.99542 1.53055e-05 0)
(2.99037 0.00182814 0)
(2.96798 0.00389045 0)
(2.9523 -0.00462468 0)
(2.75884 0.101293 0)
(2.26495 0.140678 0)
(1.53092 0.467877 0)
(1.03317 0.57096 0)
(0.970138 0.580131 0)
(0.984318 0.577601 0)
(1.00096 0.574328 0)
(0.99781 0.580532 0)
(0.982341 0.591705 0)
(0.964597 0.604651 0)
(0.949512 0.61912 0)
(0.938462 0.635563 0)
(0.931467 0.654212 0)
(0.929033 0.67537 0)
(0.931839 0.699122 0)
(0.94078 0.725428 0)
(0.956649 0.754122 0)
(0.980414 0.784808 0)
(1.01324 0.816836 0)
(1.0563 0.849088 0)
(1.11096 0.8801 0)
(1.17776 0.907754 0)
(1.2612 0.929518 0)