/*--------------------------------*- C++ -*----------------------------------*\
| =========                 |                                                 |
| \\      /  F ield         | OpenFOAM: The Open Source CFD Toolbox           |
|  \\    /   O peration     | Version:  2412                                  |
|   \\  /    A nd           | Website:  www.openfoam.com                      |
|    \\/     M anipulation  |                                                 |
\*---------------------------------------------------------------------------*/
FoamFile
{
    version     2.0;
    format      ascii;
    arch        "LSB;label=32;scalar=64";
    class       volScalarField;
    location    "23";
    object      Ma;
}
// * * * * * * * * * * * * * * * * * * * * * * * * * * * * * * * * * * * * * //

dimensions      [0 0 0 0 0 0 0];

internalField   nonuniform List<scalar> 
7000
(
2.256
0.994216
0.300555
0.338439
0.401063
0.442392
0.450599
0.446129
0.439775
0.434865
0.432019
0.429747
0.427148
0.42406
0.420589
0.416813
0.412747
0.408369
0.403658
0.398597
0.393176
0.387378
0.381192
0.3746
0.367587
0.360134
0.352225
0.343839
0.334958
0.32556
0.315626
0.305134
0.294065
0.282395
0.270109
0.257186
0.243612
0.229374
0.214466
0.198884
0.182634
0.165728
0.14819
0.130055
0.111369
0.0921933
0.0725913
0.0528474
0.0319233
0.0155246
2.25606
0.994277
0.300353
0.338273
0.400908
0.442244
0.450451
0.445985
0.439636
0.434734
0.431892
0.429624
0.427028
0.423944
0.420478
0.416708
0.412647
0.408274
0.403569
0.398516
0.393101
0.387312
0.381135
0.374552
0.36755
0.360109
0.352212
0.34384
0.334974
0.325593
0.315677
0.305206
0.294158
0.282513
0.270253
0.257359
0.243817
0.229615
0.214747
0.199209
0.183011
0.166166
0.148702
0.130661
0.112103
0.0931179
0.0738196
0.0546562
0.0351575
0.0220574
2.25619
0.994474
0.300485
0.338308
0.400938
0.442276
0.450485
0.446025
0.439694
0.434802
0.431975
0.42971
0.427126
0.424047
0.420595
0.416833
0.412788
0.408424
0.403737
0.398695
0.393302
0.387527
0.381374
0.374811
0.367836
0.360419
0.352556
0.344214
0.335388
0.326046
0.316178
0.305754
0.294764
0.28318
0.270991
0.258173
0.244719
0.230616
0.215859
0.200452
0.184404
0.167742
0.150501
0.132746
0.114566
0.0961173
0.0776343
0.0598402
0.0430412
0.0335725
2.25636
0.99478
0.300756
0.338386
0.401019
0.442376
0.450588
0.446142
0.439825
0.434961
0.432144
0.429899
0.427321
0.424265
0.420823
0.417087
0.413054
0.408721
0.404049
0.399041
0.393667
0.387933
0.381803
0.375287
0.368343
0.360982
0.353157
0.344881
0.336105
0.32684
0.317035
0.306705
0.295795
0.284323
0.272236
0.259554
0.246234
0.232297
0.217718
0.202524
0.18672
0.170348
0.153463
0.136149
0.118555
0.100897
0.0835511
0.0674579
0.0533031
0.0461807
2.25661
0.995211
0.301106
0.338455
0.401104
0.442497
0.450718
0.446292
0.439987
0.435164
0.432358
0.430146
0.427577
0.424556
0.421128
0.41743
0.413417
0.409125
0.404479
0.399517
0.394177
0.388494
0.382409
0.375951
0.369065
0.36177
0.354018
0.345819
0.337134
0.32796
0.31827
0.308048
0.297281
0.285939
0.274029
0.261511
0.24841
0.234684
0.22038
0.205466
0.190017
0.174038
0.15764
0.140922
0.124073
0.107409
0.0913724
0.0770297
0.0651087
0.0594947
2.25694
0.995784
0.301549
0.338526
0.4012
0.442642
0.450887
0.446463
0.440217
0.4354
0.432653
0.430439
0.427927
0.424907
0.421543
0.41785
0.413907
0.409625
0.405057
0.400113
0.394859
0.389204
0.383217
0.376799
0.370023
0.362785
0.355159
0.347039
0.338496
0.329429
0.319901
0.309819
0.299239
0.288083
0.27639
0.264112
0.25127
0.237853
0.223871
0.209361
0.194333
0.178895
0.163089
0.147117
0.131166
0.115613
0.100984
0.0882978
0.0781882
0.0736201
2.25736
0.99651
0.302092
0.338602
0.401307
0.44282
0.451091
0.446695
0.440478
0.435711
0.432993
0.430823
0.428336
0.425366
0.422031
0.418398
0.414488
0.410276
0.405745
0.400884
0.395677
0.39012
0.384189
0.37789
0.371183
0.364087
0.356548
0.348597
0.340165
0.331299
0.321914
0.31207
0.301675
0.290797
0.279348
0.267396
0.254874
0.241846
0.228282
0.214247
0.199773
0.18494
0.169888
0.154752
0.139834
0.125479
0.112235
0.101078
0.092445
0.0886255
2.25787
0.997402
0.302744
0.338683
0.401427
0.44303
0.451339
0.446976
0.440797
0.436086
0.433407
0.431286
0.428837
0.42592
0.422632
0.419059
0.415206
0.411061
0.4066
0.401815
0.396693
0.391226
0.3854
0.379205
0.372629
0.365654
0.358277
0.350471
0.34224
0.333545
0.324408
0.314774
0.304683
0.294067
0.282987
0.271368
0.259291
0.246693
0.233666
0.220192
0.206376
0.192284
0.17805
0.163897
0.150054
0.136958
0.125075
0.115263
0.107843
0.104623
2.25849
0.998471
0.303514
0.338771
0.401563
0.443276
0.451635
0.447305
0.441187
0.436527
0.433907
0.431832
0.429442
0.426576
0.423356
0.419844
0.416067
0.411995
0.407622
0.402926
0.397907
0.392547
0.386845
0.380781
0.374351
0.367539
0.360336
0.35273
0.344707
0.336261
0.327372
0.318045
0.308252
0.298017
0.287297
0.276151
0.26452
0.252503
0.240042
0.227276
0.214189
0.200957
0.187671
0.174547
0.161896
0.150028
0.139453
0.130889
0.124493
0.121716
2.25921
0.999731
0.304411
0.338868
0.401717
0.443565
0.451983
0.447706
0.441639
0.437059
0.434487
0.432486
0.430146
0.427361
0.4242
0.420778
0.417074
0.413104
0.408819
0.404241
0.39933
0.394109
0.388539
0.382639
0.376373
0.369757
0.362756
0.355383
0.34761
0.339445
0.330864
0.321876
0.312465
0.302638
0.292393
0.281738
0.270697
0.259276
0.247545
0.235513
0.223322
0.211001
0.198786
0.186794
0.175338
0.164784
0.155439
0.147991
0.14249
0.140145
2.26005
1.00119
0.305443
0.338977
0.401893
0.443897
0.452394
0.448162
0.442188
0.437666
0.435183
0.433234
0.430985
0.428261
0.425202
0.421853
0.418262
0.414381
0.410226
0.405758
0.400998
0.395912
0.390519
0.384788
0.378731
0.372322
0.365571
0.358455
0.350981
0.343132
0.334913
0.326315
0.31734
0.307994
0.298279
0.288216
0.277817
0.267128
0.256173
0.245039
0.233781
0.222546
0.211439
0.200704
0.190518
0.181223
0.173165
0.166807
0.162135
0.160099
2.26101
1.00287
0.306621
0.339101
0.402093
0.444285
0.45287
0.448714
0.44281
0.438394
0.435972
0.434124
0.431939
0.429325
0.426341
0.423116
0.419616
0.415875
0.41183
0.407524
0.4029
0.398004
0.39278
0.387272
0.381424
0.375281
0.368789
0.36199
0.354835
0.347367
0.339542
0.331402
0.322915
0.314122
0.305008
0.295615
0.285957
0.276074
0.266028
0.255859
0.245698
0.235599
0.225772
0.216328
0.20754
0.199608
0.192763
0.18749
0.183631
0.182024
2.2621
1.00476
0.307951
0.339243
0.402323
0.444725
0.453423
0.449339
0.443553
0.439221
0.436904
0.435133
0.433058
0.430531
0.427671
0.424546
0.421186
0.417565
0.413684
0.409522
0.40509
0.40037
0.395375
0.390081
0.384507
0.378627
0.372462
0.365987
0.359226
0.352156
0.344805
0.337154
0.329241
0.321049
0.312631
0.303977
0.295159
0.286181
0.277141
0.268077
0.259097
0.250316
0.241831
0.233865
0.226515
0.220066
0.214645
0.210545
0.207569
0.206266
2.26331
1.00688
0.309435
0.339398
0.402595
0.445221
0.454058
0.45007
0.444402
0.440185
0.437965
0.4363
0.434327
0.43192
0.429174
0.426187
0.422958
0.419497
0.415771
0.411799
0.407553
0.40306
0.398288
0.393268
0.387965
0.382414
0.37658
0.370501
0.364145
0.357552
0.3507
0.343625
0.336324
0.32883
0.321161
0.313353
0.30545
0.297499
0.289565
0.281732
0.274078
0.26673
0.259805
0.253422
0.24778
0.242929
0.239023
0.236288
0.234366
0.233713
2.26464
1.00922
0.311073
0.339557
0.402921
0.44578
0.454787
0.450912
0.445379
0.441295
0.439178
0.437634
0.435772
0.433498
0.43088
0.428041
0.424964
0.421672
0.418127
0.414353
0.410327
0.406069
0.401565
0.396824
0.391848
0.386632
0.381196
0.375521
0.369649
0.363547
0.357281
0.350808
0.344216
0.337463
0.330651
0.323756
0.316885
0.310055
0.303365
0.296886
0.290717
0.28497
0.279765
0.275237
0.271479
0.268668
0.266695
0.265722
0.265191
0.265156
2.2661
1.01179
0.312877
0.339754
0.403285
0.446426
0.455631
0.451883
0.446528
0.442565
0.440584
0.439147
0.437431
0.435278
0.432824
0.430124
0.427232
0.424105
0.420777
0.417202
0.413432
0.409418
0.405217
0.400776
0.39616
0.391313
0.386306
0.381086
0.375725
0.370186
0.364531
0.358752
0.352895
0.346995
0.341076
0.335224
0.329448
0.323881
0.318544
0.313585
0.309075
0.305154
0.301926
0.299522
0.298081
0.297582
0.298079
0.299507
0.301152
0.302677
2.26768
1.01459
0.314838
0.339983
0.403705
0.447179
0.456613
0.453018
0.447864
0.444035
0.442196
0.440879
0.439312
0.437298
0.435012
0.432472
0.429769
0.426836
0.423727
0.420387
0.416875
0.413148
0.409253
0.405163
0.400911
0.396491
0.391923
0.387221
0.382393
0.37748
0.372478
0.367453
0.362404
0.35741
0.352493
0.347732
0.343199
0.338958
0.33515
0.331831
0.329179
0.327314
0.326393
0.326517
0.327917
0.330657
0.334523
0.339628
0.344728
0.348726
2.26936
1.01758
0.316941
0.340248
0.404193
0.448065
0.457763
0.454363
0.449409
0.445758
0.444038
0.442877
0.44144
0.439603
0.437463
0.435124
0.432593
0.429891
0.42699
0.423925
0.420668
0.417265
0.413685
0.409979
0.406116
0.402152
0.398062
0.393903
0.389665
0.385399
0.381123
0.376879
0.37272
0.368678
0.36485
0.36127
0.358065
0.355309
0.353123
0.351687
0.351063
0.351509
0.353201
0.356412
0.361331
0.36807
0.376902
0.387635
0.39937
0.409974
2.27113
1.02074
0.319165
0.340563
0.404774
0.449109
0.45912
0.45594
0.451218
0.447742
0.446154
0.445142
0.443856
0.442191
0.440228
0.438082
0.43576
0.433281
0.430633
0.427831
0.42488
0.42179
0.41858
0.41525
0.411834
0.408324
0.404772
0.401164
0.397571
0.39398
0.390479
0.387065
0.383837
0.380824
0.378123
0.375821
0.373999
0.372845
0.372424
0.372925
0.374589
0.377707
0.382629
0.389497
0.398924
0.411252
0.426949
0.447109
0.470991
0.498599
2.27295
1.02398
0.321445
0.340943
0.405483
0.450371
0.460765
0.457828
0.453393
0.450061
0.44862
0.447725
0.446611
0.445092
0.443328
0.441353
0.43926
0.436995
0.434619
0.432083
0.429456
0.426697
0.423871
0.420948
0.417987
0.414975
0.411964
0.408964
0.406018
0.403168
0.400445
0.397932
0.395652
0.393734
0.392206
0.391245
0.390885
0.391315
0.392699
0.395386
0.399592
0.405688
0.413894
0.425055
0.439621
0.45916
0.485084
0.520597
0.57193
0.664908
2.27503
1.02771
0.323976
0.341215
0.406282
0.451969
0.462917
0.460353
0.456266
0.453162
0.45188
0.451206
0.450307
0.449065
0.447546
0.445885
0.444079
0.44218
0.440151
0.43805
0.435842
0.433597
0.431279
0.428965
0.42662
0.424331
0.422066
0.419925
0.417886
0.416057
0.414438
0.413145
0.412217
0.411775
0.411917
0.412689
0.414252
0.417018
0.421208
0.426899
0.434591
0.444562
0.457833
0.474819
0.497606
0.527614
0.569596
0.631151
0.729829
0.881484
2.27724
1.03169
0.326986
0.342166
0.408012
0.454837
0.466506
0.464321
0.460554
0.457507
0.456268
0.455685
0.454946
0.453881
0.452581
0.451146
0.449622
0.448019
0.446351
0.444624
0.442864
0.441079
0.439305
0.437549
0.435858
0.434238
0.432756
0.431416
0.430308
0.429441
0.428933
0.428802
0.429167
0.430049
0.431686
0.434274
0.437987
0.442905
0.449471
0.457795
0.468594
0.482308
0.499814
0.522625
0.551796
0.591359
0.643916
0.718039
0.828985
0.967144
2.27852
1.034
0.328859
0.343226
0.410175
0.458583
0.471232
0.469545
0.466104
0.463079
0.461875
0.461409
0.460836
0.45995
0.458839
0.457611
0.45632
0.454984
0.453615
0.452225
0.45084
0.449477
0.448167
0.446931
0.445809
0.444828
0.444037
0.443475
0.443206
0.443294
0.443752
0.444656
0.446241
0.448647
0.451868
0.456157
0.461591
0.468582
0.477197
0.488164
0.501498
0.518496
0.539214
0.565772
0.599047
0.641716
0.697374
0.767759
0.864174
0.967489
2.27968
1.03611
0.332172
0.346924
0.415039
0.464998
0.478242
0.476426
0.472636
0.469262
0.467983
0.467623
0.467212
0.466502
0.465596
0.464598
0.463593
0.462567
0.461555
0.460543
0.45958
0.458661
0.457837
0.457114
0.456549
0.45616
0.456014
0.456127
0.456545
0.457355
0.458728
0.46071
0.463359
0.466848
0.471241
0.476844
0.483682
0.492271
0.502621
0.515408
0.530888
0.54972
0.572841
0.600703
0.635327
0.6771
0.728931
0.790952
0.868874
0.94992
2.27612
1.02972
0.334313
0.356826
0.427462
0.479824
0.493326
0.490527
0.485526
0.481277
0.47962
0.479065
0.478492
0.477623
0.476563
0.47547
0.474406
0.473382
0.472406
0.471495
0.470669
0.469959
0.469381
0.468982
0.468787
0.468825
0.469097
0.469765
0.470844
0.472447
0.474542
0.47733
0.480778
0.485174
0.490485
0.497079
0.50498
0.514559
0.526087
0.539793
0.556358
0.575914
0.599483
0.627368
0.660595
0.700057
0.746339
0.800707
0.864212
0.928792
2.28205
1.02257
0.358765
0.382362
0.448481
0.498375
0.510287
0.506535
0.500793
0.49641
0.494708
0.494019
0.49332
0.492371
0.491305
0.490228
0.489197
0.4882
0.487262
0.486382
0.485605
0.484932
0.484419
0.484035
0.483906
0.484061
0.484607
0.485472
0.486863
0.48871
0.491261
0.494407
0.498491
0.503355
0.509466
0.516592
0.52536
0.535464
0.547712
0.561828
0.578648
0.598178
0.621062
0.64779
0.67865
0.714594
0.755565
0.802439
0.855633
0.909192
1.87634
0.772027
0.273285
0.344119
0.417748
0.441223
0.441132
0.437151
0.433507
0.433413
0.435588
0.438476
0.441476
0.444519
0.447658
0.450906
0.454225
0.457568
0.460906
0.464222
0.467497
0.470677
0.47382
0.47696
0.480153
0.483334
0.486625
0.489946
0.493569
0.497378
0.50168
0.506371
0.511805
0.517903
0.525026
0.533161
0.542612
0.55355
0.566089
0.580729
0.597305
0.616694
0.638462
0.66379
0.692067
0.72454
0.760528
0.801001
0.84581
0.890554
1.86891
0.771416
0.282187
0.355351
0.42833
0.447789
0.443319
0.435959
0.430301
0.428406
0.428318
0.428721
0.429321
0.430226
0.431573
0.433355
0.435613
0.43822
0.441296
0.444722
0.448607
0.452674
0.457151
0.461796
0.466829
0.471984
0.477523
0.483252
0.489344
0.495669
0.502401
0.509473
0.517033
0.52517
0.533967
0.543715
0.554317
0.566339
0.579531
0.594602
0.611249
0.630229
0.65127
0.675028
0.701365
0.730674
0.762987
0.798111
0.836514
0.87419
1.86794
0.770103
0.28432
0.365065
0.443616
0.463692
0.457508
0.448133
0.441126
0.438394
0.437495
0.436897
0.436308
0.435906
0.435819
0.436089
0.436719
0.437722
0.439255
0.441239
0.443727
0.446643
0.450162
0.454165
0.458798
0.463941
0.469669
0.475921
0.482712
0.490083
0.497959
0.506547
0.515636
0.525589
0.536009
0.547453
0.559511
0.572783
0.586951
0.602627
0.619553
0.638286
0.658703
0.681203
0.705738
0.732547
0.761589
0.792791
0.826405
0.858934
1.86943
0.773385
0.290114
0.36728
0.443687
0.464289
0.459069
0.45055
0.443971
0.441607
0.441132
0.440953
0.440737
0.440626
0.440711
0.441016
0.441604
0.442512
0.4437
0.445182
0.446986
0.44922
0.451861
0.455072
0.458758
0.463138
0.46805
0.47377
0.480044
0.487241
0.494986
0.503746
0.513051
0.523423
0.534434
0.546568
0.559477
0.573577
0.588574
0.604829
0.622191
0.64093
0.661016
0.682665
0.705848
0.730696
0.757143
0.785238
0.815027
0.843677
1.87254
0.780065
0.297796
0.361238
0.429063
0.450303
0.448019
0.441953
0.436344
0.434469
0.434507
0.435037
0.435625
0.436339
0.437231
0.438403
0.439864
0.441548
0.443419
0.445526
0.44787
0.450533
0.453491
0.456861
0.460598
0.464875
0.469591
0.475
0.480926
0.487699
0.495078
0.503401
0.512438
0.522484
0.533352
0.545265
0.558089
0.572006
0.586945
0.603046
0.620272
0.638756
0.658401
0.679344
0.701465
0.724939
0.749548
0.775272
0.802288
0.828126
1.88112
0.786645
0.300046
0.349027
0.412194
0.441239
0.44421
0.439524
0.434372
0.432089
0.431845
0.432367
0.433086
0.434006
0.435102
0.436435
0.438031
0.439887
0.442
0.444397
0.447071
0.450078
0.453388
0.457088
0.461125
0.465643
0.470549
0.476049
0.48201
0.488684
0.495929
0.503986
0.512753
0.52241
0.532897
0.544363
0.556739
0.570158
0.584552
0.600043
0.616558
0.634206
0.652906
0.672756
0.693657
0.715641
0.738565
0.762389
0.787207
0.810857
2.2631
1.10604
0.407216
0.399187
0.459368
0.508064
0.519355
0.514464
0.507541
0.501492
0.497976
0.495504
0.493393
0.491375
0.489347
0.487375
0.48565
0.484161
0.483013
0.482166
0.481738
0.481689
0.482143
0.483076
0.484557
0.486621
0.489306
0.492666
0.496706
0.501516
0.507074
0.513488
0.520731
0.528925
0.538019
0.548146
0.559235
0.571403
0.584577
0.598861
0.614151
0.630547
0.647922
0.666332
0.685687
0.705977
0.727102
0.748982
0.771694
0.793303
2.27252
1.12793
0.391692
0.377133
0.449998
0.510714
0.529113
0.52823
0.524008
0.520205
0.518763
0.518387
0.518371
0.518332
0.517917
0.517288
0.516616
0.515987
0.515419
0.514944
0.514577
0.514383
0.514381
0.514654
0.515236
0.516207
0.517604
0.519536
0.521999
0.525151
0.528937
0.533552
0.53891
0.545194
0.552334
0.560464
0.569559
0.579713
0.59091
0.603183
0.616555
0.630977
0.646474
0.662952
0.680381
0.698693
0.717794
0.737591
0.758148
0.777714
2.29744
1.17665
0.434273
0.383999
0.447094
0.503387
0.521865
0.522893
0.521068
0.519884
0.520303
0.521534
0.523329
0.52513
0.526539
0.527738
0.528862
0.53001
0.531158
0.532339
0.533525
0.534769
0.536062
0.537465
0.538979
0.540676
0.542574
0.544746
0.547238
0.550117
0.55345
0.557288
0.561729
0.566803
0.57263
0.57922
0.586692
0.595031
0.604336
0.614582
0.625815
0.638005
0.65118
0.665325
0.680412
0.696412
0.713226
0.7307
0.748922
0.766305
1.90075
0.805036
0.30582
0.31689
0.374006
0.414891
0.429172
0.432999
0.435822
0.439474
0.444406
0.450152
0.45659
0.463085
0.469263
0.47526
0.481226
0.487188
0.493133
0.499019
0.504842
0.51058
0.516255
0.521842
0.527379
0.532841
0.538297
0.543717
0.549195
0.554719
0.560363
0.566171
0.572207
0.578539
0.585217
0.592343
0.599941
0.608132
0.616905
0.626395
0.636557
0.647531
0.659227
0.671751
0.684987
0.698954
0.713587
0.728912
0.744927
0.760242
2.30595
1.19379
0.449616
0.386644
0.440667
0.49224
0.50924
0.509301
0.506155
0.503678
0.50242
0.502235
0.50269
0.503086
0.50341
0.503914
0.504739
0.506015
0.507711
0.50987
0.512443
0.515484
0.518946
0.522873
0.527186
0.531945
0.53703
0.542533
0.548293
0.554429
0.560814
0.567555
0.574534
0.581873
0.589466
0.597449
0.605738
0.614466
0.623571
0.633169
0.643226
0.653828
0.664958
0.676649
0.688908
0.701721
0.715093
0.728936
0.743338
0.757057
2.31119
1.20376
0.432916
0.369736
0.438377
0.500635
0.522089
0.523501
0.521282
0.519811
0.519939
0.521071
0.5228
0.524305
0.52533
0.526177
0.527011
0.52796
0.529035
0.530323
0.531832
0.533647
0.535754
0.538239
0.541087
0.544362
0.548057
0.552211
0.556824
0.561908
0.567464
0.573478
0.579957
0.586877
0.594269
0.602073
0.610343
0.619001
0.628128
0.637628
0.647605
0.65795
0.668786
0.679989
0.69168
0.703734
0.716246
0.72908
0.742361
0.754964
2.31391
1.20959
0.437092
0.371777
0.441504
0.505358
0.527735
0.529416
0.527252
0.525904
0.526376
0.527893
0.530164
0.532357
0.534076
0.535605
0.537132
0.538763
0.540495
0.542357
0.544345
0.546492
0.548813
0.551342
0.55411
0.557143
0.560484
0.564147
0.568182
0.572591
0.577431
0.582687
0.588417
0.594591
0.60126
0.608385
0.616012
0.624094
0.632663
0.641681
0.65116
0.661075
0.671416
0.682172
0.693305
0.704826
0.716666
0.728842
0.741345
0.753236
2.3169
1.21731
0.463463
0.387835
0.447101
0.506229
0.528788
0.53202
0.531141
0.530771
0.531663
0.533592
0.53613
0.538428
0.540455
0.542359
0.544316
0.546358
0.548535
0.550817
0.553247
0.555798
0.558524
0.561395
0.564473
0.567732
0.571235
0.574961
0.578974
0.583259
0.587877
0.592822
0.598142
0.60384
0.609944
0.616462
0.623407
0.630799
0.638628
0.646917
0.655635
0.66481
0.674393
0.68441
0.694798
0.705574
0.716667
0.728075
0.739819
0.750996
1.90563
0.813589
0.324721
0.323678
0.376479
0.414372
0.427259
0.430302
0.432593
0.435933
0.440704
0.446615
0.453342
0.46016
0.466869
0.47353
0.480264
0.487058
0.493923
0.500802
0.5077
0.514579
0.521455
0.528304
0.535148
0.541977
0.548816
0.555662
0.562541
0.569462
0.576443
0.583515
0.590689
0.598008
0.605475
0.613145
0.621013
0.629134
0.637497
0.646146
0.65507
0.664297
0.67381
0.683634
0.693744
0.70415
0.714825
0.725761
0.737007
0.747683
2.312
1.20862
0.46498
0.403506
0.466209
0.527394
0.549322
0.550249
0.546105
0.542273
0.540066
0.538694
0.538099
0.537703
0.53697
0.536247
0.535682
0.535529
0.535717
0.536405
0.537518
0.539131
0.541212
0.543801
0.54686
0.550417
0.55443
0.558926
0.563846
0.569215
0.574976
0.581137
0.587645
0.594512
0.601696
0.609206
0.61701
0.625113
0.633492
0.642158
0.651095
0.660308
0.66979
0.679536
0.689533
0.699768
0.71023
0.720894
0.731821
0.742184
2.29404
1.1696
0.460082
0.422697
0.485804
0.5462
0.566086
0.566125
0.562405
0.559168
0.558412
0.558815
0.559901
0.561165
0.562037
0.562676
0.563267
0.563925
0.564661
0.565484
0.566405
0.567469
0.568721
0.570205
0.571954
0.574011
0.576395
0.579138
0.582257
0.585772
0.589687
0.594025
0.598789
0.603987
0.609617
0.615675
0.622153
0.629042
0.636329
0.643998
0.652032
0.66041
0.669114
0.678126
0.687443
0.697029
0.706885
0.716972
0.727342
0.737195
1.88783
0.805075
0.340786
0.355367
0.406344
0.443123
0.452857
0.452686
0.451751
0.452602
0.455916
0.46054
0.46608
0.472145
0.478234
0.484356
0.490573
0.496893
0.503269
0.509657
0.516019
0.522345
0.528622
0.534851
0.541027
0.547161
0.553262
0.559353
0.565455
0.571599
0.57781
0.58411
0.59053
0.59709
0.60382
0.610734
0.617857
0.625198
0.632777
0.640593
0.648668
0.656995
0.665587
0.674423
0.683504
0.692818
0.702351
0.71209
0.722078
0.731571
1.87402
0.796329
0.339529
0.356663
0.398325
0.426966
0.434881
0.434834
0.433827
0.433315
0.434048
0.435682
0.438239
0.441447
0.444939
0.448771
0.453027
0.457745
0.462906
0.468488
0.474452
0.480775
0.487413
0.494341
0.501517
0.508914
0.516492
0.524231
0.532096
0.540073
0.548136
0.556297
0.564527
0.572847
0.581235
0.589721
0.598288
0.606966
0.61575
0.624648
0.633655
0.642792
0.652056
0.661463
0.671007
0.6807
0.690537
0.700511
0.710663
0.720275
1.88891
0.80605
0.34503
0.373651
0.430942
0.466896
0.473625
0.469571
0.464489
0.461387
0.460435
0.460405
0.460997
0.461962
0.463001
0.464174
0.465607
0.467368
0.469494
0.471996
0.474899
0.47821
0.48196
0.486141
0.490773
0.495838
0.501348
0.50727
0.513607
0.520323
0.527419
0.534849
0.542612
0.550665
0.558997
0.567565
0.576366
0.585358
0.594533
0.60388
0.613394
0.623052
0.632851
0.642768
0.652807
0.662946
0.673193
0.683525
0.694009
0.703903
2.34073
1.1243
0.469043
0.447573
0.513139
0.57488
0.595498
0.594888
0.58959
0.584287
0.581276
0.579367
0.577801
0.57643
0.574877
0.573143
0.571371
0.569658
0.568048
0.56657
0.565247
0.564115
0.563201
0.562552
0.562197
0.562187
0.562538
0.56331
0.564497
0.566135
0.568256
0.570866
0.573991
0.577611
0.581754
0.586388
0.591531
0.597146
0.603242
0.609774
0.61674
0.624096
0.631825
0.639919
0.648333
0.657051
0.666036
0.675272
0.68477
0.693827
1.88937
0.80724
0.346166
0.363474
0.415823
0.456084
0.468555
0.46956
0.469011
0.468989
0.471277
0.474794
0.479001
0.483736
0.48856
0.493371
0.498212
0.50314
0.508115
0.513127
0.518116
0.523093
0.528018
0.532916
0.537759
0.542582
0.547361
0.552139
0.556917
0.561724
0.566568
0.571484
0.576468
0.581576
0.586804
0.592205
0.597769
0.603551
0.609532
0.615768
0.622229
0.628967
0.635952
0.643197
0.65069
0.658442
0.666434
0.674662
0.683145
0.691251
1.8891
0.807388
0.347477
0.364542
0.416096
0.454587
0.465037
0.463972
0.461097
0.458538
0.458072
0.458913
0.460499
0.462706
0.465125
0.467715
0.470583
0.473812
0.477404
0.481348
0.485613
0.490185
0.495041
0.500162
0.505529
0.511114
0.516898
0.522858
0.528974
0.535246
0.541649
0.548182
0.554833
0.561594
0.56846
0.575425
0.582492
0.589661
0.596939
0.604323
0.611824
0.619437
0.627176
0.635036
0.643032
0.651156
0.659421
0.667813
0.676379
0.684513
2.34275
1.12799
0.472726
0.449639
0.516393
0.580632
0.603081
0.603183
0.598104
0.593035
0.590252
0.588697
0.58757
0.586718
0.585716
0.584551
0.583326
0.582201
0.581164
0.580306
0.579567
0.579057
0.578712
0.578653
0.57881
0.579292
0.580056
0.581144
0.582571
0.584346
0.586476
0.58896
0.5918
0.594993
0.598538
0.602435
0.606676
0.611255
0.616161
0.621387
0.626919
0.632749
0.63886
0.645245
0.651886
0.658777
0.665897
0.67324
0.68081
0.688051
1.88982
0.808782
0.353436
0.381416
0.439688
0.479636
0.489594
0.487914
0.484868
0.483483
0.484909
0.487584
0.490933
0.494767
0.498667
0.502617
0.506679
0.510907
0.51527
0.519753
0.524315
0.528948
0.53363
0.538361
0.543131
0.547935
0.552776
0.557653
0.562578
0.567552
0.572585
0.577691
0.582872
0.588148
0.593519
0.599006
0.604605
0.610336
0.616195
0.622197
0.628347
0.634653
0.641117
0.647742
0.654531
0.661486
0.668605
0.675877
0.683332
0.690431
1.87526
0.799752
0.351162
0.378105
0.427536
0.459447
0.467095
0.465966
0.464285
0.463571
0.464098
0.465296
0.467196
0.469481
0.471833
0.474314
0.477021
0.480005
0.483273
0.486822
0.490644
0.49473
0.499073
0.503664
0.508495
0.513553
0.518825
0.524299
0.529963
0.535802
0.541805
0.547954
0.554257
0.560688
0.567258
0.573944
0.580759
0.587685
0.594734
0.601889
0.609161
0.616531
0.624012
0.631591
0.639281
0.647065
0.654959
0.662947
0.671079
0.67878
1.87423
0.799385
0.351686
0.375352
0.422433
0.454101
0.462315
0.461853
0.460736
0.460117
0.460386
0.461211
0.462694
0.46453
0.466378
0.46828
0.470336
0.472592
0.475065
0.477755
0.480672
0.483819
0.487206
0.490834
0.49471
0.498832
0.503204
0.507822
0.512689
0.517798
0.523149
0.528735
0.534555
0.540595
0.546851
0.553312
0.559971
0.566814
0.573841
0.581037
0.588401
0.595922
0.603599
0.611417
0.619368
0.627444
0.63565
0.643981
0.652467
0.660525
1.88906
0.809115
0.354863
0.362661
0.413297
0.452095
0.463037
0.462623
0.460835
0.459588
0.459624
0.460435
0.461974
0.463877
0.465705
0.467512
0.469429
0.471521
0.473806
0.476281
0.478947
0.481805
0.484862
0.488117
0.491577
0.495242
0.499118
0.503204
0.507506
0.512021
0.516755
0.521706
0.526877
0.532264
0.537869
0.543688
0.549721
0.555963
0.562412
0.569061
0.575907
0.582941
0.590158
0.597552
0.605124
0.612866
0.620769
0.628822
0.637046
0.644869
2.31233
1.20467
0.485428
0.431479
0.492575
0.556805
0.582794
0.586287
0.583623
0.580891
0.579603
0.579288
0.579778
0.580607
0.581146
0.581437
0.581669
0.581952
0.582328
0.582796
0.583362
0.584025
0.584802
0.585697
0.586728
0.587896
0.58922
0.590701
0.592356
0.594187
0.59621
0.598425
0.60085
0.603482
0.606336
0.609411
0.612719
0.616256
0.620036
0.624051
0.628313
0.63281
0.637556
0.642536
0.647762
0.653216
0.658901
0.664794
0.670925
0.676819
2.32254
1.22877
0.46611
0.40537
0.481444
0.557504
0.58867
0.59335
0.590716
0.587854
0.586866
0.587319
0.588609
0.590424
0.592106
0.593503
0.594834
0.596247
0.5978
0.59948
0.601283
0.603194
0.605223
0.607363
0.609625
0.612002
0.614505
0.617127
0.619879
0.622754
0.625764
0.628903
0.632183
0.635596
0.639157
0.642858
0.646712
0.650712
0.654872
0.659184
0.66366
0.668294
0.673098
0.678065
0.683204
0.688503
0.693971
0.699592
0.70539
0.710929
2.31273
1.20618
0.486676
0.432542
0.494355
0.559811
0.586873
0.591023
0.588972
0.58686
0.58629
0.586947
0.588456
0.590445
0.592244
0.593838
0.595411
0.597094
0.598923
0.600898
0.603007
0.605251
0.607629
0.610146
0.612802
0.615603
0.618546
0.621637
0.624871
0.628254
0.631783
0.635464
0.639289
0.643268
0.647393
0.651672
0.656097
0.660676
0.665401
0.67028
0.675304
0.680482
0.685803
0.691278
0.696894
0.702661
0.708566
0.714617
0.720824
0.726763
1.88895
0.809181
0.356067
0.364307
0.416387
0.457006
0.469105
0.469122
0.467536
0.466522
0.467167
0.468793
0.471276
0.474231
0.477165
0.480131
0.48324
0.486568
0.490111
0.493872
0.497827
0.501981
0.506316
0.510843
0.515542
0.520423
0.525467
0.530685
0.536055
0.54159
0.547268
0.553102
0.559071
0.565187
0.571431
0.577814
0.584316
0.590952
0.597701
0.604577
0.611559
0.618665
0.625871
0.633193
0.640609
0.648138
0.655759
0.663493
0.671355
0.678842
1.87422
0.800022
0.355301
0.380476
0.428586
0.460133
0.467653
0.466486
0.464745
0.463863
0.46408
0.464932
0.466474
0.468354
0.470187
0.472038
0.474002
0.476141
0.478452
0.480946
0.483611
0.486461
0.489489
0.492708
0.496112
0.499713
0.503502
0.507492
0.511672
0.516055
0.520629
0.525406
0.530373
0.535539
0.540894
0.546444
0.552178
0.558103
0.564205
0.570491
0.576948
0.583582
0.590378
0.597341
0.604457
0.611731
0.619148
0.626714
0.63444
0.641802
1.87704
0.803105
0.359374
0.395144
0.451555
0.484558
0.49048
0.486949
0.482764
0.480818
0.480806
0.481602
0.483013
0.484678
0.486276
0.487898
0.489642
0.491554
0.493629
0.495866
0.498258
0.500812
0.503524
0.506404
0.509446
0.512661
0.516043
0.5196
0.523328
0.527234
0.531313
0.535573
0.540008
0.544623
0.549414
0.554387
0.559533
0.564861
0.57036
0.576039
0.581887
0.587909
0.594098
0.600456
0.606974
0.613655
0.620488
0.627475
0.63462
0.641431
1.19156
1.0489
0.497589
0.190561
0.0107634
0.108716
0.16019
0.20854
0.230142
0.234511
0.222827
0.211368
0.201049
0.191514
0.179478
0.165024
0.147692
0.127759
0.105938
0.0827948
0.0589723
0.0352602
0.0158683
0.023259
0.0469888
0.071284
0.0954316
0.119135
0.142455
0.165358
0.18786
0.209935
0.231571
0.252712
0.272723
0.291825
0.311364
0.331736
0.351701
0.370867
0.38938
0.407375
0.424894
0.441945
0.458518
0.474613
0.49022
0.50534
0.51996
0.534081
0.547688
0.560776
0.573326
0.585328
0.596757
0.607599
0.617822
0.627407
0.636319
0.644533
0.652011
0.658728
0.664643
0.669737
0.673974
0.677347
0.679841
0.681474
0.682258
0.682437
0.682265
0.681714
0.680395
0.677903
0.674534
0.670933
0.667262
0.663549
0.659867
0.656292
0.65293
0.649849
0.647123
0.644781
0.642861
0.641355
0.640273
0.639581
0.639261
0.639241
0.639405
0.639749
0.640391
0.641489
0.64288
0.644401
0.645952
0.647625
0.649267
0.654041
1.12193
1.03603
0.806175
0.549248
0.50228
0.431286
0.381348
0.340594
0.310305
0.291746
0.260405
0.230147
0.210576
0.208834
0.215971
0.226524
0.238984
0.252901
0.268031
0.283889
0.300268
0.316741
0.333067
0.349242
0.365975
0.38296
0.400124
0.417224
0.434322
0.451253
0.468106
0.484736
0.501234
0.517467
0.533126
0.548041
0.563041
0.57876
0.594625
0.609849
0.624568
0.63894
0.653021
0.666795
0.680251
0.693367
0.706139
0.718551
0.7306
0.74227
0.753554
0.764434
0.774899
0.784926
0.7945
0.803594
0.812188
0.820253
0.827763
0.834686
0.840995
0.846654
0.851638
0.855914
0.859462
0.862261
0.864306
0.865594
0.866162
0.86618
0.865889
0.865231
0.863892
0.861522
0.858315
0.854847
0.851301
0.847741
0.844229
0.840841
0.837664
0.83477
0.832218
0.830045
0.828273
0.826905
0.825937
0.825343
0.825119
0.825151
0.825332
0.825672
0.826245
0.827217
0.828431
0.829776
0.8311
0.832518
0.83371
0.83751
1.07465
1.0755
1.00808
0.899667
0.831183
0.780923
0.744999
0.714904
0.690086
0.671995
0.656901
0.642572
0.632573
0.627445
0.625927
0.626187
0.627696
0.630107
0.633493
0.637764
0.642881
0.648656
0.655019
0.661853
0.669408
0.677568
0.686337
0.695491
0.705062
0.714864
0.724975
0.735223
0.745712
0.756257
0.766642
0.776584
0.786657
0.797437
0.808802
0.819895
0.830704
0.84132
0.851837
0.862232
0.872509
0.882617
0.89256
0.902296
0.911831
0.921125
0.930184
0.938965
0.947472
0.955658
0.963525
0.971022
0.978148
0.98485
0.991123
0.996913
1.00221
1.00697
1.01117
1.01476
1.01775
1.02008
1.02177
1.02279
1.02315
1.02304
1.02268
1.022
1.0207
1.01851
1.01556
1.01232
1.00898
1.00564
1.00236