/*--------------------------------*- C++ -*----------------------------------*\
| =========                 |                                                 |
| \\      /  F ield         | OpenFOAM: The Open Source CFD Toolbox           |
|  \\    /   O peration     | Version:  2412                                  |
|   \\  /    A nd           | Website:  www.openfoam.com                      |
|    \\/     M anipulation  |                                                 |
\*---------------------------------------------------------------------------*/
FoamFile
{
    version     2.0;
    format      ascii;
    arch        "LSB;label=32;scalar=64";
    class       volScalarField;
    location    "23";
    object      p;
}
// * * * * * * * * * * * * * * * * * * * * * * * * * * * * * * * * * * * * * //

dimensions      [1 -1 -2 0 0 0 0];

internalField   nonuniform List<scalar> 
7000
(
1.63883
3.7567
11.4555
11.5282
11.0977
10.6882
10.5694
10.584
10.625
10.6648
10.6866
10.7003
10.7148
10.7326
10.7529
10.7751
10.7989
10.8244
10.8516
10.8806
10.9114
10.9441
10.9786
11.015
11.0532
11.0933
11.1351
11.1788
11.2242
11.2712
11.3199
11.37
11.4214
11.474
11.5275
11.5817
11.6363
11.6909
11.7452
11.7985
11.8505
11.9006
11.948
11.9922
12.0325
12.0681
12.0984
12.1228
12.1405
12.1534
1.63914
3.75541
11.455
11.5275
11.0972
10.6878
10.5691
10.5837
10.6246
10.6643
10.6861
10.6999
10.7143
10.732
10.7524
10.7746
10.7984
10.8238
10.851
10.8799
10.9107
10.9434
10.9779
11.0142
11.0524
11.0924
11.1342
11.1778
11.2232
11.2702
11.3188
11.3689
11.4203
11.4728
11.5263
11.5805
11.6351
11.6897
11.744
11.7974
11.8495
11.8996
11.9471
11.9914
12.0318
12.0675
12.0979
12.1225
12.1402
12.1532
1.63903
3.75448
11.4531
11.5267
11.0965
10.6871
10.5684
10.5829
10.6238
10.6634
10.6851
10.6988
10.7133
10.7309
10.7512
10.7733
10.7971
10.8224
10.8495
10.8784
10.9091
10.9417
10.9761
11.0123
11.0504
11.0903
11.132
11.1755
11.2207
11.2676
11.3161
11.366
11.4173
11.4697
11.523
11.5771
11.6315
11.686
11.7402
11.7935
11.8454
11.8955
11.943
11.9872
12.0276
12.0634
12.0938
12.1184
12.136
12.1489
1.6389
3.75319
11.4498
11.5256
11.0955
10.6859
10.5672
10.5817
10.6225
10.662
10.6836
10.6972
10.7116
10.7291
10.7493
10.7714
10.795
10.8202
10.8472
10.876
10.9066
10.939
10.9733
11.0093
11.0472
11.087
11.1285
11.1718
11.2168
11.2635
11.3117
11.3614
11.4124
11.4646
11.5177
11.5715
11.6257
11.68
11.7339
11.787
11.8388
11.8887
11.9361
11.9803
12.0206
12.0563
12.0868
12.1114
12.1288
12.1417
1.63872
3.75132
11.445
11.5242
11.0943
10.6843
10.5655
10.58
10.6207
10.66
10.6814
10.6949
10.7092
10.7266
10.7467
10.7686
10.7921
10.8171
10.844
10.8726
10.903
10.9352
10.9692
11.0051
11.0428
11.0822
11.1235
11.1665
11.2112
11.2575
11.3054
11.3548
11.4054
11.4572
11.51
11.5634
11.6173
11.6712
11.7248
11.7776
11.8291
11.8788
11.9261
11.9701
12.0104
12.0461
12.0765
12.1011
12.1185
12.1315
1.63851
3.7488
11.4388
11.5224
11.0926
10.6822
10.5632
10.5777
10.6182
10.6573
10.6785
10.6919
10.706
10.7233
10.7432
10.7649
10.7882
10.8131
10.8397
10.8681
10.8982
10.9302
10.9639
10.9995
11.0368
11.0759
11.1168
11.1595
11.2038
11.2497
11.2971
11.346
11.3961
11.4474
11.4997
11.5526
11.6059
11.6594
11.7125
11.7649
11.8161
11.8654
11.9124
11.9563
11.9964
12.032
12.0624
12.087
12.1044
12.1175
1.63824
3.74556
11.4309
11.5202
11.0906
10.6796
10.5603
10.5747
10.6151
10.6539
10.6749
10.688
10.702
10.7191
10.7387
10.7602
10.7833
10.8079
10.8342
10.8623
10.8922
10.9238
10.9572
10.9923
11.0293
11.068
11.1084
11.1505
11.1943
11.2396
11.2865
11.3347
11.3843
11.4349
11.4865
11.5387
11.5914
11.6442
11.6967
11.7485
11.7991
11.848
11.8945
11.9381
11.978
12.0135
12.0438
12.0685
12.0859
12.0992
1.63792
3.74157
11.4212
11.5174
11.0881
10.6764
10.5567
10.571
10.6111
10.6497
10.6704
10.6833
10.697
10.7139
10.7333
10.7545
10.7772
10.8015
10.8275
10.8553
10.8847
10.9159
10.9489
10.9836
11.02
11.0581
11.098
11.1395
11.1826
11.2272
11.2733
11.3208
11.3696
11.4194
11.4701
11.5215
11.5733
11.6252
11.6769
11.7279
11.7778
11.826
11.872
11.9151
11.9547
11.9899
12.0202
12.0449
12.0623
12.0758
1.63755
3.73677
11.4096
11.5141
11.0851
10.6726
10.5524
10.5665
10.6064
10.6446
10.665
10.6776
10.691
10.7076
10.7267
10.7475
10.7699
10.7939
10.8194
10.8467
10.8757
10.9064
10.9389
10.973
11.0088
11.0462
11.0854
11.1261
11.1684
11.2122
11.2575
11.304
11.3517
11.4005
11.4502
11.5005
11.5512
11.6021
11.6527
11.7026
11.7515
11.7989
11.8441
11.8865
11.9256
11.9605
11.9905
12.0152
12.0326
12.0465
1.63713
3.7311
11.396
11.5103
11.0815
10.668
10.5473
10.5613
10.6008
10.6386
10.6586
10.6709
10.684
10.7001
10.7189
10.7393
10.7613
10.7848
10.8099
10.8366
10.8651
10.8952
10.927
10.9604
10.9955
11.0322
11.0704
11.1103
11.1516
11.1944
11.2386
11.284
11.3305
11.378
11.4264
11.4754
11.5247
11.5742
11.6234
11.6721
11.7197
11.7658
11.81
11.8515
11.8898
11.9241
11.9538
11.9784
11.9958
12.01
1.63664
3.72451
11.3803
11.5058
11.0775
10.6628
10.5413
10.555
10.5941
10.6315
10.6511
10.663
10.6756
10.6914
10.7097
10.7297
10.7511
10.7741
10.7987
10.8248
10.8526
10.882
10.9131
10.9457
10.9799
11.0157
11.053
11.0918
11.132
11.1735
11.2164
11.2604
11.3055
11.3516
11.3983
11.4457
11.4933
11.5411
11.5886
11.6355
11.6815
11.726
11.7686
11.8088
11.846
11.8795
11.9085
11.9329
11.9502
11.9649
1.63608
3.71697
11.3623
11.5006
11.0727
10.6567
10.5343
10.5478
10.5864
10.6232
10.6424
10.6538
10.666
10.6813
10.6991
10.7185
10.7394
10.7618
10.7857
10.8112
10.8382
10.8668
10.897
10.9287
10.9619
10.9966
11.0327
11.0703
11.1092
11.1493
11.1907
11.2331
11.2765
11.3207
11.3656
11.4109
11.4566
11.5022
11.5475
11.5922
11.636
11.6784
11.719
11.7573
11.7928
11.8249
11.853
11.8768
11.8938
11.9089
1.63547
3.70845
11.342
11.4947
11.0673
10.6498
10.5264
10.5395
10.5775
10.6137
10.6323
10.6432
10.6549
10.6697
10.6868
10.7057
10.7259
10.7476
10.7708
10.7955
10.8217
10.8494
10.8786
10.9092
10.9413
10.9748
11.0096
11.0457
11.083
11.1215
11.1611
11.2016
11.243
11.2851
11.3277
11.3707
11.4138
11.4568
11.4994
11.5413
11.5822
11.6218
11.6595
11.6952
11.7282
11.7581
11.7844
11.8071
11.8236
11.8393
1.63479
3.69888
11.3193
11.488
11.0612
10.6421
10.5173
10.5301
10.5673
10.6028
10.6208
10.6312
10.6423
10.6564
10.6729
10.6911
10.7106
10.7315
10.7539
10.7777
10.8029
10.8296
10.8577
10.8871
10.9179
10.9499
10.9832
11.0177
11.0533
11.0899
11.1274
11.1657
11.2048
11.2443
11.2843
11.3244
11.3644
11.4042
11.4434
11.4818
11.519
11.5548
11.5887
11.6205
11.6498
11.6764
11.6999
11.7205
11.7358
11.7517
1.63407
3.68825
11.2943
11.4804
11.0542
10.6334
10.507
10.5194
10.5556
10.5904
10.6078
10.6175
10.6279
10.6413
10.6571
10.6745
10.6933
10.7133
10.7347
10.7576
10.7817
10.8073
10.8341
10.8622
10.8914
10.9219
10.9535
10.9861
11.0197
11.0541
11.0893
11.1251
11.1614
11.198
11.2348
11.2715
11.3079
11.3438
11.3788
11.4127
11.4451
11.4758
11.5045
11.5308
11.5546
11.5758
11.5944
11.6111
11.6239
11.6401
1.63327
3.67664
11.2668
11.472
11.0465
10.6238
10.4955
10.5072
10.5424
10.5763
10.593
10.602
10.6117
10.6243
10.6393
10.6559
10.6737
10.6928
10.7133
10.735
10.758
10.7822
10.8076
10.8342
10.8618
10.8905
10.9202
10.9507
10.982
11.014
11.0465
11.0794
11.1126
11.1458
11.1789
11.2116
11.2437
11.2748
11.3046
11.3329
11.3592
11.3832
11.4046
11.4232
11.4389
11.4517
11.4622
11.4716
11.4788
11.4937
1.63242
3.6641
11.2371
11.4629
11.0382
10.613
10.4825
10.4936
10.5275
10.5604
10.5763
10.5845
10.5934
10.6053
10.6194
10.6351
10.6519
10.67
10.6893
10.7098
10.7315
10.7543
10.7782
10.8031
10.8289
10.8556
10.8831
10.9113
10.94
10.9692
10.9988
11.0284
11.058
11.0873
11.1162
11.1442
11.1711
11.1965
11.22
11.2413
11.2598
11.2751
11.2867
11.2944
11.2976
11.2969
11.2935
11.2891
11.2851
11.2958
1.63152
3.65072
11.2052
11.4531
11.029
10.601
10.4679
10.4782
10.5105
10.5424
10.5574
10.5649
10.573
10.5839
10.5971
10.6118
10.6276
10.6446
10.6627
10.6819
10.7021
10.7234
10.7456
10.7686
10.7924
10.817
10.8421
10.8677
10.8936
10.9198
10.9459
10.9719
10.9974
11.0223
11.0462
11.0688
11.0897
11.1084
11.1243
11.137
11.1458
11.1497
11.1481
11.1411
11.1262
11.1043
11.0764
11.0457
11.0154
11.0117
1.63058
3.6367
11.1718
11.4426
11.0191
10.5878
10.4515
10.4608
10.4915
10.5222
10.5364
10.5431
10.5503
10.5603
10.5725
10.5861
10.6008
10.6166
10.6333
10.6511
10.6698
10.6894
10.7097
10.7307
10.7524
10.7745
10.797
10.8198
10.8426
10.8654
10.8878
10.9097
10.9308
10.9507
10.969
10.9855
10.9994
11.0102
11.0173
11.0192
11.0164
11.0069
10.9875
10.9584
10.9176
10.8633
10.7941
10.7121
10.6216
10.5662
1.62963
3.6223
11.1376
11.4315
11.0083
10.5729
10.4328
10.441
10.4696
10.4991
10.5125
10.5184
10.5247
10.5337
10.5449
10.5575
10.571
10.5855
10.6009
10.6171
10.6342
10.6519
10.6703
10.6892
10.7085
10.728
10.7477
10.7674
10.7868
10.8058
10.8242
10.8416
10.8576
10.872
10.8842
10.8936
10.8998
10.9013
10.8985
10.8896
10.871
10.8428
10.802
10.7457
10.6689
10.5658
10.4278
10.2469
10.0131
9.75867
1.62883
3.604
11.0969
11.4183
10.9946
10.5536
10.408
10.4146
10.4404
10.4686
10.4812
10.4862
10.4913
10.4991
10.509
10.5201
10.5322
10.545
10.5587
10.573
10.5879
10.6034
10.6192
10.6353
10.6516
10.6679
10.684
10.6997
10.7149
10.7292
10.7424
10.754
10.7637
10.771
10.7752
10.7751
10.7722
10.7634
10.7453
10.7186
10.6808
10.6287
10.558
10.4618
10.3309
10.1485
9.88551
9.48031
8.78195
7.25973
1.62803
3.58451
11.0538
11.4011
10.9755
10.5254
10.3717
10.3764
10.3989
10.4264
10.4388
10.4433
10.4475
10.4541
10.4627
10.4725
10.4829
10.494
10.5056
10.5177
10.5302
10.5429
10.5557
10.5686
10.5813
10.5937
10.6055
10.6165
10.6265
10.6352
10.6421
10.647
10.6488
10.6478
10.6436
10.6337
10.6167
10.5922
10.5585
10.5128
10.4523
10.372
10.2656
10.1233
9.93021
9.66254
9.2787
8.70976
7.86746
6.48118
1.62757
3.57324
11.0289
11.3895
10.96
10.497
10.3326
10.3348
10.3536
10.3808
10.3933
10.3971
10.4002
10.4054
10.4126
10.4209
10.4297
10.4389
10.4484
10.4582
10.4681
10.4781
10.4878
10.4973
10.5063
10.5147
10.5221
10.5283
10.5331
10.5359
10.5361
10.5346
10.5297
10.5195
10.5041
10.4827
10.4538
10.4156
10.366
10.302
10.2195
10.1137
9.97635
9.79767
9.56232
9.24912
8.82886
8.26132
7.52947
6.55649
1.62694
3.56403
11.0056
11.3681
10.932
10.4516
10.2776
10.2799
10.3002
10.3308
10.3448
10.3483
10.3505
10.3548
10.361
10.368
10.3753
10.3827
10.3902
10.3976
10.405
10.4121
10.4187
10.4248
10.4302
10.4345
10.4375
10.4389
10.4384
10.4363
10.4311
10.4216
10.4082
10.3899
10.3657
10.3345
10.2945
10.2441
10.1807
10.1012
10.0018
9.87728
9.7208
9.5236
9.27452
8.95976
8.5647
8.07363
7.49328
6.76423
1.62766
3.5984
11.0671
11.3654
10.9046
10.3859
10.2007
10.2059
10.2341
10.272
10.2884
10.292
10.2937
10.2973
10.303
10.3091
10.3152
10.3211
10.3268
10.3322
10.3373
10.3419
10.3457
10.3488
10.3507
10.3512
10.3505
10.3482
10.343
10.3348
10.3234
10.3082
10.2883
10.2631
10.2312
10.1916
10.1425
10.0822
10.0083
9.91802
9.80778
9.67322
9.50902
9.30887
9.06549
8.77114
8.41856
8.00059
7.51966
6.96863
1.58994
3.70887
11.0719
11.2743
10.8238
10.3045
10.1316
10.1416
10.1782
10.2181
10.2346
10.2383
10.2403
10.244
10.2489
10.2538
10.2583
10.2623
10.2659
10.269
10.2715
10.2732
10.274
10.2738
10.2727
10.2698
10.2645
10.2573
10.2475
10.2346
10.2181
10.1975
10.1719
10.1405
10.1022
10.0558
9.99974
9.93232
9.85151
9.75479
9.63929
9.50157
9.33777
9.14356
8.9145
8.64614
8.33513
7.97881
7.57917
7.13152
1.55511
4.81611
11.223
10.9532
10.3121
10.0552
10.0508
10.0774
10.1248
10.1513
10.161
10.1652
10.1695
10.1745
10.1796
10.1842
10.1881
10.1912
10.1936
10.1952
10.1957
10.1955
10.1945
10.1921
10.1876
10.1816
10.1739
10.1638
10.1507
10.1342
10.1137
10.0887
10.0585
10.0222
9.97902
9.92763
9.86684
9.79504
9.71047
9.61108
9.49459
9.35843
9.19987
9.01601
8.80414
8.56183
8.28763
7.98151
7.64483
7.27035
1.556
4.82309
11.1728
10.8841
10.2395
10.0002
10.0104
10.0528
10.1013
10.123
10.129
10.1315
10.1346
10.1378
10.1404
10.142
10.1427
10.1426
10.1419
10.1401
10.137
10.1331
10.1282
10.1219
10.1139
10.104
10.0918
10.0771
10.0595
10.0388
10.0144
9.98574
9.95201
9.91214
9.86519
9.81032
9.74631
9.67191
9.58574
9.48614
9.37139
9.23958
9.08879
8.91708
8.72284
8.50465
8.26179
7.99376
7.70687
7.39083
1.56615
4.8422
11.2354
10.904
10.1833
9.92276
9.93786
9.99259
10.0499
10.0743
10.0807
10.0834
10.0868
10.0901
10.0925
10.0935
10.0933
10.0924
10.09
10.0858
10.0807
10.0744
10.0667
10.0573
10.0461
10.0329
10.0173
9.99923
9.97826
9.954
9.92579
9.89299
9.85505
9.81155
9.76176
9.70465
9.63927
9.56421
9.47827
9.38018
9.26878
9.14259
9.00045
8.841
8.6633
8.46664
8.25135
8.01722
7.76812
7.49769
1.55647
4.82039
11.1595
10.8522
10.1592
9.89797
9.91004
9.95931
10.0155
10.0397
10.0453
10.0468
10.0488
10.0507
10.0514
10.051
10.0494
10.046
10.0411
10.0352
10.0281
10.0197
10.0096
9.99775
9.98393
9.96793
9.94948
9.92839
9.90426
9.87677
9.84539
9.8097
9.76923
9.72326
9.67116
9.61202
9.54512
9.46965
9.38481
9.28951
9.18281
9.06348
8.9305
8.78307
8.62089
8.4439
8.25229
8.04546
7.82705
7.59232
1.52729
4.76278
10.952
10.7276
10.1507
9.90256
9.90349
9.9329
9.98155
10.0048
10.0106
10.0113
10.012
10.0122
10.0117
10.0101
10.0064
10.0013
9.99507
9.98768
9.97885
9.96846
9.95631
9.94231
9.9262
9.90791
9.88708
9.86357
9.83695
9.80697
9.77325
9.73536
9.69281
9.64505
9.59156
9.5317
9.46482
9.39018
9.3071
9.21472
9.11225
8.99913
8.87485
8.73895
8.59092
8.43046
8.25768
8.07473
7.88202
7.67603
1.51122
4.71727
10.8688
10.7326
10.2339
9.94115
9.88938
9.90772
9.94716
9.97125
9.97797
9.9777
9.97653
9.97422
9.97132
9.96749
9.9624
9.95604
9.94839
9.93941
9.92892
9.91683
9.90295
9.88722
9.86937
9.8493
9.82666
9.80133
9.77293
9.74121
9.70584
9.66642
9.62263
9.57396
9.51991
9.46
9.39373
9.32053
9.23985
9.15104
9.05358
8.94697
8.83083
8.70482
8.56882
8.42294
8.2675
8.10317
7.9312
7.74861
1.66808
3.29267
10.5072
11.0129
10.5969
10.0772
9.88903
9.89299
9.91826
9.95131
9.96202
9.96086
9.9569
9.95054
9.9447
9.93877
9.93186
9.92361
9.91395
9.90288
9.89032
9.8761
9.86008
9.84228
9.82239
9.80025
9.77558
9.74825
9.71791
9.68439
9.64734
9.60645
9.56133
9.51163
9.45694
9.39694
9.33127
9.25948
9.18113
9.0958
9.00299
8.9024
8.79378
8.67687
8.55168
8.41834
8.27715
8.12861
7.97389
7.81051
1.676
3.16906
10.4414
11.1646
10.7158
10.112
9.86725
9.85441
9.87216
9.90433
9.91477
9.9129
9.90689
9.89754
9.88991
9.88337
9.87642
9.86822
9.85855
9.8474
9.83472
9.82038
9.80422
9.78607
9.7658
9.74322
9.71806
9.69019
9.65928
9.62522
9.58766
9.54642
9.50123
9.45182
9.39793
9.33914
9.27506
9.20534
9.12967
9.04765
8.95903
8.86367
8.76152
8.65272
8.53708
8.4147
8.28576
8.15071
8.01052
7.86307
1.64116
3.05454
9.91257
11.0086
10.6486
10.1097
9.88653
9.86567
9.87664
9.89496
9.89662
9.89267
9.88252
9.86915
9.85797
9.84827
9.83848
9.82772
9.81574
9.8025
9.78793
9.7719
9.75422
9.73474
9.71326
9.68963
9.66363
9.63502
9.60354
9.56902
9.53127
9.49005
9.44511
9.39619
9.34302
9.2853
9.22274
9.1551
9.08214
9.00375
8.91981
8.83012
8.73447
8.63271
8.52476
8.41097
8.29219
8.16871
8.04103
7.90717
1.43603
4.54905
10.3365
10.5121
10.2196
9.92502
9.81704
9.81442
9.8227
9.8332
9.83312
9.82958
9.82053
9.80856
9.79831
9.78918
9.77969
9.76907
9.75717
9.74397
9.72942
9.71336
9.69564
9.67609
9.65457
9.63089
9.60491
9.57636
9.54508
9.51097
9.47378
9.43325
9.38919
9.34138
9.28961
9.23364
9.17325
9.10826
9.03851
8.96385
8.88417
8.79934
8.7093
8.61407
8.51403
8.40929
8.29972
8.18557
8.06782
7.94503
1.63351
3.00308
9.72749
10.8963
10.5815
10.0812
9.86174
9.82748
9.83283
9.83931
9.83656
9.8274
9.81072
9.79492
9.78131
9.76875
9.75592
9.74209
9.72706
9.71096
9.69377
9.67529
9.65532
9.6337
9.61026
9.58489
9.5574
9.52775
9.49578
9.46117
9.42371
9.3832
9.33949
9.29242
9.24178
9.18734
9.12891
9.06634
8.9995
8.92824
8.8525
8.77223
8.68744
8.59817
8.50456
8.40673
8.30484
8.19926
8.09061
7.97762
1.64237
2.93497
9.72889
11.0213
10.6399
10.049
9.79174
9.75823
9.76838
9.78403
9.78294
9.7758
9.75984
9.74275
9.72891
9.71678
9.70452
9.69143
9.67731
9.66194
9.64517
9.62696
9.60721
9.58579
9.5626
9.53747
9.51024
9.4808
9.44898
9.41462
9.37756
9.33769
9.29481
9.24871
9.19924
9.1463
9.08977
9.02953
8.96546
8.89749
8.82555
8.74959
8.6696
8.58566
8.49783
8.40625
8.31113
8.21292
8.11205
8.00726
1.64068
2.91566
9.67439
10.9997
10.6149
10.0089
9.74228
9.70717
9.71831
9.73664
9.73613
9.72989
9.71491
9.69731
9.68319
9.67112
9.65903
9.64597
9.6317
9.61615
9.59926
9.58097
9.56116
9.53972
9.51653
9.49145
9.46436
9.43512
9.40361
9.36969
9.33323
9.2941
9.25215
9.20724
9.15923
9.10802
9.05353
8.99567
8.93436
8.86955
8.80116
8.72917
8.6536
8.57452
8.49202
8.40626
8.31731
8.22551
8.13133
8.03362
1.62631
2.92422
9.5063
10.8592
10.5493
9.99827
9.74268
9.6948
9.69951
9.70779
9.70547
9.69693
9.67971
9.66299
9.64866
9.63557
9.62236
9.60831
9.59319
9.57695
9.55949
9.54072
9.52052
9.49877
9.47535
9.45014
9.42301
9.39386
9.36257
9.32902
9.29306
9.25459
9.21348
9.16967
9.12305
9.07356
9.02107
8.96549
8.90676
8.84486
8.77974
8.7114
8.63985
8.56515
8.4874
8.40672
8.32334
8.23736
8.1491
8.0575
1.39426
4.4817
10.0356
10.3044
10.0238
9.73615
9.62828
9.61914
9.62454
9.63112
9.63005
9.62483
9.6135
9.60079
9.58933
9.57847
9.56712
9.55467
9.54094
9.52588
9.50947
9.49164
9.47231
9.45139
9.4288
9.40442
9.37813
9.34986
9.3195
9.28698
9.25218
9.21501
9.17536
9.13317
9.08834
9.04081
8.99049
8.93729
8.88122
8.82223
8.76034
8.69556
8.62788
8.55734
8.48398
8.40789
8.3293
8.24825
8.16512
8.07893
1.63154
2.94791
9.59358
10.8425
10.4985
9.90966
9.63617
9.59382
9.60412
9.62456
9.62614
9.62147
9.60907
9.59175
9.57683
9.5637
9.55048
9.53622
9.52066
9.50375
9.48563
9.46611
9.44522
9.42295
9.39925
9.37398
9.34699
9.31819
9.28745
9.25468
9.21988
9.18299
9.14395
9.10265
9.05901
9.01293
8.96436
8.91324
8.8595
8.80309
8.74398
8.68217
8.6177
8.55063
8.48105
8.40907
8.3348
8.25833
8.17988
8.09854
1.64178
3.07737
9.86642
10.7745
10.392
9.78013
9.51823
9.49807
9.51539
9.54819
9.55766
9.55499
9.54663
9.53239
9.51991
9.50903
9.49796
9.48566
9.4719
9.45677
9.44042
9.42278
9.40365
9.3829
9.36043
9.33623
9.31027
9.28252
9.25291
9.2214
9.18793
9.1524
9.11473
9.07486
9.03271
8.98825
8.94142
8.89218
8.84051
8.78639
8.72984
8.67089
8.60956
8.5458
8.4797
8.41133
8.34079
8.26819
8.19374
8.11657
1.40441
4.5456
10.1043
10.1594
9.8536
9.54624
9.44669
9.45199
9.47137
9.49135
9.49708
9.49556
9.49052
9.48106
9.47172
9.46266
9.45289
9.44178
9.4292
9.41517
9.39973
9.38281
9.36434
9.34426
9.32252
9.29911
9.27399
9.24711
9.2184
9.18782
9.15535
9.12095
9.08455
9.04609
9.00552
8.96279
8.91786
8.8707
8.82129
8.76961
8.71565
8.65941
8.60092
8.54028
8.47749
8.41262
8.34572
8.27686
8.2062
8.13293
1.38836
4.55533
10.0006
10.0255
9.7837
9.55147
9.46908
9.46644
9.47261
9.48202
9.48371
9.48163
9.47568
9.46564
9.45534
9.44492
9.43372
9.42132
9.40764
9.39266
9.3764
9.35882
9.33987
9.31948
9.2976
9.27418
9.24917
9.22253
9.19422
9.1642
9.13236
9.09866
9.06304
9.02546
8.98587
8.94424
8.90053
8.85469
8.8068
8.75693
8.70504
8.65105
8.59498
8.53685
8.47669
8.41453
8.35045
8.28456
8.21703
8.1471
1.4215
4.56877
10.2125
10.1824
9.79839
9.46299
9.36983
9.38179
9.413
9.43747
9.44439
9.44301
9.4384
9.4298
9.42084
9.41172
9.40176
9.39047
9.37772
9.36352
9.34789
9.33078
9.3122
9.29215
9.2706
9.24752
9.22286
9.1966
9.16873
9.13919
9.10794
9.07493
9.04011
9.00348
8.96503
8.92474
8.8826
8.83863
8.79271
8.74477
8.69483
8.64294
8.58914
8.53342
8.47582
8.41636
8.35512
8.29214
8.22753
8.16047
1.53228
3.35216
9.88877
10.7068
10.319
9.67682
9.39295
9.36713
9.38477
9.42063
9.43479
9.43376
9.42911
9.41933
9.40886
9.39887
9.38842
9.37677
9.36369
9.34917
9.33326
9.31599
9.29733
9.27722
9.25562
9.23251
9.20778
9.18143
9.15356
9.12407
9.0929
9.06003
9.02549
8.98925
8.9513
8.91161
8.87018
8.82699
8.78201
8.73522
8.68666
8.63635
8.5842
8.53024
8.47456
8.41724
8.3583
8.2978
8.23583
8.1717
1.39673
4.5341
10.0661
10.0951
9.79207
9.467
9.34501
9.34345
9.35486
9.37632
9.38514
9.38445
9.38093
9.37327
9.36431
9.35556
9.34636
9.336
9.32421
9.31095
9.29629
9.28022
9.26272
9.24375
9.22327
9.20126
9.17769
9.15255
9.12587
9.09762
9.06779
9.03639
9.00335
8.96862
8.93217
8.89399
8.85408
8.81243
8.76905
8.72392
8.67704
8.6284
8.57812
8.52624
8.47273
8.41762
8.36096
8.3028
8.24328
8.18184
1.39412
4.53121
10.0487
10.0822
9.77549
9.44762
9.32742
9.32772
9.34029
9.36305
9.37243
9.37155
9.36749
9.3589
9.34923
9.33975
9.32979
9.31867
9.30617
9.29228
9.27707
9.26057
9.24275
9.22359
9.20308
9.18116
9.15787
9.13318
9.10698
9.07921
9.04987
9.01892
8.98639
8.95231
8.91665
8.87942
8.84056
8.80008
8.75796
8.7142
8.66882
8.62181
8.57322
8.52306
8.47133
8.41807
8.36331
8.30709
8.24949
8.19005
1.53045
3.34016
9.84933
10.6877
10.3015
9.63701
9.3332
9.29748
9.31403
9.34883
9.36403
9.36314
9.35857
9.34872
9.3379
9.32795
9.31789
9.30683
9.29441
9.28063
9.26553
9.24912
9.23138
9.2123
9.19182
9.16987
9.1466
9.12189
9.09569
9.06798
9.03877
9.00804
8.97582
8.94211
8.90689
8.87015
8.83188
8.79207
8.75072
8.70783
8.6634
8.61746
8.57001
8.52108
8.47067
8.41884
8.3656
8.311
8.25515
8.19764
1.40812
4.54765
10.1185
10.0922
9.70676
9.3539
9.24374
9.25299
9.28227
9.31125
9.32085
9.31992
9.31603
9.30797
9.29932
9.29084
9.2818
9.27159
9.26002
9.2471
9.23287
9.21736
9.20055
9.18241
9.16292
9.14205
9.11981
9.09618
9.07111
9.04459
9.01659
8.98717
8.9563
8.92396
8.89012
8.85478
8.81794
8.7796
8.73977
8.69843
8.65556
8.61117
8.56528
8.51791
8.4691
8.41886
8.3672
8.31422
8.26
8.20413
1.39308
4.55544
10.0076
9.98178
9.66875
9.3884
9.29992
9.30293
9.3151
9.32591
9.32645
9.32396
9.31735
9.30725
9.29722
9.2873
9.27678
9.26524
9.25254
9.23867
9.22364
9.20745
9.19008
9.17152
9.15172
9.13066
9.10833
9.0847
9.05976
9.03348
9.00588
8.97689
8.94647
8.9146
8.88129
8.84653
8.81029
8.77259
8.73343
8.69283
8.65081
8.60737
8.56251
8.51623
8.46855
8.41947
8.36907
8.31731
8.26424
8.20942
1.38511
4.54771
9.9589
9.94752
9.65887
9.38714
9.29487
9.29419
9.30035
9.30805
9.30811
9.30585
9.2997
9.2898
9.27986
9.27006
9.25971
9.24841
9.23602
9.22254
9.20796
9.19223
9.17533
9.15722
9.13789
9.1173
9.09545
9.0723
9.04785
9.02207
8.99494
8.96644
8.93657
8.9053
8.87263
8.83858
8.80313
8.76629
8.72802
8.68833
8.64722
8.60469
8.56076
8.51543
8.46875
8.42079
8.37148
8.3208
8.26878
8.21498
1.3772
4.50923
9.91935
10.0315
9.73115
9.40328
9.28204
9.27802
9.28662
9.29897
9.30107
9.29871
9.29203
9.28097
9.27026
9.26012
9.24964
9.23823
9.22571
9.21206
9.19731
9.18143
9.16442
9.14623
9.12686
9.10628
9.08448
9.06143
9.03711
9.01152
8.98463
8.95642
8.9269
8.89603
8.86382
8.83025
8.79532
8.75903
8.72136
8.68231
8.6419
8.60014
8.55704
8.51264
8.46688
8.41977
8.37134
8.32163
8.27069
8.21816
1.62613
2.96901
9.5217
10.6175
10.273
9.64735
9.3379
9.27208
9.27964
9.29785
9.30529
9.30303
9.29549
9.28111
9.26792
9.2566
9.24574
9.23419
9.22155
9.20777
9.19291
9.17697
9.15994
9.14178
9.12247
9.10197
9.08026
9.05733
9.03315
9.00771
8.98098
8.95296
8.92364
8.89299
8.86102
8.82771
8.79306
8.75706
8.71972
8.68104
8.64102
8.59967
8.55701
8.51304
8.46778
8.42124
8.37348
8.32458
8.27459
8.2232
1.63545
2.85375
9.48407
10.8212
10.4148
9.67667
9.30955
9.2316
9.24215
9.26811
9.28276
9.28155
9.27541
9.26202
9.2479
9.23632
9.22589
9.21497
9.20289
9.18958
9.17515
9.15963
9.14304
9.12532
9.10647
9.08644
9.06522
9.0428
9.01914
8.99425
8.96809
8.94066
8.91194
8.88193
8.85061
8.81797
8.78402
8.74874
8.71214
8.67421
8.63496
8.59439
8.55251
8.50932
8.46484
8.4191
8.37215
8.32402
8.2748
8.22423
1.62645
2.96225
9.50623
10.6081
10.2636
9.63126
9.31372
9.2461
9.25448
9.27509
9.28525
9.28337
9.27632
9.2619
9.24804
9.23633
9.22537
9.21387
9.2013
9.18761
9.17287
9.1571
9.1403
9.12243
9.10347
9.08337
9.06213
9.03971
9.01611
8.99129
8.96525
8.93796
8.90942
8.87961
8.84851
8.81613
8.78245
8.74747
8.71118
8.67359
8.63469
8.5945
8.55301
8.51024
8.4662
8.42091
8.37438
8.32665
8.27776
8.22733
1.37417
4.50585
9.89993
10.0118
9.70735
9.36526
9.23658
9.23213
9.24165
9.2562
9.25933
9.2571
9.2506
9.23962
9.22902
9.21908
9.20889
9.19784
9.18571
9.17253
9.15832
9.14307
9.12679
9.10943
9.09097
9.07139
9.05066
9.02877
9.0057
8.98143
8.95593
8.92921
8.90123
8.872
8.84149
8.8097
8.77661
8.74224
8.70656
8.66958
8.63129
8.5917
8.55081
8.50864
8.46519
8.42047
8.3745
8.32727
8.27877
8.22852
1.37994
4.54109
9.92443
9.90698
9.60715
9.33009
9.2422
9.2445
9.25521
9.26518
9.26542
9.26283
9.25587
9.24504
9.23443
9.22415
9.21345
9.20186
9.18926
9.17566
9.16108
9.14549
9.12889
9.11123
9.09249
9.07266
9.0517
9.02961
9.00635
8.98192
8.95629
8.92945
8.90139
8.87209
8.84153
8.80972
8.77663
8.74227
8.70664
8.66972
8.63151
8.59203
8.55127
8.50925
8.46596
8.42144
8.37568
8.32871
8.28053
8.23083
1.40413
4.56235
10.0549
9.98747
9.59215
9.2761
9.19329
9.2049
9.23462
9.25503
9.25758
9.25493
9.2479
9.23752
9.22757
9.21788
9.20761
9.19634
9.18401
9.17065
9.15629
9.14092
9.12451
9.10705
9.08852
9.06888
9.04812
9.02622
9.00316
8.97893
8.95349
8.92685
8.89898
8.86987
8.83952
8.8079
8.77501
8.74085
8.7054
8.66868
8.63067
8.59138
8.55081
8.50898
8.46589
8.42156
8.37601
8.32926
8.28135
8.23207
3.04418
2.45892
3.0043
4.18092
4.12696
4.11012
4.04925
4.01157
3.99867
4.00143
4.02907
4.0727
4.10981
4.14051
4.17448
4.21719
4.26885
4.32692
4.38856
4.45146
4.51387
4.5746
4.63314
4.69007
4.74104
4.78638
4.82605
4.86045
4.88957
4.91359
4.93255
4.94663
4.95594
4.96071
4.96111
4.95949
4.95416
4.94287
4.92743
4.90967
4.88965
4.86732
4.84281
4.81637
4.78828
4.75881
4.7282
4.69671
4.66456
4.63198
4.59918
4.56638
4.53377
4.50157
4.46996
4.43915
4.40934
4.38073
4.35351
4.32788
4.30403
4.28215
4.26242
4.24502
4.23008
4.21774
4.20809
4.20116
4.19692
4.19543
4.19565
4.19673
4.19974
4.2064
4.21813
4.23116
4.24452
4.25807
4.27165
4.28498
4.2977
4.30949
4.32009
4.32932
4.33707
4.34329
4.34798
4.35118
4.353
4.3536
4.35352
4.35315
4.35209
4.34978
4.34582
4.34145
4.33693
4.33223
4.3272
4.32278
4.09666
3.55472
3.75731
4.23546
4.15265
4.09597
4.03665
3.99623
3.98458
3.9968
4.03797
4.08843
4.12021
4.14211
4.17114
4.21206
4.26333
4.32136
4.38287
4.44567
4.50799
4.56886
4.62769
4.68435
4.73539
4.78074
4.82052
4.85506
4.88431
4.90847
4.92753
4.94172
4.9511
4.9559
4.95612
4.95494
4.95068
4.94068
4.92372
4.90533
4.88548
4.86348
4.83922
4.81295
4.78498
4.75561
4.72512
4.69374
4.6617
4.62922
4.59651
4.56379
4.53126
4.49912
4.46758
4.43683
4.40706
4.37849
4.3513
4.3257
4.30187
4.28002
4.26031
4.24293
4.22802
4.21573
4.20614
4.1993
4.19529
4.1943
4.19458
4.19574
4.19876
4.20532
4.21712
4.23045
4.24416
4.258
4.27178
4.28527
4.29813
4.31004
4.32074
4.33003
4.33781
4.34404
4.34871
4.35186
4.35364
4.35415
4.35405
4.35367
4.35262
4.35035
4.34628
4.34177
4.33718
4.33256
4.32776
4.32497
5.22615
4.46515
4.23703
4.26878
4.24951
4.19697
4.11485
4.06182
4.04177
4.04425
4.05678
4.08607
4.12134
4.15276
4.18584
4.22649
4.27546
4.33102
4.3904
4.45133
4.51208
4.57153
4.62884
4.68335
4.73354
4.77838
4.81775
4.85181
4.88063
4.90438
4.92308
4.93691
4.94594
4.9503
4.95023
4.94914
4.94549
4.93687
4.9196
4.90022
4.87977
4.85766
4.83352
4.8074
4.77955
4.7503
4.71991
4.68864
4.65671
4.62435
4.59176
4.55916
4.52673
4.4947
4.46325
4.43259
4.40292
4.37443
4.34732
4.32179
4.29804
4.27625
4.25662
4.23932
4.22452
4.21235
4.20293
4.19637
4.1928
4.19245
4.19281
4.19409
4.19725
4.20398
4.21573
4.22932
4.24354
4.25791
4.27215
4.286
4.29914
4.31126
4.32212
4.33152
4.33935
4.34557
4.35019
4.35325
4.35492
4.35522
4.3551
4.35466
4.35353
4.35112
4.34695
4.3423
4.33759
4.33304
4.32844
4.32738
5.8296
5.09656
4.66411
4.46749
4.42869
4.36282
4.27051
4.19009
4.13826
4.11797
4.12029
4.13138
4.1576
4.19459
4.2281
4.26296
4.30383
4.35158
4.40464
4.46072
4.51777
4.5743
4.62908
4.68138
4.7298
4.77355
4.81214
4.84544
4.87357
4.8967
4.91486
4.92817
4.93672
4.94051
4.94034
4.93921
4.93584
4.92807
4.91218
4.89209
4.87074
4.8482
4.82405
4.79813
4.77055
4.74157
4.71144
4.68042
4.64875
4.61664
4.5843
4.55193
4.51974
4.48793
4.4567
4.42625
4.39677
4.36848
4.34157
4.31622
4.29265
4.27105
4.2516
4.23449
4.21989
4.20796
4.19882
4.1927
4.18979
4.18986
4.19039
4.19195
4.19552
4.20288
4.21436
4.228
4.2427
4.25773
4.27261
4.28696
4.30047
4.31286
4.32389
4.3334
4.34127
4.34747
4.35201
4.35499
4.35649
4.3565
4.35634
4.35578
4.35446
4.35172
4.34755
4.34285
4.33804
4.33352
4.32916
4.32925
6.23258
5.59763
5.12317
4.83402
4.68522
4.57228
4.46085
4.35932
4.28183
4.23435
4.21458
4.21553
4.22186
4.23833
4.27083
4.30361
4.33988
4.38118
4.42733
4.47708
4.52889
4.58119
4.63253
4.68177
4.72788
4.76989
4.8072
4.83936
4.8665
4.88879
4.90616
4.91873
4.92664
4.92966
4.9294
4.92816
4.9248
4.91735
4.90231
4.88256
4.86077
4.83767
4.81322
4.78731
4.75994
4.73124
4.70143
4.67073
4.63937
4.60756
4.57552
4.54346
4.51157
4.48005
4.44912
4.41896
4.38978
4.36178
4.33516
4.3101
4.28683
4.26551
4.24636
4.22955
4.21528
4.2037
4.19504
4.18941
4.18728
4.18745
4.18821
4.19016
4.19435
4.20258
4.21381
4.22734
4.24232
4.25788
4.27335
4.28822
4.30211
4.31476
4.32594
4.33552
4.3434
4.34956
4.35401
4.35685
4.35804
4.35798
4.35769
4.35691
4.35523
4.35211
4.34798
4.34329
4.33843
4.33393
4.32994
4.33024
6.53963
6.00458
5.55
5.20628
4.97331
4.80691
4.66981
4.55054
4.45246
4.38037
4.3351
4.31324
4.31316
4.31635
4.32703
4.35021
4.38257
4.41856
4.45734
4.49925
4.5439
4.59017
4.63657
4.68184
4.72483
4.76451
4.80008
4.83099
4.85709
4.87843
4.89487
4.90668
4.91393
4.91616
4.91583
4.91448
4.91103
4.90362
4.88901
4.8701
4.84844
4.82501
4.80023
4.77422
4.74699
4.71861
4.68918
4.6589
4.62796
4.59657
4.56494
4.53328
4.50181
4.47071
4.4402
4.41046
4.38171
4.35415
4.32796
4.30334
4.2805
4.25964
4.24093
4.22456
4.21077
4.19973
4.19163
4.18655
4.18522
4.18549
4.18648
4.18885
4.19383
4.20264
4.214
4.22749
4.24251
4.25831
4.27413
4.28936
4.30355
4.3164
4.32769
4.33729
4.34515
4.35124
4.35562
4.35832
4.35916
4.35906
4.35864
4.35764
4.35555
4.35221
4.34803
4.34334
4.33847
4.33401
4.3303
4.3307
6.78385
6.33336
5.9158
5.55674
5.27618
5.06445
4.89672
4.75674
4.63964
4.54616
4.47751
4.4328
4.40934
4.40359
4.40523
4.41195
4.42775
4.45621
4.488
4.52325
4.56126
4.60111
4.64181
4.68235
4.72162
4.75849
4.79198
4.82138
4.8463
4.86663
4.88229
4.89334
4.89985
4.90131
4.90091
4.89943
4.89582
4.88818
4.87404
4.8558
4.83454
4.81113
4.78621
4.76013
4.733
4.70489
4.67586
4.64603
4.61558
4.58468
4.55355
4.5224
4.49143
4.46085
4.43086
4.40167
4.37346
4.34645
4.32082
4.29678
4.27453
4.25425
4.23615
4.22044
4.20725
4.1968
4.1893
4.18483
4.18431
4.18466
4.18586
4.18867
4.19446
4.20379
4.21539
4.22885
4.24374
4.25946
4.27529
4.2906
4.30488
4.31779
4.32911
4.33871
4.34653
4.35257
4.35682
4.35936
4.3599
4.35976
4.35925