/*--------------------------------*- C++ -*----------------------------------*\
| =========                 |                                                 |
| \\      /  F ield         | OpenFOAM: The Open Source CFD Toolbox           |
|  \\    /   O peration     | Version:  2412                                  |
|   \\  /    A nd           | Website:  www.openfoam.com                      |
|    \\/     M anipulation  |                                                 |
\*---------------------------------------------------------------------------*/
FoamFile
{
    version     2.0;
    format      ascii;
    arch        "LSB;label=32;scalar=64";
    class       surfaceScalarField;
    location    "23";
    object      phi;
}
// * * * * * * * * * * * * * * * * * * * * * * * * * * * * * * * * * * * * * //

dimensions      [1 0 -1 0 0 0 0];

oriented        oriented;

internalField   nonuniform List<scalar> 
13790
(
0.00292374
-1.97103e-07
0.00274462
9.30883e-07
0.002804
3.25394e-06
0.00280525
5.58908e-06
0.00279922
6.47584e-06
0.00279209
7.16763e-06
0.00278413
7.96033e-06
0.00277521
8.91037e-06
0.00276522
9.99803e-06
0.00275398
1.12424e-05
0.0027414
1.25745e-05
0.00272745
1.39557e-05
0.00271206
1.53884e-05
0.00269517
1.68895e-05
0.0026767
1.84717e-05
0.00265655
2.01407e-05
0.00263465
2.18997e-05
0.0026109
2.37532e-05
0.00258519
2.57072e-05
0.00255742
2.77692e-05
0.00252748
2.99474e-05
0.00249523
3.22504e-05
0.00246054
3.46874e-05
0.00242327
3.72684e-05
0.00238327
4.00037e-05
0.00234036
4.29041e-05
0.00229438
4.59805e-05
0.00224514
4.9244e-05
0.00219243
5.27054e-05
0.00213606
5.63745e-05
0.0020758
6.02604e-05
0.00201143
6.43698e-05
0.00194272
6.8708e-05
0.00186944
7.32746e-05
0.00179137
7.80679e-05
0.0017083
8.30756e-05
0.00162002
8.82837e-05
0.00152635
9.36615e-05
0.00142718
9.91763e-05
0.0013224
0.000104772
0.00121201
0.000110391
0.00109607
0.000115946
0.000974711
0.000121356
0.000848211
0.0001265
0.000716917
0.000131293
0.000581309
0.000135608
0.000441836
0.000139474
0.000299161
0.000142674
0.000152277
0.000146884
0.000152277
0.00303216
2.04341e-08
0.0028463
8.42606e-07
0.00290647
8.61715e-06
0.00290779
1.12912e-05
0.00290193
1.28135e-05
0.00289474
1.43805e-05
0.00288655
1.61535e-05
0.00287731
1.81561e-05
0.00286691
2.03958e-05
0.00285524
2.29115e-05
0.00284221
2.56036e-05
0.00282776
2.84087e-05
0.00281182
3.13273e-05
0.00279432
3.43876e-05
0.00277518
3.76109e-05
0.00275431
4.10102e-05
0.00273162
4.45917e-05
0.00270701
4.83664e-05
0.00268037
5.23452e-05
0.00265159
5.65447e-05
0.00262056
6.09798e-05
0.00258714
6.56699e-05
0.0025512
7.06322e-05
0.00251257
7.58885e-05
0.00247112
8.14584e-05
0.00242666
8.73655e-05
0.00237901
9.36309e-05
0.00232797
0.000100278
0.00227335
0.000107329
0.00221492
0.000114803
0.00215246
0.000122721
0.00208574
0.000131094
0.00201451
0.000139937
0.00193854
0.000149246
0.00185758
0.000159021
0.00177142
0.000169236
0.00167984
0.000179866
0.00158266
0.000190845
0.00147972
0.000202115
0.00137093
0.000213555
0.00125627
0.000225056
0.00113578
0.000236433
0.00100961
0.000247528
0.000878012
0.000258097
0.000741359
0.000267945
0.000600112
0.000276855
0.000454842
0.000284744
0.000306088
0.000291428
0.0001542
0.000298772
0.000306476
0.00314487
9.21528e-08
0.00295181
1.21253e-06
0.00301442
1.38905e-05
0.0030157
1.72791e-05
0.00300971
1.92991e-05
0.0030024
2.17267e-05
0.00299397
2.45768e-05
0.00298442
2.77081e-05
0.00297366
3.11609e-05
0.00296157
3.49941e-05
0.00294809
3.90859e-05
0.00293314
4.33563e-05
0.00291666
4.78159e-05
0.00289855
5.24901e-05
0.00287875
5.74177e-05
0.00285715
6.26054e-05
0.00283366
6.80778e-05
0.00280819
7.38367e-05
0.00278062
7.99161e-05
0.00275084
8.63227e-05
0.00271872
9.30992e-05
0.00268414
0.000100253
0.00264694
0.000107836
0.00260697
0.000115853
0.00256407
0.000124364
0.00251806
0.000133375
0.00246874
0.00014295
0.00241592
0.000153091
0.00235939
0.000163868
0.00229891
0.000175274
0.00223425
0.000187381
0.00216518
0.000200165
0.00209143
0.000213691
0.00201276
0.000227915
0.0019289
0.000242877
0.00183964
0.000258502
0.00174472
0.000274784
0.00164396
0.000291605
0.00153719
0.000308883
0.00142429
0.000326449
0.00130525
0.000344102
0.00118005
0.000361633
0.00104889
0.000378681
0.000911945
0.000395046
0.000769667
0.000410224
0.000622493
0.000424029
0.000471053
0.000436183
0.000316165
0.000446315
0.000158593
0.000456344
0.000465069
0.0032618
1.1619e-07
0.00306156
1.67003e-06
0.00312674
1.90932e-05
0.00312806
2.34714e-05
0.00312188
2.5992e-05
0.0031144
2.92442e-05
0.00310577
3.3208e-05
0.00309594
3.75428e-05
0.00308482
4.22791e-05
0.00307234
4.74777e-05
0.00305842
5.30047e-05
0.00304298
5.87903e-05
0.00302596
6.48383e-05
0.00300726
7.11894e-05
0.00298681
7.78742e-05
0.00296449
8.49196e-05
0.00294023
9.23384e-05
0.00291391
0.000100158
0.00288543
0.000108398
0.00285465
0.000117098
0.00282147
0.00012628
0.00278573
0.000135996
0.00274729
0.000146267
0.00270599
0.000157157
0.00266167
0.000168684
0.00261412
0.000180927
0.00256317
0.000193893
0.00250859
0.000207677
0.00245018
0.000222272
0.00238767
0.000237785
0.00232087
0.000254182
0.00224945
0.000271583
0.00217323
0.000289911
0.00209186
0.000309291
0.00200515
0.000329581
0.00191276
0.000350898
0.00181453
0.000373008
0.00171014
0.000395994
0.00159952
0.00041951
0.00148242
0.00044355
0.00135884
0.000467673
0.0012288
0.000491674
0.00109236
0.000515119
0.000949929
0.000537481
0.000801616
0.000558536
0.000648239
0.000577406
0.000490305
0.000594116
0.00032867
0.000607951
0.00016476
0.000620254
0.000629829
0.00338304
1.39617e-07
0.00317539
2.15948e-06
0.00324314
2.43227e-05
0.00324459
2.97956e-05
0.00323827
3.28588e-05
0.00323061
3.69414e-05
0.0032218
4.20192e-05
0.0032117
4.76484e-05
0.00320025
5.37282e-05
0.00318739
6.03366e-05
0.00317306
6.73381e-05
0.00315716
7.4689e-05
0.00313962
8.23739e-05
0.00312035
9.04618e-05
0.00309926
9.8959e-05
0.00307626
0.000107927
0.00305124
0.000117352
0.0030241
0.000127302
0.00299473
0.000137767
0.00296299
0.000148834
0.00292877
0.000160497
0.00289192
0.000172853
0.00285228
0.0001859
0.00280969
0.000199747
0.00276398
0.000214394
0.00271495
0.000229956
0.00266241
0.000246441
0.00260612
0.00026396
0.00254587
0.000282529
0.00248141
0.000302243
0.00241246
0.000323129
0.0023388
0.000345243
0.00226009
0.000368624
0.00217612
0.000393258
0.00208651
0.000419194
0.0019911
0.000446302
0.00188947
0.000474643
0.00178156
0.000503901
0.00166692
0.000534151
0.00154565
0.000564817
0.00141736
0.000595964
0.00128231
0.000626727
0.0011404
0.000657033
0.000991918
0.000685959
0.000837465
0.000712989
0.000677148
0.000737723
0.000512231
0.000759033
0.000343477
0.000776705
0.000172035
0.000791695
0.000801864
0.0035088
1.6334e-07
0.00329346
2.65534e-06
0.0033639
2.95962e-05
0.00336551
3.62229e-05
0.00335906
3.98861e-05
0.00335124
4.48012e-05
0.00334219
5.10712e-05
0.00333188
5.79548e-05
0.00332016
6.5447e-05
0.00330697
7.35259e-05
0.00329224
8.20743e-05
0.0032759
9.10207e-05
0.00325786
0.000100415
0.00323805
0.000110272
0.00321634
0.000120666
0.00319268
0.000131587
0.00316692
0.00014311
0.00313901
0.00015522
0.00310876
0.000168015
0.00307611
0.000181478
0.00304088
0.000195736
0.00300297
0.000210762
0.00296215
0.000226712
0.00291835
0.000243549
0.00287129
0.000261456
0.00282086
0.000280381
0.00276677
0.000300539
0.00270887
0.000321852
0.00264684
0.000344564
0.00258051
0.000368569
0.00250952
0.000394122
0.00243367
0.000421088
0.00235259
0.000449704
0.00226604
0.000479806
0.00217367
0.000511568
0.00207518
0.000544795
0.00197029
0.000579525
0.00185865
0.000615541
0.00174017
0.000652636
0.00161439
0.00069059
0.00148155
0.000728811
0.00134108
0.000767188
0.00119357
0.000804544
0.00103876
0.000840777
0.000877304
0.00087444
0.000709977
0.00090505
0.000537036
0.000931974
0.000360124
0.000953616
0.000180624
0.000971196
0.000982487
0.00363924
1.87403e-07
0.00341591
3.153e-06
0.00348916
3.4909e-05
0.00349097
4.27277e-05
0.00348444
4.70242e-05
0.00347648
5.28009e-05
0.00346728
6.02701e-05
0.00345675
6.8485e-05
0.00344477
7.74223e-05
0.00343127
8.7034e-05
0.00341618
9.71651e-05
0.00339942
0.000107776
0.00338092
0.000118912
0.00336058
0.000130617
0.0033383
0.000142939
0.00331399
0.000155903
0.00328754
0.000169552
0.00325884
0.000183923
0.00322779
0.000199067
0.00319423
0.000215042
0.00315805
0.000231907
0.00311908
0.000249739
0.0030772
0.000268595
0.00303216
0.00028858
0.00298388
0.000309741
0.00293204
0.000332216
0.00287655
0.000356029
0.00281704
0.00038136
0.00275342
0.000408192
0.00268524
0.00043675
0.0026124
0.000466956
0.00253441
0.000499078
0.00245116
0.000532951
0.00236211
0.000568863
0.00226713
0.000606548
0.00216567
0.000646251
0.00205759
0.000687609
0.0019424
0.000730727
0.0018199
0.000775135
0.00168982
0.000820675
0.00155185
0.000866782
0.00140622
0.000912818
0.00125242
0.000958341
0.0010912
0.001002
0.000922297
0.00104334
0.000746703
0.00108064
0.000565541
0.00111314
0.000379441
0.00113972
0.000190151
0.00116049
0.00117264
0.00377453
2.11619e-07
0.00354291
3.64976e-06
0.00361911
4.02442e-05
0.00362115
4.9281e-05
0.00361458
5.42342e-05
0.00360652
6.09015e-05
0.0035972
6.95888e-05
0.0035865
7.91842e-05
0.00357431
8.96202e-05
0.00356053
0.00010081
0.00354512
0.000112578
0.00352799
0.000124902
0.00350907
0.000137837
0.00348825
0.000151439
0.00346543
0.00016575
0.00344053
0.000180807
0.00341343
0.000196649
0.00338403
0.000213326
0.0033522
0.000230896
0.00331781
0.000249426
0.00328073
0.000268989
0.00324081
0.000289662
0.00319787
0.000311535
0.00315175
0.000334695
0.00310224
0.000359249
0.00304917
0.000385286
0.00299227
0.000412936
0.00293135
0.000442276
0.00286608
0.000473462
0.00279629
0.000506541
0.00272154
0.0005417
0.0026417
0.000578918
0.00255623
0.00061843
0.002465
0.000660086
0.00236738
0.00070417
0.00226328
0.000750349
0.00215201
0.000798883
0.00203348
0.000849251
0.00190706
0.000901558
0.00177263
0.000955104
0.00162979
0.00100963
0.00147829
0.00106432
0.00131843
0.0011182
0.00114975
0.00117067
0.000973232
0.00121986
0.000788854
0.00126502
0.000597624
0.00130437
0.000401354
0.00133599
0.00020156
0.00136028
0.0013742
0.00391488
2.35852e-07
0.00367461
4.14234e-06
0.00375393
4.55717e-05
0.00375624
5.58447e-05
0.00374968
6.14778e-05
0.00374157
6.90558e-05
0.00373215
7.90107e-05
0.00372134
8.99899e-05
0.00370899
0.000101977
0.003695
0.000114803
0.00367931
0.000128264
0.00366186
0.000142353
0.00364255
0.000157142
0.0036213
0.000172692
0.003598
0.00018905
0.00357256
0.00020625
0.00354486
0.000224342
0.00351481
0.00024338
0.00348227
0.000263432
0.00344712
0.000284573
0.00340922
0.000306888
0.00336842
0.000330466
0.00332455
0.000355408
0.00327742
0.000381821
0.00322685
0.000409815
0.00317262
0.000439515
0.00311452
0.00047104
0.00305227
0.000504528
0.00298563
0.000540095
0.00291428
0.000577893
0.00283796
0.000618017
0.00275625
0.000660629
0.00266892
0.000705758
0.00257542
0.000753592
0.00247558
0.000804006
0.00236869
0.000857239
0.00225467
0.000912901
0.00213267
0.000971256
0.00200268
0.00103154
0.00186383
0.00109396
0.00171615
0.0011573
0.00155904
0.00122144
0.00139232
0.00128491
0.00121645
0.00134655
0.00103081
0.00140549
0.000836924
0.00145891
0.000635286
0.001506
0.000427026
0.00154424
0.000214247
0.00157306
0.00158844
0.00406045
2.5975e-07
0.00381121
4.62676e-06
0.00389382
5.08446e-05
0.00389647
6.23679e-05
0.00388998
6.86943e-05
0.00388187
7.72121e-05
0.00387245
8.84292e-05
0.00386157
0.000100875
0.00384909
0.000114452
0.00383494
0.00012896
0.00381904
0.000144164
0.00380131
0.000160075
0.00378169
0.000176767
0.00376006
0.000194323
0.00373633
0.000212774
0.00371041
0.000232175
0.00368219
0.000252561
0.00365155
0.000274015
0.00361839
0.000296593
0.00358256
0.000320401
0.00354394
0.000345512
0.00350235
0.000372052
0.00345765
0.00040011
0.00340964
0.000429831
0.00335814
0.00046132
0.00330291
0.000494742
0.00324374
0.000530211
0.00318036
0.000567908
0.0031125
0.000607953
0.00303986
0.000650534
0.00296211
0.000695767
0.00287891
0.000743833
0.00278984
0.000794821
0.00269456
0.000848876
0.00259253
0.000906039
0.00248341
0.000966349
0.00236653
0.00102979
0.00224164
0.00109615
0.00210784
0.00116534
0.00196508
0.00123672
0.00181227
0.00131011
0.0016496
0.00138411
0.0014761
0.00145841
0.00129191
0.00153073
0.00109758
0.00159983
0.00089241
0.00166407
0.000678315
0.0017201
0.000456722
0.00176584
0.000229857
0.00179992
0.0018183
0.00421145
2.83096e-07
0.00395287
5.09705e-06
0.00403898
5.60011e-05
0.00404204
6.8786e-05
0.00403567
7.58391e-05
0.00402764
8.52977e-05
0.00401823
9.78423e-05
0.00400738
0.00011172
0.00399489
0.000126941
0.00398065
0.000143199
0.0039646
0.000160215
0.00394668
0.000177995
0.00392679
0.000196652
0.00390486
0.000216254
0.00388078
0.000236857
0.00385446
0.000258496
0.00382578
0.000281235
0.00379466
0.000305136
0.00376096
0.000330295
0.00372456
0.000356798
0.00368532
0.000384759
0.00364308
0.000414286
0.00359768
0.000445514
0.00354894
0.000478572
0.00349665
0.000513611
0.0034406
0.000550786
0.00338055
0.000590259
0.00331626
0.000632207
0.00324741
0.000676798
0.00317372
0.000724228
0.00309483
0.000774654
0.00301038
0.000828284
0.00291996
0.000885237
0.00282312
0.000945713
0.00271941
0.00100975
0.00260825
0.00107751
0.00248914
0.00114889
0.00236139
0.0012239
0.00222451
0.00130222
0.00207761
0.00138361
0.00192037
0.00146735
0.00175169
0.00155279
0.00157159
0.00163851
0.00137894
0.00172338
0.00117402
0.00180475
0.000957737
0.00188035
0.000729836
0.001948
0.000492305
0.00200337
0.00024751
0.00204472
0.00206581
0.00436807
3.04231e-07
0.0040998
5.54776e-06
0.00418965
6.09426e-05
0.00419321
7.50208e-05
0.00418704
8.28337e-05
0.00417917
9.32208e-05
0.00416994
0.000107073
0.00415917
0.000122487
0.00414672
0.000139399
0.00413246
0.000157457
0.00411635
0.000176328
0.0040983
0.000196046
0.00407824
0.000216705
0.00405608
0.000238418
0.00403173
0.000261203
0.00400509
0.00028514
0.00397607
0.000310251
0.00394455
0.000336658
0.00391043
0.000364409
0.00387357
0.000393662
0.00383385
0.000424477
0.00379109
0.000457045
0.00374517
0.000491441
0.00369585
0.000527887
0.00364299
0.000566473
0.00358632
0.000607455
0.00352565
0.00065093
0.00346066
0.000697189
0.00339113
0.000746336
0.00331667
0.000798684
0.00323698
0.00085434
0.00315165
0.000913622
0.00306025
0.000976632
0.00296231
0.00104365
0.00285729
0.00111477
0.00274465
0.00119015
0.00262368
0.00126986
0.00249378
0.0013538
0.00235402
0.00144198
0.00220382
0.00153381
0.00204199
0.00162918
0.00186808
0.0017267
0.00168079
0.0018258
0.00147993
0.00192425
0.00126437
0.0020203
0.00103402
0.0021107
0.00079045
0.00219157
0.000534732
0.00225909
0.000270106
0.00230934
0.00233592
0.00453055
3.17813e-07
0.00425218
5.98261e-06
0.00434608
6.55213e-05
0.00435021
8.09986e-05
0.00434429
8.96367e-05
0.00433674
0.00010083
0.00432773
0.000116081
0.00431719
0.000133024
0.0043049
0.000151688
0.00429074
0.000171619
0.00427464
0.000192425
0.00425656
0.000214123
0.00423642
0.000236853
0.00421413
0.000260706
0.0041896
0.000285735
0.00416275
0.000311985
0.00413348
0.000339525
0.00410169
0.000368438
0.00406727
0.000398834
0.00403011
0.000430824
0.00399004
0.000464543
0.00394696
0.000500126
0.00390066
0.000537737
0.00385101
0.000577537
0.00379777
0.000619716
0.00374076
0.00066446
0.0036797
0.000711989
0.00361438
0.000762509
0.00354445
0.000816271
0.00346964
0.000873493
0.00338952
0.000934457
0.00330377
0.000999371
0.00321185
0.00106855
0.00311335
0.00114215
0.0030076
0.00122052
0.00289407
0.00130368
0.00277193
0.001392
0.00264046
0.00148527
0.00249872
0.00158372
0.00234564
0.00168689
0.00218032
0.0017945
0.00200114
0.00190588
0.00180748
0.00201946
0.00159749
0.00213423
0.00137095
0.00224685
0.00112699
0.00235466
0.0008652
0.00245336
0.000587465
0.00253682
0.000296634
0.00260018
0.00263255
0.00469909
3.27179e-07
0.0044102
6.38692e-06
0.00450836
6.96978e-05
0.00451323
8.6562e-05
0.00450778
9.60253e-05
0.00450067
0.000108012
0.00449206
0.000124692
0.00448185
0.000143234
0.00446983
0.00016371
0.00445585
0.000185597
0.00443988
0.000208392
0.00442187
0.000232141
0.00440174
0.000256978
0.00437941
0.000283031
0.00435482
0.000310324
0.00432787
0.000338938
0.00429849
0.000368907
0.00426656
0.00040037
0.004232
0.000433393
0.00419467
0.000468156
0.00415447
0.000504743
0.00411122
0.000543372
0.00406481
0.000584148
0.00401502
0.000627325
0.0039617
0.000673032
0.0039046
0.000721559
0.00384353
0.000773063
0.00377818
0.000827863
0.00370829
0.000886158
0.00363351
0.000948273
0.00355349
0.00101447
0.00346781
0.00108505
0.00337601
0.00116035
0.00327755
0.00124061
0.00317182
0.00132625
0.00305812
0.00141738
0.00293569
0.00151443
0.00280354
0.00161742
0.00266072
0.00172654
0.00250589
0.00184173
0.00233778
0.00196261
0.00215487
0.00208879
0.00195515
0.00221919
0.00173736
0.00235203
0.00149874
0.00248546
0.00123861
0.00261479
0.000956594
0.00273538
0.000653278
0.00284014
0.000332523
0.00292093
0.00296507
0.00487393
3.46393e-07
0.00457409
6.71049e-06
0.00467664
7.35558e-05
0.00468249
9.14481e-05
0.00467791
0.000101623
0.00467134
0.000114657
0.0046633
0.000132736
0.00465358
0.000152954
0.00464191
0.000175375
0.00462824
0.000199269
0.00461251
0.000224122
0.00459468
0.000249977
0.00457467
0.00027698
0.00455244
0.000305266
0.0045279
0.000334864
0.00450098
0.000365851
0.00447161
0.000398279
0.00443971
0.000432276
0.00440515
0.000467946
0.00436787
0.000505441
0.0043277
0.000544911
0.00428455
0.000586519
0.00423823
0.00063047
0.00418862
0.000676929
0.00413548
0.000726173
0.00407869
0.000778356
0.0040179
0.000833846
0.00395299
0.000892771
0.00388355
0.000955607
0.00380937
0.00102245
0.00372996
0.00109388
0.00364505
0.00116997
0.00355402
0.00125139
0.00345643
0.0013382
0.00335158
0.0014311
0.00323875
0.00153021
0.0031171
0.00163609
0.00298553
0.00174899
0.0028429
0.00186916
0.00268774
0.00199689
0.00251833
0.00213202
0.00233276
0.00227435
0.00212881
0.00242313
0.00190367
0.00257717
0.00165516
0.00273397
0.00137939
0.00289055
0.00107443
0.00304034
0.000739555
0.00317501
0.000377702
0.00328278
0.00334278
0.00505528
3.61215e-07
0.00474407
6.97227e-06
0.00485155
7.67093e-05
0.00485853
9.55084e-05
0.00485492
0.000106352
0.00484919
0.000120468
0.00484187
0.000140058
0.0048328
0.000162019
0.0048217
0.000186476
0.00480849
0.000212482
0.00479311
0.000239497
0.00477558
0.00026751
0.00475581
0.000296745
0.00473379
0.000327286
0.00470942
0.000359234
0.00468269
0.000392584
0.00465347
0.000427496
0.00462175
0.000463994
0.00458739
0.000502311
0.00455034
0.000542489
0.00451043
0.000584815
0.00446761
0.000629338
0.00442168
0.000676406
0.00437253
0.000726076
0.00431994
0.000778757
0.00426377
0.000834529
0.00420377
0.000893851
0.00413969
0.000956846
0.00407129
0.00102401
0.0039982
0.00109554
0.00392016
0.00117192
0.00383662
0.00125351
0.00374729
0.00134072
0.00365139
0.0014341
0.00354853
0.00153395
0.00343769
0.00164105
0.00331819
0.00175559
0.00318876
0.00187842
0.00304814
0.00200979
0.00289471
0.00215032
0.00272642
0.00230031
0.00254076
0.00246001
0.00233474
0.00262916
0.00210497
0.00280694
0.00184636
0.00299258
0.00155518
0.00318173
0.00122623
0.00336929
0.000855754
0.00354549
0.000444115
0.00369442
0.00378689
0.00524337
3.69429e-07
0.0049204
7.14572e-06
0.00503328
7.88536e-05
0.00504173
9.84189e-05
0.00503936
0.000109933
0.00503476
0.000125162
0.00502839
0.000146425
0.00502017
0.000170235
0.00500981
0.000196836
0.00499718
0.00022511
0.00498229
0.000254385
0.00496516
0.000284642
0.00494576
0.000316145
0.00492407
0.000348979
0.00490003
0.000383274
0.00487359
0.000419017
0.00484472
0.000456365
0.00481334
0.000495374
0.0047794
0.000536256
0.00474278
0.000579109
0.00470342
0.000624172
0.00466117
0.000671589
0.00461596
0.000721615
0.00456758
0.000774456
0.00451596
0.000830378
0.00446082
0.000889669
0.00440207
0.000952594
0.00433938
0.00101954
0.0042726
0.00109078
0.00420133
0.00116681
0.00412534
0.00124791
0.00404415
0.0013347
0.00395735
0.00142751
0.00386443
0.00152702
0.00376464
0.00163374
0.0036574
0.00174829
0.00354151
0.00187147
0.00341615
0.00200378
0.00327961
0.00214632
0.00313029
0.00229964
0.00296608
0.00246452
0.0027839
0.00264219
0.00258005
0.00283301
0.00235069
0.0030363
0.00208924
0.00325404
0.00178648
0.00348448
0.00143338
0.00372239
0.00101965
0.00395922
0.000538156
0.00417591
0.00432505
0.00543846
3.70426e-07
0.0051033
7.19933e-06
0.00522214
7.96223e-05
0.00523251
9.97256e-05
0.00523184
0.000111925
0.00522872
0.000128373
0.00522368
0.000151471
0.00521653
0.000177374
0.00520705
0.000206323
0.00519512
0.000237032
0.00518085
0.00026866
0.00516424
0.000301252
0.00514533
0.00033505
0.00512407
0.000370239
0.00510049
0.000406861
0.0050745
0.000445008
0.00504612
0.00048474
0.00501526
0.000526234
0.00498192
0.000569598
0.00494596
0.000615063
0.00490737
0.000662758
0.004866
0.000712959
0.0048218
0.000765822
0.00477458
0.000821669
0.00472426
0.000880697
0.00467066
0.00094327
0.00461361
0.00100965
0.00455292
0.00108023
0.00448833
0.00115537
0.00441965
0.00123549
0.00434647
0.00132109
0.0042686
0.00141257
0.00418545
0.00151066
0.0040967
0.00161577
0.00400162
0.00172882
0.00389956
0.00185035
0.00378967
0.00198136
0.00367062
0.00212284
0.00354143
0.00227551
0.00339943
0.00244164
0.0032435
0.00262045
0.00307143
0.00281426
0.00287665
0.00302779
0.0026518
0.00326115
0.00239139
0.00351444
0.00208591
0.00378996
0.001718
0.00409031
0.00126609
0.00441112
0.000701246
0.00474076
0.00502629
0.00564081
3.5036e-07
0.00529303
7.10511e-06
0.00541858
7.8455e-05
0.00543148
9.88185e-05
0.00543305
0.000111788
0.00543185
0.000129676
0.00542842
0.000154903
0.00542262
0.000183173
0.00541413
0.000214816
0.00540303
0.000248133
0.00538945
0.000282238
0.00537349
0.000317207
0.00535518
0.000353356
0.00533454
0.000390885
0.00531154
0.00042986
0.0052862
0.000470341
0.00525849
0.000512452
0.00522841
0.000556312
0.00519589
0.000602126
0.00516091
0.000650039
0.00512336
0.000700306
0.00508324
0.000753082
0.00504038
0.000808685
0.00499476
0.000867282
0.00494619
0.000929269
0.00489463
0.000994825
0.00483985
0.00106444
0.00478177
0.00113831
0.00472011
0.00121703
0.00465474
0.00130086
0.00458536
0.00139046
0.00451168
0.00148626
0.00443341
0.00158893
0.00435
0.00169917
0.00426117
0.00181766
0.004166
0.00194552
0.00406417
0.00208318
0.0039541
0.00223291
0.00383573
0.00239387
0.00370883
0.00256854
0.00356682
0.00276246
0.00340585
0.00297523
0.00322581
0.00320782
0.00302107
0.00346589
0.00278112
0.0037544
0.00249013
0.00408095
0.00212836
0.00445208
0.00165433
0.00488515
0.000999293
0.0053958
0.00602558
0.00585083
2.02128e-07
0.00548957
7.14716e-06
0.00562298
7.45175e-05
0.00563948
9.46144e-05
0.005644
0.000108826
0.00564539
0.000128394
0.00564399
0.000156309
0.00563971
0.000187445
0.00563237
0.00022216
0.00562214
0.000258365
0.00560929
0.000295087
0.005594
0.000332498
0.00557631
0.000371046
0.00555629
0.000410902
0.00553394
0.000452209
0.00550931
0.00049497
0.00548239
0.000539369
0.0054532
0.000585501
0.00542171
0.000633622
0.00538789
0.000683859
0.00535169
0.000736498
0.00531308
0.000791699
0.00527198
0.000849777
0.00522832
0.000910945
0.00518205
0.000975543
0.00513301
0.00104386
0.00508119
0.00111626
0.00502636
0.00119314
0.00496851
0.00127487
0.00490734
0.00136203
0.00484285
0.00145496
0.00477462
0.00155449
0.0047026
0.00166095
0.00462632
0.00177545
0.00454552
0.00189845
0.00445932
0.00203172
0.0043686
0.0021739
0.00427378
0.00232773
0.00416939
0.00249826
0.00405336
0.00268458
0.00392867
0.00288716
0.00379289
0.00311101
0.00364123
0.00335948
0.00346869
0.00363843
0.00326851
0.00395458
0.00302853
0.00432093
0.00272152
0.00475909
0.00229838
0.0053083
0.00164581
0.00604837
0.00767139
0.00846012
1.38641e-07
0.00793537
6.23142e-06
0.00813428
6.4819e-05
0.00816376
8.30765e-05
0.0081764
9.84815e-05
0.00818338
0.000121588
0.0081856
0.000154081
0.00818292
0.000190121
0.00817532
0.00022977
0.00816332
0.000270363
0.00814755
0.000310852
0.00812834
0.000351709
0.00810588
0.000393508
0.00808021
0.000436567
0.00805149
0.00048093
0.00801974
0.00052672
0.00798508
0.000574024
0.00794749
0.000623089
0.00790706
0.000674054
0.00786371
0.00072721
0.00781751
0.000782697
0.00776836
0.000840848
0.00771632
0.000901818
0.00766127
0.000965994
0.00760325
0.00103356
0.00754216
0.00110496
0.00747799
0.00118042
0.00741066
0.00126047
0.00734013
0.0013454
0.00726636
0.00143579
0.00718922
0.0015321
0.00710876
0.00163495
0.00702461
0.0017451
0.00693732
0.00186274
0.00684747
0.0019883
0.00675543
0.00212376
0.00665655
0.00227278
0.00655062
0.00243366
0.00644176
0.00260711
0.00633066
0.00279568
0.00621378
0.00300404
0.00609261
0.00323218
0.00596542
0.00348666
0.00583399
0.00376986
0.0057004
0.00408817
0.0055721
0.00444922
0.00548241
0.00484877
0.00550627
0.00528444
0.00591276
0.00564187
0.0054776
0.00810655
0.00846191
1.06705e-07
0.0079348
3.86547e-06
0.00814843
4.23542e-05
0.00818871
6.09169e-05
0.00821068
7.88484e-05
0.00822464
0.00010779
0.00823094
0.000147787
0.00823051
0.000190541
0.00822382
0.000236461
0.00821269
0.000281496
0.00819811
0.000325428
0.00818041
0.000369414
0.00815968
0.000414237
0.00813609
0.000460153
0.00810979
0.000507233
0.00808094
0.00055557
0.00804961
0.000605351
0.0080159
0.000656793
0.00797983
0.000710129
0.00794147
0.000765571
0.00790079
0.000823373
0.00785789
0.000883747
0.00781271
0.000946993
0.00776538
0.00101333
0.00771581
0.00108312
0.00766416
0.00115661
0.00761036
0.00123423
0.00755459
0.00131623
0.0074968
0.00140319
0.00743721
0.00149539
0.00737561
0.00159369
0.00731322
0.00169734
0.00725067
0.00180765
0.00718641
0.001927
0.00711891
0.0020558
0.00704926
0.00219341
0.00698158
0.00234047
0.00691584
0.0024994
0.00685176
0.00267119
0.00679015
0.00285729
0.00673545
0.00305874
0.00668815
0.00327948
0.00665837
0.00351645
0.00664932
0.00377891
0.00668184
0.00405565
0.00677866
0.0043524
0.00698572
0.00464171
0.00738565
0.00488452
0.00800262
0.0050249
0.00467584
0.00880437
0.00846264
1.52575e-07
0.00793448
7.48667e-07
0.00816344
5.50409e-06
0.0082221
2.04608e-05
0.00825922
4.40798e-05
0.00828286
8.43232e-05
0.00829422
0.000136428
0.00829475
0.000190001
0.00828896
0.000242255
0.00827927
0.000291189
0.00826633
0.000338365
0.00825024
0.000385506
0.00823118
0.000433298
0.00820942
0.000481914
0.00818521
0.000531433
0.00815879
0.000581994
0.00813026
0.000633885
0.00809973
0.000687321
0.00806728
0.000742577
0.00803301
0.00079984
0.00799699
0.000859394
0.00795931
0.000921427
0.00792005
0.000986248
0.00787933
0.00105406
0.00783726
0.00112519
0.00779398
0.00119988
0.00774967
0.00127854
0.00770444
0.00136146
0.00765874
0.00144889
0.00761342
0.00154071
0.00756916
0.00163795
0.00752367
0.00174283
0.00747699
0.00185432
0.00743186
0.00197213
0.00739036
0.0020973
0.00735199
0.00223178
0.00731775
0.00237471
0.00728824
0.00252891
0.00726699
0.00269243
0.0072548
0.00286948
0.00725687
0.00305667
0.00727794
0.00325841
0.00732469
0.0034697
0.00741268
0.00369091
0.00755118
0.00391716
0.00777065
0.00413292
0.00808362
0.00432874
0.00851003
0.0044581
0.00903001
0.00450492
0.00424758
0.00945828
0.00846125
1.29626e-06
0.00794075
-9.84195e-06
0.00821696
-7.85102e-05
0.00830512
-4.95085e-05
0.00835092
6.56648e-07
0.00837142
6.39909e-05
0.00837574
0.000132118
0.00837148
0.000194249
0.00836378
0.000249956
0.00835439
0.000300585
0.00834244
0.000350312
0.00832759
0.000400352
0.00831019
0.000450695
0.00829056
0.000501547
0.0082691
0.000552892
0.00824594
0.000605151
0.00822115
0.000658678
0.00819479
0.000713676
0.00816695
0.000770421
0.0081377
0.000829094
0.0081071
0.000889989
0.00807525
0.000953278
0.00804226
0.00101924
0.00800826
0.00108805
0.00797344
0.00116001
0.00793791
0.00123541
0.00790233
0.00131412
0.00786731
0.00139649
0.00783267
0.00148353
0.00779724
0.00157614
0.00776181
0.00167339
0.00772921
0.00177544
0.00770026
0.00188327
0.00767461
0.00199778
0.00765358
0.00211833
0.00763852
0.00224684
0.00763122
0.00238201
0.00763394
0.00252619
0.00764842
0.00267795
0.00767961
0.0028383
0.00772906
0.00300722
0.00780566
0.00318181
0.00791202
0.00336334
0.00806017
0.00354275
0.00825815
0.00371918
0.00851403
0.00387704
0.00883832
0.00400446
0.00921589
0.00408053
0.00966983
0.00405098
0.00392822
0.00998919
0.00845143
9.92665e-06
0.00798013
-6.57261e-05
0.0083622
-0.000271041
0.00854388
-0.000213057
0.00858691
-4.00714e-05
0.00857779
7.32792e-05
0.0085611
0.00014881
0.00854534
0.000209998
0.00853273
0.000262579
0.00851971
0.000313597
0.00850361
0.000366414
0.00848461
0.000419348
0.00846353
0.000471782
0.00844119
0.000523878
0.00841755
0.000576539
0.00839268
0.000630017
0.00836676
0.000684595
0.00833992
0.000740513
0.00831231
0.000798032
0.00828404
0.000857369
0.00825524
0.000918786
0.00822601
0.000982505
0.00819651
0.00104873
0.00816701
0.00111756
0.00813803
0.00118898
0.00810997
0.00126347
0.00808187
0.00134222
0.00805366
0.0014247
0.00802649
0.0015107
0.00800204
0.00160058
0.00798027
0.00169516
0.00796134
0.00179437
0.00794595
0.00189866
0.0079357
0.00200803
0.00793095
0.00212307
0.00793443
0.00224337
0.00794644
0.00236999
0.00797139
0.00250124
0.00800983
0.00263951
0.00806729
0.00278084
0.00814638
0.00292812
0.00825237
0.00307582
0.00839136
0.00322435
0.00856632
0.00336779
0.00878574
0.00349976
0.00904818
0.0036146
0.00935679
0.00369585
0.00970206
0.00373525
0.010049
0.00370402
0.00359523
0.010382
0.0085192
1.56296e-05
0.00824796
-0.00039463
0.00879252
-0.000604533
0.00889069
-0.000291178
0.00887205
-1.84581e-05
0.00880407
0.000141479
0.0087721
0.00018078
0.00875219
0.0002299
0.00874249
0.000272284
0.00872796
0.000328126
0.008709
0.000385376
0.00868795
0.000440398
0.00866594
0.000493793
0.00864293
0.000546885
0.00861895
0.000600517
0.00859391
0.000655063
0.00856777
0.00071073
0.00854063
0.000767654
0.00851259
0.000826065
0.00848383
0.000886133
0.00845439
0.000948221
0.00842465
0.00101224
0.00839511
0.00107828
0.00836599
0.00114667
0.00833653
0.00121845
0.00830739
0.00129261
0.00828034
0.00136927
0.00825629
0.00144875
0.00823484
0.00153214
0.00821691
0.00161852
0.00820271
0.00170936
0.00819361
0.00180347
0.00818968
0.00190259
0.00819273
0.00200498
0.00820302
0.00211278
0.00822264
0.00222374
0.00825259
0.00234004
0.00829488
0.00245895
0.00835252
0.00258186
0.00842676
0.0027066
0.00852309
0.00283179
0.00864211
0.0029568
0.00879075
0.00307571
0.00896918
0.00318936
0.0091824
0.00328654
0.00942924
0.00336776
0.00970742
0.00341767
0.0100122
0.00343046
0.0103155
0.0034007