/*--------------------------------*- C++ -*----------------------------------*\
| =========                 |                                                 |
| \\      /  F ield         | OpenFOAM: The Open Source CFD Toolbox           |
|  \\    /   O peration     | Version:  2412                                  |
|   \\  /    A nd           | Website:  www.openfoam.com                      |
|    \\/     M anipulation  |                                                 |
\*---------------------------------------------------------------------------*/
FoamFile
{
    version     2.0;
    format      ascii;
    arch        "LSB;label=32;scalar=64";
    class       volScalarField;
    location    "23";
    object      T;
}
// * * * * * * * * * * * * * * * * * * * * * * * * * * * * * * * * * * * * * //

dimensions      [0 0 0 1 0 0 0];

internalField   nonuniform List<scalar> 
7000
(
1.31911
2.65685
2.71978
2.66984
2.66466
2.64798
2.64456
2.6473
2.64935
2.65155
2.65281
2.65382
2.65495
2.6563
2.6578
2.65943
2.66116
2.66302
2.66498
2.66709
2.6693
2.67165
2.67411
2.67671
2.67942
2.68226
2.6852
2.68827
2.69143
2.69471
2.69806
2.70152
2.70503
2.70862
2.71224
2.71589
2.71953
2.72316
2.72672
2.73022
2.73356
2.73678
2.73976
2.74253
2.74498
2.74714
2.74889
2.75029
2.75123
2.75177
1.31917
2.65707
2.72003
2.66994
2.66479
2.6481
2.64469
2.64742
2.64948
2.65167
2.65292
2.65393
2.65506
2.65641
2.65791
2.65953
2.66126
2.66312
2.66508
2.66718
2.66939
2.67174
2.6742
2.67679
2.6795
2.68233
2.68527
2.68833
2.69149
2.69476
2.69811
2.70156
2.70507
2.70865
2.71226
2.7159
2.71953
2.72315
2.7267
2.73018
2.73352
2.73671
2.73969
2.74243
2.74488
2.74699
2.74875
2.75004
2.75097
2.75132
1.31915
2.65698
2.71992
2.66992
2.66475
2.64805
2.64463
2.64738
2.64938
2.65162
2.65282
2.65387
2.65496
2.65635
2.6578
2.65946
2.66114
2.66304
2.66495
2.66709
2.66925
2.67164
2.67405
2.67668
2.67933
2.68221
2.68509
2.68819
2.6913
2.6946
2.69791
2.70138
2.70485
2.70846
2.71204
2.71569
2.71931
2.72294
2.72649
2.72996
2.73332
2.73648
2.7395
2.74218
2.74466
2.74674
2.74849
2.74984
2.75067
2.75109
1.31913
2.6568
2.71974
2.66991
2.6647
2.64794
2.64453
2.64724
2.64931
2.65145
2.65273
2.65369
2.65486
2.65616
2.65769
2.65926
2.66103
2.66281
2.66483
2.66685
2.66912
2.67138
2.6739
2.67639
2.67917
2.68188
2.68492
2.68784
2.6911
2.69421
2.69769
2.70096
2.7046
2.70799
2.71174
2.71519
2.71896
2.72241
2.72608
2.72944
2.73285
2.73603
2.73898
2.74183
2.7441
2.74633
2.748
2.74926
2.75027
2.75046
1.31909
2.65658
2.71951
2.66993
2.66465
2.64781
2.64442
2.64702
2.64924
2.65122
2.65264
2.65344
2.65475
2.65589
2.65756
2.65898
2.66086
2.66252
2.66463
2.66653
2.66889
2.67104
2.67362
2.67604
2.67884
2.68152
2.68453
2.68746
2.69065
2.69384
2.69716
2.70059
2.704
2.70762
2.71106
2.71482
2.7182
2.72201
2.72524
2.72896
2.73197
2.73538
2.7382
2.74099
2.74361
2.74541
2.74738
2.74865
2.7493
2.74988
1.31905
2.65629
2.71922
2.66998
2.6646
2.64768
2.64422
2.64702
2.64889
2.6512
2.65226
2.65341
2.65433
2.65584
2.65711
2.65891
2.66038
2.66242
2.66411
2.66641
2.66832
2.67089
2.673
2.67584
2.67817
2.68125
2.68379
2.68711
2.68987
2.69339
2.69635
2.70001
2.70318
2.70691
2.71026
2.71398
2.71747
2.72103
2.72462
2.72787
2.73142
2.73413
2.73746
2.73981
2.74249
2.74473
2.74608
2.74767
2.7486
2.74858
1.319
2.65593
2.71885
2.67003
2.66454
2.64748
2.64402
2.64676
2.64871
2.6509
2.65206
2.65307
2.65413
2.65547
2.65689
2.65849
2.66016
2.66196
2.66387
2.66589
2.66807
2.6703
2.67275
2.67517
2.6779
2.6805
2.68351
2.68625
2.68953
2.6924
2.69593
2.6989
2.70263
2.7057
2.70954
2.71271
2.71653
2.71978
2.72344
2.72672
2.73005
2.73334
2.73591
2.73891
2.7409
2.74327
2.74516
2.74615
2.74685
2.7476
1.31894
2.6555
2.71842
2.6701
2.66446
2.64724
2.64377
2.64645
2.64846
2.65056
2.65177
2.6527
2.6538
2.65506
2.65651
2.65805
2.65972
2.66148
2.66338
2.66538
2.66751
2.66975
2.67211
2.67459
2.67716
2.67989
2.68266
2.68564
2.68856
2.6918
2.69483
2.6983
2.70137
2.70505
2.7081
2.7119
2.71494
2.71873
2.72178
2.72535
2.72841
2.73154
2.73471
2.73701
2.73973
2.74144
2.74309
2.74487
2.7457
2.74546
1.31887
2.65498
2.7179
2.67018
2.66437
2.64696
2.64346
2.64617
2.64808
2.65023
2.65135
2.65232
2.65333
2.65465
2.65601
2.65758
2.65917
2.66096
2.66278
2.66479
2.66685
2.66908
2.67137
2.67383
2.67635
2.67901
2.68177
2.68462
2.6876
2.69061
2.6938
2.69693
2.70033
2.70348
2.7071
2.71015
2.71392
2.7168
2.7206
2.72329
2.72688
2.72949
2.73247
2.73539
2.73716
2.73986
2.74127
2.74219
2.74291
2.74392
1.31879
2.65437
2.71729
2.67028
2.66427
2.64662
2.64311
2.6457
2.64776
2.64971
2.65097
2.65176
2.65291
2.65404
2.65553
2.65692
2.65863
2.66024
2.66216
2.664
2.66615
2.66822
2.67058
2.67288
2.67545
2.67797
2.68075
2.68346
2.68643
2.68933
2.69245
2.69553
2.69876
2.70197
2.70525
2.70859
2.7118
2.71524
2.71821
2.7217
2.72427
2.7277
2.72984
2.73283
2.73527
2.7365
2.73876
2.74031
2.7411
2.74058
1.31869
2.65367
2.71658
2.6704
2.66415
2.64625
2.64266
2.64536
2.64718
2.64932
2.65033
2.6513
2.65221
2.65352
2.65477
2.65634
2.65781
2.65958
2.66127
2.66325
2.66517
2.66737
2.66951
2.67191
2.67427
2.67687
2.67944
2.68221
2.68498
2.6879
2.69085
2.69389
2.69699
2.7001
2.70331
2.70644
2.7097
2.71277
2.71601
2.7189
2.72202
2.72456
2.72747
2.72942
2.73208
2.73435
2.73507
2.73612
2.7368
2.73819
1.31858
2.65286
2.71577
2.67053
2.66401
2.64579
2.64219
2.64472
2.64675
2.64861
2.64983
2.65053
2.65165
2.65267
2.65414
2.65542
2.6571
2.65857
2.66047
2.66215
2.66427
2.66616
2.66849
2.67058
2.67311
2.6754
2.67812
2.68058
2.68347
2.6861
2.68912
2.6919
2.69501
2.6979
2.70103
2.70403
2.70708
2.71016
2.713
2.71613
2.71862
2.72168
2.72377
2.72635
2.72792
2.72981
2.73211
2.73328
2.73396
2.73305
1.31846
2.65195
2.71486
2.67069
2.66384
2.6453
2.64161
2.64421
2.64603
2.64801
2.64903
2.64986
2.65077
2.65194
2.65318
2.6546
2.65604
2.65767
2.6593
2.66115
2.66298
2.66504
2.66706
2.66932
2.67152
2.67397
2.67635
2.67897
2.68149
2.68427
2.6869
2.68981
2.69252
2.69553
2.69826
2.70132
2.70401
2.70704
2.70965
2.71247
2.71507
2.71736
2.72008
2.72174
2.72416
2.72539
2.72599
2.72688
2.7274
2.72925
1.31833
2.65095
2.71378
2.67106
2.66346
2.64474
2.64096
2.6435
2.64532
2.6472
2.64825
2.64897
2.64991
2.65095
2.65223
2.65351
2.655
2.65646
2.65816
2.65981
2.66172
2.66355
2.66566
2.66766
2.66996
2.67211
2.67459
2.67688
2.67949
2.68193
2.68463
2.68719
2.68993
2.69259
2.69531
2.69802
2.70068
2.70332
2.7059
2.70832
2.71077
2.71288
2.71478
2.71682
2.71785
2.72
2.72156
2.72238
2.72271
2.72109
1.3182
2.64987
2.71251
2.67177
2.66275
2.6441
2.64022
2.64266
2.64452
2.64626
2.64734
2.64794
2.64891
2.64983
2.65112
2.65229
2.65377
2.65514
2.65679
2.65837
2.66018
2.66198
2.66393
2.66593
2.668
2.67021
2.67236
2.67477
2.67697
2.67956
2.68178
2.6845
2.68671
2.68949
2.6917
2.6944
2.69663
2.6991
2.70132
2.70349
2.70557
2.70751
2.70925
2.71058
2.71193
2.71185
2.71225
2.7124
2.71296
2.71468
1.31805
2.64866
2.71116
2.67235
2.6621
2.6434
2.63936
2.64186
2.64347
2.64533
2.64619
2.64691
2.64764
2.6487
2.64974
2.65106
2.65226
2.65378
2.65513
2.65686
2.65836
2.66029
2.66192
2.66402
2.66579
2.66804
2.66992
2.67228
2.67429
2.67668
2.67883
2.68117
2.68345
2.68565
2.68804
2.69003
2.69241
2.69417
2.6963
2.69788
2.6995
2.70079
2.70202
2.70303
2.70356
2.70491
2.70454
2.70451
2.7032
2.70083
1.31788
2.64732
2.7097
2.67291
2.66142
2.6426
2.6384
2.64094
2.64232
2.64426
2.64493
2.64573
2.64628
2.6474
2.64825
2.64961
2.65065
2.65216
2.65339
2.65505
2.65647
2.65825
2.65985
2.66172
2.6635
2.66542
2.66737
2.66932
2.6714
2.67334
2.67551
2.67741
2.67958
2.68146
2.68348
2.68535
2.68706
2.68892
2.69021
2.69179
2.69274
2.69353
2.69383
2.69393
2.69327
2.69145
2.69076
2.6886
2.68794
2.68784
1.3177
2.64587
2.70815
2.67347
2.66069
2.64168
2.63735
2.63972
2.64119
2.64287
2.64368
2.64422
2.64492
2.64575
2.64679
2.64781
2.64905
2.65021
2.65162
2.65292
2.6545
2.65592
2.65764
2.65916
2.661
2.66261
2.66452
2.66622
2.66813
2.6699
2.67174
2.67356
2.67523
2.67703
2.67847
2.68009
2.68129
2.68246
2.68351
2.68388
2.68469
2.6846
2.68423
2.68326
2.68205
2.68041
2.67612
2.67255
2.66672
2.6607
1.31751
2.64432
2.7065
2.67406
2.65987
2.64067
2.63615
2.6384
2.63986
2.64138
2.64221
2.64262
2.64331
2.64402
2.64501
2.64595
2.64709
2.6482
2.64945
2.65072
2.65207
2.6535
2.65492
2.65648
2.65793
2.65961
2.66107
2.66282
2.66426
2.66602
2.66742
2.66909
2.67043
2.67188
2.67313
2.67416
2.67525
2.67561
2.67624
2.67608
2.67522
2.67446
2.67204
2.66993
2.66527
2.65992
2.65476
2.64502
2.63538
2.62273
1.3173
2.64273
2.70482
2.67463
2.65894
2.63956
2.63476
2.63708
2.63819
2.63986
2.64043
2.641
2.64143
2.64231
2.64299
2.6441
2.64493
2.64617
2.64713
2.64848
2.64956
2.65099
2.65217
2.65364
2.65489
2.65636
2.65767
2.65907
2.66041
2.66166
2.66298
2.664
2.66523
2.66594
2.66694
2.66724
2.6679
2.66778
2.66743
2.66657
2.66549
2.66282
2.66061
2.6553
2.65066
2.64068
2.62785
2.61094
2.58207
2.51103
1.31729
2.6418
2.70044
2.67514
2.65753
2.6378
2.6327
2.6348
2.63593
2.63732
2.63803
2.6383
2.63885
2.63938
2.64024
2.64095
2.64197
2.64278
2.64391
2.64481
2.64605
2.647
2.64831
2.64928
2.65062
2.65157
2.65289
2.65378
2.65501
2.65578
2.6568
2.6574
2.65805
2.65835
2.65857
2.65825
2.65765
2.65676
2.65486
2.65282
2.64871
2.64512
2.63748
2.6314
2.61843
2.60621
2.58347
2.54735
2.4896
2.36404
1.31727
2.64082
2.69572
2.67532
2.65563
2.63543
2.62983
2.6319
2.63277
2.63421
2.63482
2.63512
2.63551
2.63605
2.6367
2.63742
2.63818
2.63899
2.63982
2.64071
2.64157
2.64252
2.64337
2.64434
2.64514
2.64608
2.64677
2.64763
2.64814
2.64885
2.64908
2.64959
2.64955
2.64937
2.64889
2.64831
2.64679
2.64551
2.6424
2.63997
2.63488
2.62894
2.62129
2.60787
2.59492
2.56853
2.54179
2.49172
2.41722
2.31799
1.31724
2.64016
2.69326
2.67516
2.65404
2.63315
2.62691
2.62875
2.62952
2.63095
2.63153
2.63176
2.63206
2.6325
2.63306
2.63368
2.63433
2.63503
2.63574
2.63649
2.63722
2.63799
2.6387
2.63944
2.64008
2.64071
2.64122
2.64166
2.64192
2.64208
2.64191
2.64152
2.64098
2.63979
2.63855
2.63622
2.63412
2.63021
2.62709
2.62079
2.61616
2.60615
2.59867
2.58345
2.56679
2.54293
2.50652
2.46403
2.39208
2.3185
1.31712
2.63902
2.69244
2.67397
2.6521
2.63034
2.62365
2.62559
2.62643
2.62795
2.62847
2.62854
2.62864
2.6289
2.62915
2.6296
2.62991
2.6304
2.63075
2.63127
2.63164
2.63217
2.63256
2.63308
2.63346
2.63392
2.63423
2.63463
2.63474
2.63482
2.6347
2.63436
2.63377
2.63248
2.63121
2.62843
2.62609
2.62118
2.61681
2.60953
2.60134
2.59131
2.57734
2.56328
2.54112
2.5183
2.48442
2.444
2.39091
2.32897
1.31689
2.64021
2.70396
2.67061
2.65209
2.62872
2.62151
2.62424
2.6252
2.62704
2.62752
2.62747
2.62743
2.62747
2.62755
2.62765
2.62772
2.62775
2.62773
2.62769
2.62761
2.62744
2.62728
2.62695
2.62667
2.6262
2.62583
2.62502
2.62454
2.62345
2.6228
2.62133
2.62046
2.61843
2.61713
2.61431
2.61178
2.60795
2.60279
2.59716
2.58814
2.5788
2.5647
2.5488
2.52839
2.50257
2.47341
2.4347
2.39201
2.34481
1.30178
2.5866
2.69852
2.67707
2.65966
2.63614
2.62925
2.63215
2.63321
2.63473
2.6346
2.63416
2.63349
2.63295
2.63236
2.63183
2.63119
2.63064
2.62998
2.62943
2.62875
2.62823
2.62749
2.627
2.62612
2.62558
2.62434
2.62342
2.62157
2.62024
2.61759
2.61578
2.61226
2.61001
2.60554
2.60276
2.59708
2.59354
2.58642
2.58091
2.57196
2.56266
2.55065
2.53536
2.518
2.49462
2.46887
2.4359
2.39828
2.35811
1.72049
2.46899
2.72874
2.70692
2.68435
2.67405
2.67459
2.67613
2.67753
2.6778
2.67661
2.67515
2.67353
2.67174
2.66978
2.66757
2.66516
2.66255
2.65973
2.65676
2.65354
2.6503
2.64675
2.64329
2.6393
2.63538
2.63095
2.62786
2.624
2.62145
2.61778
2.61508
2.61079
2.60713
2.60192
2.59688
2.59074
2.58376
2.57683
2.56744
2.55925
2.54692
2.53639
2.52033
2.50555
2.48451
2.46326
2.43569
2.40597
2.3732
1.73239
2.46208
2.72324
2.70218
2.67741
2.66844
2.67233
2.67403
2.67671
2.67754
2.67773
2.67759
2.67733
2.67704
2.67636
2.67575
2.67443
2.67346
2.67143
2.67012
2.66738
2.66567
2.66225
2.65996
2.65603
2.65341
2.64901
2.64486
2.63924
2.63382
2.62722
2.62105
2.61487
2.60887
2.60317
2.59613
2.59013
2.58136
2.57386
2.56305
2.5534
2.54031
2.52776
2.51211
2.49579
2.47695
2.45609
2.4332
2.40778
2.38171
1.72914
2.46763
2.72522
2.70248
2.67384
2.66437
2.6692
2.67164
2.67481
2.67592
2.67627
2.67641
2.67657
2.67656
2.67646
2.6762
2.67561
2.67521
2.6743
2.67358
2.672
2.67093
2.6687
2.66699
2.66414
2.66148
2.65808
2.65443
2.6503
2.64536
2.64066
2.63413
2.62808
2.61907
2.61182
2.6017
2.59375
2.58347
2.57489
2.56367
2.55333
2.5405
2.52747
2.51226
2.49616
2.47789
2.4581
2.43632
2.41281
2.38987
1.73185
2.46092
2.72069
2.69699
2.67077
2.66113
2.66568
2.66794
2.6711
2.67236
2.67276
2.67304
2.67338
2.67368
2.67394
2.67398
2.6739
2.67365
2.67321
2.67252
2.67183
2.67053
2.66955
2.66755
2.66623
2.66352
2.66172
2.65802
2.65563
2.65071
2.64762
2.64137
2.63708
2.62956
2.62343
2.61424
2.60569
2.59433
2.5835
2.57071
2.55814
2.54441
2.53049
2.51519
2.4991
2.4815
2.46334
2.44329
2.42224
2.40154
1.74102
2.44276
2.70915
2.68463
2.66705
2.65767
2.66063
2.66233
2.66542
2.66647
2.66713
2.66722
2.66744
2.66756
2.66769
2.66769
2.66764
2.66746
2.66728
2.66681
2.66647
2.66567
2.66509
2.66383
2.66289
2.66084
2.65946
2.65649
2.65455
2.65053
2.64763
2.64268
2.63858
2.63261
2.62693
2.61963
2.61221
2.60318
2.5935
2.58227
2.57012
2.55618
2.54155
2.52547
2.50914
2.49139
2.47317
2.45387
2.43385
2.41436
1.73597
2.43633
2.7058
2.67711
2.66925
2.65601
2.65613
2.65813
2.66114
2.66224
2.66331
2.66341
2.66369
2.66388
2.66405
2.66412
2.6641
2.664
2.66384
2.66349
2.6632
2.66252
2.66201
2.66091
2.66012
2.6584
2.65722
2.65472
2.65297
2.64967
2.64695
2.64277
2.63877
2.63364
2.62845
2.62206
2.61542
2.60753
2.59924
2.58962
2.57939
2.56766
2.55513
2.54097
2.52589
2.50942
2.49218
2.47383
2.45472
2.43609
1.35698
2.46742
2.67923
2.66853
2.64652
2.62387
2.61684
2.62088
2.62285
2.62573
2.62715
2.62819
2.62898
2.63
2.63071
2.6318
2.63246
2.63344
2.63394
2.63477
2.63509
2.63583
2.63595
2.63614
2.63615
2.63604
2.63581
2.63523
2.63465
2.63345
2.63228
2.63038
2.62838
2.6254
2.62216
2.61757
2.61254
2.60615
2.59924
2.59097
2.58228
2.57218
2.56155
2.5497
2.53697
2.52306
2.50824
2.49237
2.47557
2.4591
1.3604
2.47699
2.68635
2.67711
2.65248
2.62351
2.61389
2.61471
2.61669
2.61865
2.61947
2.61956
2.61976
2.6198
2.62005
2.62039
2.62076
2.62108
2.62142
2.62165
2.62193
2.62202
2.62218
2.6221
2.62193
2.62154
2.62116
2.62028
2.61959
2.61811
2.61696
2.61475
2.61284
2.60989
2.60706
2.60352
2.59987
2.59541
2.59046
2.5848
2.57809
2.57051
2.56151
2.55159
2.54075
2.52908
2.51671
2.5035
2.4894
2.4756
1.34961
2.41267
2.66941
2.66957
2.65016
2.62376
2.614
2.61405
2.61476
2.61531
2.61498
2.61411
2.61336
2.61233
2.61166
2.61097
2.61047
2.60982
2.60933
2.60869
2.60822
2.60758
2.60709
2.60641
2.60585
2.60507
2.60436
2.60353
2.60264
2.60155
2.60018
2.59863
2.59661
2.59445
2.59165
2.58869
2.58501
2.58114
2.57649
2.57143
2.56569
2.5596
2.55291
2.54562
2.53755
2.52819
2.51766
2.50658
2.49478
2.48342
1.74168
2.39662
2.675
2.66131
2.65252
2.63861
2.63345
2.6337
2.63346
2.63317
2.63237
2.63114
2.62973
2.62807
2.62646
2.62488
2.6232
2.62148
2.61963
2.61777
2.61577
2.61381
2.61166
2.6096
2.60732
2.6052
2.6028
2.60071
2.59823
2.5958
2.59324
2.5906
2.5878
2.58475
2.58157
2.57793
2.57419
2.5698
2.56533
2.56003
2.55466
2.54835
2.54198
2.53465
2.52706
2.51906
2.51093
2.50191
2.49218
2.4826
1.34701
2.39563
2.66021
2.66582
2.64949
2.62421
2.6156
2.61426
2.61552
2.61579
2.61552
2.61517
2.61428
2.61336
2.61271
2.61186
2.61114
2.61008
2.60913
2.6078
2.60667
2.60529
2.60413
2.60263
2.60136
2.5995
2.59791
2.59541
2.5934
2.59067
2.58832
2.58524
2.58244
2.57888
2.57565
2.57172
2.56801
2.56361
2.55927
2.55428
2.54914
2.54335
2.53723
2.53059
2.5234
2.51582
2.50769
2.49927
2.49031
2.4817
1.34834
2.40652
2.66739
2.67128
2.65097
2.62224
2.61098
2.6108
2.61177
2.61248
2.61235
2.61165
2.6109
2.6099
2.60931
2.60856
2.60797
2.60708
2.60626
2.60513
2.60399
2.60233
2.60065
2.59849
2.59631
2.59382
2.59129
2.5885
2.58558
2.58248
2.57918
2.57579
2.57222
2.56866
2.56471
2.56079
2.55639
2.5521
2.54723
2.54253
2.53719
2.53207
2.52619
2.52049
2.51403
2.50763
2.50044
2.49316
2.48534
2.478
1.34776
2.40217
2.66462
2.66933
2.64837
2.61895
2.60695
2.6068
2.60761
2.60852
2.60823
2.60738
2.60657
2.60546
2.60474
2.60399
2.60336
2.60256
2.6018
2.60086
2.5999
2.59875
2.59747
2.59599
2.59427
2.59237
2.59015
2.58778
2.58503
2.58215
2.57885
2.57546
2.57163
2.56775
2.56346
2.55908
2.55424
2.54929
2.54393
2.53841
2.5326
2.52657
2.52032
2.5138
2.50713
2.50013
2.4931
2.48561
2.47806
2.47069
1.34492
2.37916
2.64746
2.66156
2.64241
2.61457
2.60276
2.60132
2.60163
2.60186
2.60121
2.60044
2.5991
2.598
2.59692
2.59605
2.59501
2.59409
2.59293
2.5919
2.59063
2.58951
2.58813
2.58689
2.58538
2.58395
2.58221
2.5805
2.57843
2.57634
2.57387
2.57127
2.56828
2.56504
2.56141
2.55749
2.55329
2.54871
2.54388
2.53859
2.53311
2.52716
2.52104
2.51445
2.50773
2.50056
2.49332
2.48581
2.47819
2.47085
1.75129
2.37311
2.64567
2.64174
2.62828
2.61418
2.6093
2.60955
2.60953
2.60941
2.60883
2.60817
2.60695
2.6058
2.60453
2.60341
2.60203
2.60072
2.59914
2.59759
2.59581
2.59404
2.59205
2.59007
2.58788
2.58567
2.58328
2.58082
2.57819
2.57546
2.57266
2.56968
2.56662
2.5633
2.55987
2.55607
2.55216
2.54781
2.54327
2.53831
2.53309
2.52749
2.52171
2.51557
2.50926
2.50261
2.49574
2.48857
2.48107
2.47393
1.34701
2.38879
2.6526
2.65982
2.63928
2.60894
2.5976
2.59624
2.59787
2.59919
2.59904
2.59853
2.59794
2.59668
2.596
2.59479
2.59406
2.59257
2.59162
2.58989
2.58836
2.58651
2.5847
2.58256
2.58049
2.57825
2.57618
2.57388
2.57173
2.56928
2.56674
2.56385
2.56089
2.55762
2.55427
2.55065
2.5469
2.54291
2.53882
2.53449
2.52997
2.52517
2.52007
2.51463
2.50887
2.50282
2.49649
2.48996
2.48311
2.47655
1.35071
2.41204
2.65481
2.64885
2.62691
2.59635
2.58559
2.58586
2.58764
2.58957
2.5899
2.58967
2.5892
2.58843
2.58792
2.5874
2.58693
2.58631
2.58565
2.58485
2.58397
2.58295
2.5818
2.58049
2.579
2.57716
2.57507
2.57268
2.57005
2.56717
2.56417
2.56098
2.55765
2.55414
2.55047
2.54661
2.54259
2.53839
2.53402
2.52947
2.52473
2.51984
2.51483
2.50972
2.50437
2.49888
2.49311
2.48715
2.4809
2.47494
1.77119
2.37218
2.63845
2.61752
2.61119
2.5959
2.59316
2.59392
2.59503
2.59631
2.59605
2.59557
2.59521
2.59455
2.59398
2.5934
2.59282
2.59214
2.59141
2.59059
2.58971
2.58871
2.58763
2.5864
2.58506
2.58355
2.58188
2.58
2.57792
2.57551
2.57277
2.56975
2.56641
2.56282
2.55894
2.55485
2.55049
2.54595
2.54117
2.53624
2.53105
2.52569
2.52003
2.51421
2.50822
2.50209
2.49588
2.48957
2.48314
2.47701
1.79772
2.35515
2.62645
2.60586
2.60268
2.59275
2.58937
2.58959
2.58984
2.5904
2.59014
2.58952
2.58888
2.58785
2.58683
2.5857
2.58452
2.58319
2.58179
2.58026
2.57867
2.57696
2.57527
2.57349
2.57173
2.56989
2.56806
2.56615
2.56423
2.56227
2.56039
2.55836
2.55637
2.55417
2.55195
2.54945
2.54686
2.54391
2.54059
2.5369
2.533
2.52883
2.52442
2.51971
2.51478
2.50954
2.50401
2.49818
2.49208
2.48617
1.76255
2.38163
2.65007
2.61927
2.61349
2.59934
2.59617
2.59828
2.59976
2.60059
2.60032
2.59984
2.59878
2.59758
2.5963
2.59499
2.59355
2.59204
2.5904
2.5887
2.58689
2.58505
2.58296
2.58077
2.57832
2.57579
2.57302
2.5702
2.56715
2.56408
2.56079
2.55754
2.55408
2.55057
2.54686
2.54314
2.5392
2.53529
2.5314
2.52747
2.52339
2.51921
2.51485
2.51042
2.50583
2.50116
2.49629
2.49131
2.48608
2.48115
1.28618
2.49455
2.64471
2.64202
2.61675
2.58404
2.57198
2.57242
2.57506
2.57745
2.5787
2.57892
2.57915
2.57913
2.57907
2.57899
2.57883
2.57853
2.57806
2.57741
2.57658
2.57554
2.57438
2.57303
2.57156
2.56987
2.56814
2.566
2.56376
2.56136
2.55874
2.55596
2.55286
2.54967
2.54616
2.54259
2.53873
2.53481
2.53064
2.52643
2.52198
2.51752
2.51302
2.50829
2.50344
2.49836
2.49317
2.48778
2.48227
2.477
1.77181
2.3672
2.6395
2.61692
2.61063
2.59522
2.59028
2.59119
2.59161
2.59319
2.59282
2.59225
2.59179
2.591
2.59025
2.5894
2.58863
2.58765
2.58672
2.58557
2.58446
2.58312
2.58181
2.58025
2.57872
2.5769
2.57511
2.573
2.57069
2.56808
2.56529
2.56221
2.55913
2.55581
2.55248
2.54887
2.54524
2.54129
2.53732
2.53299
2.52867
2.52397
2.51911
2.51404
2.50888
2.50353
2.49809
2.49247
2.48674
2.48127
1.77321
2.3654
2.63741
2.615
2.60876
2.59347
2.58851
2.58962
2.59067
2.59177
2.5923
2.5918
2.59137
2.59057
2.58972
2.58878
2.5878
2.58665
2.58541
2.58403
2.58255
2.58096
2.57927
2.57748
2.57559
2.57362
2.57153
2.56942
2.56736
2.5652
2.56302
2.5607
2.55819
2.55548
2.55258
2.54953
2.5463
2.54293
2.53937
2.53567
2.53177
2.52773
2.52349
2.51912
2.51453
2.50982
2.5049
2.49987
2.49461
2.48952
1.28558
2.49094
2.64202
2.63934
2.6136
2.57896
2.56602
2.56553
2.56805
2.57011
2.57107
2.57101
2.57087
2.57048
2.57017
2.56971
2.56941
2.56879
2.56835
2.56745
2.56681
2.56565
2.56477
2.56333
2.56222
2.56059
2.55895
2.55718
2.55528
2.55327
2.55114
2.54893
2.54661
2.54419
2.54166
2.539
2.53619
2.53324
2.53014
2.52687
2.52345
2.51985
2.51611
2.51219
2.50813
2.50389
2.49953
2.49497
2.4903
2.48576
1.76675
2.37285
2.6406
2.60986
2.60344
2.58747
2.58442
2.58659
2.58749
2.58961
2.58937
2.58882
2.58836
2.58752
2.58674
2.58585
2.58498
2.58394
2.58288
2.58166
2.5804
2.57901
2.57756
2.57598
2.57431
2.57255
2.57065
2.56866
2.56653
2.5643
2.56191
2.5593
2.55655
2.55358
2.55049
2.54719
2.54379
2.54019
2.5365
2.5327
2.52881
2.52478
2.52064
2.51636
2.51196
2.50743
2.50277
2.49799
2.49305
2.48833
1.79463
2.35596
2.62401
2.59591
2.59189
2.58018
2.57691
2.57811
2.57842
2.57913
2.57895
2.57854
2.57809
2.57734
2.57663
2.57587
2.57507
2.57416
2.57318
2.57209
2.57092
2.56965
2.5683
2.56685
2.56531
2.56367
2.56195
2.56013
2.55822
2.55622
2.55413
2.55208
2.5499
2.54774
2.54542
2.5431
2.54059
2.538
2.53518
2.53222
2.52902
2.52572
2.52223
2.51864
2.51484
2.51095
2.50686
2.50268
2.49826
2.49409
1.79924
2.35072
2.61898
2.59272
2.58908
2.57783
2.57401
2.57469
2.57487
2.57526
2.57512
2.57471
2.57421
2.57345
2.57268
2.5719
2.57103
2.5701
2.56906
2.56794
2.5667
2.56538
2.56394
2.56241
2.56075
2.55901
2.55713
2.55517
2.55306
2.55087
2.54853
2.54611
2.54356
2.54091
2.53814
2.53528
2.5323
2.52929
2.52617
2.52302
2.51975
2.5164
2.51292
2.50934
2.50563
2.50182
2.49788
2.49382
2.48961
2.48561
1.77979
2.35595
2.61655
2.60299
2.59363
2.57718
2.57215
2.57263
2.57324
2.57386
2.57384
2.57337
2.57284
2.57202
2.57121
2.57043
2.56958
2.56867
2.56765
2.56655
2.56536
2.56408
2.56269
2.56122
2.55963
2.55795
2.55614
2.55424
2.55222
2.55009
2.54783
2.54546
2.54296
2.54034
2.53759
2.53472
2.53172
2.52859
2.52534
2.52197
2.51848
2.51487
2.51114
2.5073
2.50333
2.49925
2.49506
2.49074
2.48629
2.48205
1.34476
2.37985
2.63799
2.63736
2.61518
2.58172
2.56751
2.56513
2.56644
2.56756
2.56751
2.56725
2.56656
2.56556
2.56465
2.56386
2.56303
2.56216
2.56116
2.56009
2.5589
2.55765
2.55626
2.5548
2.55321
2.55153
2.54971
2.54781
2.54576
2.54362
2.54132
2.53894
2.53639
2.53376
2.53096
2.52806
2.525
2.52185
2.51852
2.51511
2.51151
2.50783
2.50397
2.50003
2.49592
2.49172
2.48736
2.48293
2.47833
2.47395
1.34602
2.38745
2.65287
2.65699
2.63095
2.59245
2.57492
2.57257
2.57421
2.57549
2.57594
2.57559
2.57476
2.57376
2.57271
2.57183
2.57095
2.57005
2.56901
2.56793
2.56672
2.56547
2.56409
2.56267
2.56112
2.55951
2.55777
2.55598
2.55405
2.55205
2.54991
2.54771
2.54535
2.54292
2.54034
2.53768
2.53487
2.53197
2.52891
2.52576
2.52245
2.51904
2.51547
2.5118
2.50797
2.50404
2.49996
2.49577
2.49143
2.48726
1.34509
2.37933
2.63632
2.63635
2.61342
2.58009
2.56493
2.56294
2.5643
2.56521
2.56563
2.5652
2.56449
2.56346
2.56252
2.56169
2.56089
2.56001
2.55907
2.55802
2.55691
2.55571
2.55445
2.55309
2.55166
2.55012
2.54852
2.5468
2.54502
2.54311
2.54113
2.53902
2.53684
2.53452
2.53213
2.5296
2.527
2.52425
2.52142
2.51844
2.51538
2.51217
2.50887
2.50542
2.50189
2.4982
2.49443
2.49049
2.48647
2.48255
1.78107
2.35422
2.61404
2.59969
2.59003
2.57215
2.56707
2.56743
2.56802
2.56906
2.5689
2.56836
2.56787
2.56699
2.56623
2.56542
2.56464
2.56371
2.56278
2.56169
2.5606
2.55935
2.5581
2.55668
2.55526
2.55367
2.55206
2.55029
2.5485
2.54654
2.54455
2.54239
2.5402
2.53783
2.53543
2.53285
2.53023
2.52743
2.52459
2.52157
2.5185
2.51525
2.51195
2.50846
2.50493
2.5012
2.49743
2.49346
2.48942
2.48548
1.80129
2.34722
2.61459
2.58737
2.58383
2.57256
2.56907
2.57015
2.57045
2.57088
2.57074
2.57022
2.56967
2.56877
2.56795
2.56706
2.56618
2.56515
2.56411
2.56291
2.5617
2.56033
2.55894
2.5574
2.55582
2.55409
2.55231
2.55038
2.5484
2.54626
2.54408
2.54173
2.53932
2.53675
2.53413
2.53133
2.52848
2.52546
2.52237
2.51912
2.5158
2.51231
2.50876
2.50504
2.50124
2.49729
2.49326
2.48908
2.4848
2.48066
1.78826
2.36084
2.627
2.59538
2.58876
2.57465
2.57217
2.5742
2.57569
2.57661
2.57658
2.57607
2.57553
2.5747
2.57393
2.57311
2.57226
2.57129
2.57027
2.56913
2.56794
2.56663
2.56527
2.56379
2.56225
2.56058
2.55886
2.557
2.55507
2.55301
2.55088
2.54861
2.54626
2.54378
2.54122
2.53851
2.53573
2.5328
2.52978
2.52662
2.52337
2.51997
2.51648
2.51285
2.50912
2.50525
2.50129
2.49718
2.49298
2.48892
2.17222
2.34539
2.76271
2.86053
2.85844
2.81696
2.81536
2.81484
2.80767
2.80659
2.80971
2.81125
2.81265
2.8135
2.81534
2.81669
2.81882
2.82063
2.82226
2.82327
2.82374
2.82388
2.82271
2.82189
2.81897
2.81658
2.81267
2.80885
2.80401
2.79906
2.79339
2.78754
2.78117
2.77462
2.76791
2.76096
2.75389
2.74612
2.73806
2.72995
2.72184
2.71365
2.70545
2.6972
2.68898
2.68077
2.67265
2.66457
2.65664
2.6488
2.64114
2.63362
2.62634
2.61924
2.61243
2.60586
2.59963
2.5937
2.58817
2.583
2.57829
2.57401
2.57024
2.56696
2.56425
2.56207
2.56048
2.55942
2.55895
2.55884
2.55896
2.55931
2.56018
2.56164
2.56369
2.56593
2.56814
2.57042
2.57262
2.5748
2.57679
2.57866
2.58027
2.5817
2.58282
2.58375
2.58438
2.58484
2.58502
2.58508
2.58498
2.58474
2.58439
2.58367
2.58293
2.58188
2.58103
2.57989
2.57897
2.57593
2.1804
2.26041
2.45052
2.62855
2.69723
2.7331
2.75987
2.78443
2.79851
2.81117
2.8191
2.82909
2.83462
2.83422
2.83035
2.82508
2.81769
2.81039
2.80124
2.79249
2.78239
2.7729
2.76247
2.75277
2.74199
2.73181
2.72072
2.71033
2.69918
2.68871
2.67759
2.66714
2.65613
2.64577
2.63515
2.62525
2.61503
2.60474
2.59404
2.5837
2.57358
2.56368
2.55389
2.54428
2.53482
2.52558
2.51651
2.50767
2.49903
2.49064
2.48248
2.4746
2.46697
2.45965
2.45262
2.44594
2.4396
2.43364
2.42807
2.42293
2.41824
2.41403
2.41031
2.40712
2.40447
2.40239
2.40087
2.39992
2.3995
2.39951
2.39978
2.40034
2.40146
2.40322
2.40568
2.40836
2.41109
2.41384
2.41654
2.41914
2.42158
2.4238
2.42574
2.4274
2.42875
2.42979
2.43052
2.43097
2.43113
2.4311
2.43096
2.43065
2.43027
2.42948
2.42871
2.42758
2.42672
2.42554
2.42477
2.42189
2.22679
2.21299
2.27124
2.35858
2.41092
2.46078
2.49445
2.52176
2.54285
2.55872
2.57058
2.57972
2.58645
2.58894
2.58823
2.58655
2.58266
2.5782
2.57273
2.56682
2.56015
2.55337
2.54605
2.53888
2.5311
2.52347
2.51526
2.50734
2.49891
2.49087
2.48235
2.47426
2.46571
2.45763
2.44931
2.44169
2.43377
2.42576
2.41716
2.40883
2.40065
2.3927
2.38476
2.37699
2.36924
2.36168
2.35417
2.34687
2.33966
2.33268
2.32581
2.31919
2.31272
2.30653
2.30052
2.29483
2.28938
2.28428
2.27946
2.27505
2.27096
2.26734
2.26409
2.26134
2.25902
2.25725
2.25593
2.25516
2.25486
2.25496
2.25527
2.25578
2.25681
2.25843
2.26071
2.26317
2.26574
2.26829
2.2708
2.27319
2.27543
2.27744
2.27922
2.28071
2.28193
2.28283
2.28348
2.28384
2.28397
2.28392
2.28379
2.28351
2.28317
2.28245
2.28177
2.28076
2.28002
2.279
2.27852
2.27611
2.25963
2.22037
2.21601
2.24104
2.27157
2.29409
2.30933
2.32115
2.33169
2.34095
2.3486
2.35472
2.35946
2.36307
2.36461
2.36486
2.36481
2.36471
2.36452
2.36424
2.36375
2.3631
2.36236
2.36107
2.35953
2.35773
2.35543
2.35292
2.34994
2.34681
2.34325
2.33958
2.33546
2.3313
2.32694
2.32284
2.31847
2.31371
2.30827
2.30274
2.29716
2.2917
2.28611
2.28055
2.27487
2.26925
2.26353
2.25792
2.25225
2.24673
2.24119
2.23584
2.2305
2.2254
2.22036
2.21559
2.21093
2.2066
2.20244
2.19865
2.19508
2.19194
2.18907
2.18669
2.18463
2.1831
2.18193
2.18131
2.18111
2.18127
2.18159
2.1821
2.18311
2.18464
2.18675
2.18905
2.19152
2.19394
2.19636
2.19859
2.20072
2.20257
2.20425
2.2056
2.20674
2.20754
2.20815
2.20842
2.20854
2.20846
2.20836
2.20813
2.20784
2.20719
2.20662
2.20571
2.20511
2.20424
2.20399
2.20192
2.2751
2.24098
2.21928
2.21181
2.21886
2.22349
2.22554
2.22615
2.22715
2.22901
2.23184
2.23415
2.23621
2.23804
2.2408
2.24308
2.2453
2.24775
2.25043
2.25327
2.25618
2.25896
2.26158
2.26382
2.26576
2.26712
2.26807
2.26856
2.26828
2.26773
2.26662
2.26517
2.26316
2.2609
2.25838
2.25594
2.25315
2.24987
2.24584
2.24152
2.23703
2.23252
2.22788
2.2232
2.21836
2.2135
2.20852
2.20356
2.19852
2.19355
2.18856
2.18368
2.17881
2.17411
2.16948
2.16506
2.16075
2.15671
2.15283
2.14929
2.14596
2.14301
2.14034
2.1381
2.13619
2.13476
2.13369
2.1332
2.13308
2.13327
2.13358
2.13414
2.13516
2.13668
2.13864
2.14084
2.14322
2.14559
2.14793
2.15011
2.15215
2.15393
2.15551
2.15679
2.15785
2.1586
2.15913
2.15938
2.15945
2.15937
2.15927
2.15901
2.15871
2.15803
2.15754
2.15665
2.15612
2.15529
2.15516
2.15316
2.29856
2.25475
2.23054
2.21067
2.2009
2.19402
2.18829
2.1822
2.17737
2.17358
2.17187
2.17138
2.172
2.17237
2.17347
2.1757
2.17827
2.18145
2.1844
2.18803
2.19141
2.19527
2.1986
2.20211
2.20487
2.20758
2.20937
2.21101
2.21171
2.21227
2.21205
2.21139
2.21021
2.2087
2.20696
2.20522
2.20312
2.20051
2.19717
2.19347
2.18954
2.18549
2.18132
2.17707
2.1727
2.16826
2.16373
2.15915
2.15452
2.14989
2.14526
2.14068
2.13615
2.13171
2.12737
2.12318
2.11913
2.11529
2.11165
2.10827
2.10514
2.10234
2.09983
2.09771
2.09593
2.09458
2.09366
2.09325
2.09322
2.0934
2.09373
2.09433
2.09538
2.09689
2.09875
2.10085
2.10313
2.10543
2.1077
2.10983
2.11179
2.11352
2.11502
2.11625
2.11724
2.11795
2.11844
2.11866
2.1187
2.11862
2.1185
2.11822
2.11791
2.11722
2.11677
2.11589
2.11541
2.11463
2.11457
2.11262
2.32218
2.28219
2.24852
2.22371
2.20327
2.18832
2.17592
2.16543
2.15593
2.14847
2.1426
2.13911
2.137
2.13663
2.13668
2.13725
2.13913
2.14197
2.1452
2.14859
2.15224
2.15602
2.1598
2.16351
2.16693
2.17006
2.17265
2.17483
2.17636
2.17749
2.17794
2.17806
2.17746
2.17654
2.17548
2.17431
2.17281
2.17074
2.16802
2.16488
2.16147
2.15785
2.15411
2.15024
2.14629
2.14222
2.13807
2.13384
2.12956
2.12524
2.12092
2.11661
2.11235
2.10815
2.10405
2.10007
2.09624
2.09258
2.08913
2.0859
2.08295
2.08027
2.07791
2.07587
2.07423
2.07298
2.07218
2.07185
2.07189
2.07206
2.0724
2.07305
2.07414
2.07565
2.07745
2.07948
2.08165
2.08389
2.08608
2.08815
2.09005
2.09173
2.09317
2.09436
2.09531
2.096
2.09646
2.09665
2.09667
2.0966
2.09647
2.09616