/*--------------------------------*- C++ -*----------------------------------*\
| =========                 |                                                 |
| \\      /  F ield         | OpenFOAM: The Open Source CFD Toolbox           |
|  \\    /   O peration     | Version:  2412                                  |
|   \\  /    A nd           | Website:  www.openfoam.com                      |
|    \\/     M anipulation  |                                                 |
\*---------------------------------------------------------------------------*/
FoamFile
{
    version     2.0;
    format      ascii;
    arch        "LSB;label=32;scalar=64";
    class       volVectorField;
    location    "23";
    object      U;
}
// * * * * * * * * * * * * * * * * * * * * * * * * * * * * * * * * * * * * * //

dimensions      [0 1 -1 0 0 0 0];

internalField   nonuniform List<vector> 
7000
(
(2.59107 -7.24899e-05 0)
(1.62055 0.000178371 0)
(0.495667 0.000208959 0)
(0.552995 0.000350746 0)
(0.654685 0.000446547 0)
(0.719885 0.000524588 0)
(0.732767 0.000592431 0)
(0.725874 0.000662726 0)
(0.715812 0.000741187 0)
(0.708114 0.000831604 0)
(0.703646 0.000930247 0)
(0.700078 0.00103345 0)
(0.695993 0.00114042 0)
(0.691137 0.00125209 0)
(0.685673 0.00136947 0)
(0.679726 0.00149317 0)
(0.673314 0.00162345 0)
(0.666403 0.00176064 0)
(0.658958 0.00190518 0)
(0.650953 0.00205763 0)
(0.642365 0.00221857 0)
(0.633171 0.00238869 0)
(0.623346 0.00256868 0)
(0.612863 0.00275933 0)
(0.601692 0.00296144 0)
(0.589803 0.0031759 0)
(0.577165 0.00340362 0)
(0.563743 0.00364554 0)
(0.549502 0.00390266 0)
(0.534407 0.00417593 0)
(0.518421 0.00446634 0)
(0.501504 0.00477478 0)
(0.48362 0.00510211 0)
(0.46473 0.00544897 0)
(0.4448 0.00581594 0)
(0.423795 0.00620313 0)
(0.401685 0.00661057 0)
(0.378447 0.00703743 0)
(0.354063 0.0074828 0)
(0.328526 0.00794447 0)
(0.301839 0.00842008 0)
(0.274021 0.00890553 0)
(0.245107 0.00939687 0)
(0.21515 0.00988775 0)
(0.184224 0.0103737 0)
(0.15242 0.0108475 0)
(0.119822 0.0113136 0)
(0.0868499 0.0117556 0)
(0.0514915 0.0123443 0)
(0.0221148 0.0131964 0)
(2.5912 -4.80925e-05 0)
(1.62072 0.000347458 0)
(0.495355 0.000828059 0)
(0.552734 0.00113974 0)
(0.654447 0.00137486 0)
(0.719659 0.0015969 0)
(0.732543 0.00180491 0)
(0.725654 0.00202021 0)
(0.7156 0.00225772 0)
(0.707911 0.0025275 0)
(0.70345 0.0028203 0)
(0.699886 0.00312655 0)
(0.695804 0.00344406 0)
(0.690953 0.00377512 0)
(0.685495 0.00412235 0)
(0.679553 0.00448715 0)
(0.673147 0.00487024 0)
(0.666242 0.00527231 0)
(0.658804 0.00569444 0)
(0.650805 0.00613791 0)
(0.642224 0.00660422 0)
(0.633038 0.00709486 0)
(0.623221 0.00761157 0)
(0.612746 0.00815596 0)
(0.601584 0.00872997 0)
(0.589704 0.0093353 0)
(0.577075 0.00997398 0)
(0.563662 0.0106476 0)
(0.549431 0.0113581 0)
(0.534346 0.0121067 0)
(0.518368 0.0128949 0)
(0.50146 0.0137233 0)
(0.483583 0.0145924 0)
(0.4647 0.0155013 0)
(0.444773 0.0164492 0)
(0.423768 0.0174326 0)
(0.401655 0.0184482 0)
(0.378408 0.0194892 0)
(0.354009 0.0205483 0)
(0.328448 0.0216141 0)
(0.301727 0.0226743 0)
(0.273863 0.0237121 0)
(0.244888 0.02471 0)
(0.214853 0.0256468 0)
(0.183828 0.0265018 0)
(0.151908 0.0272556 0)
(0.119164 0.0279056 0)
(0.0860645 0.0284261 0)
(0.0505457 0.0290768 0)
(0.0211888 0.0298267 0)
(2.59133 4.76358e-05 0)
(1.62101 0.000392361 0)
(0.495562 0.00160498 0)
(0.552786 0.00198054 0)
(0.654488 0.00230475 0)
(0.719702 0.00267037 0)
(0.732585 0.0030398 0)
(0.725707 0.00341864 0)
(0.715675 0.00382874 0)
(0.708008 0.00428666 0)
(0.70356 0.00478135 0)
(0.700006 0.00529998 0)
(0.695934 0.00583964 0)
(0.691094 0.00640317 0)
(0.685648 0.00699457 0)
(0.679721 0.00761583 0)
(0.673328 0.00826858 0)
(0.666438 0.00895391 0)
(0.659015 0.00967404 0)
(0.651034 0.0104309 0)
(0.642471 0.0112274 0)
(0.633303 0.0120659 0)
(0.623506 0.0129497 0)
(0.613053 0.0138815 0)
(0.601914 0.014865 0)
(0.590059 0.0159029 0)
(0.577455 0.0169992 0)
(0.56407 0.0181565 0)
(0.549868 0.0193786 0)
(0.534811 0.0206677 0)
(0.518864 0.022027 0)
(0.501985 0.0234574 0)
(0.484138 0.0249605 0)
(0.465283 0.0265353 0)
(0.445383 0.0281805 0)
(0.424401 0.0298914 0)
(0.402305 0.0316622 0)
(0.379069 0.0334831 0)
(0.354671 0.0353406 0)
(0.3291 0.0372186 0)
(0.302354 0.0390937 0)
(0.274447 0.0409413 0)
(0.245407 0.0427288 0)
(0.215284 0.0444242 0)
(0.184145 0.0459906 0)
(0.152084 0.047393 0)
(0.11917 0.048619 0)
(0.0859282 0.0496292 0)
(0.0502701 0.0506816 0)
(0.0207492 0.0516744 0)
(2.5915 5.41169e-05 0)
(1.62146 0.000535845 0)
(0.495989 0.002351 0)
(0.552909 0.00281437 0)
(0.654611 0.00323705 0)
(0.719844 0.00375706 0)
(0.732733 0.00430339 0)
(0.725869 0.00485932 0)
(0.715866 0.00545205 0)
(0.708231 0.0061043 0)
(0.703807 0.00680581 0)
(0.700269 0.0075427 0)
(0.696214 0.00831118 0)
(0.691394 0.00911435 0)
(0.68597 0.00995679 0)
(0.680065 0.0108414 0)
(0.673697 0.0117703 0)
(0.666832 0.0127455 0)
(0.659436 0.0137699 0)
(0.651483 0.0148466 0)
(0.642951 0.0159792 0)
(0.633816 0.0171717 0)
(0.624054 0.0184282 0)
(0.613638 0.0197531 0)
(0.602539 0.0211509 0)
(0.590725 0.0226267 0)
(0.578167 0.0241849 0)
(0.564828 0.0258307 0)
(0.550675 0.0275682 0)
(0.535669 0.0294022 0)
(0.519774 0.0313356 0)
(0.502949 0.0333721 0)
(0.485156 0.0355121 0)
(0.466353 0.0377569 0)
(0.446503 0.0401025 0)
(0.425567 0.042546 0)
(0.403511 0.0450765 0)
(0.380306 0.047684 0)
(0.355927 0.0503479 0)
(0.330358 0.0530475 0)
(0.303596 0.0557507 0)
(0.275648 0.0584213 0)
(0.24654 0.061017 0)
(0.216317 0.0634865 0)
(0.185045 0.0657856 0)
(0.152817 0.067858 0)
(0.119702 0.0696751 0)
(0.0862761 0.0711834 0)
(0.0504194 0.0726084 0)
(0.0206053 0.0737644 0)
(2.59175 6.77508e-05 0)
(1.62209 0.000716385 0)
(0.49654 0.00310375 0)
(0.553019 0.00367972 0)
(0.654738 0.00421144 0)
(0.720016 0.00488554 0)
(0.732919 0.00560893 0)
(0.726073 0.00634903 0)
(0.716107 0.00713315 0)
(0.708513 0.00798592 0)
(0.704121 0.0088995 0)
(0.700611 0.00986099 0)
(0.696582 0.0108656 0)
(0.691791 0.0119169 0)
(0.686399 0.0130192 0)
(0.680528 0.0141767 0)
(0.674195 0.0153917 0)
(0.667368 0.0166676 0)
(0.660012 0.0180075 0)
(0.652102 0.0194162 0)
(0.643615 0.0208976 0)
(0.634529 0.0224579 0)
(0.62482 0.0241014 0)
(0.614459 0.0258351 0)
(0.603419 0.0276639 0)
(0.591669 0.0295951 0)
(0.579177 0.031634 0)
(0.565909 0.0337882 0)
(0.55183 0.0360625 0)
(0.536901 0.0384637 0)
(0.521085 0.0409956 0)
(0.504341 0.0436632 0)
(0.486629 0.0464676 0)
(0.467906 0.0494101 0)
(0.448133 0.0524868 0)
(0.427269 0.0556928 0)
(0.405278 0.0590166 0)
(0.382124 0.0624423 0)
(0.357781 0.0659484 0)
(0.332228 0.0695027 0)
(0.305454 0.0730707 0)
(0.277462 0.0765991 0)
(0.248273 0.0800361 0)
(0.217927 0.0833119 0)
(0.186486 0.0863601 0)
(0.15405 0.0891152 0)
(0.120673 0.0915184 0)
(0.0869963 0.0934925 0)
(0.0508512 0.0952302 0)
(0.0206232 0.0964787 0)
(2.59209 8.00393e-05 0)
(1.62294 0.000900493 0)
(0.497239 0.00385559 0)
(0.553134 0.00455767 0)
(0.654881 0.00520468 0)
(0.720227 0.00603318 0)
(0.733156 0.00693913 0)
(0.726336 0.00786844 0)
(0.716414 0.00885257 0)
(0.708869 0.00991474 0)
(0.70452 0.0110488 0)
(0.701045 0.0122427 0)
(0.697052 0.0134919 0)
(0.6923 0.0147998 0)
(0.686949 0.0161712 0)
(0.681124 0.0176106 0)
(0.674838 0.0191212 0)
(0.66806 0.0207072 0)
(0.660757 0.0223726 0)
(0.652903 0.0241232 0)
(0.644477 0.0259645 0)
(0.635456 0.0279031 0)
(0.625816 0.0299458 0)
(0.615529 0.0320998 0)
(0.604569 0.034373 0)
(0.592903 0.036773 0)
(0.580501 0.0393083 0)
(0.567328 0.0419863 0)
(0.553348 0.0448157 0)
(0.538524 0.047803 0)
(0.522816 0.0509555 0)
(0.506184 0.0542773 0)
(0.488584 0.0577729 0)
(0.469973 0.0614419 0)
(0.450309 0.0652829 0)
(0.429548 0.0692878 0)
(0.407649 0.0734457 0)
(0.384573 0.0777357 0)
(0.360287 0.082133 0)
(0.334765 0.086598 0)
(0.307987 0.0910857 0)
(0.279952 0.0955369 0)
(0.250668 0.0998801 0)
(0.220172 0.104033 0)
(0.188522 0.107901 0)
(0.155815 0.111394 0)
(0.122104 0.114432 0)
(0.0880675 0.116903 0)
(0.051512 0.118953 0)
(0.0207746 0.120272 0)
(2.59252 9.27038e-05 0)
(1.62401 0.00108677 0)
(0.498096 0.00461521 0)
(0.553255 0.00545118 0)
(0.655039 0.00621995 0)
(0.720478 0.00720659 0)
(0.733446 0.00830259 0)
(0.726659 0.00942567 0)
(0.716791 0.0106166 0)
(0.709306 0.0118966 0)
(0.705009 0.0132592 0)
(0.70158 0.0146931 0)
(0.697633 0.0161949 0)
(0.69293 0.0177676 0)
(0.687633 0.0194167 0)
(0.681863 0.0211467 0)
(0.675637 0.0229623 0)
(0.668922 0.0248676 0)
(0.661686 0.0268686 0)
(0.653903 0.0289712 0)
(0.645553 0.031183 0)
(0.636614 0.0335112 0)
(0.627062 0.0359646 0)
(0.61687 0.0385516 0)
(0.60601 0.041282 0)
(0.594452 0.044165 0)
(0.582164 0.047211 0)
(0.569112 0.0504294 0)
(0.55526 0.0538305 0)
(0.54057 0.0574231 0)
(0.525001 0.0612159 0)
(0.508513 0.0652156 0)
(0.491059 0.0694271 0)
(0.472596 0.0738523 0)
(0.453075 0.0784893 0)
(0.432453 0.0833309 0)
(0.41068 0.0883642 0)
(0.387715 0.0935668 0)
(0.363513 0.0989089 0)
(0.338043 0.104346 0)
(0.311276 0.109822 0)
(0.283198 0.115266 0)
(0.253812 0.120594 0)
(0.223137 0.125704 0)
(0.191233 0.130477 0)
(0.158187 0.134795 0)
(0.124046 0.138537 0)
(0.0895426 0.141559 0)
(0.0524191 0.143969 0)
(0.0210219 0.145392 0)
(2.59305 0.000105484 0)
(1.62533 0.00127356 0)
(0.499123 0.00538064 0)
(0.553385 0.00635425 0)
(0.655215 0.00724836 0)
(0.720774 0.00839734 0)
(0.733797 0.00968597 0)
(0.727051 0.0110101 0)
(0.717248 0.0124161 0)
(0.709833 0.013922 0)
(0.705599 0.0155207 0)
(0.702227 0.0172025 0)
(0.698337 0.0189647 0)
(0.693695 0.0208108 0)
(0.688463 0.0227462 0)
(0.682762 0.0247761 0)
(0.676609 0.0269056 0)
(0.669971 0.02914 0)
(0.662817 0.0314861 0)
(0.655122 0.0339511 0)
(0.646866 0.0365437 0)
(0.638028 0.0392727 0)
(0.628584 0.0421483 0)
(0.618508 0.0451807 0)
(0.607772 0.0483812 0)
(0.596347 0.0517613 0)
(0.5842 0.0553328 0)
(0.571298 0.059108 0)
(0.557604 0.0630983 0)
(0.54308 0.0673157 0)
(0.527686 0.0717701 0)
(0.511376 0.0764707 0)
(0.494107 0.0814247 0)
(0.475829 0.0866348 0)
(0.456493 0.092102 0)
(0.436047 0.0978182 0)
(0.414441 0.103772 0)
(0.391622 0.109938 0)
(0.36754 0.116284 0)
(0.34215 0.12276 0)
(0.315414 0.129304 0)
(0.287302 0.135832 0)
(0.257805 0.142237 0)
(0.22693 0.148406 0)
(0.194718 0.154185 0)
(0.161264 0.159425 0)
(0.126584 0.163976 0)
(0.0914606 0.167637 0)
(0.053616 0.170464 0)
(0.0214117 0.172027 0)
(2.59369 0.000118332 0)
(1.62691 0.00145998 0)
(0.500335 0.0061492 0)
(0.553526 0.00726279 0)
(0.655414 0.00828547 0)
(0.721122 0.009601 0)
(0.734215 0.0110879 0)
(0.727521 0.0126185 0)
(0.717797 0.0142468 0)
(0.710464 0.0159865 0)
(0.706303 0.0178295 0)
(0.703 0.0197672 0)
(0.699179 0.0217981 0)
(0.694611 0.023926 0)
(0.689456 0.0261563 0)
(0.683838 0.0284947 0)
(0.677771 0.0309468 0)
(0.671226 0.0335192 0)
(0.66417 0.0362195 0)
(0.656581 0.0390562 0)
(0.648438 0.0420393 0)
(0.639722 0.0451792 0)
(0.630408 0.0484876 0)
(0.620472 0.0519765 0)
(0.609886 0.0556592 0)
(0.598621 0.059549 0)
(0.586645 0.0636603 0)
(0.573925 0.0680071 0)
(0.560424 0.0726041 0)
(0.546103 0.0774646 0)
(0.53092 0.0826023 0)
(0.514831 0.0880279 0)
(0.497788 0.0937519 0)
(0.47974 0.0997788 0)
(0.460633 0.106112 0)
(0.440411 0.112745 0)
(0.419016 0.119667 0)
(0.396389 0.126853 0)
(0.372467 0.134269 0)
(0.347195 0.141863 0)
(0.320518 0.14956 0)
(0.292389 0.157274 0)
(0.262782 0.164875 0)
(0.231682 0.172224 0)
(0.199115 0.17915 0)
(0.165163 0.185448 0)
(0.129835 0.190925 0)
(0.0939379 0.195332 0)
(0.0551454 0.19867 0)
(0.0219194 0.200424 0)
(2.59444 0.000131107 0)
(1.62878 0.00164475 0)
(0.501747 0.0069158 0)
(0.553683 0.0081708 0)
(0.655639 0.00932423 0)
(0.721527 0.0108099 0)
(0.73471 0.012499 0)
(0.72808 0.0142419 0)
(0.71845 0.0161002 0)
(0.71121 0.0180818 0)
(0.707134 0.0201775 0)
(0.703912 0.0223795 0)
(0.700174 0.0246875 0)
(0.695693 0.0271055 0)
(0.69063 0.0296392 0)
(0.685109 0.0322945 0)
(0.679144 0.0350779 0)
(0.672708 0.0379968 0)
(0.665768 0.04106 0)
(0.658303 0.0442773 0)
(0.650294 0.04766 0)
(0.641721 0.05122 0)
(0.632562 0.0549709 0)
(0.622791 0.0589264 0)
(0.612383 0.063102 0)
(0.601308 0.0675132 0)
(0.589536 0.0721768 0)
(0.577033 0.0771091 0)
(0.563762 0.0823279 0)
(0.549685 0.0878492 0)
(0.534758 0.09369 0)
(0.518935 0.0998642 0)
(0.502167 0.106385 0)
(0.4844 0.113261 0)
(0.465576 0.120498 0)
(0.445633 0.128093 0)
(0.424506 0.136036 0)
(0.402124 0.144307 0)
(0.378417 0.152867 0)
(0.353309 0.161665 0)
(0.326732 0.170623 0)
(0.298614 0.179639 0)
(0.268906 0.188577 0)
(0.237572 0.197265 0)
(0.2046 0.205499 0)
(0.170064 0.213037 0)
(0.133931 0.219623 0)
(0.0970635 0.224933 0)
(0.0571065 0.228894 0)
(0.0226249 0.2309 0)
(2.59531 0.000143684 0)
(1.63095 0.00182611 0)
(0.503374 0.00767308 0)
(0.553859 0.00907083 0)
(0.655895 0.0103573 0)
(0.721999 0.0120152 0)
(0.735291 0.0139117 0)
(0.728741 0.0158718 0)
(0.719221 0.0179669 0)
(0.712088 0.0201991 0)
(0.70811 0.0225563 0)
(0.704982 0.0250314 0)
(0.70134 0.0276249 0)
(0.69696 0.0303414 0)
(0.692004 0.0331867 0)
(0.686595 0.0361671 0)
(0.680749 0.0392899 0)
(0.674438 0.0425633 0)
(0.667634 0.0459973 0)
(0.660314 0.0496032 0)
(0.65246 0.0533935 0)
(0.644054 0.0573821 0)
(0.635075 0.061584 0)
(0.625498 0.0660153 0)
(0.615297 0.0706934 0)
(0.604446 0.0756363 0)
(0.592913 0.0808634 0)
(0.580665 0.086394 0)
(0.567666 0.0922486 0)
(0.553877 0.0984471 0)
(0.539254 0.105009 0)
(0.52375 0.111954 0)
(0.507312 0.119297 0)
(0.489886 0.127054 0)
(0.471407 0.135232 0)
(0.451809 0.143834 0)
(0.431017 0.152855 0)
(0.408951 0.162277 0)
(0.385525 0.172065 0)
(0.360649 0.18217 0)
(0.334228 0.192507 0)
(0.306171 0.202971 0)
(0.276386 0.213412 0)
(0.244814 0.223635 0)
(0.211401 0.2334 0)
(0.176187 0.242402 0)
(0.139117 0.25032 0)
(0.101045 0.256751 0)
(0.0595848 0.261521 0)
(0.0235146 0.263877 0)
(2.59631 0.000155757 0)
(1.63343 0.00200204 0)
(0.505229 0.0084099 0)
(0.554059 0.00995374 0)
(0.656189 0.0113765 0)
(0.722545 0.0132055 0)
(0.73597 0.0153129 0)
(0.729514 0.0174955 0)
(0.720125 0.0198357 0)
(0.713115 0.0223277 0)
(0.709248 0.0249558 0)
(0.706228 0.0277128 0)
(0.702697 0.0306004 0)
(0.698433 0.0336236 0)
(0.693599 0.0367885 0)
(0.688318 0.0401018 0)
(0.682608 0.0435713 0)
(0.676442 0.0472064 0)
(0.669793 0.0510183 0)
(0.662638 0.0550197 0)
(0.654964 0.0592246 0)
(0.64675 0.0636486 0)
(0.637978 0.0683088 0)
(0.628625 0.0732232 0)
(0.618665 0.0784117 0)
(0.608073 0.0838949 0)
(0.596817 0.0896949 0)
(0.584867 0.0958344 0)
(0.572185 0.102337 0)
(0.558734 0.109227 0)
(0.544468 0.116527 0)
(0.529341 0.124262 0)
(0.513297 0.132453 0)
(0.496279 0.14112 0)
(0.478219 0.150276 0)
(0.459043 0.159933 0)
(0.438669 0.170089 0)
(0.417005 0.180735 0)
(0.39395 0.191842 0)
(0.369392 0.203363 0)
(0.343213 0.215221 0)
(0.315286 0.227301 0)
(0.285486 0.239449 0)
(0.253697 0.251444 0)
(0.219823 0.263013 0)
(0.183838 0.273803 0)
(0.145637 0.283387 0)
(0.106105 0.291243 0)
(0.0627948 0.297063 0)
(0.0247287 0.299903 0)
(2.59743 0.000165115 0)
(1.63623 0.00217203 0)
(0.507323 0.00910865 0)
(0.554293 0.0108069 0)
(0.656524 0.0123737 0)
(0.723172 0.0143648 0)
(0.736759 0.0166879 0)
(0.73042 0.0190993 0)
(0.721183 0.0216934 0)
(0.714312 0.0244555 0)
(0.71057 0.0273644 0)
(0.707672 0.0304126 0)
(0.704267 0.0336028 0)
(0.700134 0.036941 0)
(0.695439 0.0404332 0)
(0.690303 0.0440866 0)
(0.684747 0.0479097 0)
(0.678745 0.051913 0)
(0.672271 0.0561089 0)
(0.665306 0.0605115 0)
(0.657834 0.0651366 0)
(0.64984 0.0700016 0)
(0.641305 0.0751253 0)
(0.632207 0.0805285 0)
(0.622523 0.0862331 0)
(0.612228 0.0922628 0)
(0.601292 0.0986424 0)
(0.589685 0.105398 0)
(0.577371 0.112558 0)
(0.564312 0.12015 0)
(0.550464 0.128203 0)
(0.535778 0.136745 0)
(0.520201 0.145805 0)
(0.503669 0.155409 0)
(0.486113 0.16558 0)
(0.467452 0.176336 0)
(0.447597 0.187686 0)
(0.426442 0.19963 0)
(0.403871 0.212152 0)
(0.37975 0.225213 0)
(0.353929 0.238746 0)
(0.326246 0.252641 0)
(0.296522 0.26674 0)
(0.264583 0.280811 0)
(0.230263 0.294537 0)
(0.193462 0.307505 0)
(0.153972 0.319195 0)
(0.112634 0.328927 0)
(0.0669416 0.336195 0)
(0.0262952 0.339743 0)
(2.59869 0.000170439 0)
(1.63937 0.00233385 0)
(0.509655 0.00975578 0)
(0.554567 0.0116123 0)
(0.656903 0.0133282 0)
(0.72388 0.0154722 0)
(0.737669 0.0180215 0)
(0.731467 0.0206682 0)
(0.72241 0.0235249 0)
(0.715697 0.0265679 0)
(0.712095 0.029768 0)
(0.709333 0.0331169 0)
(0.706069 0.0366186 0)
(0.702085 0.0402796 0)
(0.697544 0.0441062 0)
(0.692571 0.048106 0)
(0.687188 0.0522883 0)
(0.68137 0.0566647 0)
(0.675094 0.061249 0)
(0.668341 0.0660569 0)
(0.661099 0.0711057 0)
(0.653353 0.0764149 0)
(0.645086 0.0820054 0)
(0.636278 0.0879004 0)
(0.626908 0.0941242 0)
(0.61695 0.100704 0)
(0.606379 0.107667 0)
(0.595165 0.115045 0)
(0.583273 0.122867 0)
(0.570667 0.131169 0)
(0.557303 0.139983 0)
(0.543133 0.149347 0)
(0.528102 0.159293 0)
(0.512147 0.169858 0)
(0.495194 0.181074 0)
(0.477158 0.192971 0)
(0.457942 0.205572 0)
(0.43743 0.21889 0)
(0.415487 0.232926 0)
(0.391959 0.247657 0)
(0.366661 0.263035 0)
(0.339388 0.278966 0)
(0.309903 0.295302 0)
(0.277945 0.311813 0)
(0.243251 0.328163 0)
(0.205599 0.343873 0)
(0.164652 0.358297 0)
(0.121175 0.370557 0)
(0.0725091 0.37986 0)
(0.028495 0.384471 0)
(2.60009 0.000178116 0)
(1.64285 0.00247642 0)
(0.512223 0.0103555 0)
(0.554886 0.0123511 0)
(0.657329 0.0141993 0)
(0.72468 0.0165118 0)
(0.738718 0.0192859 0)
(0.732678 0.0221782 0)
(0.723829 0.0253142 0)
(0.717294 0.0286509 0)
(0.713847 0.0321529 0)
(0.711236 0.0358126 0)
(0.708129 0.039635 0)
(0.704308 0.0436273 0)
(0.699939 0.0477957 0)
(0.695147 0.0521484 0)
(0.689955 0.0566952 0)
(0.684342 0.0614493 0)
(0.678286 0.0664255 0)
(0.671771 0.0716413 0)
(0.664787 0.0771157 0)
(0.657319 0.0828703 0)
(0.649353 0.0889279 0)
(0.640871 0.0953147 0)
(0.631854 0.102057 0)
(0.622279 0.109186 0)
(0.612121 0.116732 0)
(0.601353 0.124731 0)
(0.589943 0.133217 0)
(0.577855 0.14223 0)
(0.565049 0.15181 0)
(0.551476 0.162 0)
(0.537083 0.172843 0)
(0.521806 0.184385 0)
(0.505571 0.196671 0)
(0.48829 0.209743 0)
(0.469858 0.223644 0)
(0.450152 0.238405 0)
(0.429021 0.254051 0)
(0.406288 0.270588 0)
(0.381737 0.287994 0)
(0.355113 0.30621 0)
(0.326112 0.325114 0)
(0.294381 0.344499 0)
(0.259518 0.364035 0)
(0.221131 0.383207 0)
(0.17864 0.401246 0)
(0.132609 0.417052 0)
(0.0800916 0.429391 0)
(0.0315271 0.435739 0)
(2.60162 0.00018797 0)
(1.64666 0.00259381 0)
(0.515054 0.0108867 0)
(0.555253 0.0129947 0)
(0.657827 0.0149552 0)
(0.725612 0.0174538 0)
(0.739939 0.0204575 0)
(0.7341 0.0236074 0)
(0.725494 0.0270395 0)
(0.719152 0.030684 0)
(0.715871 0.0344994 0)
(0.713425 0.0384791 0)
(0.710489 0.0426293 0)
(0.706848 0.0469586 0)
(0.702666 0.051473 0)
(0.698072 0.0561813 0)
(0.69309 0.0610946 0)
(0.687702 0.0662273 0)
(0.681888 0.0715957 0)
(0.675635 0.0772191 0)
(0.668934 0.0831183 0)
(0.661774 0.0893169 0)
(0.654143 0.0958402 0)
(0.646024 0.102716 0)
(0.637401 0.109975 0)
(0.628254 0.11765 0)
(0.61856 0.125776 0)
(0.608296 0.134391 0)
(0.59743 0.143537 0)
(0.585932 0.153258 0)
(0.573762 0.163602 0)
(0.560876 0.174618 0)
(0.547222 0.186361 0)
(0.532738 0.198887 0)
(0.517352 0.212256 0)
(0.500975 0.226528 0)
(0.4835 0.241765 0)
(0.464798 0.258026 0)
(0.444709 0.275367 0)
(0.423035 0.293833 0)
(0.399532 0.313447 0)
(0.373897 0.334207 0)
(0.345752 0.356047 0)
(0.314635 0.378817 0)
(0.279979 0.402279 0)
(0.241126 0.425899 0)
(0.197196 0.448791 0)
(0.148339 0.469683 0)
(0.0910097 0.486699 0)
(0.0361563 0.496109 0)
(2.60326 0.000194217 0)
(1.65079 0.00268362 0)
(0.518136 0.0112987 0)
(0.555673 0.0135029 0)
(0.658412 0.0155697 0)
(0.726707 0.0182545 0)
(0.74137 0.0215115 0)
(0.735773 0.0249354 0)
(0.727445 0.0286807 0)
(0.721312 0.0326541 0)
(0.718209 0.036803 0)
(0.715938 0.0411194 0)
(0.713187 0.0456118 0)
(0.709739 0.050289 0)
(0.70576 0.0551586 0)
(0.701379 0.0602292 0)
(0.696624 0.0655131 0)
(0.691482 0.0710256 0)
(0.685933 0.0767852 0)
(0.679967 0.0828126 0)
(0.673578 0.0891312 0)
(0.666758 0.0957662 0)
(0.659495 0.102746 0)
(0.651778 0.110101 0)
(0.643592 0.117864 0)
(0.63492 0.126072 0)
(0.625743 0.134764 0)
(0.61604 0.143982 0)
(0.605786 0.153774 0)
(0.594951 0.164188 0)
(0.583502 0.175281 0)
(0.5714 0.18711 0)
(0.558595 0.199741 0)
(0.545031 0.213244 0)
(0.53064 0.227693 0)
(0.515337 0.243171 0)
(0.499019 0.259762 0)
(0.481556 0.27756 0)
(0.462786 0.296659 0)
(0.442501 0.317158 0)
(0.420443 0.33913 0)
(0.396265 0.362689 0)
(0.369517 0.38786 0)
(0.339676 0.414521 0)
(0.305954 0.442716 0)
(0.267305 0.472033 0)
(0.222423 0.501635 0)
(0.170703 0.530078 0)
(0.107365 0.554887 0)
(0.0434833 0.570066 0)
(2.60502 0.000196863 0)
(1.65521 0.00273463 0)
(0.521444 0.0115419 0)
(0.556158 0.0138272 0)
(0.659109 0.015995 0)
(0.728005 0.0188681 0)
(0.743064 0.0223968 0)
(0.73775 0.0261125 0)
(0.729742 0.0301886 0)
(0.72384 0.0345042 0)
(0.720924 0.0389936 0)
(0.718838 0.0436492 0)
(0.716282 0.0484835 0)
(0.71304 0.0535076 0)
(0.709277 0.0587307 0)
(0.705123 0.0641619 0)
(0.700611 0.0698147 0)
(0.695731 0.0757059 0)
(0.690466 0.0818555 0)
(0.68481 0.0882857 0)
(0.678759 0.0950217 0)
(0.672307 0.102091 0)
(0.665447 0.109523 0)
(0.658168 0.117351 0)
(0.650461 0.125611 0)
(0.642312 0.134342 0)
(0.633706 0.143587 0)
(0.624626 0.153393 0)
(0.615052 0.163812 0)
(0.604959 0.1749 0)
(0.59432 0.186719 0)
(0.583102 0.199337 0)
(0.571265 0.212831 0)
(0.558759 0.227285 0)
(0.545524 0.242791 0)
(0.531486 0.259452 0)
(0.516551 0.277385 0)
(0.500601 0.296719 0)
(0.483484 0.31759 0)
(0.464986 0.340206 0)
(0.444877 0.364633 0)
(0.422808 0.391073 0)
(0.39817 0.419905 0)
(0.370516 0.451186 0)
(0.338954 0.485054 0)
(0.30191 0.521516 0)
(0.257458 0.560241 0)
(0.203861 0.600014 0)
(0.133823 0.638296 0)
(0.0565606 0.666337 0)
(2.60686 0.00019534 0)
(1.65985 0.00273554 0)
(0.524945 0.0115423 0)
(0.556733 0.0138931 0)
(0.65995 0.0161692 0)
(0.729553 0.0192585 0)
(0.745078 0.0231083 0)
(0.74009 0.0271755 0)
(0.732438 0.0316487 0)
(0.726773 0.0363599 0)
(0.724044 0.0412304 0)
(0.722146 0.0462561 0)
(0.719794 0.051455 0)
(0.716771 0.0568419 0)
(0.713237 0.0624254 0)
(0.709327 0.0682165 0)
(0.705077 0.0742305 0)
(0.70048 0.0804868 0)
(0.695524 0.0870083 0)
(0.690204 0.0938198 0)
(0.684519 0.100949 0)
(0.678467 0.108425 0)
(0.672043 0.116282 0)
(0.665242 0.124555 0)
(0.658057 0.133282 0)
(0.650478 0.142506 0)
(0.642496 0.152274 0)
(0.634098 0.162636 0)
(0.625272 0.173648 0)
(0.615999 0.185374 0)
(0.606261 0.197882 0)
(0.596032 0.211249 0)
(0.585283 0.225563 0)
(0.573977 0.24092 0)
(0.562068 0.257435 0)
(0.549498 0.27523 0)
(0.536195 0.294439 0)
(0.522053 0.315286 0)
(0.506997 0.337856 0)
(0.49075 0.362399 0)
(0.473062 0.389346 0)
(0.453923 0.418924 0)
(0.432713 0.451617 0)
(0.408627 0.487924 0)
(0.38086 0.528296 0)
(0.347862 0.573461 0)
(0.306993 0.624241 0)
(0.255016 0.680969 0)
(0.180395 0.743013 0)
(0.0832313 0.803171 0)
(2.60875 0.000141439 0)
(1.66462 0.00273068 0)
(0.528539 0.0112086 0)
(0.557421 0.0135541 0)
(0.660997 0.015924 0)
(0.73145 0.019212 0)
(0.747544 0.0233849 0)
(0.742949 0.0278071 0)
(0.735696 0.032681 0)
(0.730265 0.0377814 0)
(0.727709 0.0430202 0)
(0.725991 0.0484057 0)
(0.723842 0.0539664 0)
(0.721035 0.0597192 0)
(0.717729 0.0656728 0)
(0.714064 0.0718371 0)
(0.710081 0.0782276 0)
(0.705776 0.0848648 0)
(0.701142 0.0917724 0)
(0.696177 0.0989768 0)
(0.690882 0.106506 0)
(0.685259 0.114393 0)
(0.679305 0.12267 0)
(0.67302 0.131376 0)
(0.666399 0.140553 0)
(0.65944 0.150244 0)
(0.652137 0.1605 0)
(0.644486 0.171376 0)
(0.636478 0.182933 0)
(0.628106 0.195239 0)
(0.619359 0.20837 0)
(0.610225 0.222412 0)
(0.600689 0.237462 0)
(0.590731 0.253626 0)
(0.580324 0.271047 0)
(0.569417 0.289903 0)
(0.55803 0.310213 0)
(0.545997 0.332257 0)
(0.533211 0.356421 0)
(0.519849 0.382909 0)
(0.505632 0.412242 0)
(0.490263 0.444855 0)
(0.473489 0.481238 0)
(0.454817 0.522377 0)
(0.433605 0.569446 0)
(0.408679 0.624265 0)
(0.37765 0.689731 0)
(0.336609 0.770917 0)
(0.270946 0.878175 0)
(0.146441 1.0434 0)
(2.61112 8.09042e-05 0)
(1.6704 0.00260054 0)
(0.532287 0.0103837 0)
(0.557937 0.0128191 0)
(0.662137 0.0154339 0)
(0.733804 0.0191865 0)
(0.750725 0.0239842 0)
(0.746681 0.0290434 0)
(0.739964 0.0345606 0)
(0.734824 0.0402283 0)
(0.732501 0.0459571 0)
(0.731054 0.0517826 0)
(0.729218 0.0577553 0)
(0.726752 0.0639021 0)
(0.723808 0.0702377 0)
(0.720527 0.0767763 0)
(0.716959 0.0835388 0)
(0.713108 0.0905507 0)
(0.70897 0.0978406 0)
(0.704547 0.105438 0)
(0.699844 0.113376 0)
(0.694868 0.121686 0)
(0.689623 0.130408 0)
(0.684114 0.139579 0)
(0.678343 0.149242 0)
(0.672315 0.159446 0)
(0.666034 0.170243 0)
(0.659505 0.181689 0)
(0.652732 0.193849 0)
(0.645723 0.206795 0)
(0.638483 0.220608 0)
(0.631018 0.235378 0)
(0.623333 0.251233 0)
(0.615454 0.268257 0)
(0.607443 0.286541 0)
(0.599073 0.306337 0)
(0.590393 0.327871 0)
(0.581883 0.351325 0)
(0.573398 0.377131 0)
(0.564717 0.405648 0)
(0.555959 0.437226 0)
(0.547211 0.472573 0)
(0.538663 0.512528 0)
(0.53054 0.558374 0)
(0.523386 0.611898 0)
(0.518376 0.675861 0)
(0.518231 0.754728 0)
(0.531155 0.855927 0)
(0.587127 0.990638 0)
(0.657202 1.18531 0)
(2.61363 5.93408e-05 0)
(1.67654 0.0019423 0)
(0.536809 0.0077635 0)
(0.559572 0.00992405 0)
(0.664781 0.0125053 0)
(0.738194 0.0166802 0)
(0.756193 0.0222107 0)
(0.752751 0.0280505 0)
(0.746493 0.0343816 0)
(0.741423 0.0407698 0)
(0.739115 0.0471467 0)
(0.73777 0.0535883 0)
(0.736115 0.0601595 0)
(0.733873 0.0668869 0)
(0.731182 0.0737813 0)
(0.72819 0.0808575 0)
(0.724957 0.088139 0)
(0.721491 0.0956542 0)
(0.717793 0.103433 0)
(0.713867 0.111508 0)
(0.709722 0.119913 0)
(0.705366 0.128683 0)
(0.70081 0.137857 0)
(0.696063 0.147478 0)
(0.691134 0.157591 0)
(0.686035 0.168245 0)
(0.680779 0.179495 0)
(0.675381 0.191403 0)
(0.66986 0.204032 0)
(0.664234 0.217464 0)
(0.658524 0.231801 0)
(0.652795 0.247061 0)
(0.647026 0.263362 0)
(0.64114 0.28092 0)
(0.635378 0.299865 0)
(0.629952 0.320333 0)
(0.624753 0.342669 0)
(0.61985 0.367069 0)
(0.615471 0.393725 0)
(0.611772 0.423091 0)
(0.609028 0.455686 0)
(0.607715 0.492165 0)
(0.608499 0.533442 0)
(0.612476 0.580669 0)
(0.621467 0.635509 0)
(0.638791 0.70012 0)
(0.670458 0.777418 0)
(0.725478 0.870837 0)
(0.836629 0.980404 0)
(0.984485 1.09497 0)
(2.61509 7.01811e-05 0)
(1.6801 0.00130445 0)
(0.539666 0.00545754 0)
(0.56132 0.00790904 0)
(0.668132 0.0111017 0)
(0.743958 0.0164642 0)
(0.763404 0.0232618 0)
(0.760692 0.0301962 0)
(0.754904 0.0372569 0)
(0.749828 0.0440629 0)
(0.74753 0.0507373 0)
(0.74632 0.0574574 0)
(0.74487 0.0643033 0)
(0.742852 0.0712955 0)
(0.740398 0.0784403 0)
(0.737668 0.085761 0)
(0.734736 0.093291 0)
(0.731616 0.101065 0)
(0.728311 0.109116 0)
(0.724829 0.117478 0)
(0.721184 0.126184 0)
(0.717391 0.135271 0)
(0.713464 0.144775 0)
(0.709419 0.154736 0)
(0.705274 0.165199 0)
(0.70105 0.176211 0)
(0.696769 0.187822 0)
(0.692454 0.200101 0)
(0.688144 0.213099 0)
(0.683909 0.226847 0)
(0.679655 0.241458 0)
(0.675417 0.257078 0)
(0.671529 0.273767 0)
(0.66803 0.291688 0)
(0.664835 0.311038 0)
(0.662104 0.331898 0)
(0.660009 0.354441 0)
(0.658725 0.378932 0)
(0.658536 0.405661 0)
(0.659805 0.434972 0)
(0.663002 0.467321 0)
(0.668872 0.503228 0)
(0.678479 0.543352 0)
(0.693304 0.588457 0)
(0.715731 0.639401 0)
(0.749216 0.697026 0)
(0.799346 0.761603 0)
(0.871722 0.832179 0)
(0.984651 0.903796 0)
(1.12029 0.956625 0)
(2.61629 3.73632e-05 0)
(1.68317 -0.00152863 0)
(0.545028 -0.0048493 0)
(0.56729 -0.00305226 0)
(0.675901 0.000995016 0)
(0.754093 0.00904918 0)
(0.774416 0.0185831 0)
(0.77148 0.0278671 0)
(0.765097 0.0364532 0)
(0.759428 0.0442543 0)
(0.756952 0.0517461 0)
(0.755827 0.0592241 0)
(0.754545 0.0667662 0)
(0.752711 0.0743917 0)
(0.750469 0.082096 0)
(0.748008 0.0899149 0)
(0.745407 0.0978938 0)
(0.742676 0.106074 0)
(0.739813 0.114494 0)
(0.736827 0.123189 0)
(0.733729 0.1322 0)
(0.730538 0.141565 0)
(0.72727 0.151325 0)
(0.723948 0.16152 0)
(0.720594 0.172197 0)
(0.717235 0.183416 0)
(0.71392 0.195197 0)
(0.710667 0.207585 0)
(0.707435 0.22068 0)
(0.704352 0.234561 0)
(0.701628 0.249279 0)
(0.699232 0.264999 0)
(0.697177 0.281811 0)
(0.69563 0.299732 0)
(0.694694 0.318915 0)
(0.694534 0.339517 0)
(0.695367 0.361707 0)
(0.697451 0.385684 0)
(0.701141 0.411675 0)
(0.706869 0.439932 0)
(0.71524 0.47074 0)
(0.727066 0.504427 0)
(0.743482 0.541273 0)
(0.765983 0.581559 0)
(0.796624 0.625365 0)
(0.838096 0.672412 0)
(0.894034 0.721643 0)
(0.967133 0.77047 0)
(1.06832 0.814673 0)
(1.18133 0.840229 0)
(2.61197 0.00228893 0)
(1.67314 -0.00676455 0)
(0.549561 -0.0137861 0)
(0.583068 -0.00801635 0)
(0.69613 -0.000388424 0)
(0.777889 0.00988739 0)
(0.798494 0.0200809 0)
(0.794071 0.0297271 0)
(0.785739 0.0382398 0)
(0.778697 0.0460996 0)
(0.775582 0.0537798 0)
(0.774102 0.0614365 0)
(0.772518 0.0691043 0)
(0.770379 0.0768152 0)
(0.767844 0.0846217 0)
(0.765156 0.0925767 0)
(0.762396 0.100725 0)
(0.75957 0.109103 0)
(0.756676 0.117745 0)
(0.753726 0.126684 0)
(0.750738 0.135953 0)
(0.747733 0.145583 0)
(0.74473 0.15561 0)
(0.741756 0.166064 0)
(0.738866 0.176958 0)
(0.736038 0.188348 0)
(0.733272 0.200317 0)
(0.730729 0.212882 0)
(0.728504 0.226108 0)
(0.726579 0.240103 0)
(0.725018 0.254898 0)
(0.723927 0.270519 0)
(0.723391 0.287078 0)
(0.723559 0.304668 0)
(0.724591 0.323391 0)
(0.72667 0.343381 0)
(0.730045 0.364756 0)
(0.734996 0.387668 0)
(0.741899 0.412251 0)
(0.751219 0.438655 0)
(0.763554 0.467009 0)
(0.779679 0.497419 0)
(0.800564 0.529902 0)
(0.827463 0.564344 0)
(0.861897 0.6004 0)
(0.9057 0.637308 0)
(0.961155 0.673735 0)
(1.02987 0.707344 0)
(1.11623 0.735211 0)
(1.20905 0.748959 0)
(2.6037 0.00790554 0)
(1.64294 -0.073513 0)
(0.584866 -0.07255 0)
(0.623933 -0.0457595 0)
(0.731379 -0.00576172 0)
(0.809 0.0165287 0)
(0.826998 0.0266287 0)
(0.821037 0.0352866 0)
(0.811522 0.0426505 0)
(0.804163 0.0507647 0)
(0.800789 0.0592941 0)
(0.798931 0.0677257 0)
(0.79695 0.0759357 0)
(0.794508 0.0840042 0)
(0.791784 0.0920681 0)
(0.788953 0.100206 0)
(0.786074 0.108467 0)
(0.783146 0.116891 0)
(0.780168 0.125521 0)
(0.777155 0.134404 0)
(0.774126 0.143588 0)
(0.771109 0.153099 0)
(0.768124 0.162953 0)
(0.765166 0.173202 0)
(0.762311 0.183913 0)
(0.759702 0.195095 0)
(0.757323 0.206804 0)
(0.755176 0.219097 0)
(0.753378 0.231996 0)
(0.752005 0.245556 0)
(0.751131 0.259849 0)
(0.750867 0.274938 0)
(0.75134 0.290885 0)
(0.752705 0.30777 0)
(0.755136 0.325652 0)
(0.758832 0.344619 0)
(0.764045 0.364739 0)
(0.771072 0.386093 0)
(0.780265 0.408751 0)