/*--------------------------------*- C++ -*----------------------------------*\
| =========                 |                                                 |
| \\      /  F ield         | OpenFOAM: The Open Source CFD Toolbox           |
|  \\    /   O peration     | Version:  2412                                  |
|   \\  /    A nd           | Website:  www.openfoam.com                      |
|    \\/     M anipulation  |                                                 |
\*---------------------------------------------------------------------------*/
FoamFile
{
    version     2.0;
    format      ascii;
    arch        "LSB;label=32;scalar=64";
    class       volScalarField;
    location    "20.5";
    object      Ma;
}
// * * * * * * * * * * * * * * * * * * * * * * * * * * * * * * * * * * * * * //

dimensions      [0 0 0 0 0 0 0];

internalField   nonuniform List<scalar> 
7000
(
2.25605
0.994295
0.300607
0.338439
0.401065
0.442399
0.450608
0.446138
0.439783
0.434872
0.432026
0.429754
0.427155
0.424067
0.420596
0.41682
0.412754
0.408375
0.403664
0.398603
0.393182
0.387384
0.381198
0.374606
0.367592
0.360139
0.35223
0.343844
0.334962
0.325564
0.315631
0.305138
0.294068
0.282399
0.270112
0.257189
0.243615
0.229377
0.214469
0.198886
0.182636
0.16573
0.148193
0.130056
0.111371
0.0921946
0.0725926
0.0528484
0.0319237
0.0155251
2.25611
0.994356
0.300405
0.338273
0.40091
0.442251
0.45046
0.445994
0.439645
0.434741
0.4319
0.429631
0.427035
0.423951
0.420484
0.416714
0.412653
0.40828
0.403575
0.398521
0.393107
0.387318
0.38114
0.374558
0.367555
0.360114
0.352217
0.343844
0.334978
0.325597
0.315681
0.305209
0.294162
0.282516
0.270256
0.257362
0.24382
0.229618
0.21475
0.199212
0.183013
0.166168
0.148704
0.130663
0.112105
0.0931192
0.0738208
0.0546571
0.0351579
0.022058
2.25623
0.994553
0.300537
0.338308
0.40094
0.442283
0.450494
0.446033
0.439702
0.43481
0.431982
0.429717
0.427133
0.424054
0.420602
0.416839
0.412794
0.40843
0.403743
0.398701
0.393307
0.387533
0.381379
0.374816
0.367841
0.360424
0.352561
0.344219
0.335393
0.32605
0.316182
0.305758
0.294768
0.283184
0.270994
0.258177
0.244722
0.230618
0.215862
0.200454
0.184407
0.167744
0.150502
0.132747
0.114567
0.0961185
0.0776355
0.059841
0.0430416
0.0335732
2.25641
0.994859
0.300808
0.338386
0.401021
0.442383
0.450597
0.44615
0.439833
0.434968
0.432151
0.429906
0.427328
0.424272
0.42083
0.417094
0.413061
0.408727
0.404055
0.399047
0.393673
0.387938
0.381809
0.375292
0.368349
0.360987
0.353162
0.344886
0.336109
0.326844
0.317039
0.306709
0.295799
0.284326
0.272239
0.259558
0.246237
0.2323
0.217721
0.202527
0.186722
0.17035
0.153465
0.13615
0.118557
0.100898
0.0835522
0.0674588
0.0533037
0.0461816
2.25666
0.99529
0.301158
0.338455
0.401106
0.442504
0.450726
0.446301
0.439995
0.435172
0.432366
0.430153
0.427584
0.424563
0.421135
0.417437
0.413424
0.409131
0.404485
0.399523
0.394183
0.3885
0.382415
0.375956
0.36907
0.361775
0.354023
0.345824
0.337139
0.327965
0.318274
0.308052
0.297284
0.285943
0.274033
0.261515
0.248413
0.234687
0.220382
0.205468
0.190019
0.174041
0.157642
0.140924
0.124075
0.107411
0.0913735
0.0770306
0.0651094
0.0594956
2.25699
0.995863
0.301601
0.338527
0.401202
0.442649
0.450895
0.446472
0.440225
0.435407
0.432661
0.430446
0.427934
0.424913
0.421549
0.417857
0.413913
0.409631
0.405063
0.400119
0.394865
0.389209
0.383222
0.376804
0.370028
0.36279
0.355164
0.347044
0.338501
0.329433
0.319905
0.309823
0.299243
0.288086
0.276394
0.264115
0.251274
0.237856
0.223874
0.209363
0.194336
0.178897
0.163091
0.147119
0.131168
0.115614
0.100986
0.0882988
0.0781891
0.0736212
2.2574
0.996589
0.302144
0.338602
0.401309
0.442827
0.4511
0.446704
0.440486
0.435719
0.433
0.43083
0.428343
0.425373
0.422037
0.418404
0.414494
0.410282
0.405752
0.40089
0.395682
0.390126
0.384195
0.377895
0.371189
0.364092
0.356553
0.348602
0.34017
0.331303
0.321918
0.312074
0.301679
0.290801
0.279351
0.2674
0.254877
0.241849
0.228285
0.21425
0.199776
0.184942
0.16989
0.154754
0.139836
0.125481
0.112236
0.10108
0.0924461
0.0886268
2.25792
0.99748
0.302796
0.338683
0.401429
0.443037
0.451347
0.446984
0.440805
0.436094
0.433415
0.431293
0.428845
0.425927
0.422639
0.419065
0.415212
0.411067
0.406606
0.401822
0.396699
0.391232
0.385406
0.37921
0.372634
0.36566
0.358282
0.350476
0.342244
0.33355
0.324412
0.314778
0.304687
0.294071
0.282991
0.271372
0.259295
0.246696
0.233669
0.220195
0.206378
0.192286
0.178052
0.163899
0.150056
0.13696
0.125076
0.115265
0.107844
0.104625
2.25853
0.99855
0.303566
0.338771
0.401565
0.443283
0.451644
0.447314
0.441195
0.436535
0.433915
0.431839
0.429449
0.426583
0.423363
0.419851
0.416074
0.412001
0.407629
0.402932
0.397913
0.392553
0.38685
0.380787
0.374356
0.367544
0.360341
0.352735
0.344712
0.336265
0.327376
0.318049
0.308256
0.298021
0.287301
0.276154
0.264523
0.252506
0.240045
0.227279
0.214191
0.20096
0.187673
0.174549
0.161898
0.15003
0.139454
0.130891
0.124494
0.121718
2.25926
0.99981
0.304463
0.338869
0.401719
0.443572
0.451992
0.447715
0.441647
0.437067
0.434495
0.432493
0.430153
0.427368
0.424207
0.420785
0.417081
0.41311
0.408826
0.404247
0.399336
0.394115
0.388545
0.382645
0.376379
0.369762
0.362761
0.355388
0.347615
0.339449
0.330869
0.321881
0.312469
0.302642
0.292397
0.281742
0.2707
0.259279
0.247548
0.235516
0.223325
0.211003
0.198789
0.186796
0.17534
0.164786
0.155441
0.147993
0.142492
0.140147
2.2601
1.00127
0.305496
0.338978
0.401895
0.443904
0.452403
0.44817
0.442197
0.437673
0.435191
0.433242
0.430993
0.428269
0.425209
0.42186
0.418269
0.414388
0.410233
0.405764
0.401004
0.395918
0.390525
0.384793
0.378737
0.372328
0.365577
0.35846
0.350986
0.343137
0.334917
0.326319
0.317344
0.307998
0.298282
0.28822
0.277821
0.267131
0.256176
0.245042
0.233784
0.222549
0.211441
0.200707
0.19052
0.181225
0.173167
0.166809
0.162137
0.160101
2.26106
1.00295
0.306674
0.339101
0.402096
0.444292
0.452879
0.448723
0.442819
0.438402
0.43598
0.434132
0.431947
0.429333
0.426349
0.423124
0.419623
0.415882
0.411837
0.407531
0.402907
0.39801
0.392786
0.387278
0.38143
0.375287
0.368794
0.361996
0.35484
0.347372
0.339547
0.331407
0.322919
0.314126
0.305013
0.295619
0.285961
0.276077
0.266031
0.255862
0.245701
0.235602
0.225775
0.21633
0.207542
0.199611
0.192766
0.187492
0.183633
0.182026
2.26214
1.00484
0.308003
0.339244
0.402326
0.444732
0.453432
0.449348
0.443562
0.43923
0.436912
0.435141
0.433066
0.430539
0.427678
0.424554
0.421194
0.417572
0.413691
0.409528
0.405097
0.400376
0.395381
0.390088
0.384513
0.378633
0.372468
0.365993
0.359231
0.352161
0.34481
0.337159
0.329246
0.321054
0.312636
0.303981
0.295163
0.286185
0.277145
0.26808
0.2591
0.250319
0.241834
0.233868
0.226517
0.220068
0.214648
0.210547
0.207571
0.206268
2.26335
1.00696
0.309487
0.339398
0.402599
0.445228
0.454067
0.450078
0.444411
0.440193
0.437972
0.436308
0.434334
0.431928
0.429182
0.426195
0.422966
0.419504
0.415778
0.411806
0.407559
0.403066
0.398294
0.393274
0.387971
0.38242
0.376586
0.370506
0.364151
0.357558
0.350705
0.34363
0.336328
0.328835
0.321165
0.313358
0.305454
0.297503
0.289569
0.281735
0.274081
0.266733
0.259808
0.253425
0.247783
0.242932
0.239026
0.236291
0.234369
0.233716
2.26468
1.0093
0.311126
0.339558
0.402924
0.445787
0.454795
0.450921
0.445388
0.441303
0.439186
0.437642
0.43578
0.433505
0.430888
0.428049
0.424971
0.421679
0.418134
0.41436
0.410334
0.406075
0.401571
0.396831
0.391854
0.386638
0.381201
0.375527
0.369654
0.363553
0.357286
0.350814
0.344221
0.337468
0.330655
0.323761
0.316889
0.310059
0.303369
0.29689
0.290721
0.284973
0.279768
0.27524
0.271482
0.268671
0.266698
0.265726
0.265194
0.26516
2.26614
1.01187
0.312929
0.339755
0.403289
0.446433
0.45564
0.451893
0.446537
0.442574
0.440593
0.439156
0.437439
0.435286
0.432832
0.430132
0.427239
0.424113
0.420784
0.41721
0.413439
0.409425
0.405224
0.400783
0.396167
0.39132
0.386312
0.381092
0.375731
0.370192
0.364536
0.358757
0.3529
0.347
0.341081
0.335228
0.329453
0.323885
0.318548
0.313589
0.309079
0.305158
0.30193
0.299527
0.298085
0.297585
0.298082
0.299511
0.301156
0.302681
2.26772
1.01467
0.31489
0.339984
0.403708
0.447186
0.456622
0.453027
0.447873
0.444044
0.442205
0.440887
0.439321
0.437307
0.43502
0.43248
0.429777
0.426843
0.423734
0.420395
0.416882
0.413155
0.40926
0.405169
0.400918
0.396498
0.391929
0.387228
0.3824
0.377486
0.372484
0.367459
0.362409
0.357415
0.352498
0.347737
0.343204
0.338963
0.335155
0.331835
0.329183
0.327319
0.326397
0.326521
0.327922
0.330662
0.334527
0.339633
0.344732
0.348731
2.26941
1.01766
0.316993
0.34025
0.404197
0.448072
0.457773
0.454373
0.449419
0.445767
0.444047
0.442886
0.441449
0.439612
0.437472
0.435132
0.432601
0.429899
0.426999
0.423933
0.420676
0.417273
0.413693
0.409986
0.406124
0.402159
0.398069
0.393909
0.389671
0.385405
0.381129
0.376885
0.372725
0.368684
0.364855
0.361275
0.35807
0.355314
0.353128
0.351692
0.351068
0.351514
0.353206
0.356417
0.361335
0.368075
0.376907
0.38764
0.399375
0.409979
2.27117
1.02081
0.319217
0.340565
0.404778
0.449118
0.45913
0.45595
0.451229
0.447752
0.446164
0.445151
0.443866
0.442201
0.440238
0.438091
0.435769
0.43329
0.430642
0.427839
0.424888
0.421799
0.418588
0.415258
0.411842
0.408331
0.404779
0.401171
0.397578
0.393987
0.390486
0.387072
0.383843
0.38083
0.378128
0.375827
0.374005
0.372851
0.372429
0.37293
0.374594
0.377712
0.382634
0.389502
0.39893
0.411258
0.426955
0.447115
0.470998
0.498606
2.273
1.02405
0.321496
0.340946
0.405488
0.450379
0.460775
0.457839
0.453404
0.450071
0.44863
0.447735
0.44662
0.445102
0.443337
0.441362
0.439269
0.437004
0.434627
0.432092
0.429464
0.426705
0.423879
0.420956
0.417995
0.414983
0.411972
0.408971
0.406026
0.403175
0.400452
0.397939
0.395659
0.39374
0.392213
0.391251
0.390891
0.391321
0.392706
0.395392
0.399598
0.405694
0.4139
0.425061
0.439628
0.459166
0.485091
0.520605
0.571938
0.664917
2.27507
1.02778
0.324021
0.341213
0.406283
0.451974
0.462923
0.460359
0.456272
0.453168
0.451886
0.451212
0.450313
0.449071
0.447552
0.445891
0.444085
0.442187
0.440157
0.438056
0.435848
0.433603
0.431285
0.428972
0.426626
0.424338
0.422073
0.419932
0.417892
0.416063
0.414445
0.413152
0.412224
0.411781
0.411924
0.412696
0.414258
0.417024
0.421214
0.426906
0.434598
0.444568
0.45784
0.474826
0.497614
0.527621
0.569605
0.631161
0.729842
0.881501
2.27728
1.03176
0.327031
0.342165
0.408014
0.454843
0.466513
0.464328
0.46056
0.457513
0.456273
0.45569
0.454951
0.453886
0.452586
0.451151
0.449627
0.448024
0.446356
0.444629
0.442868
0.441084
0.43931
0.437554
0.435863
0.434244
0.432761
0.431422
0.430314
0.429447
0.428939
0.428808
0.429173
0.430055
0.431692
0.434281
0.437994
0.442912
0.449478
0.457802
0.468601
0.482315
0.499822
0.522634
0.551805
0.591368
0.643927
0.718052
0.829002
0.967172
2.27856
1.03407
0.328903
0.343225
0.410178
0.458589
0.471238
0.469552
0.466111
0.463086
0.461881
0.461415
0.460842
0.459956
0.458844
0.457616
0.456326
0.454989
0.45362
0.45223
0.450845
0.449481
0.448171
0.446936
0.445813
0.444833
0.444041
0.44348
0.44321
0.443299
0.443757
0.444661
0.446247
0.448652
0.451874
0.456163
0.461597
0.468588
0.477204
0.488172
0.501506
0.518504
0.539223
0.565781
0.599059
0.641728
0.697389
0.767777
0.864195
0.967522
2.27972
1.03618
0.332217
0.346924
0.415042
0.465004
0.47825
0.476434
0.472644
0.469271
0.467991
0.467631
0.46722
0.466509
0.465603
0.464605
0.4636
0.462573
0.461561
0.460549
0.459586
0.458666
0.457843
0.457119
0.456554
0.456165
0.456019
0.456132
0.45655
0.45736
0.458733
0.460715
0.463365
0.466854
0.471247
0.476849
0.483688
0.492277
0.502628
0.515414
0.530897
0.549728
0.572851
0.600714
0.635337
0.677116
0.728944
0.790977
0.868897
0.94996
2.27616
1.02979
0.334364
0.356832
0.427469
0.479835
0.49334
0.490542
0.485541
0.481292
0.479634
0.479078
0.478505
0.477636
0.476575
0.475482
0.474418
0.473393
0.472417
0.471505
0.470679
0.469968
0.46939
0.468991
0.468794
0.468832
0.469103
0.469772
0.470851
0.472453
0.474548
0.477336
0.480784
0.48518
0.490491
0.497085
0.504987
0.514566
0.526095
0.539802
0.556366
0.575925
0.599492
0.627381
0.660605
0.700074
0.746354
0.80073
0.864238
0.928825
2.28209
1.02264
0.358819
0.382373
0.448492
0.498389
0.510304
0.506554
0.500812
0.496428
0.494727
0.494037
0.493337
0.492388
0.491322
0.490245
0.489213
0.488216
0.487278
0.486397
0.48562
0.484946
0.484432
0.484048
0.483918
0.484072
0.484617
0.485483
0.486872
0.488719
0.49127
0.494414
0.498499
0.503362
0.509474
0.5166
0.525368
0.535473
0.547719
0.561839
0.578656
0.598191
0.621071
0.647805
0.678662
0.714612
0.755583
0.802461
0.855659
0.909224
1.87635
0.772056
0.27333
0.344124
0.417735
0.441221
0.441136
0.437157
0.433513
0.433418
0.435592
0.43848
0.441481
0.444525
0.447664
0.450913
0.454232
0.457575
0.460914
0.46423
0.467506
0.470686
0.473829
0.47697
0.480163
0.483343
0.486635
0.489955
0.493578
0.497388
0.50169
0.506381
0.511814
0.517914
0.525033
0.533171
0.542619
0.553561
0.566097
0.580741
0.597314
0.616706
0.638474
0.663804
0.692082
0.724558
0.760548
0.801024
0.845836
0.890585
1.86892
0.771441
0.282229
0.355358
0.42832
0.447786
0.443322
0.435966
0.430306
0.428409
0.42832
0.428723
0.429323
0.430227
0.431575
0.433356
0.435614
0.438221
0.441298
0.444725
0.44861
0.452678
0.457156
0.461801
0.466834
0.47199
0.477528
0.483259
0.48935
0.495677
0.502408
0.509482
0.51704
0.525179
0.533975
0.543726
0.554325
0.566349
0.57954
0.594613
0.61126
0.630242
0.651283
0.675042
0.701381
0.730692
0.763006
0.798135
0.83654
0.87422
1.86796
0.770129
0.284363
0.365074
0.443609
0.463691
0.457514
0.448143
0.441135
0.4384
0.437499
0.436901
0.436312
0.435909
0.435821
0.436092
0.436721
0.437724
0.439256
0.44124
0.443728
0.446645
0.450162
0.454169
0.458798
0.463945
0.46967
0.475926
0.482715
0.490089
0.497963
0.506554
0.515641
0.525597
0.536015
0.547462
0.559518
0.572793
0.58696
0.602638
0.619564
0.638298
0.658716
0.681218
0.705754
0.732565
0.761609
0.792814
0.826431
0.858963
1.86944
0.77341
0.290156
0.367289
0.44368
0.464288
0.459075
0.45056
0.443979
0.441613
0.441137
0.440958
0.440741
0.44063
0.440714
0.441019
0.441607
0.442514
0.443702
0.445184
0.446987
0.449222
0.451862
0.455073
0.458759
0.463139
0.468052
0.473772
0.480046
0.487244
0.494989
0.50375
0.513055
0.523428
0.534439
0.546574
0.559484
0.573585
0.588582
0.604838
0.622201
0.640942
0.661028
0.682679
0.705863
0.730713
0.757163
0.78526
0.815052
0.843704
1.87255
0.780087
0.297836
0.361245
0.429054
0.450298
0.448021
0.441959
0.436348
0.434472
0.434508
0.435038
0.435626
0.43634
0.437232
0.438404
0.439864
0.441548
0.443419
0.445526
0.44787
0.450533
0.453491
0.456861
0.460598
0.464875
0.469591
0.475001
0.480927
0.4877
0.495079
0.503403
0.512441
0.522488
0.533356
0.54527
0.558095
0.572013
0.586952
0.603055
0.620281
0.638767
0.658412
0.679357
0.701479
0.724954
0.749565
0.775292
0.80231
0.82815
1.88113
0.786668
0.300088
0.349032
0.412181
0.441234
0.444211
0.439526
0.434374
0.43209
0.431845
0.432367
0.433085
0.434005
0.435101
0.436434
0.43803
0.439885
0.441999
0.444395
0.44707
0.450077
0.453387
0.457087
0.461124
0.465641
0.470548
0.476049
0.482009
0.488684
0.495929
0.503987
0.512754
0.522412
0.532899
0.544366
0.556743
0.570163
0.584558
0.60005
0.616566
0.634216
0.652916
0.672768
0.69367
0.715656
0.738581
0.762408
0.787227
0.810879
2.26314
1.10612
0.407277
0.399205
0.459381
0.50808
0.519374
0.514484
0.507561
0.501511
0.497993
0.495521
0.493408
0.491389
0.48936
0.487387
0.485662
0.484172
0.483023
0.482175
0.481746
0.481696
0.48215
0.483082
0.484562
0.486627
0.48931
0.492671
0.49671
0.50152
0.507078
0.513492
0.520735
0.528928
0.538023
0.54815
0.559239
0.571408
0.584582
0.598867
0.614159
0.630555
0.647932
0.666342
0.685699
0.70599
0.727117
0.748999
0.771713
0.793324
2.27256
1.12802
0.391753
0.377146
0.450009
0.510731
0.529135
0.528254
0.524032
0.520228
0.518785
0.51841
0.518393
0.518353
0.517938
0.517308
0.516636
0.516006
0.515437
0.514962
0.514594
0.514399
0.514396
0.514668
0.51525
0.51622
0.517615
0.519547
0.52201
0.52516
0.528947
0.533561
0.538919
0.545202
0.552342
0.560472
0.569568
0.579721
0.590919
0.603192
0.616564
0.630987
0.646485
0.662963
0.680393
0.698707
0.717809
0.737607
0.758166
0.777733
2.29748
1.17674
0.434333
0.384012
0.447104
0.503401
0.521883
0.522913
0.521088
0.519904
0.520323
0.521555
0.523349
0.525151
0.526559
0.527759
0.528882
0.53003
0.531178
0.532359
0.533545
0.534789
0.536081
0.537484
0.538997
0.540694
0.542591
0.544762
0.547254
0.550132
0.553464
0.557302
0.561742
0.566816
0.572642
0.579233
0.586704
0.595043
0.604348
0.614595
0.625828
0.638019
0.651194
0.66534
0.680427
0.696428
0.713243
0.730718
0.748941
0.766326
1.90076
0.805052
0.30585
0.316887
0.374001
0.414886
0.429169
0.432998
0.435823
0.439476
0.444408
0.450156
0.456595
0.463092
0.46927
0.475268
0.481235
0.487198
0.493144
0.49903
0.504854
0.510593
0.516268
0.521856
0.527393
0.532856
0.538312
0.543732
0.54921
0.554735
0.560378
0.566186
0.572222
0.578554
0.585232
0.592357
0.599955
0.608146
0.616919
0.626409
0.636572
0.647546
0.659242
0.671766
0.685004
0.698972
0.713606
0.728932
0.744947
0.760264
2.30599
1.19387
0.449678
0.386659
0.440677
0.492252
0.509255
0.509317
0.506171
0.503693
0.502435
0.50225
0.502705
0.5031
0.503424
0.503928
0.504753
0.506029
0.507724
0.509883
0.512456
0.515497
0.518959
0.522886
0.5272
0.531958
0.537044
0.542547
0.548307
0.554444
0.560829
0.56757
0.574549
0.581889
0.589481
0.597465
0.605754
0.614482
0.623587
0.633185
0.643243
0.653845
0.664975
0.676666
0.688927
0.70174
0.715113
0.728956
0.743359
0.757079
2.31124
1.20385
0.432977
0.369746
0.438386
0.50065
0.522108
0.523521
0.521302
0.519831
0.519959
0.52109
0.52282
0.524324
0.525348
0.526195
0.527029
0.527978
0.529052
0.530341
0.531849
0.533663
0.535771
0.538255
0.541103
0.544378
0.548073
0.552227
0.55684
0.561923
0.56748
0.573494
0.579974
0.586893
0.594286
0.60209
0.610361
0.619019
0.628146
0.637646
0.647623
0.657968
0.668805
0.680008
0.691699
0.703753
0.716266
0.7291
0.742383
0.754986
2.31396
1.20968
0.437153
0.371787
0.441513
0.505373
0.527754
0.529437
0.527273
0.525925
0.526398
0.527914
0.530185
0.532378
0.534097
0.535626
0.537153
0.538784
0.540516
0.542377
0.544365
0.546512
0.548833
0.551361
0.554129
0.557162
0.560503
0.564165
0.568201
0.572609
0.577449
0.582705
0.588435
0.594609
0.601278
0.608404
0.61603
0.624113
0.632682
0.6417
0.651179
0.661095
0.671437
0.682193
0.693326
0.704847
0.716688
0.728865
0.741369
0.75326
2.31694
1.2174
0.463527
0.387852
0.447113
0.506243
0.528807
0.53204
0.531162
0.530792
0.531684
0.533613
0.536151
0.538449
0.540476
0.54238
0.544338
0.546379
0.548556
0.550837
0.553268
0.555819
0.558544
0.561416
0.564493
0.567752
0.571255
0.574981
0.578994
0.583279
0.587896
0.592842
0.598162
0.60386
0.609964
0.616482
0.623427
0.630818
0.638648
0.646938
0.655656
0.664831
0.674414
0.684432
0.69482
0.705597
0.71669
0.728099
0.739844
0.751021
1.90564
0.813601
0.324749
0.323677
0.376476
0.414369
0.427257
0.430301
0.432593
0.435934
0.440706
0.446617
0.453345
0.460164
0.466875
0.473536
0.480271
0.487066
0.493932
0.500812
0.50771
0.51459
0.521467
0.528317
0.535162
0.541991
0.54883
0.555677
0.562556
0.569478
0.57646
0.583532
0.590707
0.598025
0.605493
0.613163
0.621031
0.629152
0.637516
0.646165
0.65509
0.664317
0.673831
0.683655
0.693766
0.704172
0.714848
0.725785
0.737031
0.747708
2.31204
1.2087
0.465043
0.403526
0.466225
0.527414
0.549346
0.550275
0.546131
0.542298
0.540091
0.538718
0.538123
0.537726
0.536992
0.536269
0.535703
0.53555
0.535737
0.536424
0.537537
0.53915
0.541231
0.543818
0.546878
0.550434
0.554448
0.558943
0.563864
0.569232
0.574994
0.581154
0.587663
0.59453
0.601714
0.609224
0.617029
0.625132
0.633512
0.642178
0.651114
0.660329
0.66981
0.679557
0.689554
0.699791
0.710253
0.720917
0.731845
0.742209
2.29408
1.16968
0.460141
0.422722
0.485824
0.546224
0.566114
0.566154
0.562433
0.559196
0.558439
0.558842
0.559928
0.561192
0.562064
0.562702
0.563293
0.563951
0.564686
0.565509
0.56643
0.567493
0.568745
0.570228
0.571976
0.574034
0.576417
0.57916
0.582278
0.585793
0.589708
0.594046
0.598809
0.604008
0.609637
0.615696
0.622174
0.629063
0.63635
0.644019
0.652053
0.660432
0.669136
0.678149
0.687465
0.697052
0.706908
0.716995
0.727366
0.73722
1.88784
0.805085
0.340817
0.355374
0.406347
0.443126
0.452861
0.45269
0.451755
0.452607
0.45592
0.460545
0.466085
0.472152
0.478242
0.484364
0.490582
0.496903
0.50328
0.509668
0.516031
0.522358
0.528635
0.534865
0.541042
0.547177
0.553277
0.559369
0.565471
0.571616
0.577827
0.584127
0.590548
0.597109
0.603838
0.610753
0.617876
0.625218
0.632796
0.640613
0.648688
0.657015
0.665608
0.674445
0.683526
0.69284
0.702373
0.712114
0.722102
0.731595
1.87402
0.796333
0.339554
0.356669
0.398325
0.426963
0.434878
0.434832
0.433825
0.433314
0.434046
0.43568
0.438237
0.441445
0.444937
0.44877
0.453026
0.457745
0.462906
0.468489
0.474454
0.480778
0.487416
0.494345
0.501521
0.508919
0.516498
0.524238
0.532103
0.540081
0.548145
0.556307
0.564537
0.572858
0.581247
0.589734
0.598301
0.606979
0.615765
0.624663
0.633671
0.642808
0.652073
0.66148
0.671025
0.680719
0.690556
0.700531
0.710684
0.720296
1.88891
0.80606
0.345063
0.373664
0.430945
0.466903
0.473635
0.469581
0.464498
0.461394
0.460442
0.460412
0.461003
0.461967
0.463006
0.464179
0.465611
0.467372
0.469497
0.472
0.474902
0.478213
0.481963
0.486145
0.490776
0.495842
0.501352
0.507274
0.513612
0.520327
0.527424
0.534855
0.542619
0.550671
0.559004
0.567573
0.576375
0.585367
0.594543
0.60389
0.613405
0.623063
0.632864
0.642781
0.652821
0.662961
0.673209
0.683541
0.694026
0.703921
2.34077
1.12436
0.469101
0.447603
0.513165
0.57491
0.595532
0.594924
0.589625
0.584321
0.58131
0.5794
0.577833
0.576461
0.574907
0.573173
0.5714
0.569686
0.568076
0.566596
0.565273
0.56414
0.563225
0.562575
0.562219
0.562209
0.562559
0.563331
0.564516
0.566154
0.568275
0.570884
0.574008
0.577628
0.58177
0.586404
0.591546
0.597161
0.603258
0.609789
0.616755
0.624111
0.63184
0.639934
0.648348
0.657067
0.666052
0.675289
0.684787
0.693845
1.88937
0.807249
0.346195
0.363484
0.415829
0.45609
0.468563
0.469568
0.46902
0.468999
0.471287
0.474805
0.479012
0.483747
0.488571
0.493383
0.498224
0.503153
0.508129
0.513141
0.518131
0.523108
0.528033
0.532932
0.537774
0.542598
0.547377
0.552155
0.556933
0.561741
0.566585
0.571501
0.576485
0.581593
0.586821
0.592222
0.597786
0.603569
0.609549
0.615785
0.622247
0.628984
0.63597
0.643215
0.650708
0.65846
0.666452
0.674681
0.683164
0.69127
1.8891
0.807396
0.347506
0.364551
0.416102
0.454593
0.465043
0.46398
0.461105
0.458545
0.458079
0.45892
0.460505
0.462712
0.465131
0.467721
0.47059
0.473818
0.477411
0.481354
0.485621
0.490192
0.495049
0.50017
0.505537
0.511123
0.516907
0.522867
0.528984
0.535256
0.541659
0.548193
0.554845
0.561606
0.568472
0.575437
0.582505
0.589675
0.596952
0.604337
0.611838
0.619452
0.627191
0.635051
0.643048
0.651172
0.659438
0.66783
0.676396
0.684531
2.34279
1.12805
0.472783
0.449669
0.516419
0.580663
0.603116
0.60322
0.598141
0.593071
0.590288
0.588732
0.587603
0.586751
0.585748
0.584583
0.583357
0.582232
0.581194
0.580336
0.579596
0.579085
0.578739
0.57868
0.578836
0.579317
0.580081
0.581169
0.582595
0.584369
0.586499
0.588983
0.591822
0.595015
0.59856
0.602457
0.606698
0.611276
0.616182
0.621408
0.62694
0.63277
0.638881
0.645266
0.651906
0.658797
0.665918
0.673261
0.680831
0.688072
1.88982
0.80879
0.353469
0.38143
0.439694
0.479646
0.489607
0.487927
0.484882
0.483496
0.484922
0.487597
0.490946
0.49478
0.498681
0.502631
0.506694
0.510923
0.515286
0.519769
0.524331
0.528964
0.533647
0.538378
0.543148
0.547952
0.552793
0.557671
0.562596
0.56757
0.572603
0.57771
0.582891
0.588167
0.593538
0.599025
0.604624
0.610356
0.616215
0.622218
0.628367
0.634673
0.641138
0.647763
0.654552
0.661507
0.668626
0.675899
0.683354
0.690453
1.87525
0.799754
0.351189
0.378117
0.427538
0.459451
0.467101
0.465973
0.464292
0.463578
0.464104
0.465303
0.467202
0.469488
0.471839
0.474321
0.477028
0.480012
0.48328
0.486829
0.490651
0.494738
0.49908
0.503673
0.508503
0.513561
0.518834
0.524309
0.529972
0.535812
0.541816
0.547965
0.554268
0.5607
0.56727
0.573956
0.580772
0.587698
0.594748
0.601903
0.609175
0.616545
0.624027
0.631607
0.639297
0.647082
0.654976
0.662965
0.671097
0.678798
1.87422
0.799385
0.351711
0.375363
0.422435
0.454103
0.462319
0.461858
0.460741
0.460122
0.460391
0.461216
0.462699
0.464535
0.466382
0.468284
0.470341
0.472596
0.475069
0.477759
0.480676
0.483823
0.487211
0.490839
0.494715
0.498837
0.50321
0.507828
0.512695
0.517803
0.523156
0.528742
0.534561
0.540601
0.546859
0.553319
0.559979
0.566822
0.573849
0.581045
0.58841
0.595931
0.603609
0.611427
0.619379
0.627455
0.635662
0.643993
0.652479
0.660537
1.88906
0.809125
0.354896
0.362673
0.413304
0.452102
0.463045
0.462633
0.460844
0.459598
0.459634
0.460444
0.461983
0.463886
0.465713
0.46752
0.469438
0.47153
0.473814
0.476289
0.478955
0.481814
0.48487
0.488125
0.491585
0.49525
0.499126
0.503212
0.507514
0.512029
0.516763
0.521714
0.526885
0.532272
0.537877
0.543696
0.549729
0.555971
0.56242
0.56907
0.575916
0.58295
0.590166
0.597561
0.605133
0.612876
0.620779
0.628832
0.637056
0.644879
2.31236
1.20474
0.485484
0.431503
0.492596
0.55683
0.582824
0.58632
0.583656
0.580925
0.579636
0.57932
0.579809
0.580639
0.581177
0.581467
0.581699
0.581982
0.582358
0.582825
0.583391
0.584054
0.584831
0.585725
0.586755
0.587924
0.589247
0.590728
0.592383
0.594213
0.596236
0.598451
0.600875
0.603507
0.606361
0.609436
0.612744
0.616281
0.620061
0.624075
0.628337
0.632834
0.637579
0.64256
0.647786
0.653239
0.658924
0.664817
0.670948
0.676842
2.32258
1.22885
0.466167
0.405389
0.481462
0.557529
0.588702
0.593384
0.590751
0.587889
0.5869
0.587353
0.588642
0.590457
0.592139
0.593536
0.594866
0.596279
0.597832
0.599512
0.601315
0.603226
0.605254
0.607394
0.609656
0.612033
0.614536
0.617158
0.619909
0.622785
0.625795
0.628933
0.632212
0.635626
0.639187
0.642888
0.646741
0.650742
0.654902
0.659214
0.66369
0.668324
0.673128
0.678095
0.683234
0.688533
0.694
0.699622
0.70542
0.710959
2.31275
1.20624
0.48672
0.432566
0.494372
0.559834
0.5869
0.591052
0.589001
0.586889
0.586319
0.586975
0.588483
0.590473
0.592272
0.593865
0.595439
0.597122
0.59895
0.600925
0.603034
0.605278
0.607655
0.610173
0.612829
0.61563
0.618573
0.621663
0.624897
0.628281
0.63181
0.63549
0.639316
0.643295
0.64742
0.651699
0.656124
0.660703
0.665428
0.670308
0.675331
0.68051
0.685831
0.691306
0.696922
0.70269
0.708594
0.714646
0.720853
0.726792
1.88896
0.809185
0.356097
0.364319
0.416394
0.457013
0.469113
0.469131
0.467546
0.466532
0.467176
0.468803
0.471285
0.474241
0.477175
0.480141
0.48325
0.486578
0.490122
0.493883
0.497838
0.501992
0.506327
0.510854
0.515553
0.520435
0.525479
0.530697
0.536067
0.541602
0.547281
0.553115
0.559084
0.5652
0.571444
0.577827
0.58433
0.590966
0.597715
0.604591
0.611574
0.618679
0.625885
0.633208
0.640624
0.648154
0.655775
0.663509
0.671372
0.67886
1.87421
0.800019
0.355322
0.380487
0.42859
0.460137
0.467658
0.466491
0.464751
0.463868
0.464085
0.464937
0.466479
0.468359
0.470192
0.472043
0.474007
0.476146
0.478458
0.480951
0.483617
0.486467
0.489494
0.492714
0.496117
0.499718
0.503508
0.507498
0.511678
0.516061
0.520636
0.525413
0.530379
0.535546
0.540901
0.546451
0.552185
0.55811
0.564212
0.570499
0.576956
0.58359
0.590386
0.597349
0.604465
0.61174
0.619157
0.626724
0.634449
0.641812
1.87704
0.80311
0.359404
0.395162
0.451566
0.484571
0.490494
0.486963
0.482779
0.480831
0.48082
0.481616
0.483026
0.484691
0.486289
0.48791
0.489654
0.491566
0.493641
0.495879
0.498271
0.500824
0.503536
0.506416
0.509459
0.512673
0.516055
0.519612
0.52334
0.527246
0.531326
0.535586
0.54002
0.544636
0.549427
0.554399
0.559546
0.564873
0.570373
0.576052
0.581899
0.587922
0.594111
0.600469
0.606987
0.613668
0.620502
0.627488
0.634633
0.641445
1.19161
1.04911
0.497756
0.190597
0.0105255
0.10868
0.160025
0.208399
0.230027
0.23442
0.222775
0.211335
0.201026
0.191491
0.179454
0.164999
0.147666
0.127735
0.105912
0.0827719
0.0589471
0.0352409
0.015853
0.02328
0.0470343
0.0713185
0.0954822
0.119183
0.142514
0.165418
0.18793
0.210008
0.231653
0.252798
0.272818
0.291922
0.311468
0.331845
0.351819
0.370989
0.389512
0.407512
0.425042
0.442099
0.458684
0.474786
0.490406
0.505534
0.520169
0.5343
0.547923
0.561023
0.573592
0.585609
0.597059
0.607919
0.618167
0.627774
0.636714
0.644955
0.652466
0.659213
0.665166
0.670294
0.674573
0.677984
0.680522
0.682196
0.683024
0.683227
0.683075
0.682558
0.681294
0.678862
0.675527
0.671958
0.668315
0.664629
0.66097
0.657417
0.654074
0.651011
0.648302
0.645977
0.644072
0.642585
0.64152
0.640848
0.640553
0.640554
0.640739
0.641104
0.641771
0.642894
0.644309
0.645848
0.647417
0.6491
0.650748
0.65552
1.12199
1.03616
0.806349
0.549406
0.502476
0.431397
0.38139
0.340605
0.310282
0.291722
0.260438
0.230219
0.210654
0.208923
0.216057
0.226616
0.239077
0.253004
0.268138
0.284006
0.300389
0.316872
0.333204
0.349389
0.36613
0.383124
0.400296
0.417404
0.434509
0.451448
0.468309
0.484945
0.501451
0.517691
0.533358
0.548278
0.563285
0.579008
0.594883
0.610113
0.624842
0.639219
0.653311
0.667092
0.68056
0.693683
0.706468
0.718888
0.730952
0.742632
0.753932
0.764824
0.775307
0.785347
0.794942
0.804052
0.812671
0.820754
0.828292
0.835238
0.841578
0.847264
0.852283
0.85659
0.860177
0.863009
0.865095
0.866419
0.867025
0.867067
0.866797
0.86617
0.864881
0.862569
0.859402
0.855968
0.85245
0.848917
0.84543
0.842066
0.838909
0.836035
0.8335
0.831346
0.829592
0.828244
0.827294
0.826722
0.826521
0.826575
0.826774
0.827137
0.827732
0.828729
0.829965
0.83133
0.832671
0.834101
0.835299
0.839102
1.07469
1.0756
1.00818
0.899841
0.831281
0.781079
0.745139
0.715041
0.690221
0.672137
0.657078
0.642771
0.63277
0.627659
0.626149
0.626421
0.627949
0.63038
0.633782
0.638069
0.643197
0.648984
0.655354
0.662196
0.669754
0.677919
0.686688
0.695845
0.705414
0.715218
0.725326
0.735576
0.746061
0.756608
0.766989
0.776933
0.787002
0.797783
0.809146
0.820243
0.83105
0.841671
0.852187
0.862587
0.872866
0.88298
0.892926
0.90267
0.912209
0.921513
0.930578
0.939371
0.947887
0.956087
0.963965
0.971479
0.978619
0.985341
0.991632
0.997445
1.00277
1.00754
1.01177
1.01539
1.01841
1.02078
1.0225
1.02354
1.02394
1.02385
1.02352
1.02287
1.02161
1.01947
1.01655
1.01335
1.01004
1.00673
1.00347
1.00036
0.997451