/*--------------------------------*- C++ -*----------------------------------*\
| =========                 |                                                 |
| \\      /  F ield         | OpenFOAM: The Open Source CFD Toolbox           |
|  \\    /   O peration     | Version:  2412                                  |
|   \\  /    A nd           | Website:  www.openfoam.com                      |
|    \\/     M anipulation  |                                                 |
\*---------------------------------------------------------------------------*/
FoamFile
{
    version     2.0;
    format      ascii;
    arch        "LSB;label=32;scalar=64";
    class       volScalarField;
    location    "20.5";
    object      p;
}
// * * * * * * * * * * * * * * * * * * * * * * * * * * * * * * * * * * * * * //

dimensions      [1 -1 -2 0 0 0 0];

internalField   nonuniform List<scalar> 
7000
(
1.63881
3.75634
11.4546
11.5279
11.0975
10.6879
10.5692
10.5838
10.6248
10.6645
10.6863
10.7001
10.7146
10.7323
10.7527
10.7749
10.7987
10.8242
10.8514
10.8804
10.9112
10.9439
10.9784
11.0148
11.053
11.093
11.1349
11.1786
11.224
11.271
11.3196
11.3698
11.4212
11.4738
11.5273
11.5815
11.6361
11.6907
11.7449
11.7983
11.8503
11.9004
11.9478
11.992
12.0322
12.0679
12.0982
12.1226
12.1403
12.1532
1.63911
3.75505
11.4541
11.5273
11.097
10.6876
10.5688
10.5834
10.6244
10.6641
10.6859
10.6996
10.7141
10.7318
10.7522
10.7744
10.7981
10.8236
10.8507
10.8797
10.9105
10.9432
10.9776
11.014
11.0522
11.0922
11.134
11.1776
11.223
11.27
11.3186
11.3687
11.4201
11.4726
11.5261
11.5803
11.6349
11.6895
11.7438
11.7972
11.8493
11.8994
11.9469
11.9912
12.0315
12.0673
12.0977
12.1223
12.14
12.153
1.639
3.75412
11.4523
11.5265
11.0963
10.6869
10.5681
10.5827
10.6236
10.6632
10.6849
10.6986
10.7131
10.7307
10.751
10.7731
10.7968
10.8222
10.8493
10.8782
10.9089
10.9415
10.9759
11.0121
11.0502
11.0901
11.1318
11.1753
11.2205
11.2674
11.3159
11.3658
11.417
11.4695
11.5228
11.5769
11.6313
11.6858
11.7399
11.7933
11.8452
11.8953
11.9428
11.987
12.0274
12.0631
12.0936
12.1182
12.1358
12.1487
1.63887
3.75283
11.449
11.5254
11.0954
10.6857
10.567
10.5815
10.6223
10.6618
10.6833
10.697
10.7113
10.7289
10.7491
10.7711
10.7948
10.82
10.847
10.8758
10.9064
10.9388
10.973
11.0091
11.047
11.0868
11.1283
11.1716
11.2166
11.2633
11.3115
11.3612
11.4122
11.4644
11.5175
11.5713
11.6255
11.6797
11.7337
11.7868
11.8386
11.8885
11.9359
11.9801
12.0204
12.0561
12.0866
12.1112
12.1286
12.1415
1.6387
3.75096
11.4442
11.524
11.0941
10.6841
10.5652
10.5798
10.6204
10.6597
10.6812
10.6947
10.7089
10.7264
10.7465
10.7684
10.7918
10.8169
10.8438
10.8724
10.9028
10.935
10.969
11.0049
11.0425
11.082
11.1233
11.1663
11.211
11.2573
11.3052
11.3546
11.4052
11.457
11.5098
11.5632
11.617
11.671
11.7246
11.7774
11.8289
11.8786
11.9259
11.9699
12.0102
12.0459
12.0763
12.1009
12.1183
12.1312
1.63848
3.74844
11.4379
11.5222
11.0924
10.682
10.563
10.5774
10.618
10.657
10.6783
10.6916
10.7058
10.7231
10.743
10.7647
10.788
10.8128
10.8395
10.8678
10.898
10.93
10.9637
10.9993
11.0366
11.0757
11.1166
11.1592
11.2035
11.2494
11.2969
11.3458
11.3959
11.4472
11.4995
11.5524
11.6057
11.6592
11.7123
11.7647
11.8158
11.8652
11.9122
11.956
11.9961
12.0318
12.0621
12.0868
12.1042
12.1173
1.63822
3.74521
11.43
11.5199
11.0904
10.6794
10.5601
10.5744
10.6148
10.6536
10.6746
10.6878
10.7017
10.7188
10.7385
10.76
10.783
10.8077
10.834
10.8621
10.8919
10.9236
10.957
10.9921
11.0291
11.0678
11.1082
11.1503
11.1941
11.2394
11.2863
11.3345
11.384
11.4347
11.4863
11.5385
11.5912
11.644
11.6965
11.7483
11.7989
11.8478
11.8943
11.9379
11.9778
12.0133
12.0436
12.0683
12.0857
12.099
1.6379
3.74121
11.4203
11.5172
11.0879
10.6762
10.5565
10.5708
10.6109
10.6494
10.6702
10.6831
10.6968
10.7136
10.7331
10.7543
10.777
10.8013
10.8273
10.855
10.8845
10.9157
10.9486
10.9833
11.0198
11.0579
11.0977
11.1392
11.1823
11.227
11.2731
11.3206
11.3693
11.4192
11.4699
11.5213
11.5731
11.625
11.6767
11.7277
11.7776
11.8258
11.8718
11.9149
11.9545
11.9897
12.02
12.0447
12.0621
12.0756
1.63753
3.73641
11.4088
11.5139
11.0849
10.6723
10.5522
10.5663
10.6062
10.6444
10.6648
10.6774
10.6908
10.7074
10.7265
10.7473
10.7697
10.7936
10.8192
10.8465
10.8755
10.9062
10.9386
10.9727
11.0085
11.046
11.0852
11.1259
11.1682
11.212
11.2572
11.3038
11.3515
11.4003
11.45
11.5003
11.551
11.6018
11.6524
11.7024
11.7513
11.7987
11.8439
11.8863
11.9254
11.9603
11.9903
12.015
12.0324
12.0463
1.6371
3.73074
11.3952
11.51
11.0814
10.6678
10.547
10.561
10.6005
10.6383
10.6584
10.6707
10.6837
10.6999
10.7186
10.7391
10.761
10.7845
10.8096
10.8364
10.8649
10.895
10.9268
10.9602
10.9953
11.0319
11.0702
11.1101
11.1514
11.1942
11.2383
11.2837
11.3303
11.3778
11.4262
11.4752
11.5245
11.574
11.6232
11.6719
11.7195
11.7656
11.8098
11.8513
11.8896
11.9239
11.9536
11.9782
11.9956
12.0098
1.63661
3.72416
11.3795
11.5056
11.0773
10.6626
10.541
10.5548
10.5939
10.6312
10.6509
10.6627
10.6754
10.6912
10.7095
10.7294
10.7509
10.7739
10.7984
10.8246
10.8524
10.8818
10.9129
10.9455
10.9797
11.0155
11.0528
11.0915
11.1317
11.1733
11.2162
11.2602
11.3053
11.3513
11.3981
11.4455
11.4931
11.5409
11.5884
11.6353
11.6813
11.7258
11.7684
11.8086
11.8458
11.8793
11.9083
11.9327
11.95
11.9647
1.63606
3.71662
11.3615
11.5004
11.0725
10.6565
10.5341
10.5476
10.5861
10.623
10.6421
10.6536
10.6658
10.6811
10.6988
10.7183
10.7392
10.7615
10.7854
10.8109
10.838
10.8666
10.8968
10.9285
10.9617
10.9964
11.0325
11.0701
11.1089
11.1491
11.1904
11.2329
11.2763
11.3205
11.3654
11.4107
11.4563
11.5019
11.5473
11.592
11.6358
11.6782
11.7188
11.7571
11.7925
11.8247
11.8528
11.8766
11.8936
11.9087
1.63544
3.70809
11.3411
11.4945
11.0672
10.6496
10.5261
10.5393
10.5772
10.6135
10.6321
10.643
10.6547
10.6694
10.6866
10.7055
10.7257
10.7474
10.7706
10.7953
10.8215
10.8492
10.8784
10.909
10.9411
10.9745
11.0093
11.0455
11.0828
11.1213
11.1609
11.2014
11.2428
11.2849
11.3275
11.3705
11.4136
11.4566
11.4992
11.5411
11.582
11.6215
11.6593
11.695
11.728
11.7579
11.7842
11.8069
11.8234
11.8391
1.63477
3.69852
11.3185
11.4878
11.061
10.6419
10.5171
10.5299
10.567
10.6026
10.6206
10.6309
10.642
10.6561
10.6727
10.6908
10.7104
10.7313
10.7536
10.7774
10.8027
10.8294
10.8575
10.8869
10.9176
10.9497
10.983
11.0175
11.053
11.0896
11.1272
11.1655
11.2046
11.2441
11.2841
11.3242
11.3642
11.404
11.4432
11.4816
11.5188
11.5546
11.5885
11.6203
11.6496
11.6762
11.6997
11.7203
11.7356
11.7515
1.63404
3.6879
11.2935
11.4802
11.054
10.6332
10.5068
10.5191
10.5554
10.5902
10.6075
10.6172
10.6277
10.6411
10.6569
10.6743
10.693
10.7131
10.7345
10.7573
10.7815
10.807
10.8339
10.8619
10.8912
10.9217
10.9533
10.9859
11.0194
11.0539
11.0891
11.1249
11.1612
11.1978
11.2346
11.2713
11.3077
11.3436
11.3786
11.4125
11.4449
11.4756
11.5043
11.5306
11.5544
11.5756
11.5942
11.6109
11.6236
11.6399
1.63325
3.67629
11.266
11.4718
11.0464
10.6236
10.4953
10.507
10.5422
10.5761
10.5927
10.6017
10.6114
10.6241
10.6391
10.6557
10.6735
10.6926
10.713
10.7347
10.7577
10.782
10.8074
10.834
10.8616
10.8903
10.9199
10.9505
10.9818
11.0137
11.0463
11.0792
11.1124
11.1456
11.1787
11.2114
11.2434
11.2745
11.3044
11.3327
11.359
11.383
11.4044
11.423
11.4386
11.4515
11.462
11.4714
11.4786
11.4935
1.6324
3.66375
11.2362
11.4627
11.038
10.6128
10.4823
10.4933
10.5272
10.5602
10.576
10.5843
10.5932
10.605
10.6192
10.6348
10.6517
10.6698
10.6891
10.7096
10.7313
10.7541
10.778
10.8028
10.8287
10.8554
10.8829
10.9111
10.9398
10.969
10.9985
11.0282
11.0578
11.0871
11.1159
11.144
11.1708
11.1963
11.2198
11.2411
11.2596
11.2749
11.2865
11.2942
11.2974
11.2967
11.2933
11.2889
11.2849
11.2956
1.6315
3.65038
11.2044
11.4529
11.0288
10.6008
10.4676
10.4779
10.5103
10.5422
10.5572
10.5647
10.5727
10.5837
10.5969
10.6116
10.6274
10.6443
10.6624
10.6816
10.7019
10.7231
10.7453
10.7684
10.7922
10.8167
10.8419
10.8675
10.8934
10.9195
10.9457
10.9717
10.9972
11.0221
11.046
11.0686
11.0895
11.1082
11.1241
11.1368
11.1456
11.1494
11.1479
11.1409
11.1259
11.1041
11.0762
11.0454
11.0152
11.0115
1.63056
3.63636
11.171
11.4424
11.0189
10.5876
10.4513
10.4606
10.4912
10.522
10.5362
10.5428
10.55
10.56
10.5722
10.5859
10.6006
10.6163
10.6331
10.6509
10.6696
10.6891
10.7095
10.7305
10.7522
10.7743
10.7968
10.8196
10.8424
10.8652
10.8876
10.9095
10.9305
10.9504
10.9688
10.9852
10.9992
11.01
11.0171
11.019
11.0162
11.0066
10.9872
10.9581
10.9174
10.8631
10.7938
10.7119
10.6214
10.5659
1.62961
3.62196
11.1368
11.4313
11.0081
10.5727
10.4326
10.4407
10.4693
10.4989
10.5123
10.5182
10.5245
10.5335
10.5447
10.5572
10.5708
10.5853
10.6006
10.6169
10.634
10.6517
10.6701
10.6889
10.7082
10.7278
10.7475
10.7671
10.7866
10.8056
10.824
10.8413
10.8574
10.8718
10.884
10.8934
10.8996
10.9011
10.8983
10.8893
10.8708
10.8426
10.8018
10.7455
10.6686
10.5656
10.4276
10.2466
10.0128
9.75844
1.62881
3.60364
11.0961
11.4181
10.9944
10.5534
10.4077
10.4143
10.4401
10.4684
10.481
10.4859
10.4911
10.4989
10.5087
10.5199
10.532
10.5448
10.5584
10.5727
10.5877
10.6031
10.619
10.6351
10.6514
10.6677
10.6838
10.6995
10.7147
10.729
10.7421
10.7538
10.7635
10.7708
10.7749
10.7749
10.772
10.7632
10.7451
10.7184
10.6806
10.6285
10.5578
10.4616
10.3307
10.1483
9.88529
9.48008
8.78172
7.25949
1.62802
3.58416
11.053
11.4008
10.9753
10.5251
10.3715
10.3761
10.3987
10.4261
10.4386
10.443
10.4473
10.4539
10.4625
10.4722
10.4827
10.4938
10.5054
10.5175
10.5299
10.5426
10.5555
10.5684
10.5811
10.5934
10.6052
10.6163
10.6263
10.635
10.6419
10.6467
10.6486
10.6476
10.6434
10.6334
10.6164
10.592
10.5583
10.5126
10.4521
10.3718
10.2653
10.1231
9.92998
9.66231
9.27846
8.70951
7.8672
6.48086
1.62756
3.57289
11.0282
11.3892
10.9598
10.4968
10.3324
10.3345
10.3534
10.3806
10.3931
10.3969
10.3999
10.4052
10.4124
10.4207
10.4295
10.4387
10.4482
10.458
10.4679
10.4778
10.4876
10.4971
10.5061
10.5144
10.5219
10.5281
10.5328
10.5356
10.5358
10.5343
10.5295
10.5193
10.5039
10.4825
10.4535
10.4154
10.3658
10.3017
10.2193
10.1134
9.97612
9.79743
9.56208
9.24888
8.82861
8.26105
7.52918
6.55616
1.62693
3.56369
11.0049
11.3679
10.9318
10.4513
10.2774
10.2796
10.2999
10.3306
10.3445
10.3481
10.3503
10.3546
10.3608
10.3678
10.3751
10.3825
10.3899
10.3974
10.4047
10.4118
10.4185
10.4246
10.4299
10.4342
10.4373
10.4386
10.4382
10.4361
10.4308
10.4213
10.4079
10.3897
10.3654
10.3342
10.2943
10.2439
10.1804
10.101
10.0016
9.87704
9.72056
9.52336
9.27427
8.9595
8.56443
8.07333
7.49296
6.76386
1.62764
3.59808
11.0663
11.3652
10.9044
10.3857
10.2004
10.2057
10.2339
10.2717
10.2882
10.2917
10.2935
10.2971
10.3027
10.3089
10.315
10.3208
10.3265
10.332
10.3371
10.3416
10.3455
10.3485
10.3505
10.3509
10.3503
10.3479
10.3428
10.3346
10.3232
10.308
10.2881
10.2629
10.231
10.1913
10.1423
10.0819
10.0081
9.91778
9.80753
9.67297
9.50877
9.30862
9.06523
8.77086
8.41827
8.00029
7.51933
6.96826
1.58992
3.70858
11.0712
11.274
10.8236
10.3042
10.1313
10.1413
10.1779
10.2178
10.2343
10.2381
10.2401
10.2438
10.2486
10.2535
10.258
10.262
10.2656
10.2687
10.2712
10.2729
10.2738
10.2735
10.2724
10.2696
10.2643
10.257
10.2472
10.2343
10.2178
10.1972
10.1717
10.1403
10.102
10.0555
9.9995
9.93207
9.85126
9.75454
9.63904
9.50131
9.33751
9.14329
8.91423
8.64586
8.33483
7.9785
7.57884
7.13115
1.55502
4.81592
11.2224
10.9528
10.312
10.055
10.0505
10.0771
10.1245
10.151
10.1607
10.1649
10.1692
10.1743
10.1794
10.1839
10.1878
10.1909
10.1933
10.1949
10.1955
10.1953
10.1943
10.1918
10.1873
10.1814
10.1736
10.1635
10.1505
10.1339
10.1135
10.0885
10.0583
10.022
9.97877
9.92738
9.86659
9.79479
9.71021
9.61083
9.49433
9.35817
9.19961
9.01574
8.80386
8.56154
8.28733
7.98119
7.64449
7.26998
1.55592
4.82291
11.1722
10.8837
10.2394
9.99998
10.0101
10.0525
10.101
10.1227
10.1288
10.1313
10.1343
10.1375
10.1401
10.1417
10.1424
10.1423
10.1416
10.1398
10.1367
10.1328
10.1279
10.1216
10.1136
10.1038
10.0915
10.0768
10.0593
10.0385
10.0141
9.98548
9.95176
9.91188
9.86493
9.81006
9.74605
9.67165
9.58548
9.48588
9.37113
9.23931
9.08852
8.9168
8.72256
8.50435
8.26148
7.99345
7.70654
7.39048
1.56607
4.84202
11.2348
10.9036
10.1831
9.92253
9.9376
9.99228
10.0496
10.0741
10.0804
10.0831
10.0865
10.0899
10.0922
10.0932
10.0931
10.0921
10.0897
10.0856
10.0804
10.0741
10.0664
10.0571
10.0459
10.0326
10.0171
9.99897
9.978
9.95374
9.92553
9.89274
9.85479
9.81129
9.7615
9.70439
9.63901
9.56395
9.478
9.37991
9.26851
9.14232
9.00017
8.84072
8.66301
8.46634
8.25104
8.0169
7.76778
7.49733
1.55639
4.82022
11.1589
10.8518
10.159
9.89774
9.90978
9.959
10.0152
10.0395
10.0451
10.0466
10.0485
10.0504
10.0511
10.0507
10.0491
10.0457
10.0409
10.035
10.0279
10.0194
10.0093
9.99749
9.98366
9.96767
9.94922
9.92813
9.904
9.87651
9.84513
9.80944
9.76897
9.723
9.6709
9.61176
9.54486
9.46939
9.38454
9.28924
9.18254
9.0632
8.93022
8.78278
8.6206
8.4436
8.25198
8.04514
7.82672
7.59197
1.52721
4.76261
10.9514
10.7271
10.1504
9.90233
9.90322
9.93259
9.98125
10.0045
10.0103
10.011
10.0117
10.0119
10.0115
10.0098
10.0062
10.001
9.9948
9.98741
9.97858
9.96819
9.95605
9.94205
9.92594
9.90765
9.88682
9.86331
9.83668
9.80671
9.77299
9.73509
9.69255
9.64478
9.5913
9.53144
9.46455
9.38991
9.30682
9.21445
9.11197
8.99885
8.87457
8.73866
8.59062
8.43016
8.25737
8.0744
7.88168
7.67568
1.51114
4.71711
10.8682
10.7322
10.2337
9.94092
9.8891
9.90742
9.94686
9.97096
9.97769
9.97741
9.97625
9.97394
9.97104
9.96722
9.96213
9.95577
9.94811
9.93914
9.92865
9.91656
9.90268
9.88695
9.8691
9.84903
9.82639
9.80107
9.77266
9.74094
9.70557
9.66615
9.62236
9.57369
9.51964
9.45972
9.39346
9.32026
9.23957
9.15076
9.0533
8.94668
8.83054
8.70452
8.56852
8.42264
8.26718
8.10285
7.93087
7.74826
1.66804
3.29241
10.5064
11.0126
10.5967
10.0769
9.88876
9.89271
9.91797
9.95102
9.96174
9.96057
9.95662
9.95026
9.94443
9.93849
9.93158
9.92333
9.91368
9.90261
9.89005
9.87583
9.85981
9.84201
9.82212
9.79999
9.77531
9.74798
9.71765
9.68412
9.64708
9.60618
9.56106
9.51136
9.45667
9.39667
9.33099
9.2592
9.18085
9.09551
9.00271
8.90212
8.79349
8.67658
8.55138
8.41803
8.27684
8.12829
7.97356
7.81017
1.67596
3.16878
10.4405
11.1644
10.7157
10.1118
9.86699
9.85413
9.87187
9.90404
9.91448
9.91261
9.90661
9.89726
9.88963
9.88309
9.87615
9.86794
9.85827
9.84713
9.83445
9.8201
9.80395
9.7858
9.76553
9.74295
9.71779
9.68991
9.65901
9.62495
9.58739
9.54615
9.50096
9.45154
9.39765
9.33886
9.27478
9.20506
9.12939
9.04737
8.95875
8.86338
8.76123
8.65241
8.53678
8.41438
8.28544
8.15038
8.01019
7.86273
1.64114
3.05425
9.91172
11.0083
10.6483
10.1094
9.88626
9.86538
9.87635
9.89467
9.89633
9.89238
9.88223
9.86887
9.85769
9.84799
9.83819
9.82743
9.81546
9.80222
9.78766
9.77162
9.75395
9.73446
9.71299
9.68935
9.66335
9.63474
9.60327
9.56875
9.53099
9.48977
9.44483
9.39591
9.34274
9.28502
9.22246
9.15482
9.08186
9.00346
8.91952
8.82982
8.73417
8.63241
8.52445
8.41066
8.29187
8.16839
8.0407
7.90683
1.43593
4.54891
10.3358
10.5118
10.2193
9.92473
9.81675
9.81413
9.8224
9.83291
9.83282
9.82929
9.82024
9.80827
9.79802
9.78889
9.7794
9.76879
9.75688
9.74368
9.72913
9.71308
9.69536
9.67581
9.65429
9.63061
9.60463
9.57608
9.5448
9.51069
9.47349
9.43297
9.3889
9.3411
9.28933
9.23335
9.17296
9.10797
9.03822
8.96356
8.88387
8.79904
8.709
8.61376
8.51372
8.40897
8.2994
8.18524
8.06748
7.94469
1.63348
3.00279
9.72664
10.896
10.5812
10.081
9.86147
9.8272
9.83254
9.83902
9.83627
9.82711
9.81043
9.79462
9.78102
9.76846
9.75563
9.7418
9.72677
9.71067
9.69349
9.675
9.65503
9.63342
9.60998
9.58461
9.55712
9.52746
9.4955
9.46088
9.42342
9.38291
9.3392
9.29213
9.24149
9.18705
9.12862
9.06605
8.9992
8.92795
8.8522
8.77193
8.68714
8.59786
8.50425
8.40642
8.30452
8.19894
8.09027
7.97728
1.64234
2.93466
9.72801
11.021
10.6397
10.0487
9.79146
9.75793
9.76808
9.78373
9.78264
9.7755
9.75954
9.74245
9.72861
9.71648
9.70423
9.69114
9.67702
9.66164
9.64487
9.62666
9.60692
9.5855
9.56231
9.53718
9.50995
9.48051
9.44869
9.41433
9.37727
9.3374
9.29452
9.24842
9.19895
9.14601
9.08948
9.02923
8.96516
8.89719
8.82525
8.74928
8.6693
8.58535
8.49751
8.40593
8.31081
8.21259
8.11172
8.00693
1.64065
2.91536
9.67352
10.9995
10.6147
10.0086
9.74199
9.70686
9.718
9.73633
9.73583
9.72959
9.71461
9.69701
9.68288
9.67082
9.65873
9.64567
9.6314
9.61585
9.59897
9.58067
9.56087
9.53943
9.51624
9.49116
9.46406
9.43482
9.40331
9.36939
9.33294
9.29381
9.25186
9.20694
9.15894
9.10772
9.05323
8.99537
8.93406
8.86924
8.80085
8.72886
8.65329
8.5742
8.4917
8.40594
8.31698
8.22518
8.131
8.03328
1.62628
2.92393
9.50544
10.8589
10.549
9.99801
9.74239
9.69449
9.69919
9.70748
9.70516
9.69662
9.6794
9.66268
9.64836
9.63526
9.62205
9.608
9.59289
9.57664
9.55919
9.54042
9.52022
9.49847
9.47505
9.44984
9.42271
9.39356
9.36227
9.32872
9.29277
9.25429
9.21318
9.16936
9.12275
9.07326
9.02077
8.96519
8.90645
8.84455
8.77943
8.71109
8.63953
8.56483
8.48708
8.4064
8.32302
8.23703
8.14876
8.05717
1.39417
4.48157
10.035
10.304
10.0234
9.73583
9.62796
9.61882
9.62422
9.6308
9.62973
9.62451
9.61318
9.60047
9.58901
9.57816
9.56681
9.55436
9.54063
9.52557
9.50916
9.49133
9.472
9.45109
9.42849
9.40411
9.37783
9.34955
9.3192
9.28668
9.25188
9.2147
9.17506
9.13286
9.08804
9.04051
8.99018
8.93698
8.88091
8.82192
8.76002
8.69524
8.62756
8.55702
8.48366
8.40757
8.32897
8.24792
8.16479
8.07859
1.63151
2.94763
9.59275
10.8422
10.4982
9.9094
9.63587
9.5935
9.60379
9.62423
9.62582
9.62115
9.60876
9.59143
9.57651
9.56339
9.55017
9.53591
9.52034
9.50344
9.48532
9.4658
9.44491
9.42264
9.39894
9.37368
9.34669
9.31788
9.28714
9.25438
9.21957
9.18268
9.14364
9.10235
9.0587
9.01262
8.96405
8.91293
8.85919
8.80278
8.74366
8.68186
8.61738
8.55031
8.48073
8.40874
8.33448
8.258
8.17955
8.09821
1.64175
3.07713
9.86568
10.7742
10.3917
9.77984
9.5179
9.49773
9.51505
9.54785
9.55732
9.55466
9.5463
9.53207
9.51958
9.5087
9.49763
9.48534
9.47158
9.45645
9.4401
9.42246
9.40334
9.38259
9.36012
9.33592
9.30996
9.28221
9.2526
9.22109
9.18762
9.15209
9.11442
9.07454
9.0324
8.98793
8.9411
8.89187
8.8402
8.78608
8.72952
8.67057
8.60923
8.54548
8.47937
8.411
8.34046
8.26786
8.19341
8.11623
1.40432
4.54548
10.1037
10.1589
9.85323
9.54589
9.44634
9.45164
9.47102
9.491
9.49673
9.49522
9.49018
9.48072
9.47139
9.46233
9.45255
9.44145
9.42887
9.41485
9.3994
9.38249
9.36402
9.34394
9.3222
9.29879
9.27367
9.24679
9.21808
9.1875
9.15503
9.12063
9.08423
9.04577
9.0052
8.96247
8.91754
8.87038
8.82097
8.76929
8.71533
8.65908
8.6006
8.53995
8.47716
8.41229
8.34539
8.27653
8.20586
8.1326
1.38827
4.55522
10
10.0251
9.78331
9.55112
9.46874
9.4661
9.47226
9.48168
9.48336
9.48129
9.47534
9.46531
9.455
9.44459
9.43338
9.42099
9.40731
9.39234
9.37607
9.35849
9.33954
9.31916
9.29728
9.27386
9.24885
9.22221
9.1939
9.16388
9.13204
9.09834
9.06272
9.02514
8.98555
8.94393
8.90022
8.85437
8.80648
8.75661
8.70471
8.65073
8.59465
8.53653
8.47636
8.4142
8.35011
8.28423
8.2167
8.14676
1.42142
4.56866
10.2119
10.1819
9.79806
9.46265
9.36947
9.38142
9.41263
9.43711
9.44403
9.44266
9.43806
9.42945
9.4205
9.41138
9.40142
9.39013
9.37739
9.36319
9.34755
9.33045
9.31188
9.29183
9.27028
9.24719
9.22253
9.19627
9.1684
9.13887
9.10762
9.07461
9.03978
9.00315
8.9647
8.92442
8.88228
8.83831
8.79239
8.74445
8.69451
8.64262
8.58881
8.53309
8.47549
8.41603
8.35479
8.29181
8.2272
8.16013
1.53224
3.35194
9.88808
10.7065
10.3187
9.67652
9.39261
9.36677
9.38441
9.42027
9.43444
9.43341
9.42876
9.41898
9.40852
9.39852
9.38808
9.37644
9.36335
9.34883
9.33293
9.31566
9.297
9.27689
9.2553
9.23219
9.20746
9.1811
9.15324
9.12375
9.09258
9.05971
9.02516
8.98892
8.95097
8.91129
8.86986
8.82667
8.78168
8.7349
8.68633
8.63603
8.58387
8.52991
8.47423
8.41691
8.35797
8.29746
8.23549
8.17136
1.39664
4.53398
10.0655
10.0947
9.7917
9.46664
9.34465
9.34309
9.35449
9.37595
9.38478
9.38409
9.38057
9.37291
9.36396
9.35521
9.34601
9.33566
9.32386
9.31061
9.29595
9.27988
9.26238
9.24341
9.22294
9.20093
9.17735
9.15222
9.12554
9.0973
9.06747
9.03606
9.00303
8.9683
8.93185
8.89366
8.85375
8.81211
8.76872
8.72359
8.67671
8.62807
8.57779
8.52591
8.4724
8.41729
8.36063
8.30247
8.24294
8.18151
1.39403
4.5311
10.0481
10.0818
9.77511
9.44726
9.32706
9.32736
9.33993
9.36268
9.37207
9.37119
9.36713
9.35855
9.34888
9.3394
9.32944
9.31833
9.30582
9.29193
9.27673
9.26023
9.24241
9.22326
9.20274
9.18083
9.15754
9.13285
9.10665
9.07888
9.04954
9.01859
8.98606
8.95198
8.91633
8.87909
8.84024
8.79975
8.75763
8.71387
8.66849
8.62148
8.57289
8.52272
8.471
8.41773
8.36297
8.30675
8.24915
8.18971
1.53042
3.33995
9.84866
10.6874
10.3012
9.63671
9.33285
9.29711
9.31365
9.34845
9.36366
9.36278
9.35821
9.34836
9.33755
9.32759
9.31754
9.30649
9.29406
9.28029
9.26518
9.24878
9.23104
9.21196
9.19148
9.16953
9.14627
9.12155
9.09535
9.06765
9.03844
9.00771
8.97549
8.94178
8.90656
8.86982
8.83155
8.79174
8.75039
8.70749
8.66307
8.61713
8.56968
8.52074
8.47034
8.41851
8.36526
8.31066
8.25482
8.1973
1.40804
4.54754
10.1179
10.0917
9.70641
9.35355
9.24336
9.25261
9.28189
9.31087
9.32047
9.31955
9.31567
9.30761
9.29896
9.29048
9.28145
9.27124
9.25967
9.24674
9.23252
9.21701
9.2002
9.18207
9.16258
9.14171
9.11947
9.09584
9.07077
9.04425
9.01626
8.98684
8.95597
8.92362
8.88979
8.85445
8.81761
8.77927
8.73944
8.6981
8.65523
8.61084
8.56494
8.51758
8.46877
8.41852
8.36686
8.31388
8.25966
8.20379
1.39299
4.55534
10.007
9.9813
9.66839
9.38804
9.29955
9.30256
9.31473
9.32554
9.32608
9.32359
9.31698
9.30689
9.29686
9.28694
9.27642
9.26488
9.25218
9.23832
9.22329
9.2071
9.18974
9.17117
9.15137
9.13032
9.10799
9.08436
9.05942
9.03315
9.00554
8.97655
8.94613
8.91427
8.88096
8.84619
8.80996
8.77225
8.73309
8.69249
8.65047
8.60704
8.56217
8.51589
8.46821
8.41913
8.36873
8.31697
8.2639
8.20908
1.38502
4.54762
9.95836
9.94704
9.65849
9.38678
9.29451
9.29382
9.29997
9.30768
9.30774
9.30548
9.29933
9.28943
9.2795
9.2697
9.25935
9.24805
9.23567
9.22218
9.2076
9.19188
9.17498
9.15687
9.13754
9.11696
9.0951
9.07196
9.04751
9.02173
8.9946
8.96611
8.93623
8.90496
8.8723
8.83824
8.8028
8.76595
8.72768
8.68799
8.64688
8.60435
8.56042
8.51509
8.46842
8.42045
8.37114
8.32046
8.26845
8.21464
1.37711
4.50912
9.91877
10.031
9.73078
9.40292
9.28167
9.27764
9.28624
9.29859
9.30069
9.29834
9.29166
9.28061
9.2699
9.25975
9.24928
9.23787
9.22535
9.21171
9.19695
9.18108
9.16407
9.14588
9.12652
9.10594
9.08413
9.06108
9.03677
9.01118
8.98429
8.95608
8.92656
8.89569
8.86348
8.82992
8.79499
8.75869
8.72102
8.68197
8.64156
8.5998
8.55671
8.5123
8.46655
8.41943
8.371
8.32129
8.27035
8.21782
1.62611
2.96878
9.52101
10.6172
10.2728
9.64705
9.33755
9.27171
9.27927
9.29747
9.30491
9.30266
9.29512
9.28074
9.26755
9.25624
9.24537
9.23383
9.22119
9.20742
9.19255
9.17662
9.15959
9.14143
9.12212
9.10162
9.07992
9.05698
9.0328
9.00736
8.98064
8.95262
8.9233
8.89265
8.86068
8.82737
8.79272
8.75672
8.71938
8.6807
8.64068
8.59934
8.55667
8.5127
8.46744
8.4209
8.37314
8.32424
8.27425
8.22286
1.63543
2.85349
9.48331
10.8209
10.4146
9.67639
9.30921
9.23122
9.24177
9.26773
9.28238
9.28117
9.27503
9.26166
9.24753
9.23596
9.22552
9.2146
9.20253
9.18922
9.17479
9.15928
9.14268
9.12497
9.10612
9.08609
9.06488
9.04245
9.0188
8.9939
8.96775
8.94032
8.9116
8.88159
8.85027
8.81763
8.78368
8.7484
8.7118
8.67387
8.63462
8.59405
8.55218
8.50898
8.4645
8.41876
8.37181
8.32368
8.27446
8.22389
1.62647
2.96189
9.50566
10.6077
10.2633
9.63094
9.31337
9.24572
9.2541
9.2747
9.28486
9.28299
9.27594
9.26153
9.24767
9.23596
9.22501
9.21351
9.20094
9.18725
9.17251
9.15674
9.13994
9.12208
9.10311
9.08302
9.06178
9.03936
9.01576
8.99094
8.9649
8.93762
8.90908
8.87926
8.84817
8.81579
8.78211
8.74713
8.71084
8.67325
8.63435
8.59416
8.55267
8.5099
8.46586
8.42057
8.37404
8.32631
8.27742
8.22698
1.37409
4.50575
9.89937
10.0114
9.70696
9.36488
9.2362
9.23175
9.24127
9.25582
9.25894
9.25672
9.25022
9.23925
9.22865
9.21871
9.20852
9.19747
9.18535
9.17217
9.15796
9.14272
9.12643
9.10907
9.09062
9.07104
9.05031
9.02842
9.00535
8.98108
8.95559
8.92886
8.90089
8.87165
8.84115
8.80935
8.77627
8.7419
8.70622
8.66924
8.63095
8.59136
8.55047
8.5083
8.46485
8.42013
8.37416
8.32693
8.27843
8.22818
1.37986
4.54101
9.92392
9.9065
9.60676
9.32972
9.24182
9.24412
9.25482
9.26479
9.26503
9.26244
9.25549
9.24466
9.23405
9.22378
9.21308
9.20149
9.18889
9.1753
9.16072
9.14513
9.12853
9.11087
9.09214
9.0723
9.05135
9.02926
9.00601
8.98157
8.95595
8.92911
8.90105
8.87174
8.84119
8.80937
8.77629
8.74193
8.7063
8.66938
8.63117
8.59169
8.55093
8.50891
8.46562
8.4211
8.37534
8.32837
8.28019
8.23049
1.40405
4.56226
10.0543
9.987
9.59178
9.27573
9.1929
9.20451
9.23422
9.25464
9.2572
9.25455
9.24752
9.23715
9.2272
9.21751
9.20724
9.19598
9.18364
9.17029
9.15593
9.14056
9.12416
9.1067
9.08816
9.06853
9.04777
9.02587
9.00282
8.97858
8.95315
8.92651
8.89864
8.86953
8.83917
8.80756
8.77467
8.74051
8.70506
8.66834
8.63033
8.59104
8.55047
8.50864
8.46555
8.42122
8.37567
8.32891
8.28101
8.23173
3.04389
2.45835
3.00326
4.1802
4.12627
4.10966
4.04883
4.01115
3.99823
4.00095
4.02853
4.07208
4.10916
4.13986
4.17385
4.21656
4.26823
4.3263
4.38794
4.45084
4.51327
4.57401
4.63257
4.68951
4.74049
4.78586
4.82553
4.85996
4.88909
4.91313
4.93209
4.94619
4.9555
4.96027
4.96068
4.95905
4.95372
4.94243
4.92698
4.90921
4.88918
4.86684
4.84231
4.81586
4.78774
4.75825
4.72761
4.69609
4.66391
4.6313
4.59846
4.56562
4.53297
4.50071
4.46905
4.43819
4.40832
4.37964
4.35235
4.32664
4.3027
4.28074
4.26091
4.24341
4.22837
4.21592
4.20616
4.19912
4.19478
4.19316
4.19336
4.19437
4.19725
4.20369
4.2153
4.22825
4.24154
4.25503
4.26856
4.28185
4.29454
4.3063
4.31689
4.32611
4.33384
4.34004
4.34471
4.34788
4.34968
4.35026
4.35018
4.34979
4.34872
4.34637
4.34239
4.338
4.33347
4.32877
4.32375
4.31937
4.09629
3.55404
3.75653
4.23466
4.15204
4.09546
4.03622
3.99585
3.98415
3.99633
4.03739
4.08776
4.11953
4.14148
4.17052
4.21144
4.26271
4.32073
4.38225
4.44505
4.50738
4.56826
4.6271
4.68378
4.73484
4.78021
4.82
4.85456
4.88383
4.908
4.92708
4.94128
4.95066
4.95546
4.95568
4.9545
4.95024
4.94024
4.92327
4.90487
4.88501
4.863
4.83872
4.81242
4.78443
4.75505
4.72453
4.69312
4.66105
4.62853
4.59579
4.56303
4.53046
4.49827
4.46667
4.43586
4.40604
4.3774
4.35014
4.32446
4.30055
4.2786
4.2588
4.24132
4.22631
4.2139
4.2042
4.19726
4.19313
4.19202
4.19228
4.19338
4.19628
4.20262
4.21428
4.22752
4.24117
4.25495
4.26869
4.28214
4.29497
4.30686
4.31754
4.32682
4.33458
4.34079
4.34544
4.34857
4.35031
4.3508
4.35071
4.35031
4.34925
4.34694
4.34285
4.33831
4.33371
4.32909
4.3243
4.32155
5.22571
4.46462
4.23627
4.26805
4.24883
4.19638
4.11441
4.06144
4.04134
4.04379
4.05625
4.08543
4.1207
4.15211
4.18522
4.22588
4.27485
4.33041
4.38979
4.45072
4.51148
4.57095
4.62826
4.6828
4.733
4.77786
4.81724
4.85132
4.88015
4.90391
4.92263
4.93646
4.9455
4.94986
4.94979
4.9487
4.94505
4.93643
4.91915
4.89976
4.87929
4.85717
4.83301
4.80687
4.77901
4.74973
4.71932
4.68802
4.65606
4.62366
4.59104
4.55839
4.52593
4.49385
4.46235
4.43163
4.4019
4.37334
4.34616
4.32056
4.29672
4.27485
4.25512
4.23772
4.22281
4.21053
4.201
4.19433
4.19062
4.19017
4.19051
4.19174
4.19479
4.20131
4.21291
4.22639
4.24054
4.25486
4.26905
4.28286
4.29597
4.30808
4.31892
4.3283
4.33612
4.34233
4.34692
4.34996
4.35161
4.35189
4.35176
4.3513
4.35015
4.34769
4.3435
4.33883
4.3341
4.32954
4.32495
4.32392
5.82916
5.09606
4.66343
4.46684
4.42806
4.36231
4.27011
4.18975
4.13788
4.11751
4.1198
4.13083
4.15695
4.19394
4.22748
4.26237
4.30323
4.35097
4.40403
4.46011
4.51716
4.5737
4.62849
4.68081
4.72924
4.77301
4.81161
4.84493
4.87307
4.89621
4.91439
4.9277
4.93626
4.94006
4.93989
4.93876
4.93539
4.92761
4.91173
4.89162
4.87027
4.84771
4.82354
4.7976
4.77001
4.741
4.71085
4.6798
4.6481
4.61596
4.58358
4.55117
4.51894
4.48708
4.4558
4.4253
4.39576
4.36741
4.34042
4.315
4.29135
4.26966
4.25012
4.2329
4.2182
4.20615
4.1969
4.19064
4.18758
4.18763
4.18812
4.1896
4.19305
4.20018
4.21154
4.22508
4.2397
4.25467
4.26949
4.2838
4.29729
4.30966
4.32068
4.33017
4.33803
4.34422
4.34874
4.3517
4.35318
4.35317
4.353
4.35243
4.35107
4.34827
4.34407
4.33935
4.33452
4.32999
4.32563
4.32572
6.23216
5.59716
5.1226
4.83342
4.68462
4.57175
4.46041
4.35892
4.28144
4.23392
4.21408
4.21502
4.22131
4.2377
4.27021
4.30299
4.33927
4.38056
4.42671
4.47646
4.52827
4.58058
4.63193
4.68119
4.72731
4.76933
4.80667
4.83884
4.866
4.8883
4.90568
4.91826
4.92618
4.9292
4.92894
4.9277
4.92434
4.9169
4.90185
4.8821
4.8603
4.83718
4.81272
4.78679
4.7594
4.73068
4.70084
4.67011
4.63872
4.60689
4.57481
4.54271
4.51077
4.47921
4.44823
4.41802
4.38878
4.36072
4.33402
4.3089
4.28554
4.26414
4.24489
4.22798
4.21361
4.20191
4.19313
4.18737
4.18507
4.18523
4.18595
4.18783
4.19187
4.19994
4.21103
4.22445
4.23933
4.25482
4.27023
4.28506
4.29893
4.31155
4.32273
4.33229
4.34016
4.3463
4.35074
4.35357
4.35472
4.35466
4.35435
4.35354
4.35181
4.34864
4.34448
4.33976
4.33487
4.33035
4.32635
4.32665
6.53922
6.00413
5.54949
5.20573
4.97275
4.80638
4.66935
4.55013
4.45206
4.37996
4.33465
4.31276
4.31258
4.31577
4.32644
4.34959
4.38195
4.41794
4.45671
4.49862
4.54328
4.58954
4.63596
4.68124
4.72424
4.76394
4.79953
4.83046
4.85657
4.87793
4.89438
4.9062
4.91345
4.91569
4.91536
4.91401
4.91056
4.90316
4.88855
4.86963
4.84797
4.82452
4.79973
4.7737
4.74645
4.71804
4.68859
4.65828
4.62731
4.59589
4.56423
4.53254
4.50102
4.46988
4.43931
4.40953
4.38072
4.35309
4.32683
4.30215
4.27923
4.25828
4.23948
4.22299
4.20911
4.19796
4.18973
4.18452
4.18303
4.18329
4.18424
4.18654
4.19138
4.20003
4.21124
4.22461
4.23953
4.25525
4.27101
4.28619
4.30036
4.31319
4.32446
4.33406
4.3419
4.34799
4.35235
4.35503
4.35582
4.35571
4.35528
4.35425
4.35211
4.34872
4.3445
4.33977
4.33486
4.33037
4.32665
4.32705
6.78345
6.33292
5.91533
5.55623
5.27566
5.06394
4.89624
4.75631
4.63923
4.54575
4.47708
4.43233
4.40885
4.40302
4.40466
4.41135
4.42712
4.45557
4.48735
4.52261
4.56062
4.60048
4.64118
4.68173
4.72102
4.7579
4.7914
4.82083
4.84577
4.86611
4.88179
4.89285
4.89937
4.90084
4.90044
4.89896
4.89535
4.88772
4.87358
4.85534
4.83406
4.81065
4.78572
4.75961
4.73246
4.70433
4.67527
4.64542
4.61494
4.58401
4.55285
4.52166
4.49065
4.46002
4.42999
4.40074
4.37248
4.34541
4.31971
4.2956
4.27327
4.25291
4.23471
4.21892
4.20561
4.19504
4.18741
4.1828
4.18215
4.18249
4.18365
4.18637
4.192
4.2012
4.21267
4.226
4.24079
4.25643
4.27218
4.28743
4.30168
4.31458
4.32589
4.33548
4.34329
4.34931
4.35354
4.35606
4.35654