/*--------------------------------*- C++ -*----------------------------------*\
| =========                 |                                                 |
| \\      /  F ield         | OpenFOAM: The Open Source CFD Toolbox           |
|  \\    /   O peration     | Version:  2412                                  |
|   \\  /    A nd           | Website:  www.openfoam.com                      |
|    \\/     M anipulation  |                                                 |
\*---------------------------------------------------------------------------*/
FoamFile
{
    version     2.0;
    format      ascii;
    arch        "LSB;label=32;scalar=64";
    class       surfaceScalarField;
    location    "20.5";
    object      phi;
}
// * * * * * * * * * * * * * * * * * * * * * * * * * * * * * * * * * * * * * //

dimensions      [1 0 -1 0 0 0 0];

oriented        oriented;

internalField   nonuniform List<scalar> 
13790
(
0.00292374
-1.97148e-07
0.00274462
9.30879e-07
0.00280399
3.25321e-06
0.00280525
5.58868e-06
0.00279922
6.47563e-06
0.00279208
7.16742e-06
0.00278412
7.96008e-06
0.00277521
8.9101e-06
0.00276521
9.99774e-06
0.00275397
1.12422e-05
0.0027414
1.25742e-05
0.00272744
1.39554e-05
0.00271205
1.53882e-05
0.00269516
1.68893e-05
0.00267669
1.84715e-05
0.00265655
2.01405e-05
0.00263465
2.18995e-05
0.00261089
2.3753e-05
0.00258519
2.5707e-05
0.00255742
2.77691e-05
0.00252747
2.99472e-05
0.00249522
3.22502e-05
0.00246053
3.46872e-05
0.00242326
3.72682e-05
0.00238326
4.00035e-05
0.00234035
4.29038e-05
0.00229437
4.59803e-05
0.00224513
4.92438e-05
0.00219242
5.27051e-05
0.00213605
5.63742e-05
0.00207579
6.02601e-05
0.00201142
6.43695e-05
0.00194271
6.87076e-05
0.00186944
7.32743e-05
0.00179137
7.80674e-05
0.00170829
8.30752e-05
0.00162001
8.82832e-05
0.00152635
9.36611e-05
0.00142717
9.91758e-05
0.0013224
0.000104772
0.00121201
0.000110391
0.00109607
0.000115946
0.00097471
0.000121355
0.00084821
0.000126499
0.000716917
0.000131293
0.000581309
0.000135607
0.000441836
0.000139473
0.000299162
0.000142673
0.000152278
0.000146884
0.000152278
0.00303217
2.04171e-08
0.00284629
8.42431e-07
0.00290647
8.61607e-06
0.00290779
1.12905e-05
0.00290192
1.2813e-05
0.00289474
1.438e-05
0.00288655
1.6153e-05
0.0028773
1.81555e-05
0.0028669
2.03952e-05
0.00285524
2.29109e-05
0.00284221
2.56031e-05
0.00282775
2.84082e-05
0.00281181
3.13268e-05
0.00279431
3.43871e-05
0.00277517
3.76105e-05
0.0027543
4.10098e-05
0.00273161
4.45914e-05
0.002707
4.8366e-05
0.00268036
5.23448e-05
0.00265158
5.65443e-05
0.00262055
6.09794e-05
0.00258713
6.56695e-05
0.00255119
7.06318e-05
0.00251257
7.58882e-05
0.00247111
8.1458e-05
0.00242665
8.73651e-05
0.002379
9.36305e-05
0.00232796
0.000100278
0.00227334
0.000107328
0.00221491
0.000114803
0.00215245
0.00012272
0.00208573
0.000131094
0.0020145
0.000139936
0.00193853
0.000149245
0.00185758
0.000159021
0.00177142
0.000169235
0.00167983
0.000179865
0.00158265
0.000190845
0.00147971
0.000202114
0.00137093
0.000213554
0.00125627
0.000225054
0.00113578
0.000236432
0.00100961
0.000247527
0.00087801
0.000258096
0.000741358
0.000267944
0.000600111
0.000276854
0.000454841
0.000284743
0.000306087
0.000291426
0.0001542
0.000298771
0.000306478
0.00314487
9.21411e-08
0.00295181
1.21228e-06
0.00301442
1.3889e-05
0.0030157
1.72781e-05
0.0030097
1.92983e-05
0.00300239
2.1726e-05
0.00299397
2.4576e-05
0.00298441
2.77072e-05
0.00297365
3.11601e-05
0.00296157
3.49932e-05
0.00294809
3.90851e-05
0.00293314
4.33555e-05
0.00291665
4.78152e-05
0.00289854
5.24894e-05
0.00287874
5.74171e-05
0.00285714
6.26048e-05
0.00283366
6.80772e-05
0.00280818
7.38362e-05
0.00278061
7.99156e-05
0.00275083
8.63222e-05
0.00271871
9.30987e-05
0.00268413
0.000100253
0.00264693
0.000107835
0.00260696
0.000115853
0.00256406
0.000124364
0.00251805
0.000133374
0.00246873
0.000142949
0.00241592
0.00015309
0.00235938
0.000163867
0.0022989
0.000175274
0.00223424
0.00018738
0.00216517
0.000200164
0.00209142
0.00021369
0.00201275
0.000227914
0.00192889
0.000242876
0.00183963
0.0002585
0.00174471
0.000274783
0.00164395
0.000291604
0.00153718
0.000308882
0.00142429
0.000326448
0.00130524
0.0003441
0.00118004
0.000361632
0.00104889
0.000378679
0.000911944
0.000395044
0.000769665
0.000410222
0.000622492
0.000424027
0.000471052
0.000436182
0.000316164
0.000446313
0.000158592
0.000456344
0.00046507
0.0032618
1.16173e-07
0.00306156
1.6697e-06
0.00312673
1.90911e-05
0.00312806
2.34701e-05
0.00312188
2.5991e-05
0.0031144
2.92432e-05
0.00310577
3.32069e-05
0.00309593
3.75416e-05
0.00308481
4.22779e-05
0.00307233
4.74765e-05
0.00305841
5.30036e-05
0.00304298
5.87892e-05
0.00302595
6.48373e-05
0.00300725
7.11884e-05
0.0029868
7.78734e-05
0.00296448
8.49188e-05
0.00294022
9.23377e-05
0.0029139
0.000100158
0.00288542
0.000108397
0.00285464
0.000117097
0.00282146
0.000126279
0.00278572
0.000135995
0.00274728
0.000146266
0.00270598
0.000157156
0.00266166
0.000168684
0.00261411
0.000180926
0.00256316
0.000193893
0.00250858
0.000207676
0.00245017
0.000222271
0.00238766
0.000237784
0.00232086
0.000254181
0.00224944
0.000271582
0.00217322
0.00028991
0.00209185
0.00030929
0.00200514
0.000329579
0.00191275
0.000350896
0.00181453
0.000373006
0.00171014
0.000395992
0.00159951
0.000419508
0.00148241
0.000443548
0.00135884
0.000467671
0.0012288
0.000491672
0.00109236
0.000515117
0.000949926
0.000537479
0.000801614
0.000558534
0.000648237
0.000577403
0.000490304
0.000594114
0.000328668
0.000607948
0.00016476
0.000620252
0.00062983
0.00338305
1.39593e-07
0.00317539
2.15906e-06
0.00324314
2.43201e-05
0.00324459
2.9794e-05
0.00323827
3.28574e-05
0.00323061
3.69401e-05
0.0032218
4.20178e-05
0.00321169
4.76469e-05
0.00320024
5.37267e-05
0.00318738
6.03351e-05
0.00317305
6.73367e-05
0.00315715
7.46876e-05
0.00313961
8.23727e-05
0.00312034
9.04606e-05
0.00309925
9.8958e-05
0.00307625
0.000107926
0.00305123
0.000117351
0.00302409
0.000127301
0.00299472
0.000137767
0.00296298
0.000148834
0.00292876
0.000160496
0.00289191
0.000172852
0.00285227
0.000185899
0.00280968
0.000199746
0.00276397
0.000214393
0.00271494
0.000229955
0.0026624
0.00024644
0.00260611
0.000263959
0.00254586
0.000282527
0.0024814
0.000302241
0.00241245
0.000323127
0.00233879
0.000345241
0.00226008
0.000368622
0.00217611
0.000393257
0.0020865
0.000419192
0.0019911
0.0004463
0.00188946
0.000474641
0.00178156
0.000503899
0.00166692
0.000534149
0.00154565
0.000564814
0.00141736
0.000595961
0.00128231
0.000626725
0.00114039
0.000657029
0.000991915
0.000685957
0.000837462
0.000712987
0.000677145
0.00073772
0.000512229
0.00075903
0.000343475
0.000776701
0.000172034
0.000791693
0.000801864
0.0035088
1.63309e-07
0.00329346
2.65482e-06
0.0033639
2.9593e-05
0.00336551
3.62209e-05
0.00335905
3.98844e-05
0.00335123
4.47996e-05
0.00334218
5.10693e-05
0.00333187
5.7953e-05
0.00332016
6.54451e-05
0.00330697
7.3524e-05
0.00329223
8.20725e-05
0.0032759
9.10191e-05
0.00325785
0.000100413
0.00323804
0.000110271
0.00321634
0.000120664
0.00319268
0.000131586
0.00316692
0.000143109
0.003139
0.000155219
0.00310875
0.000168014
0.0030761
0.000181477
0.00304086
0.000195734
0.00300296
0.000210761
0.00296214
0.000226711
0.00291834
0.000243547
0.00287128
0.000261455
0.00282085
0.00028038
0.00276676
0.000300538
0.00270886
0.000321851
0.00264683
0.000344563
0.0025805
0.000368568
0.00250951
0.00039412
0.00243366
0.000421086
0.00235258
0.000449702
0.00226603
0.000479804
0.00217366
0.000511565
0.00207517
0.000544792
0.00197029
0.000579523
0.00185865
0.000615538
0.00174016
0.000652633
0.00161439
0.000690587
0.00148154
0.000728808
0.00134108
0.000767186
0.00119357
0.000804541
0.00103875
0.000840772
0.000877302
0.000874438
0.000709975
0.000905046
0.000537034
0.000931971
0.000360122
0.000953611
0.000180623
0.000971193
0.000982487
0.00363924
1.87365e-07
0.00341591
3.15238e-06
0.00348916
3.49051e-05
0.00349096
4.27252e-05
0.00348443
4.70222e-05
0.00347647
5.27989e-05
0.00346727
6.02679e-05
0.00345674
6.84827e-05
0.00344477
7.742e-05
0.00343126
8.70316e-05
0.00341617
9.7163e-05
0.00339941
0.000107774
0.00338091
0.00011891
0.00336057
0.000130616
0.00333829
0.000142937
0.00331398
0.000155902
0.00328754
0.000169551
0.00325883
0.000183921
0.00322778
0.000199066
0.00319422
0.000215041
0.00315804
0.000231905
0.00311907
0.000249737
0.00307718
0.000268594
0.00303215
0.000288579
0.00298387
0.000309739
0.00293203
0.000332215
0.00287654
0.000356028
0.00281703
0.000381359
0.00275341
0.00040819
0.00268523
0.000436748
0.00261239
0.000466953
0.0025344
0.000499076
0.00245116
0.000532948
0.0023621
0.000568861
0.00226712
0.000606545
0.00216566
0.000646249
0.00205758
0.000687605
0.00194239
0.000730725
0.0018199
0.000775132
0.00168981
0.000820672
0.00155184
0.000866779
0.00140621
0.000912814
0.00125242
0.000958338
0.00109119
0.001002
0.000922295
0.00104333
0.0007467
0.00108064
0.000565538
0.00111313
0.000379439
0.00113971
0.00019015
0.00116048
0.00117264
0.00377454
2.11575e-07
0.0035429
3.64903e-06
0.00361911
4.02394e-05
0.00362114
4.92779e-05
0.00361457
5.42319e-05
0.00360652
6.08992e-05
0.0035972
6.95864e-05
0.0035865
7.91813e-05
0.0035743
8.96172e-05
0.00356052
0.000100807
0.00354511
0.000112575
0.00352799
0.000124899
0.00350906
0.000137835
0.00348824
0.000151437
0.00346542
0.000165749
0.00344052
0.000180805
0.00341342
0.000196647
0.00338402
0.000213324
0.00335219
0.000230895
0.0033178
0.000249425
0.00328072
0.000268987
0.0032408
0.000289661
0.00319786
0.000311533
0.00315174
0.000334694
0.00310223
0.000359247
0.00304916
0.000385285
0.00299226
0.000412934
0.00293134
0.000442275
0.00286607
0.00047346
0.00279628
0.00050654
0.00272154
0.000541697
0.00264169
0.000578916
0.00255622
0.000618426
0.00246499
0.000660083
0.00236737
0.000704166
0.00226328
0.000750345
0.002152
0.00079888
0.00203348
0.000849247
0.00190705
0.000901555
0.00177263
0.000955099
0.00162978
0.00100962
0.00147828
0.00106431
0.00131843
0.00111819
0.00114975
0.00117067
0.000973228
0.00121986
0.000788853
0.00126501
0.000597621
0.00130436
0.000401352
0.00133598
0.000201559
0.00136028
0.0013742
0.00391488
2.35799e-07
0.00367461
4.14149e-06
0.00375393
4.55658e-05
0.00375624
5.58409e-05
0.00374968
6.1475e-05
0.00374157
6.90532e-05
0.00373215
7.90077e-05
0.00372134
8.99865e-05
0.00370898
0.000101973
0.00369499
0.0001148
0.0036793
0.000128261
0.00366185
0.00014235
0.00364255
0.00015714
0.00362129
0.00017269
0.00359799
0.000189048
0.00357255
0.000206248
0.00354485
0.00022434
0.0035148
0.000243378
0.00348226
0.000263431
0.00344711
0.000284572
0.00340922
0.000306886
0.00336841
0.000330465
0.00332454
0.000355407
0.00327741
0.000381819
0.00322684
0.000409813
0.00317262
0.000439514
0.00311451
0.000471038
0.00305226
0.000504526
0.00298562
0.000540093
0.00291427
0.000577891
0.00283796
0.000618015
0.00275624
0.000660626
0.00266892
0.000705755
0.00257541
0.000753588
0.00247557
0.000804004
0.00236868
0.000857235
0.00225467
0.000912897
0.00213266
0.000971252
0.00200268
0.00103154
0.00186383
0.00109395
0.00171615
0.0011573
0.00155903
0.00122143
0.00139232
0.00128491
0.00121644
0.00134654
0.00103081
0.00140549
0.00083692
0.0014589
0.000635283
0.001506
0.000427024
0.00154424
0.000214245
0.00157305
0.00158844
0.00406045
2.59689e-07
0.0038112
4.62576e-06
0.00389382
5.08374e-05
0.00389647
6.23633e-05
0.00388997
6.86912e-05
0.00388186
7.72091e-05
0.00387245
8.84252e-05
0.00386156
0.000100871
0.00384909
0.000114448
0.00383493
0.000128956
0.00381903
0.000144161
0.00380131
0.000160072
0.00378168
0.000176764
0.00376005
0.00019432
0.00373633
0.000212771
0.0037104
0.000232173
0.00368218
0.000252559
0.00365154
0.000274013
0.00361838
0.000296591
0.00358256
0.000320399
0.00354393
0.00034551
0.00350234
0.00037205
0.00345764
0.000400108
0.00340963
0.00042983
0.00335813
0.000461319
0.0033029
0.00049474
0.00324373
0.000530209
0.00318035
0.000567906
0.00311249
0.00060795
0.00303985
0.000650532
0.0029621
0.000695764
0.0028789
0.00074383
0.00278983
0.000794817
0.00269455
0.000848873
0.00259252
0.000906034
0.00248341
0.000966347
0.00236652
0.00102978
0.00224163
0.00109614
0.00210783
0.00116534
0.00196507
0.00123671
0.00181226
0.00131011
0.00164959
0.0013841
0.00147609
0.00145841
0.00129191
0.00153073
0.00109757
0.00159982
0.000892407
0.00166407
0.000678312
0.00172009
0.000456719
0.00176583
0.000229855
0.00179992
0.0018183
0.00421145
2.83014e-07
0.00395287
5.09589e-06
0.00403898
5.59919e-05
0.00404204
6.87804e-05
0.00403567
7.58364e-05
0.00402763
8.52944e-05
0.00401822
9.7838e-05
0.00400737
0.000111715
0.00399489
0.000126937
0.00398065
0.000143195
0.00396459
0.000160211
0.00394667
0.000177991
0.00392679
0.000196648
0.00390486
0.000216251
0.00388077
0.000236855
0.00385445
0.000258493
0.00382578
0.000281232
0.00379466
0.000305134
0.00376095
0.000330293
0.00372456
0.000356795
0.00368531
0.000384757
0.00364307
0.000414284
0.00359767
0.000445512
0.00354893
0.00047857
0.00349664
0.000513609
0.00344059
0.000550783
0.00338055
0.000590256
0.00331625
0.000632205
0.0032474
0.000676795
0.00317371
0.000724226
0.00309482
0.000774651
0.00301037
0.000828281
0.00291995
0.000885232
0.00282311
0.00094571
0.0027194
0.00100975
0.00260824
0.00107751
0.00248914
0.00114888
0.00236138
0.0012239
0.00222451
0.00130222
0.00207761
0.00138361
0.00192037
0.00146735
0.00175169
0.00155279
0.00157159
0.00163851
0.00137894
0.00172338
0.00117401
0.00180474
0.000957733
0.00188035
0.000729833
0.00194799
0.000492303
0.00200336
0.000247509
0.00204471
0.00206581
0.00436808
3.03998e-07
0.0040998
5.54665e-06
0.00418966
6.09294e-05
0.00419321
7.5015e-05
0.00418704
8.2833e-05
0.00417917
9.32158e-05
0.00416994
0.000107068
0.00415917
0.000122481
0.00414671
0.000139393
0.00413246
0.000157451
0.00411634
0.000176323
0.00409829
0.000196042
0.00407824
0.000216701
0.00405607
0.000238415
0.00403173
0.0002612
0.00400508
0.000285137
0.00397606
0.000310248
0.00394454
0.000336656
0.00391043
0.000364407
0.00387356
0.000393659
0.00383384
0.000424475
0.00379108
0.000457043
0.00374516
0.000491439
0.00369584
0.000527886
0.00364298
0.000566471
0.00358631
0.000607453
0.00352564
0.000650928
0.00346065
0.000697187
0.00339112
0.000746333
0.00331666
0.000798681
0.00323698
0.000854336
0.00315164
0.000913619
0.00306024
0.000976628
0.0029623
0.00104365
0.00285729
0.00111477
0.00274465
0.00119015
0.00262367
0.00126986
0.00249377
0.00135379
0.00235401
0.00144198
0.00220381
0.0015338
0.00204199
0.00162917
0.00186808
0.0017267
0.00168078
0.0018258
0.00147992
0.00192424
0.00126437
0.0020203
0.00103402
0.0021107
0.000790446
0.00219157
0.000534729
0.00225907
0.000270105
0.00230934
0.00233591
0.00453055
3.17235e-07
0.00425217
5.98222e-06
0.00434608
6.55025e-05
0.00435021
8.09935e-05
0.00434428
8.96385e-05
0.00433673
0.000100823
0.00432773
0.000116074
0.00431719
0.000133017
0.0043049
0.000151681
0.00429074
0.000171613
0.00427464
0.00019242
0.00425656
0.000214119
0.00423641
0.000236849
0.00421412
0.000260702
0.00418959
0.000285732
0.00416274
0.000311982
0.00413347
0.000339522
0.00410169
0.000368436
0.00406726
0.000398832
0.0040301
0.000430822
0.00399003
0.00046454
0.00394695
0.000500124
0.00390065
0.000537735
0.003851
0.000577535
0.00379776
0.000619714
0.00374075
0.000664458
0.0036797
0.000711986
0.00361438
0.000762507
0.00354444
0.000816268
0.00346963
0.00087349
0.00338951
0.000934454
0.00330376
0.000999367
0.00321184
0.00106855
0.00311335
0.00114215
0.0030076
0.00122052
0.00289406
0.00130368
0.00277193
0.00139199
0.00264046
0.00148526
0.00249872
0.00158372
0.00234563
0.00168689
0.00218031
0.0017945
0.00200114
0.00190587
0.00180748
0.00201946
0.00159749
0.00213423
0.00137094
0.00224684
0.00112699
0.00235465
0.000865197
0.00245336
0.000587462
0.00253681
0.000296632
0.00260017
0.00263254
0.0046991
3.27006e-07
0.0044102
6.38549e-06
0.00450836
6.96845e-05
0.00451322
8.6553e-05
0.00450778
9.60201e-05
0.00450067
0.000108005
0.00449206
0.000124684
0.00448184
0.000143226
0.00446982
0.000163703
0.00445585
0.00018559
0.00443988
0.000208387
0.00442186
0.000232136
0.00440173
0.000256973
0.00437941
0.000283027
0.00435482
0.00031032
0.00432786
0.000338934
0.00429848
0.000368904
0.00426655
0.000400367
0.00423199
0.00043339
0.00419466
0.000468153
0.00415446
0.000504741
0.00411121
0.00054337
0.0040648
0.000584146
0.00401501
0.000627323
0.00396169
0.00067303
0.00390459
0.000721557
0.00384352
0.000773061
0.00377817
0.000827861
0.00370828
0.000886155
0.0036335
0.000948271
0.00355348
0.00101447
0.0034678
0.00108505
0.003376
0.00116035
0.00327754
0.00124061
0.00317181
0.00132624
0.00305811
0.00141738
0.00293568
0.00151443
0.00280353
0.00161741
0.00266071
0.00172654
0.00250588
0.00184172
0.00233777
0.0019626
0.00215487
0.00208878
0.00195514
0.00221918
0.00173735
0.00235202
0.00149874
0.00248546
0.0012386
0.00261478
0.00095659
0.00273537
0.000653275
0.00284012
0.000332522
0.00292092
0.00296506
0.00487394
3.46568e-07
0.00457409
6.70821e-06
0.00467664
7.35477e-05
0.00468248
9.14359e-05
0.00467791
0.000101611
0.00467134
0.000114649
0.0046633
0.000132727
0.00465357
0.000152945
0.00464191
0.000175368
0.00462824
0.000199262
0.00461251
0.000224115
0.00459467
0.000249971
0.00457467
0.000276974
0.00455243
0.000305261
0.00452789
0.00033486
0.00450098
0.000365847
0.0044716
0.000398276
0.0044397
0.000432272
0.00440514
0.000467943
0.00436786
0.000505438
0.00432769
0.000544909
0.00428454
0.000586516
0.00423822
0.000630467
0.00418862
0.000676926
0.00413548
0.00072617
0.00407868
0.000778354
0.00401789
0.000833843
0.00395299
0.000892769
0.00388354
0.000955604
0.00380936
0.00102244
0.00372995
0.00109388
0.00364504
0.00116996
0.00355401
0.00125138
0.00345642
0.00133819
0.00335157
0.00143109
0.00323875
0.0015302
0.00311709
0.00163608
0.00298552
0.00174898
0.0028429
0.00186916
0.00268773
0.00199689
0.00251832
0.00213201
0.00233275
0.00227435
0.0021288
0.00242313
0.00190366
0.00257716
0.00165515
0.00273396
0.00137939
0.00289054
0.00107443
0.00304033
0.000739551
0.003175
0.0003777
0.00328277
0.00334276
0.00505529
3.61136e-07
0.00474407
6.97047e-06
0.00485155
7.66957e-05
0.00485853
9.54955e-05
0.00485492
0.00010634
0.00484919
0.000120457
0.00484187
0.000140048
0.0048328
0.000162009
0.0048217
0.000186468
0.00480849
0.000212475
0.00479311
0.00023949
0.00477557
0.000267504
0.00475581
0.00029674
0.00473379
0.000327281
0.00470942
0.00035923
0.00468268
0.00039258
0.00465346
0.000427492
0.00462175
0.000463991
0.00458738
0.000502308
0.00455033
0.000542486
0.00451043
0.000584813
0.00446761
0.000629335
0.00442167
0.000676403
0.00437252
0.000726073
0.00431994
0.000778755
0.00426376
0.000834526
0.00420376
0.000893848
0.00413968
0.000956843
0.00407129
0.001024
0.0039982
0.00109553
0.00392015
0.00117192
0.00383661
0.0012535
0.00374728
0.00134071
0.00365138
0.00143409
0.00354852
0.00153395
0.00343768
0.00164104
0.00331818
0.00175558
0.00318875
0.00187842
0.00304813
0.00200978
0.0028947
0.00215031
0.00272641
0.0023003
0.00254076
0.00246
0.00233473
0.00262915
0.00210496
0.00280693
0.00184635
0.00299258
0.00155517
0.00318172
0.00122623
0.00336928
0.000855748
0.00354548
0.000444112
0.0036944
0.00378688
0.00524338
3.69302e-07
0.00492039
7.14363e-06
0.00503328
7.88361e-05
0.00504173
9.84025e-05
0.00503936
0.000109918
0.00503476
0.000125149
0.00502839
0.000146413
0.00502017
0.000170224
0.00500981
0.000196827
0.00499718
0.000225102
0.0049823
0.000254378
0.00496516
0.000284635
0.00494576
0.00031614
0.00492407
0.000348974
0.00490003
0.000383269
0.00487359
0.000419013
0.00484472
0.000456361
0.00481334
0.000495371
0.0047794
0.000536253
0.00474277
0.000579106
0.00470342
0.00062417
0.00466117
0.000671586
0.00461596
0.000721612
0.00456757
0.000774454
0.00451595
0.000830376
0.00446081
0.000889667
0.00440207
0.000952592
0.00433937
0.00101954
0.00427259
0.00109078
0.00420132
0.00116681
0.00412533
0.00124791
0.00404414
0.00133469
0.00395735
0.00142751
0.00386442
0.00152702
0.00376463
0.00163374
0.00365739
0.00174828
0.00354151
0.00187147
0.00341614
0.00200378
0.0032796
0.00214632
0.00313028
0.00229963
0.00296607
0.00246451
0.00278389
0.00264219
0.00258003
0.002833
0.00235068
0.00303629
0.00208923
0.00325403
0.00178647
0.00348447
0.00143337
0.00372238
0.00101964
0.0039592
0.000538152
0.00417589
0.00432503
0.00543847
3.70298e-07
0.00510329
7.19687e-06
0.00522214
7.95999e-05
0.00523251
9.97039e-05
0.00523184
0.000111907
0.00522873
0.000128359
0.00522368
0.000151458
0.00521654
0.000177362
0.00520705
0.000206313
0.00519513
0.000237023
0.00518086
0.000268651
0.00516424
0.000301245
0.00514534
0.000335043
0.00512408
0.000370233
0.00510049
0.000406856
0.0050745
0.000445004
0.00504612
0.000484737
0.00501526
0.000526231
0.00498192
0.000569596
0.00494596
0.000615061
0.00490737
0.000662757
0.004866
0.000712957
0.00482179
0.000765821
0.00477458
0.000821667
0.00472426
0.000880696
0.00467066
0.000943268
0.0046136
0.00100965
0.00455291
0.00108023
0.00448832
0.00115537
0.00441964
0.00123548
0.00434646
0.00132108
0.00426858
0.00141257
0.00418544
0.00151066
0.00409668
0.00161577
0.00400161
0.00172882
0.00389954
0.00185035
0.00378966
0.00198135
0.00367061
0.00212283
0.00354143
0.0022755
0.00339942
0.00244164
0.00324349
0.00262044
0.00307142
0.00281426
0.00287664
0.00302778
0.00265179
0.00326114
0.00239138
0.00351443
0.0020859
0.00378995
0.00171799
0.0040903
0.00126608
0.0044111
0.000701242
0.00474074
0.00502627
0.00564081
3.50239e-07
0.00529303
7.10231e-06
0.00541858
7.84243e-05
0.00543149
9.87895e-05
0.00543306
0.000111767
0.00543186
0.00012966
0.00542843
0.00015489
0.00542263
0.000183161
0.00541414
0.000214804
0.00540304
0.000248122
0.00538946
0.000282229
0.0053735
0.000317199
0.00535519
0.000353349
0.00533455
0.000390879
0.00531155
0.000429855
0.00528621
0.000470336
0.0052585
0.000512448
0.00522842
0.000556308
0.00519589
0.000602123
0.00516092
0.000650036
0.00512337
0.000700304
0.00508324
0.00075308
0.00504038
0.000808684
0.00499477
0.000867281
0.0049462
0.000929267
0.00489464
0.000994824
0.00483985
0.00106443
0.00478177
0.00113831
0.00472012
0.00121703
0.00465474
0.00130086
0.00458536
0.00139046
0.00451168
0.00148626
0.0044334
0.00158893
0.00435
0.00169917
0.00426116
0.00181765
0.00416598
0.00194552
0.00406416
0.00208318
0.00395408
0.00223291
0.00383571
0.00239387
0.00370881
0.00256854
0.0035668
0.00276245
0.00340583
0.00297523
0.0032258
0.00320781
0.00302106
0.00346588
0.0027811
0.00375439
0.00249012
0.00408093
0.00212835
0.00445206
0.00165432
0.00488514
0.000999286
0.00539577
0.00602556
0.00585084
1.99342e-07
0.00548956
7.15227e-06
0.00562299
7.44663e-05
0.00563949
9.45759e-05
0.00564401
0.000108806
0.00564541
0.000128379
0.005644
0.000156295
0.00563972
0.000187432
0.00563238
0.000222148
0.00562215
0.000258353
0.0056093
0.000295078
0.00559401
0.00033249
0.00557631
0.000371039
0.0055563
0.000410896
0.00553395
0.000452204
0.00550932
0.000494966
0.0054824
0.000539366
0.00545321
0.000585498
0.00542171
0.000633619
0.00538789
0.000683857
0.00535169
0.000736496
0.00531307
0.000791698
0.00527198
0.000849776
0.00522832
0.000910944
0.00518204
0.000975541
0.005133
0.00104386
0.00508118
0.00111626
0.00502635
0.00119314
0.00496851
0.00127487
0.00490734
0.00136203
0.00484284
0.00145496
0.00477461
0.00155449
0.00470259
0.00166095
0.00462632
0.00177545
0.00454552
0.00189845
0.00445932
0.00203172
0.0043686
0.0021739
0.00427377
0.00232773
0.00416939
0.00249825
0.00405335
0.00268457
0.00392865
0.00288715
0.00379287
0.00311101
0.00364122
0.00335947
0.00346867
0.00363843
0.00326849
0.00395457
0.00302851
0.00432091
0.0027215
0.00475907
0.00229836
0.00530828
0.00164579
0.00604833
0.00767135
0.00846015
1.38168e-07
0.00793532
6.22921e-06
0.00813425
6.47939e-05
0.00816371
8.30508e-05
0.00817636
9.84615e-05
0.00818333
0.000121572
0.00818556
0.000154065
0.00818287
0.000190106
0.00817527
0.000229756
0.00816327
0.000270349
0.00814751
0.00031084
0.00812829
0.000351698
0.00810583
0.000393499
0.00808017
0.000436559
0.00805145
0.000480922
0.0080197
0.000526713
0.00798505
0.000574018
0.00794746
0.000623084
0.00790703
0.000674049
0.00786368
0.000727206
0.00781748
0.000782693
0.00776833
0.000840845
0.00771629
0.000901814
0.00766124
0.000965992
0.00760323
0.00103356
0.00754213
0.00110496
0.00747796
0.00118042
0.00741063
0.00126047
0.0073401
0.0013454
0.00726633
0.00143579
0.00718919
0.0015321
0.00710873
0.00163495
0.00702459
0.0017451
0.00693729
0.00186274
0.00684744
0.0019883
0.0067554
0.00212376
0.00665652
0.00227278
0.0065506
0.00243366
0.00644174
0.00260711
0.00633064
0.00279567
0.00621375
0.00300404
0.00609258
0.00323218
0.00596539
0.00348665
0.00583396
0.00376986
0.00570036
0.00408817
0.00557206
0.00444921
0.00548238
0.00484875
0.00550623
0.00528443
0.00591272
0.00564184
0.00547756
0.00810651
0.00846195
1.0661e-07
0.00793475
3.86423e-06
0.0081484
4.23417e-05
0.00818867
6.0902e-05
0.00821063
7.8834e-05
0.0082246
0.000107775
0.00823089
0.000147772
0.00823046
0.000190526
0.00822377
0.000236447
0.00821264
0.000281483
0.00819806
0.000325417
0.00818035
0.000369403
0.00815962
0.000414227
0.00813603
0.000460145
0.00810973
0.000507225
0.00808088
0.000555563
0.00804955
0.000605344
0.00801585
0.000656786
0.00797977
0.000710123
0.00794141
0.000765565
0.00790074
0.000823367
0.00785784
0.000883742
0.00781266
0.000946988
0.00776533
0.00101333
0.00771576
0.00108312
0.00766412
0.0011566
0.00761032
0.00123422
0.00755456
0.00131623
0.00749677
0.00140319
0.00743717
0.00149539
0.00737558
0.00159369
0.00731319
0.00169734
0.00725064
0.00180764
0.00718638
0.001927
0.00711889
0.0020558
0.00704924
0.00219341
0.00698156
0.00234046
0.00691581
0.0024994
0.00685174
0.00267119
0.00679012
0.00285729
0.00673542
0.00305874
0.00668812
0.00327948
0.00665833
0.00351644
0.00664929
0.0037789
0.00668179
0.00405566
0.00677861
0.00435239
0.00698566
0.0046417
0.00738558
0.00488451
0.00800256
0.00502485
0.00467581
0.00880431
0.00846268
1.53069e-07
0.00793443
7.46993e-07
0.00816342
5.50188e-06
0.00822207
2.04564e-05
0.00825918
4.40703e-05
0.00828282
8.43091e-05
0.00829418
0.000136412
0.00829471
0.000189984
0.00828892
0.00024224
0.00827923
0.000291176
0.00826629
0.000338354
0.00825019
0.000385496
0.00823113
0.00043329
0.00820936
0.000481907
0.00818516
0.000531427
0.00815873
0.000581988
0.0081302
0.000633879
0.00809966
0.000687316
0.00806721
0.000742572
0.00803294
0.000799835
0.00799692
0.000859389
0.00795924
0.000921422
0.00791998
0.000986243
0.00787926
0.00105405
0.00783719
0.00112518
0.00779392
0.00119988
0.0077496
0.00127853
0.00770437
0.00136146
0.00765868
0.00144888
0.00761335
0.00154071
0.0075691
0.00163795
0.0075236
0.00174283
0.00747693
0.00185432
0.0074318
0.00197213
0.0073903
0.0020973
0.00735193
0.00223178
0.00731769
0.0023747
0.00728819
0.0025289
0.00726695
0.00269243
0.00725476
0.00286948
0.00725682
0.00305667
0.0072779
0.0032584
0.00732464
0.0034697
0.00741264
0.00369091
0.00755115
0.00391716
0.00777061
0.00413293
0.00808358
0.00432872
0.00850997
0.00445812
0.00902996
0.00450487
0.00424756
0.00945821
0.00846128
1.29857e-06
0.0079407
-9.84822e-06
0.00821695
-7.85031e-05
0.0083051
-4.95061e-05
0.00835089
6.4884e-07
0.0083714
6.39715e-05
0.00837571
0.000132099
0.00837146
0.00019423
0.00836376
0.000249941
0.00835436
0.000300573
0.00834241
0.000350302
0.00832756
0.000400343
0.00831016
0.000450688
0.00829053
0.00050154
0.00826907
0.000552886
0.00824591
0.000605146
0.00822111
0.000658674
0.00819476
0.000713672
0.00816691
0.000770417
0.00813765
0.00082909
0.00810706
0.000889985
0.0080752
0.000953274
0.00804221
0.00101923
0.00800821
0.00108805
0.00797339
0.00116
0.00793786
0.00123541
0.00790228
0.00131412
0.00786726
0.00139648
0.00783262
0.00148352
0.00779719
0.00157613
0.00776176
0.00167338
0.00772916
0.00177543
0.0077002
0.00188327
0.00767455
0.00199778
0.00765353
0.00211833
0.00763846
0.00224684
0.00763116
0.00238201
0.00763387
0.00252619
0.00764835
0.00267795
0.00767954
0.00283829
0.00772899
0.00300722
0.00780559
0.00318181
0.00791196
0.00336333
0.0080601
0.00354276
0.0082581
0.00371915
0.00851398
0.00387706
0.00883827
0.00400442
0.00921585
0.00408054
0.00966978
0.00405094
0.00392818
0.00998915
0.00845144
9.93056e-06
0.00798012
-6.57281e-05
0.00836223
-0.000271074
0.00854392
-0.000213069
0.00858696
-4.00966e-05
0.00857786
7.32508e-05
0.00856117
0.00014878
0.00854542
0.000209974
0.0085328
0.000262564
0.00851978
0.000313586
0.00850368
0.000366407
0.00848467
0.000419343
0.00846358
0.000471779
0.00844124
0.000523877
0.00841759
0.000576539
0.00839271
0.000630019
0.00836679
0.000684597
0.00833994
0.000740515
0.00831232
0.000798035
0.00828404
0.000857371
0.00825524
0.000918789
0.008226
0.000982507
0.0081965
0.00104874
0.00816699
0.00111756
0.008138
0.00118898
0.00810994
0.00126347
0.00808184
0.00134221
0.00805362
0.0014247
0.00802645
0.00151069
0.00800201
0.00160058
0.00798023
0.00169516
0.0079613
0.00179436
0.00794591
0.00189866
0.00793566
0.00200803
0.00793091
0.00212307
0.00793439
0.00224336
0.0079464
0.00236999
0.00797135
0.00250124
0.0080098
0.0026395
0.00806723
0.00278086
0.00814633
0.00292811
0.0082523
0.00307584
0.0083913
0.00322433
0.00856625
0.00336782
0.00878566
0.00349973
0.00904811
0.00361461
0.00935671
0.00369583
0.009702
0.00373525
0.0100489
0.003704
0.00359518
0.0103819
0.00851921
1.56418e-05
0.00824797
-0.000394661
0.00879261
-0.000604644
0.00889077
-0.000291177
0.00887214
-1.85047e-05
0.0088042
0.000141422
0.00877223
0.000180743
0.00875232
0.000229876
0.00874262
0.000272267
0.00872809
0.000328114
0.00870912
0.000385368
0.00868807
0.000440394
0.00866605
0.000493793
0.00864304
0.000546887
0.00861906
0.000600521
0.00859401
0.000655069
0.00856787
0.000710737
0.00854072
0.000767662
0.00851268
0.000826074
0.0084839
0.000886142
0.00845446
0.00094823
0.00842471
0.00101225
0.00839516
0.00107829
0.00836603
0.00114668
0.00833656
0.00121846
0.00830741
0.00129262
0.00828035
0.00136927
0.00825629
0.00144876
0.00823484
0.00153214
0.00821689
0.00161852
0.00820269
0.00170936
0.00819358
0.00180347
0.00818965
0.00190259
0.00819269
0.00200499
0.00820299
0.00211278
0.0082226
0.00222375
0.00825256
0.00234004
0.00829483
0.00245897
0.00835249
0.00258185
0.00842672
0.00270662
0.00852305
0.00283178
0.00864207
0.00295683
0.00879069
0.00307571
0.00896913
0.00318938
0.00918233
0.00328653
0.00942918
0.00336776
0.00970734
0.00341766
0.0100121
0.00343045
0.0103155
0.00340068
0.00330264
0.010608
0.00816079
3.08248e-06
0.00784778