/*--------------------------------*- C++ -*----------------------------------*\
| =========                 |                                                 |
| \\      /  F ield         | OpenFOAM: The Open Source CFD Toolbox           |
|  \\    /   O peration     | Version:  2412                                  |
|   \\  /    A nd           | Website:  www.openfoam.com                      |
|    \\/     M anipulation  |                                                 |
\*---------------------------------------------------------------------------*/
FoamFile
{
    version     2.0;
    format      ascii;
    arch        "LSB;label=32;scalar=64";
    class       volScalarField;
    location    "20.5";
    object      T;
}
// * * * * * * * * * * * * * * * * * * * * * * * * * * * * * * * * * * * * * //

dimensions      [0 0 0 1 0 0 0];

internalField   nonuniform List<scalar> 
7000
(
1.3191
2.65682
2.71974
2.66985
2.66466
2.64797
2.64455
2.64729
2.64934
2.65154
2.65279
2.6538
2.65494
2.65629
2.65779
2.65942
2.66115
2.66301
2.66497
2.66707
2.66929
2.67164
2.6741
2.6767
2.67941
2.68224
2.68519
2.68825
2.69142
2.69469
2.69805
2.70151
2.70502
2.70861
2.71223
2.71588
2.71952
2.72315
2.72671
2.7302
2.73355
2.73676
2.73975
2.74252
2.74497
2.74713
2.74888
2.75028
2.75122
2.75176
1.31917
2.65703
2.71999
2.66995
2.66479
2.64809
2.64468
2.64741
2.64946
2.65166
2.65291
2.65391
2.65505
2.6564
2.6579
2.65952
2.66125
2.6631
2.66507
2.66717
2.66938
2.67173
2.67419
2.67678
2.67948
2.68232
2.68526
2.68832
2.69148
2.69475
2.6981
2.70155
2.70506
2.70864
2.71225
2.71589
2.71952
2.72314
2.72669
2.73017
2.7335
2.7367
2.73967
2.74242
2.74486
2.74698
2.74874
2.75004
2.75097
2.75131
1.31915
2.65694
2.71989
2.66993
2.66475
2.64803
2.64461
2.64737
2.64937
2.6516
2.65281
2.65386
2.65494
2.65634
2.65778
2.65945
2.66113
2.66303
2.66494
2.66708
2.66924
2.67163
2.67404
2.67667
2.67932
2.68219
2.68508
2.68818
2.69128
2.69459
2.6979
2.70137
2.70484
2.70844
2.71202
2.71568
2.7193
2.72292
2.72648
2.72995
2.73331
2.73647
2.73949
2.74216
2.74464
2.74673
2.74848
2.74984
2.75066
2.75108
1.31912
2.65677
2.71971
2.66992
2.6647
2.64793
2.64451
2.64722
2.64929
2.65144
2.65272
2.65368
2.65485
2.65615
2.65768
2.65925
2.66102
2.6628
2.66482
2.66684
2.66911
2.67136
2.67389
2.67638
2.67916
2.68187
2.6849
2.68783
2.69109
2.6942
2.69767
2.70095
2.70459
2.70798
2.71173
2.71518
2.71895
2.7224
2.72606
2.72943
2.73283
2.73602
2.73896
2.74182
2.74409
2.74632
2.74799
2.74926
2.75027
2.75045
1.31909
2.65654
2.71948
2.66995
2.66465
2.64779
2.6444
2.64701
2.64923
2.65121
2.65263
2.65343
2.65474
2.65588
2.65754
2.65897
2.66085
2.6625
2.66462
2.66652
2.66887
2.67103
2.67361
2.67603
2.67883
2.68151
2.68451
2.68745
2.69064
2.69382
2.69715
2.70057
2.70399
2.70761
2.71105
2.71481
2.71819
2.722
2.72523
2.72894
2.73196
2.73536
2.73819
2.74098
2.74359
2.7454
2.74737
2.74864
2.7493
2.74987
1.31905
2.65625
2.71918
2.66999
2.6646
2.64767
2.64421
2.64701
2.64887
2.65119
2.65224
2.65339
2.65432
2.65583
2.6571
2.6589
2.66037
2.66241
2.6641
2.6664
2.6683
2.67087
2.67299
2.67582
2.67815
2.68124
2.68378
2.6871
2.68985
2.69337
2.69633
2.7
2.70317
2.7069
2.71025
2.71396
2.71746
2.72102
2.72461
2.72785
2.73141
2.73411
2.73745
2.7398
2.74248
2.74472
2.74607
2.74767
2.74859
2.74857
1.319
2.65589
2.71882
2.67004
2.66454
2.64747
2.64401
2.64675
2.64869
2.65089
2.65205
2.65306
2.65411
2.65546
2.65688
2.65848
2.66014
2.66195
2.66386
2.66588
2.66806
2.67029
2.67274
2.67516
2.67789
2.68049
2.6835
2.68624
2.68952
2.69239
2.69592
2.69888
2.70262
2.70568
2.70953
2.71269
2.71652
2.71976
2.72343
2.72671
2.73003
2.73333
2.7359
2.7389
2.74089
2.74326
2.74515
2.74614
2.74685
2.74759
1.31894
2.65546
2.71838
2.67011
2.66446
2.64722
2.64376
2.64644
2.64845
2.65055
2.65176
2.65268
2.65378
2.65505
2.6565
2.65804
2.65971
2.66147
2.66337
2.66536
2.6675
2.66973
2.67209
2.67457
2.67715
2.67988
2.68265
2.68563
2.68855
2.69178
2.69482
2.69829
2.70136
2.70503
2.70808
2.71189
2.71493
2.71872
2.72176
2.72533
2.7284
2.73152
2.7347
2.737
2.73972
2.74143
2.74307
2.74486
2.74569
2.74545
1.31886
2.65494
2.71786
2.6702
2.66437
2.64695
2.64345
2.64615
2.64807
2.65022
2.65133
2.65231
2.65332
2.65463
2.656
2.65757
2.65916
2.66094
2.66277
2.66477
2.66683
2.66907
2.67136
2.67381
2.67634
2.679
2.68176
2.68461
2.68759
2.6906
2.69379
2.69692
2.70032
2.70347
2.70709
2.71014
2.71391
2.71679
2.72058
2.72327
2.72687
2.72948
2.73246
2.73538
2.73714
2.73985
2.74126
2.74219
2.7429
2.74391
1.31878
2.65434
2.71725
2.67029
2.66427
2.6466
2.6431
2.64568
2.64775
2.6497
2.65096
2.65175
2.65289
2.65402
2.65551
2.65691
2.65861
2.66022
2.66215
2.66399
2.66614
2.66821
2.67057
2.67287
2.67544
2.67796
2.68073
2.68345
2.68641
2.68932
2.69244
2.69551
2.69875
2.70196
2.70524
2.70857
2.71179
2.71522
2.7182
2.72169
2.72426
2.72769
2.72983
2.73282
2.73525
2.73649
2.73874
2.7403
2.74109
2.74057
1.31869
2.65363
2.71654
2.67041
2.66415
2.64624
2.64265
2.64535
2.64716
2.6493
2.65031
2.65129
2.6522
2.65351
2.65476
2.65633
2.65779
2.65957
2.66125
2.66324
2.66516
2.66736
2.6695
2.6719
2.67426
2.67686
2.67943
2.6822
2.68497
2.68789
2.69084
2.69388
2.69698
2.70009
2.7033
2.70642
2.70968
2.71275
2.71599
2.71889
2.72201
2.72454
2.72746
2.72941
2.73206
2.73434
2.73507
2.73611
2.73679
2.73818
1.31858
2.65283
2.71574
2.67054
2.66401
2.64577
2.64217
2.64471
2.64673
2.64859
2.64982
2.65052
2.65164
2.65266
2.65413
2.6554
2.65708
2.65856
2.66046
2.66214
2.66426
2.66615
2.66848
2.67057
2.6731
2.67538
2.67811
2.68057
2.68346
2.68608
2.68911
2.69188
2.695
2.69789
2.70102
2.70402
2.70707
2.71015
2.71299
2.71612
2.71861
2.72167
2.72376
2.72634
2.7279
2.7298
2.7321
2.73328
2.73395
2.73304
1.31846
2.65191
2.71482
2.6707
2.66384
2.64528
2.64159
2.64419
2.64601
2.648
2.64902
2.64985
2.65076
2.65192
2.65317
2.65459
2.65603
2.65765
2.65929
2.66113
2.66297
2.66502
2.66705
2.6693
2.67151
2.67396
2.67633
2.67895
2.68148
2.68425
2.68689
2.6898
2.69251
2.69552
2.69825
2.70131
2.704
2.70703
2.70964
2.71246
2.71506
2.71735
2.72006
2.72172
2.72415
2.72538
2.72598
2.72687
2.72739
2.72924
1.31833
2.65091
2.71374
2.67108
2.66344
2.64472
2.64094
2.64348
2.6453
2.64719
2.64823
2.64895
2.64989
2.65093
2.65222
2.65349
2.65499
2.65645
2.65815
2.6598
2.66171
2.66353
2.66565
2.66764
2.66995
2.6721
2.67457
2.67687
2.67948
2.68192
2.68462
2.68718
2.68992
2.69258
2.6953
2.698
2.70066
2.7033
2.70589
2.70831
2.71076
2.71287
2.71477
2.7168
2.71784
2.71999
2.72155
2.72237
2.7227
2.72108
1.3182
2.64984
2.71247
2.6718
2.66274
2.64409
2.6402
2.64265
2.6445
2.64624
2.64733
2.64792
2.64889
2.64981
2.65111
2.65228
2.65375
2.65513
2.65678
2.65836
2.66017
2.66196
2.66392
2.66592
2.66799
2.67019
2.67235
2.67475
2.67696
2.67954
2.68177
2.68448
2.6867
2.68947
2.69169
2.69438
2.69661
2.69908
2.70131
2.70348
2.70555
2.7075
2.70924
2.71057
2.71192
2.71183
2.71223
2.71239
2.71295
2.71467
1.31804
2.64862
2.71112
2.67237
2.66209
2.64338
2.63935
2.64184
2.64346
2.64531
2.64618
2.6469
2.64763
2.64869
2.64972
2.65104
2.65224
2.65376
2.65512
2.65685
2.65835
2.66027
2.66191
2.66401
2.66577
2.66802
2.66991
2.67226
2.67428
2.67667
2.67881
2.68116
2.68344
2.68564
2.68803
2.69002
2.6924
2.69416
2.69629
2.69787
2.69948
2.70077
2.702
2.70301
2.70354
2.7049
2.70453
2.7045
2.70319
2.70082
1.31788
2.64728
2.70966
2.67293
2.66141
2.64259
2.63838
2.64092
2.6423
2.64424
2.64491
2.64571
2.64626
2.64738
2.64824
2.64959
2.65064
2.65215
2.65338
2.65504
2.65646
2.65823
2.65984
2.6617
2.66348
2.66541
2.66736
2.6693
2.67139
2.67332
2.67549
2.6774
2.67956
2.68144
2.68346
2.68534
2.68705
2.6889
2.69019
2.69178
2.69273
2.69352
2.69382
2.69392
2.69326
2.69144
2.69075
2.68859
2.68794
2.68783
1.31769
2.64583
2.70811
2.67349
2.66067
2.64167
2.63733
2.63971
2.64117
2.64285
2.64367
2.6442
2.64491
2.64573
2.64677
2.6478
2.64903
2.6502
2.65161
2.65291
2.65449
2.6559
2.65763
2.65915
2.66098
2.6626
2.6645
2.66621
2.66811
2.66989
2.67172
2.67354
2.67522
2.67701
2.67846
2.68008
2.68128
2.68244
2.68349
2.68387
2.68467
2.68458
2.68421
2.68324
2.68204
2.6804
2.67611
2.67254
2.66671
2.66069
1.3175
2.64429
2.70646
2.67407
2.65986
2.64065
2.63613
2.63839
2.63984
2.64136
2.6422
2.6426
2.64329
2.64401
2.645
2.64594
2.64707
2.64818
2.64943
2.65071
2.65206
2.65348
2.6549
2.65646
2.65792
2.65959
2.66105
2.6628
2.66424
2.666
2.6674
2.66907
2.67041
2.67186
2.67312
2.67414
2.67524
2.6756
2.67623
2.67607
2.67521
2.67445
2.67202
2.66991
2.66526
2.65991
2.65475
2.645
2.63537
2.62272
1.3173
2.64269
2.70478
2.67465
2.65892
2.63954
2.63475
2.63706
2.63817
2.63985
2.64042
2.64099
2.64141
2.64229
2.64297
2.64408
2.64492
2.64616
2.64712
2.64847
2.64955
2.65098
2.65216
2.65363
2.65488
2.65635
2.65766
2.65906
2.6604
2.66164
2.66297
2.66399
2.66521
2.66593
2.66692
2.66723
2.66788
2.66776
2.66741
2.66655
2.66547
2.66281
2.66059
2.65529
2.65064
2.64066
2.62783
2.61093
2.58206
2.51102
1.31729
2.64179
2.70035
2.67515
2.65751
2.63778
2.63267
2.63478
2.6359
2.63729
2.638
2.63828
2.63883
2.63935
2.64022
2.64093
2.64194
2.64275
2.6439
2.64479
2.64603
2.64698
2.64829
2.64926
2.6506
2.65155
2.65288
2.65377
2.65499
2.65577
2.65679
2.65739
2.65804
2.65834
2.65855
2.65823
2.65764
2.65674
2.65485
2.6528
2.64869
2.6451
2.63746
2.63138
2.61841
2.60619
2.58345
2.54733
2.48958
2.36402
1.31727
2.64081
2.69563
2.67533
2.65561
2.63541
2.6298
2.63188
2.63275
2.63418
2.6348
2.6351
2.63549
2.63602
2.63667
2.63739
2.63815
2.63897
2.63979
2.64069
2.64155
2.64249
2.64335
2.64431
2.64511
2.64605
2.64675
2.64761
2.64812
2.64883
2.64906
2.64957
2.64953
2.64935
2.64887
2.6483
2.64677
2.6455
2.64238
2.63995
2.63487
2.62892
2.62128
2.60785
2.5949
2.56851
2.54178
2.4917
2.4172
2.31796
1.31725
2.64015
2.69317
2.67517
2.65402
2.63312
2.62689
2.62872
2.62949
2.63092
2.6315
2.63174
2.63203
2.63248
2.63303
2.63366
2.63431
2.63501
2.63571
2.63646
2.63719
2.63796
2.63868
2.63941
2.64006
2.64069
2.6412
2.64164
2.6419
2.64206
2.64189
2.64151
2.64097
2.63978
2.63854
2.6362
2.63411
2.63019
2.62708
2.62078
2.61614
2.60613
2.59865
2.58344
2.56676
2.54291
2.50649
2.464
2.39206
2.31846
1.31712
2.639
2.69235
2.67398
2.65208
2.63032
2.62363
2.62557
2.62641
2.62792
2.62844
2.62851
2.62861
2.62888
2.62913
2.62958
2.62989
2.63037
2.63072
2.63124
2.63161
2.63214
2.63253
2.63305
2.63343
2.63389
2.6342
2.6346
2.63471
2.63478
2.63467
2.63433
2.63374
2.63246
2.63119
2.62841
2.62607
2.62117
2.61679
2.60952
2.60132
2.5913
2.57732
2.56326
2.54111
2.51826
2.48442
2.44394
2.3909
2.32891
1.31688
2.64017
2.70392
2.67063
2.65208
2.6287
2.62149
2.62422
2.62518
2.62703
2.62751
2.62745
2.62741
2.62745
2.62753
2.62764
2.6277
2.62773
2.62771
2.62767
2.62759
2.62742
2.62726
2.62692
2.62665
2.62617
2.6258
2.62499
2.62451
2.62342
2.62277
2.6213
2.62043
2.6184
2.6171
2.61428
2.61175
2.60792
2.60276
2.59713
2.58812
2.57876
2.5647
2.54877
2.52839
2.50254
2.47341
2.43467
2.39199
2.34478
1.30177
2.58657
2.69848
2.67708
2.65964
2.63612
2.62923
2.63213
2.63319
2.63472
2.63458
2.63414
2.63347
2.63293
2.63234
2.63181
2.63118
2.63062
2.62996
2.62941
2.62873
2.62821
2.62748
2.62698
2.6261
2.62556
2.62432
2.6234
2.62154
2.62022
2.61756
2.61576
2.61223
2.60999
2.60551
2.60273
2.59704
2.59351
2.5864
2.58086
2.57195
2.56261
2.55064
2.53532
2.51799
2.49459
2.46886
2.43587
2.39825
2.35807
1.72052
2.46894
2.72871
2.70687
2.68432
2.67402
2.67455
2.67609
2.67749
2.67777
2.67658
2.67512
2.6735
2.67172
2.66975
2.66755
2.66514
2.66253
2.6597
2.65674
2.65352
2.65028
2.64673
2.64327
2.63929
2.63537
2.63094
2.62784
2.62399
2.62143
2.61777
2.61505
2.61078
2.6071
2.60191
2.59684
2.59073
2.58372
2.57681
2.56739
2.55923
2.54688
2.53636
2.52029
2.50552
2.48448
2.46323
2.43565
2.40594
2.37316
1.73241
2.46202
2.7232
2.70213
2.67739
2.6684
2.67229
2.67399
2.67668
2.6775
2.6777
2.67756
2.6773
2.677
2.67632
2.67571
2.67439
2.67343
2.6714
2.67009
2.66735
2.66564
2.66222
2.65993
2.65601
2.65338
2.64899
2.64483
2.63923
2.63379
2.62722
2.62103
2.61486
2.60884
2.60316
2.5961
2.59012
2.58133
2.57384
2.56302
2.55338
2.54027
2.52773
2.51208
2.49576
2.47691
2.45606
2.43316
2.40774
2.38167
1.72917
2.46757
2.72519
2.70243
2.67382
2.66434
2.66917
2.67161
2.67477
2.67589
2.67624
2.67637
2.67654
2.67652
2.67642
2.67617
2.67558
2.67518
2.67426
2.67354
2.67197
2.6709
2.66869
2.66694
2.66412
2.66143
2.65806
2.65438
2.65028
2.64532
2.64065
2.63409
2.62807
2.61904
2.61181
2.60168
2.59373
2.58345
2.57487
2.56365
2.55331
2.54047
2.52744
2.51223
2.49613
2.47785
2.45807
2.43628
2.41277
2.38983
1.73187
2.46086
2.72065
2.69694
2.67075
2.66109
2.66565
2.6679
2.67107
2.67232
2.67273
2.67301
2.67334
2.67365
2.67391
2.67395
2.67386
2.67361
2.67318
2.67248
2.6718
2.67049
2.66952
2.66751
2.66619
2.66349
2.66169
2.65799
2.6556
2.65067
2.64758
2.64132
2.63706
2.62952
2.62341
2.61421
2.60567
2.5943
2.58348
2.57069
2.55812
2.54439
2.53047
2.51517
2.49907
2.48147
2.4633
2.44325
2.4222
2.4015
1.74105
2.4427
2.70911
2.68458
2.66701
2.65764
2.66059
2.66229
2.66538
2.66644
2.6671
2.66718
2.6674
2.66752
2.66766
2.66766
2.6676
2.66743
2.66725
2.66678
2.66643
2.66564
2.66506
2.6638
2.66286
2.66081
2.65943
2.65645
2.65451
2.6505
2.6476
2.64265
2.63855
2.63257
2.6269
2.6196
2.61218
2.60314
2.59347
2.58223
2.57009
2.55615
2.54152
2.52544
2.50912
2.49137
2.47314
2.45384
2.43383
2.41432
1.736
2.43627
2.70576
2.67705
2.66922
2.65597
2.65609
2.65809
2.66109
2.6622
2.66327
2.66337
2.66365
2.66384
2.66401
2.66408
2.66406
2.66396
2.6638
2.66345
2.66316
2.66249
2.66198
2.66087
2.66008
2.65836
2.65718
2.65468
2.65294
2.64963
2.64692
2.64273
2.63873
2.6336
2.62842
2.62202
2.61539
2.60749
2.5992
2.58959
2.57936
2.56763
2.55509
2.54094
2.52586
2.50939
2.49215
2.4738
2.45469
2.43606
1.35697
2.46735
2.67921
2.66851
2.6465
2.62386
2.61682
2.62085
2.62283
2.6257
2.62713
2.62816
2.62896
2.62997
2.63068
2.63177
2.63243
2.6334
2.63391
2.63474
2.63505
2.63579
2.63591
2.63609
2.6361
2.63599
2.63576
2.63518
2.6346
2.63339
2.63223
2.63032
2.62833
2.62535
2.62212
2.61753
2.6125
2.60611
2.5992
2.59094
2.58224
2.57215
2.56151
2.54966
2.53693
2.52302
2.5082
2.49233
2.47554
2.45907
1.36039
2.47691
2.68633
2.6771
2.65248
2.6235
2.61387
2.61469
2.61668
2.61864
2.61945
2.61955
2.61975
2.61978
2.62004
2.62038
2.62075
2.62107
2.62141
2.62164
2.62191
2.622
2.62216
2.62208
2.62191
2.62152
2.62113
2.62026
2.61956
2.61808
2.61692
2.61471
2.61279
2.60984
2.60701
2.60347
2.59981
2.59536
2.5904
2.58475
2.57804
2.57046
2.56146
2.55155
2.54071
2.52904
2.51667
2.50346
2.48936
2.47556
1.3496
2.4126
2.66937
2.66956
2.65014
2.62375
2.61398
2.61403
2.61474
2.61529
2.61496
2.6141
2.61334
2.61231
2.61165
2.61095
2.61045
2.6098
2.60932
2.60868
2.6082
2.60756
2.60707
2.6064
2.60584
2.60506
2.60434
2.60351
2.60262
2.60154
2.60016
2.59861
2.5966
2.59443
2.59162
2.58866
2.58498
2.58111
2.57646
2.57138
2.56564
2.55955
2.55286
2.54556
2.53749
2.52813
2.51761
2.50652
2.49473
2.48336
1.7417
2.39658
2.67494
2.66128
2.65248
2.63857
2.63341
2.63366
2.63341
2.63313
2.63233
2.6311
2.6297
2.62804
2.62642
2.62484
2.62317
2.62145
2.6196
2.61774
2.61574
2.61378
2.61164
2.60957
2.60729
2.60517
2.60278
2.60069
2.59821
2.59578
2.59322
2.59058
2.58778
2.58473
2.58155
2.57792
2.57417
2.56978
2.56531
2.56001
2.55463
2.54832
2.54195
2.53462
2.52703
2.51901
2.51088
2.50186
2.49213
2.48254
1.347
2.39556
2.66016
2.66581
2.64947
2.62419
2.61558
2.61424
2.6155
2.61577
2.61549
2.61514
2.61425
2.61333
2.61269
2.61183
2.61111
2.61005
2.6091
2.60777
2.60663
2.60526
2.6041
2.6026
2.60133
2.59947
2.59788
2.59537
2.59336
2.59064
2.58829
2.58521
2.58241
2.57885
2.57563
2.5717
2.56798
2.56359
2.55925
2.55426
2.54911
2.54333
2.5372
2.53056
2.52337
2.51579
2.50765
2.49924
2.49027
2.48165
1.34833
2.40645
2.66735
2.67127
2.65096
2.62222
2.61096
2.61078
2.61174
2.61245
2.61233
2.61163
2.61087
2.60988
2.60928
2.60854
2.60795
2.60705
2.60624
2.60511
2.60396
2.6023
2.60062
2.59846
2.59629
2.59379
2.59126
2.58847
2.58555
2.58245
2.57915
2.57576
2.57219
2.56863
2.56468
2.56076
2.55635
2.55207
2.5472
2.5425
2.53716
2.53204
2.52616
2.52046
2.514
2.50761
2.50042
2.49314
2.48531
2.47797
1.34775
2.4021
2.66457
2.66931
2.64836
2.61893
2.60693
2.60678
2.60758
2.60849
2.60821
2.60736
2.60654
2.60543
2.60472
2.60397
2.60334
2.60254
2.60178
2.60084
2.59988
2.59872
2.59744
2.59596
2.59425
2.59234
2.59013
2.58776
2.585
2.58213
2.57882
2.57543
2.5716
2.56773
2.56343
2.55905
2.55421
2.54925
2.5439
2.53838
2.53256
2.52654
2.52029
2.51376
2.50709
2.5001
2.49307
2.48558
2.47803
2.47065
1.34491
2.37909
2.64741
2.66154
2.64239
2.61455
2.60274
2.6013
2.6016
2.60184
2.60118
2.60041
2.59907
2.59798
2.5969
2.59603
2.59499
2.59406
2.59291
2.59188
2.59061
2.58949
2.58811
2.58687
2.58535
2.58393
2.58219
2.58048
2.57841
2.57631
2.57385
2.57125
2.56826
2.56502
2.56139
2.55747
2.55326
2.54869
2.54385
2.53857
2.53308
2.52713
2.52101
2.51442
2.50769
2.50053
2.49329
2.48578
2.47815
2.47082
1.75131
2.37307
2.6456
2.64169
2.62823
2.61413
2.60925
2.6095
2.60948
2.60936
2.60878
2.60812
2.6069
2.60576
2.60448
2.60336
2.60199
2.60068
2.5991
2.59756
2.59577
2.594
2.59202
2.59003
2.58785
2.58564
2.58325
2.58079
2.57816
2.57543
2.57263
2.56966
2.5666
2.56328
2.55984
2.55605
2.55213
2.54779
2.54325
2.53829
2.53307
2.52747
2.52168
2.51554
2.50923
2.50258
2.49571
2.48854
2.48104
2.4739
1.34701
2.38872
2.65255
2.6598
2.63926
2.60892
2.59758
2.59622
2.59784
2.59916
2.59901
2.5985
2.59792
2.59665
2.59597
2.59476
2.59402
2.59254
2.59159
2.58986
2.58832
2.58648
2.58466
2.58253
2.58045
2.57822
2.57614
2.57384
2.57169
2.56924
2.5667
2.56381
2.56085
2.55758
2.55423
2.55061
2.54686
2.54288
2.53878
2.53445
2.52994
2.52513
2.52004
2.51459
2.50884
2.50278
2.49646
2.48992
2.48307
2.47652
1.3507
2.41197
2.65479
2.64883
2.62689
2.59633
2.58557
2.58583
2.58762
2.58954
2.58988
2.58964
2.58918
2.5884
2.58789
2.58737
2.58691
2.58629
2.58563
2.58483
2.58395
2.58293
2.58178
2.58046
2.57897
2.57714
2.57505
2.57265
2.57003
2.56714
2.56414
2.56095
2.55763
2.55411
2.55044
2.54658
2.54256
2.53836
2.53398
2.52944
2.5247
2.5198
2.5148
2.50968
2.50433
2.49884
2.49307
2.48712
2.48086
2.4749
1.77122
2.37213
2.63839
2.61748
2.61114
2.59584
2.59311
2.59386
2.59498
2.59626
2.596
2.59551
2.59516
2.5945
2.59393
2.59335
2.59277
2.5921
2.59137
2.59055
2.58967
2.58867
2.58759
2.58636
2.58503
2.58351
2.58185
2.57996
2.57789
2.57548
2.57275
2.56972
2.56638
2.56279
2.55892
2.55482
2.55046
2.54592
2.54114
2.53621
2.53102
2.52566
2.52
2.51418
2.50819
2.50206
2.49585
2.48954
2.48311
2.47698
1.79775
2.3551
2.62638
2.60581
2.60263
2.5927
2.58932
2.58953
2.58978
2.59034
2.59008
2.58946
2.58883
2.5878
2.58677
2.58565
2.58447
2.58313
2.58174
2.5802
2.57862
2.57691
2.57522
2.57344
2.57168
2.56984
2.56802
2.5661
2.56419
2.56223
2.56035
2.55831
2.55633
2.55413
2.55191
2.54941
2.54682
2.54387
2.54055
2.53687
2.53297
2.52879
2.52439
2.51968
2.51474
2.50951
2.50398
2.49815
2.49205
2.48614
1.76258
2.38158
2.65001
2.61922
2.61344
2.59929
2.59612
2.59823
2.59971
2.60054
2.60027
2.59978
2.59873
2.59753
2.59625
2.59493
2.5935
2.59199
2.59035
2.58865
2.58684
2.585
2.58291
2.58071
2.57827
2.57574
2.57297
2.57015
2.56709
2.56403
2.56074
2.55749
2.55403
2.55052
2.54681
2.54308
2.53915
2.53524
2.53134
2.52742
2.52334
2.51916
2.5148
2.51038
2.50578
2.50111
2.49624
2.49127
2.48603
2.48111
1.28617
2.49449
2.64468
2.64199
2.61673
2.58401
2.57195
2.57239
2.57503
2.57742
2.57867
2.5789
2.57913
2.5791
2.57904
2.57896
2.5788
2.5785
2.57803
2.57738
2.57655
2.5755
2.57435
2.573
2.57153
2.56983
2.5681
2.56596
2.56372
2.56132
2.5587
2.55593
2.55282
2.54963
2.54612
2.54255
2.53869
2.53477
2.53059
2.52638
2.52194
2.51748
2.51298
2.50825
2.50339
2.49831
2.49312
2.48773
2.48222
2.47696
1.77184
2.36715
2.63944
2.61688
2.61058
2.59516
2.59022
2.59113
2.59155
2.59314
2.59277
2.5922
2.59174
2.59095
2.59021
2.58935
2.58858
2.58761
2.58668
2.58553
2.58442
2.58308
2.58177
2.58021
2.57868
2.57686
2.57507
2.57297
2.57065
2.56804
2.56525
2.56217
2.55909
2.55577
2.55244
2.54883
2.5452
2.54125
2.53728
2.53295
2.52863
2.52393
2.51907
2.514
2.50884
2.50349
2.49805
2.49243
2.4867
2.48122
1.77324
2.36535
2.63734
2.61496
2.60871
2.59342
2.58846
2.58956
2.59062
2.59171
2.59225
2.59175
2.59132
2.59052
2.58967
2.58873
2.58775
2.5866
2.58536
2.58398
2.5825
2.58091
2.57922
2.57743
2.57554
2.57358
2.57149
2.56938
2.56731
2.56515
2.56298
2.56065
2.55815
2.55544
2.55254
2.54948
2.54626
2.54289
2.53933
2.53562
2.53172
2.52769
2.52345
2.51907
2.51449
2.50978
2.50486
2.49983
2.49457
2.48948
1.28557
2.49088
2.64199
2.63932
2.61358
2.57893
2.56599
2.5655
2.56802
2.57008
2.57104
2.57098
2.57084
2.57045
2.57014
2.56968
2.56938
2.56876
2.56831
2.56742
2.56678
2.56561
2.56473
2.5633
2.56218
2.56055
2.55892
2.55715
2.55524
2.55323
2.5511
2.54889
2.54657
2.54415
2.54162
2.53896
2.53615
2.5332
2.5301
2.52683
2.52341
2.51981
2.51607
2.51214
2.50809
2.50384
2.49948
2.49493
2.49026
2.48572
1.76678
2.3728
2.64054
2.60981
2.60339
2.58742
2.58436
2.58653
2.58743
2.58955
2.58931
2.58877
2.58831
2.58747
2.58669
2.5858
2.58494
2.58389
2.58284
2.58161
2.58036
2.57896
2.57751
2.57594
2.57427
2.57251
2.57061
2.56862
2.56649
2.56426
2.56188
2.55926
2.55651
2.55354
2.55045
2.54716
2.54376
2.54015
2.53647
2.53266
2.52877
2.52474
2.5206
2.51632
2.51192
2.50739
2.50273
2.49795
2.49301
2.48829
1.79467
2.35591
2.62395
2.59585
2.59183
2.58013
2.57686
2.57805
2.57836
2.57908
2.57889
2.57849
2.57803
2.57729
2.57657
2.57582
2.57501
2.57411
2.57312
2.57204
2.57087
2.5696
2.56824
2.56679
2.56525
2.56362
2.5619
2.56008
2.55817
2.55617
2.55408
2.55203
2.54985
2.54769
2.54537
2.54305
2.54054
2.53795
2.53513
2.53217
2.52897
2.52568
2.52218
2.51859
2.5148
2.51091
2.50681
2.50263
2.49822
2.49404
1.79928
2.35067
2.61892
2.59267
2.58903
2.57777
2.57396
2.57464
2.57481
2.57521
2.57507
2.57466
2.57416
2.5734
2.57262
2.57185
2.57098
2.57005
2.56901
2.56789
2.56665
2.56533
2.56389
2.56236
2.5607
2.55896
2.55708
2.55512
2.55301
2.55082
2.54849
2.54607
2.54351
2.54086
2.53809
2.53523
2.53225
2.52924
2.52613
2.52297
2.5197
2.51635
2.51287
2.50929
2.50558
2.50177
2.49783
2.49377
2.48956
2.48556
1.77982
2.3559
2.61648
2.60294
2.59357
2.57712
2.57209
2.57257
2.57317
2.5738
2.57378
2.57331
2.57278
2.57196
2.57115
2.57037
2.56952
2.56861
2.56759
2.5665
2.5653
2.56402
2.56263
2.56116
2.55957
2.55789
2.55609
2.55419
2.55216
2.55003
2.54777
2.54541
2.5429
2.54029
2.53753
2.53467
2.53166
2.52854
2.52529
2.52192
2.51842
2.51482
2.51109
2.50724
2.50328
2.4992
2.495
2.49069
2.48624
2.482
1.34476
2.3798
2.63794
2.63734
2.61515
2.58169
2.56748
2.5651
2.5664
2.56752
2.56747
2.56721
2.56652
2.56552
2.56461
2.56382
2.56299
2.56212
2.56112
2.56005
2.55886
2.55761
2.55622
2.55476
2.55317
2.55149
2.54967
2.54777
2.54572
2.54358
2.54128
2.5389
2.53635
2.53371
2.53091
2.52802
2.52496
2.52181
2.51848
2.51506
2.51147
2.50779
2.50393
2.49999
2.49587
2.49167
2.48731
2.48288
2.47828
2.4739
1.34601
2.38739
2.65283
2.65697
2.63093
2.59242
2.57489
2.57254
2.57418
2.57546
2.57591
2.57556
2.57473
2.57373
2.57267
2.5718
2.57092
2.57002
2.56898
2.5679
2.56669
2.56543
2.56406
2.56264
2.56108
2.55948
2.55774
2.55595
2.55402
2.55202
2.54988
2.54767
2.54532
2.54289
2.54031
2.53765
2.53484
2.53194
2.52888
2.52573
2.52241
2.51901
2.51544
2.51177
2.50794
2.50401
2.49992
2.49574
2.49139
2.48722
1.34511
2.37928
2.6363
2.6363
2.61339
2.58006
2.5649
2.5629
2.56426
2.56518
2.56559
2.56516
2.56445
2.56342
2.56249
2.56166
2.56085
2.55998
2.55903
2.55799
2.55688
2.55568
2.55442
2.55305
2.55163
2.55009
2.54849
2.54677
2.54498
2.54307
2.54109
2.53899
2.5368
2.53449
2.5321
2.52957
2.52696
2.52421
2.52138
2.5184
2.51535
2.51213
2.50884
2.50539
2.50186
2.49816
2.4944
2.49046
2.48644
2.48252
1.78109
2.35418
2.61396
2.59964
2.58996
2.57208
2.56701
2.56737
2.56796
2.569
2.56884
2.5683
2.56781
2.56693
2.56617
2.56536
2.56458
2.56365
2.56272
2.56163
2.56054
2.5593
2.55804
2.55663
2.5552
2.55362
2.55201
2.55024
2.54845
2.54649
2.5445
2.54234
2.54015
2.53778
2.53538
2.5328
2.53018
2.52738
2.52455
2.52152
2.51846
2.5152
2.5119
2.50841
2.50488
2.50115
2.49738
2.49341
2.48937
2.48543
1.80134
2.34715
2.61453
2.58732
2.58378
2.57251
2.56902
2.5701
2.57039
2.57083
2.57068
2.57017
2.56962
2.56872
2.5679
2.56701
2.56613
2.5651
2.56405
2.56286
2.56165
2.56028
2.55889
2.55735
2.55577
2.55404
2.55226
2.55033
2.54835
2.54622
2.54403
2.54168
2.53927
2.5367
2.53408
2.53128
2.52843
2.52541
2.52232
2.51907
2.51575
2.51226
2.50871
2.50498
2.50119
2.49724
2.49321
2.48902
2.48475
2.48061
1.78829
2.36079
2.62695
2.59532
2.58871
2.5746
2.57212
2.57414
2.57564
2.57656
2.57653
2.57602
2.57548
2.57465
2.57387
2.57306
2.5722
2.57124
2.57021
2.56908
2.56789
2.56658
2.56522
2.56374
2.5622
2.56053
2.55881
2.55695
2.55502
2.55296
2.55083
2.54856
2.54622
2.54373
2.54117
2.53847
2.53568
2.53275
2.52973
2.52657
2.52332
2.51992
2.51643
2.5128
2.50907
2.5052
2.50124
2.49713
2.49293
2.48887
2.17219
2.34517
2.76293
2.86025
2.86559
2.82214
2.82017
2.81948
2.81221
2.81107
2.81405
2.81557
2.81687
2.81768
2.8194
2.8207
2.82271
2.82445
2.82596
2.82688
2.82727
2.82736
2.82598
2.82515
2.8221
2.81975
2.81568
2.8119
2.80692
2.802
2.79619
2.79034
2.78386
2.77731
2.7705
2.76354
2.75639
2.74862
2.74047
2.73237
2.72418
2.716
2.70773
2.69948
2.69121
2.683
2.67482
2.66675
2.65877
2.65094
2.64323
2.63572
2.62839
2.6213
2.61445
2.60789
2.60162
2.59569
2.59012
2.58496
2.58021
2.57593
2.57213
2.56886
2.56611
2.56393
2.56231
2.56126
2.56075
2.56066
2.56078
2.56112
2.56199
2.56343
2.5655
2.56773
2.56996
2.57224
2.57446
2.57665
2.57866
2.58055
2.58217
2.58361
2.58476
2.5857
2.58635
2.58681
2.58701
2.58708
2.58698
2.58675
2.58641
2.58569
2.58494
2.58391
2.58306
2.58194
2.58103
2.57801
2.18035
2.2603
2.45037
2.62852
2.69699
2.73461
2.76239
2.7875
2.80203
2.81479
2.82284
2.83287
2.83852
2.83812
2.83424
2.82878
2.82128
2.8137
2.80437
2.79535
2.78506
2.77531
2.76469
2.75476
2.7438
2.73343
2.72218
2.71163
2.70033
2.68973
2.67848
2.66792
2.6568
2.64635
2.63563
2.62566
2.61535
2.605
2.59422
2.58383
2.57364
2.5637
2.55384
2.54421
2.53468
2.52542
2.51629
2.50743
2.49874
2.49034
2.48213
2.47423
2.46655
2.45923
2.45215
2.44546
2.43907
2.43311
2.42749
2.42234
2.4176
2.41338
2.40961
2.40641
2.40372
2.40162
2.40005
2.39909
2.39863
2.39863
2.39889
2.39942
2.40051
2.40223
2.40467
2.40731
2.41004
2.41276
2.41546
2.41804
2.42047
2.42268
2.42462
2.42626
2.4276
2.42863
2.42935
2.42978
2.42993
2.42988
2.42973
2.4294
2.42901
2.42819
2.4274
2.42626
2.42538
2.42419
2.42341
2.42053
2.22678
2.21287
2.27128
2.35831
2.411
2.46048
2.49421
2.52163
2.54289
2.55886
2.57081
2.57994
2.58673
2.58916
2.58842
2.58668
2.5827
2.57813
2.57258
2.56655
2.5598
2.55292
2.54554
2.53828
2.53046
2.52276
2.51452
2.50654
2.49811
2.49002
2.4815
2.47338
2.46484
2.45673
2.44842
2.44078
2.43287
2.42485
2.41626
2.40792
2.39976
2.39179
2.38387
2.37608
2.36835
2.36077
2.35328
2.34597
2.33877
2.33178
2.32491
2.31828
2.31181
2.30561
2.2996
2.2939
2.28844
2.28332
2.2785
2.27406
2.26997
2.26632
2.26306
2.26029
2.25795
2.25615
2.2548
2.25401
2.25369
2.25376
2.25406
2.25455
2.25555
2.25712
2.25937
2.26181
2.26436
2.26688
2.26939
2.27175
2.27399
2.27598
2.27775
2.27922
2.28043
2.28132
2.28197
2.2823
2.28242
2.28235
2.28221
2.28192
2.28157
2.28084
2.28014
2.27912
2.27838
2.27735
2.27686
2.27446
2.25962
2.22028
2.21591
2.2409
2.27151
2.29401
2.30924
2.32105
2.33159
2.34084
2.34849
2.35459
2.35931
2.36291
2.36445
2.36469
2.36464
2.36452
2.36433
2.36405
2.36356
2.36292
2.36219
2.36092
2.3594
2.35762
2.35534
2.35284
2.3499
2.34679
2.34325
2.33959
2.3355
2.33136
2.32702
2.32293
2.31859
2.31384
2.30842
2.30289
2.29734
2.29187
2.2863
2.28075
2.27507
2.26945
2.26375
2.25813
2.25248
2.24695
2.24142
2.23606
2.23073
2.22561
2.22057
2.21579
2.21114
2.20679
2.20262
2.19882
2.19524
2.19208
2.18921
2.1868
2.18473
2.18317
2.18199
2.18134
2.18113
2.18127
2.18159
2.18208
2.18307
2.18455
2.18665
2.18892
2.19139
2.19378
2.1962
2.19842
2.20055
2.20239
2.20407
2.2054
2.20655
2.20734
2.20795
2.20821
2.20833
2.20824
2.20814
2.2079
2.2076
2.20694
2.20637
2.20546
2.20485
2.20398
2.20373
2.20167
2.27504
2.24094
2.21922
2.21172
2.21877
2.22341
2.22547
2.22607
2.22706
2.22892
2.23173
2.23404
2.23608
2.23792
2.24066
2.24295
2.24516
2.24762
2.25029
2.25315
2.25604
2.25883
2.26145
2.2637
2.26563
2.267
2.26795
2.26844
2.26816
2.26761
2.26651
2.26505
2.26304
2.26078
2.25826
2.2558
2.25302
2.24973
2.2457
2.24136
2.23687
2.23236
2.22771
2.22301
2.21817
2.2133
2.20831
2.20334
2.1983
2.19332
2.18832
2.18342
2.17855
2.17384
2.16919
2.16476
2.16044
2.15638
2.1525
2.14893
2.14559
2.14262
2.13994
2.13768
2.13575
2.1343
2.13322
2.13269
2.13256
2.13274
2.13304
2.13358
2.13457
2.13607
2.13801
2.14018
2.14255
2.1449
2.14724
2.1494
2.15144
2.15321
2.15479
2.15606
2.15711
2.15785
2.15838
2.15861
2.15868
2.15859
2.15848
2.15822
2.15791
2.15722
2.15672
2.15582
2.15528
2.15446
2.15432
2.15232
2.29852
2.25469
2.23049
2.21062
2.20083
2.19397
2.18823
2.18214
2.17731
2.17352
2.17179
2.1713
2.1719
2.17227
2.17337
2.1756
2.17817
2.18135
2.1843
2.18792
2.19131
2.19517
2.1985
2.20202
2.20478
2.20749
2.20929
2.21093
2.21164
2.2122
2.21198
2.21132
2.21014
2.20863
2.2069
2.20516
2.20307
2.20045
2.19712
2.19341
2.18949
2.18543
2.18127
2.17701
2.17265
2.1682
2.16367
2.15908
2.15446
2.14982
2.14519
2.1406
2.13606
2.13162
2.12727
2.12307
2.11902
2.11516
2.11151
2.10812
2.10498
2.10216
2.09964
2.09749
2.09571
2.09434
2.0934
2.09296
2.09292
2.09309
2.09341
2.09399
2.09502
2.0965
2.09835
2.10042
2.10268
2.10497
2.10724
2.10935
2.11131
2.11303
2.11453
2.11575
2.11674
2.11744
2.11793
2.11814
2.11817
2.11809
2.11797
2.11767
2.11736
2.11666
2.1162
2.11532
2.11483
2.11404
2.11398
2.11204
2.32214
2.28214
2.24846
2.22366
2.20322
2.18826
2.17587
2.16538
2.15588
2.14841
2.14254
2.13904
2.13693
2.13655
2.1366
2.13717
2.13904
2.14188
2.1451
2.1485
2.15215
2.15594
2.15971
2.16343
2.16684
2.16998
2.17257
2.17476
2.17629
2.17743
2.17787
2.17799
2.17739
2.17648
2.17541
2.17425
2.17274
2.17068
2.16796
2.16482
2.16141
2.15779
2.15404
2.15017
2.14621
2.14214
2.13799
2.13375
2.12947
2.12515
2.12082
2.1165
2.11223
2.10803
2.10392
2.09993
2.09609
2.09242
2.08896
2.08573
2.08275
2.08006
2.07769
2.07564
2.07398
2.07271
2.07188
2.07154
2.07156
2.07172
2.07206
2.07268
2.07375
2.07524
2.07703
2.07903
2.0812
2.08341
2.0856
2.08766
2.08956
2.09123
2.09267
2.09385
2.0948
2.09548
2.09594
2.09613
2.09614
2.09606
2.09593