/*--------------------------------*- C++ -*----------------------------------*\
| =========                 |                                                 |
| \\      /  F ield         | OpenFOAM: The Open Source CFD Toolbox           |
|  \\    /   O peration     | Version:  2412                                  |
|   \\  /    A nd           | Website:  www.openfoam.com                      |
|    \\/     M anipulation  |                                                 |
\*---------------------------------------------------------------------------*/
FoamFile
{
    version     2.0;
    format      ascii;
    arch        "LSB;label=32;scalar=64";
    class       volVectorField;
    location    "20.5";
    object      U;
}
// * * * * * * * * * * * * * * * * * * * * * * * * * * * * * * * * * * * * * //

dimensions      [0 1 -1 0 0 0 0];

internalField   nonuniform List<vector> 
7000
(
(2.59112 -7.25055e-05 0)
(1.62067 0.000178385 0)
(0.495749 0.000208911 0)
(0.552996 0.000350717 0)
(0.654688 0.000446531 0)
(0.719895 0.000524577 0)
(0.732779 0.00059242 0)
(0.725886 0.000662715 0)
(0.715823 0.000741176 0)
(0.708124 0.000831594 0)
(0.703656 0.00093024 0)
(0.700088 0.00103345 0)
(0.696002 0.00114042 0)
(0.691147 0.00125209 0)
(0.685682 0.00136948 0)
(0.679735 0.00149317 0)
(0.673323 0.00162345 0)
(0.666411 0.00176066 0)
(0.658967 0.0019052 0)
(0.650961 0.00205764 0)
(0.642373 0.00221859 0)
(0.633179 0.00238871 0)
(0.623354 0.0025687 0)
(0.61287 0.00275936 0)
(0.601699 0.00296147 0)
(0.58981 0.00317593 0)
(0.577171 0.00340365 0)
(0.563749 0.00364557 0)
(0.549509 0.00390269 0)
(0.534413 0.00417596 0)
(0.518426 0.00446638 0)
(0.501509 0.00477482 0)
(0.483625 0.00510215 0)
(0.464735 0.00544901 0)
(0.444805 0.00581599 0)
(0.423799 0.00620317 0)
(0.40169 0.00661061 0)
(0.378451 0.00703748 0)
(0.354067 0.00748285 0)
(0.328529 0.00794453 0)
(0.301843 0.00842014 0)
(0.274024 0.0089056 0)
(0.24511 0.00939694 0)
(0.215153 0.00988783 0)
(0.184226 0.0103737 0)
(0.152422 0.0108476 0)
(0.119823 0.0113137 0)
(0.0868514 0.0117557 0)
(0.051492 0.0123444 0)
(0.0221156 0.0131967 0)
(2.59125 -4.81092e-05 0)
(1.62084 0.000347452 0)
(0.495438 0.000827972 0)
(0.552735 0.00113968 0)
(0.65445 0.00137483 0)
(0.719669 0.00159688 0)
(0.732555 0.00180489 0)
(0.725666 0.00202019 0)
(0.715611 0.0022577 0)
(0.707922 0.00252748 0)
(0.70346 0.00282029 0)
(0.699896 0.00312654 0)
(0.695814 0.00344406 0)
(0.690963 0.00377513 0)
(0.685504 0.00412237 0)
(0.679563 0.00448718 0)
(0.673156 0.00487027 0)
(0.666251 0.00527235 0)
(0.658812 0.0056945 0)
(0.650813 0.00613797 0)
(0.642232 0.00660429 0)
(0.633046 0.00709494 0)
(0.623228 0.00761165 0)
(0.612753 0.00815604 0)
(0.601591 0.00873006 0)
(0.589711 0.0093354 0)
(0.577081 0.00997408 0)
(0.563669 0.0106477 0)
(0.549437 0.0113582 0)
(0.534352 0.0121068 0)
(0.518374 0.0128951 0)
(0.501465 0.0137234 0)
(0.483588 0.0145926 0)
(0.464704 0.0155015 0)
(0.444777 0.0164494 0)
(0.423772 0.0174328 0)
(0.401659 0.0184484 0)
(0.378412 0.0194893 0)
(0.354012 0.0205484 0)
(0.328451 0.0216143 0)
(0.30173 0.0226745 0)
(0.273866 0.0237123 0)
(0.24489 0.0247102 0)
(0.214855 0.025647 0)
(0.18383 0.026502 0)
(0.15191 0.0272558 0)
(0.119166 0.0279059 0)
(0.0860659 0.0284264 0)
(0.050546 0.0290772 0)
(0.0211894 0.0298273 0)
(2.59137 4.7632e-05 0)
(1.62113 0.000392308 0)
(0.495645 0.00160489 0)
(0.552788 0.00198048 0)
(0.654491 0.0023047 0)
(0.719711 0.00267033 0)
(0.732597 0.00303976 0)
(0.725719 0.0034186 0)
(0.715686 0.00382871 0)
(0.708018 0.00428663 0)
(0.70357 0.00478133 0)
(0.700016 0.00529998 0)
(0.695943 0.00583965 0)
(0.691104 0.0064032 0)
(0.685657 0.00699461 0)
(0.67973 0.00761588 0)
(0.673337 0.00826865 0)
(0.666447 0.00895399 0)
(0.659024 0.00967413 0)
(0.651042 0.010431 0)
(0.642478 0.0112275 0)
(0.633311 0.012066 0)
(0.623514 0.0129499 0)
(0.61306 0.0138817 0)
(0.601921 0.0148652 0)
(0.590065 0.0159031 0)
(0.577462 0.0169994 0)
(0.564076 0.0181567 0)
(0.549874 0.0193788 0)
(0.534817 0.0206679 0)
(0.518869 0.0220272 0)
(0.501991 0.0234576 0)
(0.484143 0.0249608 0)
(0.465288 0.0265355 0)
(0.445387 0.0281807 0)
(0.424405 0.0298917 0)
(0.402309 0.0316624 0)
(0.379073 0.0334833 0)
(0.354675 0.0353409 0)
(0.329103 0.0372189 0)
(0.302357 0.039094 0)
(0.274449 0.0409417 0)
(0.24541 0.0427292 0)
(0.215286 0.0444245 0)
(0.184147 0.045991 0)
(0.152086 0.0473934 0)
(0.119172 0.0486194 0)
(0.0859295 0.0496297 0)
(0.0502703 0.0506822 0)
(0.0207497 0.0516753 0)
(2.59155 5.41103e-05 0)
(1.62158 0.000535772 0)
(0.496072 0.0023509 0)
(0.552911 0.00281428 0)
(0.654613 0.00323697 0)
(0.719854 0.00375699 0)
(0.732745 0.00430332 0)
(0.725882 0.00485926 0)
(0.715878 0.00545199 0)
(0.708241 0.00610426 0)
(0.703817 0.00680578 0)
(0.700279 0.00754269 0)
(0.696224 0.00831119 0)
(0.691404 0.00911439 0)
(0.685979 0.00995685 0)
(0.680074 0.0108415 0)
(0.673706 0.0117704 0)
(0.666841 0.0127457 0)
(0.659445 0.0137701 0)
(0.651491 0.0148467 0)
(0.642959 0.0159794 0)
(0.633824 0.0171719 0)
(0.624062 0.0184284 0)
(0.613645 0.0197533 0)
(0.602545 0.0211512 0)
(0.590732 0.0226269 0)
(0.578173 0.0241852 0)
(0.564834 0.025831 0)
(0.550681 0.0275684 0)
(0.535675 0.0294025 0)
(0.51978 0.0313359 0)
(0.502955 0.0333724 0)
(0.485161 0.0355124 0)
(0.466358 0.0377572 0)
(0.446507 0.0401029 0)
(0.425571 0.0425464 0)
(0.403515 0.0450769 0)
(0.38031 0.0476844 0)
(0.35593 0.0503483 0)
(0.330361 0.053048 0)
(0.303599 0.0557512 0)
(0.27565 0.0584217 0)
(0.246543 0.0610175 0)
(0.216319 0.063487 0)
(0.185047 0.0657862 0)
(0.152819 0.0678586 0)
(0.119703 0.0696758 0)
(0.0862772 0.0711841 0)
(0.0504196 0.0726093 0)
(0.0206057 0.0737656 0)
(2.5918 6.77413e-05 0)
(1.62221 0.000716294 0)
(0.496623 0.00310361 0)
(0.553021 0.0036796 0)
(0.654741 0.00421134 0)
(0.720026 0.00488545 0)
(0.732931 0.00560884 0)
(0.726086 0.00634895 0)
(0.716118 0.00713307 0)
(0.708523 0.00798586 0)
(0.704131 0.00889945 0)
(0.70062 0.00986098 0)
(0.696591 0.0108656 0)
(0.6918 0.0119169 0)
(0.686408 0.0130192 0)
(0.680537 0.0141768 0)
(0.674204 0.0153918 0)
(0.667377 0.0166678 0)
(0.660021 0.0180076 0)
(0.65211 0.0194164 0)
(0.643623 0.0208978 0)
(0.634537 0.0224581 0)
(0.624827 0.0241017 0)
(0.614466 0.0258354 0)
(0.603426 0.0276641 0)
(0.591676 0.0295954 0)
(0.579184 0.0316344 0)
(0.565915 0.0337886 0)
(0.551836 0.0360628 0)
(0.536907 0.0384641 0)
(0.521091 0.040996 0)
(0.504346 0.0436636 0)
(0.486634 0.046468 0)
(0.467911 0.0494105 0)
(0.448138 0.0524873 0)
(0.427274 0.0556932 0)
(0.405282 0.0590172 0)
(0.382128 0.0624429 0)
(0.357785 0.0659489 0)
(0.332231 0.0695033 0)
(0.305457 0.0730713 0)
(0.277465 0.0765997 0)
(0.248275 0.0800368 0)
(0.217929 0.0833126 0)
(0.186488 0.0863609 0)
(0.154052 0.0891161 0)
(0.120674 0.0915193 0)
(0.0869974 0.0934935 0)
(0.0508513 0.0952313 0)
(0.0206236 0.0964801 0)
(2.59214 8.00265e-05 0)
(1.62305 0.00090038 0)
(0.497322 0.00385541 0)
(0.553136 0.00455753 0)
(0.654884 0.00520456 0)
(0.720236 0.00603306 0)
(0.733168 0.00693901 0)
(0.726348 0.00786833 0)
(0.716425 0.00885247 0)
(0.708879 0.00991466 0)
(0.70453 0.0110487 0)
(0.701055 0.0122426 0)
(0.697062 0.013492 0)
(0.692309 0.0147999 0)
(0.686959 0.0161713 0)
(0.681133 0.0176107 0)
(0.674847 0.0191214 0)
(0.668069 0.0207073 0)
(0.660766 0.0223728 0)
(0.652912 0.0241234 0)
(0.644485 0.0259647 0)
(0.635464 0.0279034 0)
(0.625823 0.0299461 0)
(0.615537 0.0321001 0)
(0.604576 0.0343734 0)
(0.59291 0.0367734 0)
(0.580508 0.0393087 0)
(0.567334 0.0419867 0)
(0.553354 0.0448162 0)
(0.53853 0.0478034 0)
(0.522822 0.050956 0)
(0.506189 0.0542778 0)
(0.488589 0.0577734 0)
(0.469978 0.0614425 0)
(0.450314 0.0652835 0)
(0.429552 0.0692884 0)
(0.407653 0.0734464 0)
(0.384577 0.0777364 0)
(0.360291 0.0821337 0)
(0.334769 0.0865987 0)
(0.30799 0.0910865 0)
(0.279955 0.0955377 0)
(0.250671 0.0998809 0)
(0.220174 0.104034 0)
(0.188524 0.107902 0)
(0.155816 0.111395 0)
(0.122105 0.114433 0)
(0.0880686 0.116904 0)
(0.0515121 0.118954 0)
(0.0207749 0.120274 0)
(2.59257 9.26876e-05 0)
(1.62413 0.00108664 0)
(0.498178 0.00461498 0)
(0.553257 0.005451 0)
(0.655042 0.00621979 0)
(0.720488 0.00720644 0)
(0.733458 0.00830243 0)
(0.726671 0.00942552 0)
(0.716802 0.0106165 0)
(0.709316 0.0118965 0)
(0.705019 0.0132592 0)
(0.70159 0.0146931 0)
(0.697643 0.0161949 0)
(0.69294 0.0177676 0)
(0.687642 0.0194168 0)
(0.681872 0.0211469 0)
(0.675646 0.0229625 0)
(0.668931 0.0248678 0)
(0.661694 0.0268689 0)
(0.653912 0.0289715 0)
(0.645561 0.0311833 0)
(0.636622 0.0335115 0)
(0.62707 0.035965 0)
(0.616877 0.038552 0)
(0.606017 0.0412825 0)
(0.594459 0.0441655 0)
(0.58217 0.0472115 0)
(0.569118 0.0504299 0)
(0.555266 0.0538311 0)
(0.540576 0.0574237 0)
(0.525007 0.0612165 0)
(0.508518 0.0652162 0)
(0.491064 0.0694277 0)
(0.4726 0.073853 0)
(0.45308 0.07849 0)
(0.432457 0.0833317 0)
(0.410684 0.0883649 0)
(0.387718 0.0935677 0)
(0.363517 0.0989098 0)
(0.338046 0.104346 0)
(0.311279 0.109823 0)
(0.2832 0.115267 0)
(0.253814 0.120595 0)
(0.22314 0.125705 0)
(0.191234 0.130478 0)
(0.158189 0.134796 0)
(0.124047 0.138538 0)
(0.0895436 0.141561 0)
(0.0524192 0.14397 0)
(0.0210223 0.145394 0)
(2.5931 0.000105465 0)
(1.62545 0.0012734 0)
(0.499205 0.00538034 0)
(0.553386 0.00635401 0)
(0.655219 0.00724817 0)
(0.720784 0.00839716 0)
(0.733809 0.0096858 0)
(0.727063 0.0110099 0)
(0.71726 0.0124159 0)
(0.709844 0.0139218 0)
(0.705609 0.0155207 0)
(0.702237 0.0172024 0)
(0.698347 0.0189647 0)
(0.693705 0.0208109 0)
(0.688473 0.0227464 0)
(0.682772 0.0247763 0)
(0.676618 0.0269058 0)
(0.66998 0.0291403 0)
(0.662825 0.0314864 0)
(0.655131 0.0339515 0)
(0.646875 0.0365441 0)
(0.638036 0.0392732 0)
(0.628592 0.0421488 0)
(0.618516 0.0451812 0)
(0.607779 0.0483817 0)
(0.596354 0.0517619 0)
(0.584207 0.0553334 0)
(0.571304 0.0591086 0)
(0.557611 0.063099 0)
(0.543087 0.0673164 0)
(0.527692 0.0717708 0)
(0.511382 0.0764715 0)
(0.494112 0.0814254 0)
(0.475834 0.0866356 0)
(0.456497 0.0921028 0)
(0.436052 0.097819 0)
(0.414445 0.103773 0)
(0.391626 0.109939 0)
(0.367544 0.116285 0)
(0.342154 0.122761 0)
(0.315417 0.129305 0)
(0.287305 0.135833 0)
(0.257807 0.142238 0)
(0.226932 0.148407 0)
(0.19472 0.154186 0)
(0.161266 0.159427 0)
(0.126586 0.163978 0)
(0.0914616 0.167639 0)
(0.0536162 0.170466 0)
(0.021412 0.172029 0)
(2.59374 0.000118309 0)
(1.62703 0.00145978 0)
(0.500418 0.00614883 0)
(0.553528 0.0072625 0)
(0.655417 0.00828524 0)
(0.721131 0.00960079 0)
(0.734227 0.0110877 0)
(0.727533 0.0126182 0)
(0.717809 0.0142466 0)
(0.710475 0.0159863 0)
(0.706313 0.0178293 0)
(0.70301 0.0197671 0)
(0.699189 0.0217981 0)
(0.694621 0.023926 0)
(0.689466 0.0261564 0)
(0.683848 0.0284949 0)
(0.677781 0.0309471 0)
(0.671235 0.0335195 0)
(0.664179 0.0362198 0)
(0.65659 0.0390566 0)
(0.648447 0.0420398 0)
(0.63973 0.0451797 0)
(0.630416 0.0484881 0)
(0.62048 0.0519771 0)
(0.609893 0.0556598 0)
(0.598628 0.0595497 0)
(0.586652 0.063661 0)
(0.573932 0.0680078 0)
(0.560431 0.0726048 0)
(0.546109 0.0774654 0)
(0.530926 0.0826032 0)
(0.514837 0.0880288 0)
(0.497793 0.0937528 0)
(0.479745 0.0997798 0)
(0.460638 0.106113 0)
(0.440416 0.112746 0)
(0.419021 0.119668 0)
(0.396393 0.126854 0)
(0.372471 0.13427 0)
(0.347199 0.141864 0)
(0.320521 0.149562 0)
(0.292392 0.157275 0)
(0.262785 0.164876 0)
(0.231685 0.172226 0)
(0.199117 0.179151 0)
(0.165165 0.18545 0)
(0.129836 0.190927 0)
(0.0939391 0.195334 0)
(0.0551455 0.198672 0)
(0.0219198 0.200426 0)
(2.59449 0.00013108 0)
(1.6289 0.00164452 0)
(0.50183 0.00691531 0)
(0.553685 0.00817043 0)
(0.655642 0.00932396 0)
(0.721537 0.0108096 0)
(0.734722 0.0124987 0)
(0.728092 0.0142416 0)
(0.718462 0.0160999 0)
(0.711221 0.0180816 0)
(0.707145 0.0201773 0)
(0.703922 0.0223795 0)
(0.700184 0.0246875 0)
(0.695703 0.0271056 0)
(0.69064 0.0296394 0)
(0.685118 0.0322947 0)
(0.679154 0.0350782 0)
(0.672717 0.0379972 0)
(0.665777 0.0410604 0)
(0.658312 0.0442778 0)
(0.650303 0.0476605 0)
(0.641729 0.0512206 0)
(0.63257 0.0549715 0)
(0.622799 0.0589271 0)
(0.612391 0.0631027 0)
(0.601316 0.067514 0)
(0.589543 0.0721776 0)
(0.57704 0.07711 0)
(0.563769 0.0823288 0)
(0.549691 0.0878502 0)
(0.534764 0.093691 0)
(0.518941 0.0998652 0)
(0.502173 0.106386 0)
(0.484405 0.113263 0)
(0.465581 0.120499 0)
(0.445638 0.128094 0)
(0.42451 0.136038 0)
(0.402128 0.144308 0)
(0.378421 0.152868 0)
(0.353312 0.161667 0)
(0.326735 0.170624 0)
(0.298617 0.179641 0)
(0.268909 0.188578 0)
(0.237574 0.197267 0)
(0.204602 0.205501 0)
(0.170065 0.213039 0)
(0.133933 0.219625 0)
(0.0970646 0.224935 0)
(0.0571067 0.228897 0)
(0.0226252 0.230902 0)
(2.59536 0.000143653 0)
(1.63106 0.00182583 0)
(0.503457 0.00767239 0)
(0.553861 0.00907038 0)
(0.655898 0.0103571 0)
(0.722009 0.0120149 0)
(0.735303 0.0139113 0)
(0.728753 0.0158714 0)
(0.719233 0.0179666 0)
(0.712099 0.0201988 0)
(0.70812 0.0225561 0)
(0.704992 0.0250313 0)
(0.701351 0.0276249 0)
(0.69697 0.0303415 0)
(0.692014 0.0331869 0)
(0.686604 0.0361674 0)
(0.680758 0.0392902 0)
(0.674448 0.0425637 0)
(0.667643 0.0459978 0)
(0.660323 0.0496037 0)
(0.652469 0.0533941 0)
(0.644063 0.0573827 0)
(0.635083 0.0615847 0)
(0.625506 0.066016 0)
(0.615305 0.0706942 0)
(0.604454 0.0756372 0)
(0.59292 0.0808643 0)
(0.580672 0.086395 0)
(0.567673 0.0922497 0)
(0.553884 0.0984482 0)
(0.53926 0.105011 0)
(0.523756 0.111955 0)
(0.507318 0.119299 0)
(0.489891 0.127055 0)
(0.471412 0.135233 0)
(0.451813 0.143836 0)
(0.431021 0.152856 0)
(0.408955 0.162279 0)
(0.385529 0.172067 0)
(0.360652 0.182171 0)
(0.334231 0.192509 0)
(0.306174 0.202973 0)
(0.276389 0.213414 0)
(0.244816 0.223637 0)
(0.211403 0.233402 0)
(0.176188 0.242404 0)
(0.139118 0.250323 0)
(0.101046 0.256754 0)
(0.0595851 0.261524 0)
(0.0235149 0.26388 0)
(2.59635 0.000155691 0)
(1.63354 0.00200174 0)
(0.505311 0.00840881 0)
(0.554062 0.00995324 0)
(0.656192 0.0113765 0)
(0.722555 0.0132052 0)
(0.735983 0.0153125 0)
(0.729527 0.017495 0)
(0.720137 0.0198352 0)
(0.713126 0.0223274 0)
(0.709259 0.0249556 0)
(0.706239 0.0277127 0)
(0.702708 0.0306004 0)
(0.698443 0.0336237 0)
(0.693609 0.0367887 0)
(0.688328 0.040102 0)
(0.682618 0.0435716 0)
(0.676452 0.0472068 0)
(0.669802 0.0510188 0)
(0.662648 0.0550202 0)
(0.654973 0.0592252 0)
(0.646759 0.0636493 0)
(0.637987 0.0683095 0)
(0.628633 0.0732241 0)
(0.618673 0.0784126 0)
(0.60808 0.0838959 0)
(0.596825 0.0896959 0)
(0.584874 0.0958354 0)
(0.572192 0.102338 0)
(0.558741 0.109228 0)
(0.544475 0.116528 0)
(0.529347 0.124264 0)
(0.513303 0.132455 0)
(0.496285 0.141121 0)
(0.478224 0.150278 0)
(0.459048 0.159934 0)
(0.438674 0.17009 0)
(0.417009 0.180737 0)
(0.393955 0.191844 0)
(0.369396 0.203365 0)
(0.343216 0.215223 0)
(0.31529 0.227303 0)
(0.285489 0.239451 0)
(0.2537 0.251446 0)
(0.219825 0.263016 0)
(0.18384 0.273805 0)
(0.145638 0.28339 0)
(0.106106 0.291246 0)
(0.0627951 0.297066 0)
(0.024729 0.299906 0)
(2.59748 0.000164879 0)
(1.63635 0.00217187 0)
(0.507406 0.00910688 0)
(0.554296 0.0108063 0)
(0.656528 0.0123739 0)
(0.723182 0.0143641 0)
(0.736771 0.0166874 0)
(0.730433 0.0190987 0)
(0.721195 0.0216928 0)
(0.714323 0.0244551 0)
(0.710581 0.0273641 0)
(0.707683 0.0304124 0)
(0.704278 0.0336028 0)
(0.700145 0.036941 0)
(0.695449 0.0404334 0)
(0.690313 0.0440869 0)
(0.684757 0.0479101 0)
(0.678755 0.0519135 0)
(0.67228 0.0561095 0)
(0.665315 0.0605122 0)
(0.657843 0.0651374 0)
(0.649849 0.0700024 0)
(0.641314 0.0751262 0)
(0.632216 0.0805295 0)
(0.622532 0.0862341 0)
(0.612236 0.0922638 0)
(0.6013 0.0986435 0)
(0.589692 0.1054 0)
(0.577378 0.112559 0)
(0.564319 0.120152 0)
(0.55047 0.128204 0)
(0.535785 0.136747 0)
(0.520207 0.145807 0)
(0.503675 0.155411 0)
(0.486118 0.165581 0)
(0.467457 0.176338 0)
(0.447602 0.187688 0)
(0.426447 0.199632 0)
(0.403875 0.212154 0)
(0.379754 0.225215 0)
(0.353932 0.238749 0)
(0.32625 0.252643 0)
(0.296525 0.266742 0)
(0.264586 0.280814 0)
(0.230265 0.29454 0)
(0.193464 0.307508 0)
(0.153973 0.319198 0)
(0.112636 0.32893 0)
(0.066942 0.336199 0)
(0.0262955 0.339747 0)
(2.59874 0.000170213 0)
(1.63949 0.00233364 0)
(0.509737 0.00975403 0)
(0.554571 0.0116114 0)
(0.656906 0.0133281 0)
(0.723889 0.0154714 0)
(0.737681 0.0180208 0)
(0.731479 0.0206675 0)
(0.722422 0.0235243 0)
(0.715708 0.0265674 0)
(0.712106 0.0297676 0)
(0.709344 0.0331167 0)
(0.70608 0.0366186 0)
(0.702095 0.0402797 0)
(0.697554 0.0441064 0)
(0.692581 0.0481063 0)
(0.687198 0.0522887 0)
(0.68138 0.0566652 0)
(0.675103 0.0612496 0)
(0.66835 0.0660576 0)
(0.661108 0.0711065 0)
(0.653362 0.0764158 0)
(0.645095 0.0820064 0)
(0.636287 0.0879015 0)
(0.626916 0.0941254 0)
(0.616958 0.100705 0)
(0.606387 0.107668 0)
(0.595172 0.115046 0)
(0.583281 0.122869 0)
(0.570674 0.131171 0)
(0.55731 0.139985 0)
(0.54314 0.149348 0)
(0.528109 0.159295 0)
(0.512153 0.16986 0)
(0.495199 0.181076 0)
(0.477164 0.192973 0)
(0.457947 0.205574 0)
(0.437435 0.218892 0)
(0.415491 0.232928 0)
(0.391963 0.247659 0)
(0.366665 0.263038 0)
(0.339392 0.278969 0)
(0.309906 0.295305 0)
(0.277948 0.311816 0)
(0.243253 0.328166 0)
(0.205601 0.343876 0)
(0.164654 0.3583 0)
(0.121176 0.370561 0)
(0.0725095 0.379864 0)
(0.0284953 0.384475 0)
(2.60014 0.000178152 0)
(1.64296 0.00247591 0)
(0.512304 0.0103546 0)
(0.55489 0.0123502 0)
(0.657332 0.0141982 0)
(0.724688 0.0165111 0)
(0.73873 0.0192849 0)
(0.73269 0.0221772 0)
(0.723842 0.0253136 0)
(0.717306 0.0286504 0)
(0.713858 0.0321525 0)
(0.711247 0.0358124 0)
(0.708139 0.0396349 0)
(0.704319 0.0436273 0)
(0.699949 0.0477959 0)
(0.695157 0.0521487 0)
(0.689965 0.0566956 0)
(0.684352 0.0614499 0)
(0.678296 0.0664261 0)
(0.671781 0.0716421 0)
(0.664796 0.0771165 0)
(0.657328 0.0828712 0)
(0.649362 0.088929 0)
(0.64088 0.0953158 0)
(0.631862 0.102058 0)
(0.622287 0.109187 0)
(0.612129 0.116734 0)
(0.601361 0.124732 0)
(0.589951 0.133218 0)
(0.577863 0.142231 0)
(0.565056 0.151811 0)
(0.551483 0.162001 0)
(0.53709 0.172845 0)
(0.521813 0.184387 0)
(0.505577 0.196673 0)
(0.488296 0.209746 0)
(0.469864 0.223646 0)
(0.450157 0.238407 0)
(0.429026 0.254054 0)
(0.406293 0.27059 0)
(0.381741 0.287997 0)
(0.355116 0.306213 0)
(0.326115 0.325117 0)
(0.294384 0.344502 0)
(0.259521 0.364038 0)
(0.221133 0.383211 0)
(0.178642 0.40125 0)
(0.13261 0.417056 0)
(0.0800922 0.429396 0)
(0.0315273 0.435744 0)
(2.60166 0.000188014 0)
(1.64677 0.00259323 0)
(0.515137 0.0108858 0)
(0.555258 0.0129935 0)
(0.657831 0.0149536 0)
(0.725621 0.0174527 0)
(0.739951 0.0204563 0)
(0.734113 0.0236063 0)
(0.725507 0.0270388 0)
(0.719164 0.0306835 0)
(0.715883 0.0344991 0)
(0.713436 0.0384789 0)
(0.710501 0.0426292 0)
(0.706859 0.0469586 0)
(0.702677 0.0514732 0)
(0.698082 0.0561817 0)
(0.6931 0.0610951 0)
(0.687712 0.0662279 0)
(0.681898 0.0715964 0)
(0.675645 0.0772199 0)
(0.668944 0.0831192 0)
(0.661784 0.089318 0)
(0.654152 0.0958413 0)
(0.646033 0.102717 0)
(0.63741 0.109976 0)
(0.628262 0.117651 0)
(0.618569 0.125777 0)
(0.608303 0.134393 0)
(0.597438 0.143539 0)
(0.585939 0.15326 0)
(0.573769 0.163604 0)
(0.560883 0.17462 0)
(0.547228 0.186363 0)
(0.532745 0.198889 0)
(0.517358 0.212258 0)
(0.500981 0.22653 0)
(0.483505 0.241767 0)
(0.464803 0.258029 0)
(0.444714 0.27537 0)
(0.423039 0.293836 0)
(0.399537 0.31345 0)
(0.373901 0.33421 0)
(0.345755 0.356051 0)
(0.314639 0.37882 0)
(0.279982 0.402283 0)
(0.241129 0.425903 0)
(0.197198 0.448796 0)
(0.148341 0.469688 0)
(0.0910104 0.486705 0)
(0.0361566 0.496114 0)
(2.60331 0.000194154 0)
(1.65091 0.00268307 0)
(0.518218 0.0112972 0)
(0.555678 0.0135012 0)
(0.658417 0.015568 0)
(0.726716 0.018253 0)
(0.741382 0.0215103 0)
(0.735787 0.0249344 0)
(0.727458 0.0286799 0)
(0.721325 0.0326535 0)
(0.718221 0.0368026 0)
(0.71595 0.0411192 0)
(0.713199 0.0456117 0)
(0.709751 0.0502891 0)
(0.705772 0.0551588 0)
(0.70139 0.0602296 0)
(0.696636 0.0655136 0)
(0.691493 0.0710263 0)
(0.685943 0.076786 0)
(0.679977 0.0828135 0)
(0.673588 0.0891322 0)
(0.666768 0.0957673 0)
(0.659505 0.102747 0)
(0.651787 0.110102 0)
(0.643601 0.117866 0)
(0.634928 0.126074 0)
(0.625751 0.134766 0)
(0.616048 0.143984 0)
(0.605794 0.153776 0)
(0.594959 0.16419 0)
(0.58351 0.175283 0)
(0.571407 0.187112 0)
(0.558602 0.199744 0)
(0.545038 0.213246 0)
(0.530647 0.227696 0)
(0.515343 0.243173 0)
(0.499025 0.259765 0)
(0.481561 0.277563 0)
(0.462791 0.296662 0)
(0.442506 0.317161 0)
(0.420447 0.339134 0)
(0.396269 0.362693 0)
(0.369521 0.387864 0)
(0.339679 0.414526 0)
(0.305957 0.442721 0)
(0.267307 0.472038 0)
(0.222425 0.50164 0)
(0.170705 0.530083 0)
(0.107366 0.554893 0)
(0.0434835 0.570073 0)
(2.60507 0.000196799 0)
(1.65532 0.00273394 0)
(0.521526 0.0115397 0)
(0.556163 0.013825 0)
(0.659113 0.0159929 0)
(0.728015 0.0188662 0)
(0.743078 0.0223952 0)
(0.737764 0.0261113 0)
(0.729756 0.0301876 0)
(0.723853 0.0345034 0)
(0.720937 0.0389931 0)
(0.718851 0.0436489 0)
(0.716295 0.0484834 0)
(0.713053 0.0535077 0)
(0.709289 0.0587309 0)
(0.705135 0.0641623 0)
(0.700623 0.0698153 0)
(0.695742 0.0757066 0)
(0.690477 0.0818564 0)
(0.684821 0.0882868 0)
(0.67877 0.0950229 0)
(0.672318 0.102092 0)
(0.665457 0.109524 0)
(0.658178 0.117352 0)
(0.650471 0.125612 0)
(0.642321 0.134343 0)
(0.633715 0.143589 0)
(0.624635 0.153395 0)
(0.61506 0.163814 0)
(0.604967 0.174902 0)
(0.594328 0.186721 0)
(0.58311 0.19934 0)
(0.571272 0.212834 0)
(0.558766 0.227288 0)
(0.545531 0.242794 0)
(0.531493 0.259455 0)
(0.516557 0.277388 0)
(0.500607 0.296723 0)
(0.48349 0.317594 0)
(0.464991 0.34021 0)
(0.444882 0.364637 0)
(0.422812 0.391077 0)
(0.398174 0.419909 0)
(0.37052 0.451191 0)
(0.338957 0.485059 0)
(0.301913 0.521522 0)
(0.257461 0.560247 0)
(0.203864 0.600021 0)
(0.133824 0.638303 0)
(0.056561 0.666344 0)
(2.6069 0.000195278 0)
(1.65996 0.00273472 0)
(0.525026 0.011539 0)
(0.556738 0.0138902 0)
(0.659956 0.0161669 0)
(0.729564 0.0192567 0)
(0.745092 0.0231068 0)
(0.740105 0.0271743 0)
(0.732452 0.0316477 0)
(0.726787 0.0363591 0)
(0.724057 0.0412298 0)
(0.722159 0.0462557 0)
(0.719808 0.0514548 0)
(0.716784 0.0568419 0)
(0.71325 0.0624257 0)
(0.709339 0.0682169 0)
(0.70509 0.0742311 0)
(0.700492 0.0804876 0)
(0.695536 0.0870092 0)
(0.690216 0.0938209 0)
(0.684531 0.10095 0)
(0.678478 0.108427 0)
(0.672054 0.116284 0)
(0.665253 0.124557 0)
(0.658067 0.133284 0)
(0.650488 0.142508 0)
(0.642506 0.152276 0)
(0.634108 0.162638 0)
(0.625281 0.173651 0)
(0.616008 0.185377 0)
(0.606269 0.197885 0)
(0.59604 0.211252 0)
(0.58529 0.225566 0)
(0.573985 0.240923 0)
(0.562075 0.257438 0)
(0.549505 0.275234 0)
(0.536202 0.294443 0)
(0.522059 0.31529 0)
(0.507003 0.33786 0)
(0.490756 0.362403 0)
(0.473067 0.389351 0)
(0.453928 0.418929 0)
(0.432717 0.451622 0)
(0.408631 0.48793 0)
(0.380863 0.528302 0)
(0.347866 0.573468 0)
(0.306996 0.624248 0)
(0.255019 0.680977 0)
(0.180396 0.743022 0)
(0.0832319 0.80318 0)
(2.60879 0.000140211 0)
(1.66473 0.00273122 0)
(0.528619 0.0112032 0)
(0.557428 0.0135491 0)
(0.661004 0.0159208 0)
(0.731462 0.0192098 0)
(0.747559 0.0233831 0)
(0.742964 0.0278057 0)
(0.735711 0.0326798 0)
(0.730279 0.0377804 0)
(0.727723 0.0430196 0)
(0.726005 0.0484053 0)
(0.723855 0.0539663 0)
(0.721048 0.0597194 0)
(0.717743 0.0656732 0)
(0.714077 0.0718377 0)
(0.710094 0.0782284 0)
(0.705789 0.0848658 0)
(0.701155 0.0917737 0)
(0.696189 0.0989781 0)
(0.690894 0.106508 0)
(0.68527 0.114395 0)
(0.679317 0.122672 0)
(0.673031 0.131379 0)
(0.66641 0.140555 0)
(0.659451 0.150246 0)
(0.652148 0.160503 0)
(0.644496 0.171379 0)
(0.636488 0.182936 0)
(0.628115 0.195242 0)
(0.619368 0.208373 0)
(0.610234 0.222415 0)
(0.600697 0.237465 0)
(0.590739 0.25363 0)
(0.580332 0.271051 0)
(0.569424 0.289906 0)
(0.558037 0.310217 0)
(0.546004 0.332261 0)
(0.533217 0.356426 0)
(0.519855 0.382914 0)
(0.505637 0.412247 0)
(0.490268 0.44486 0)
(0.473494 0.481244 0)
(0.454822 0.522383 0)
(0.433609 0.569453 0)
(0.408683 0.624273 0)
(0.377653 0.689739 0)
(0.336612 0.770926 0)
(0.270949 0.878185 0)
(0.146442 1.04341 0)
(2.61116 7.96697e-05 0)
(1.67051 0.00260112 0)
(0.532353 0.0103786 0)
(0.557936 0.0128143 0)
(0.662137 0.0154306 0)
(0.733809 0.0191841 0)
(0.750732 0.0239821 0)
(0.746689 0.0290415 0)
(0.739971 0.034559 0)
(0.734831 0.040227 0)
(0.732507 0.0459561 0)
(0.73106 0.0517819 0)
(0.729225 0.0577549 0)
(0.726759 0.063902 0)
(0.723815 0.0702378 0)
(0.720534 0.0767767 0)
(0.716966 0.0835394 0)
(0.713115 0.0905516 0)
(0.708977 0.0978416 0)
(0.704554 0.10544 0)
(0.699852 0.113377 0)
(0.694876 0.121688 0)
(0.689631 0.13041 0)
(0.684122 0.139581 0)
(0.678351 0.149245 0)
(0.672323 0.159449 0)
(0.666042 0.170245 0)
(0.659513 0.181692 0)
(0.652741 0.193852 0)
(0.645731 0.206798 0)
(0.638491 0.220611 0)
(0.631026 0.235382 0)
(0.623341 0.251237 0)
(0.615462 0.268261 0)
(0.607451 0.286545 0)
(0.59908 0.306341 0)
(0.5904 0.327875 0)
(0.58189 0.35133 0)
(0.573405 0.377136 0)
(0.564723 0.405653 0)
(0.555965 0.437232 0)
(0.547217 0.472579 0)
(0.538668 0.512534 0)
(0.530546 0.558382 0)
(0.523391 0.611906 0)
(0.518381 0.67587 0)
(0.518236 0.754738 0)
(0.53116 0.855939 0)
(0.587133 0.990652 0)
(0.65721 1.18533 0)
(2.61368 5.92815e-05 0)
(1.67665 0.00194174 0)
(0.536874 0.00776123 0)
(0.559572 0.00992201 0)
(0.664782 0.0125035 0)
(0.738199 0.0166785 0)
(0.7562 0.0222091 0)
(0.752758 0.0280489 0)
(0.746501 0.0343801 0)
(0.741429 0.0407685 0)
(0.739121 0.0471456 0)
(0.737775 0.0535874 0)
(0.73612 0.0601589 0)
(0.733878 0.0668864 0)
(0.731187 0.073781 0)
(0.728195 0.0808574 0)
(0.724962 0.0881391 0)
(0.721496 0.0956544 0)
(0.717798 0.103434 0)
(0.713871 0.111509 0)
(0.709726 0.119914 0)
(0.705371 0.128684 0)
(0.700815 0.137859 0)
(0.696067 0.14748 0)
(0.691139 0.157592 0)
(0.68604 0.168247 0)
(0.680784 0.179497 0)
(0.675387 0.191405 0)
(0.669866 0.204035 0)
(0.66424 0.217467 0)
(0.658531 0.231804 0)
(0.652802 0.247065 0)
(0.647032 0.263366 0)
(0.641147 0.280924 0)
(0.635385 0.29987 0)
(0.629959 0.320338 0)
(0.62476 0.342674 0)
(0.619857 0.367075 0)
(0.615478 0.393731 0)
(0.611779 0.423097 0)
(0.609035 0.455693 0)
(0.607721 0.492172 0)
(0.608506 0.53345 0)
(0.612482 0.580678 0)
(0.621473 0.635519 0)
(0.638798 0.70013 0)
(0.670466 0.77743 0)
(0.725487 0.870851 0)
(0.836643 0.980422 0)
(0.984506 1.09499 0)
(2.61513 7.01339e-05 0)
(1.68021 0.00130398 0)
(0.53973 0.00545605 0)
(0.561321 0.00790726 0)
(0.668133 0.0110996 0)
(0.743964 0.0164619 0)
(0.763411 0.0232596 0)
(0.7607 0.0301942 0)
(0.754912 0.0372552 0)
(0.749835 0.0440616 0)
(0.747537 0.0507364 0)
(0.746327 0.0574568 0)
(0.744877 0.0643029 0)
(0.742858 0.0712954 0)
(0.740404 0.0784404 0)
(0.737674 0.0857613 0)
(0.734741 0.0932913 0)
(0.73162 0.101065 0)
(0.728315 0.109117 0)
(0.724833 0.117479 0)
(0.721188 0.126185 0)
(0.717394 0.135272 0)
(0.713467 0.144776 0)
(0.709422 0.154737 0)
(0.705278 0.1652 0)
(0.701054 0.176212 0)
(0.696773 0.187824 0)
(0.692458 0.200103 0)
(0.688148 0.213101 0)
(0.683913 0.22685 0)
(0.679659 0.241461 0)
(0.675422 0.257081 0)
(0.671534 0.27377 0)
(0.668035 0.291692 0)
(0.664841 0.311042 0)
(0.66211 0.331903 0)
(0.660015 0.354447 0)
(0.658732 0.378938 0)
(0.658542 0.405667 0)
(0.659812 0.434979 0)
(0.663009 0.467329 0)
(0.668879 0.503236 0)
(0.678487 0.543361 0)
(0.693312 0.588467 0)
(0.715739 0.639412 0)
(0.749225 0.697038 0)
(0.799356 0.761617 0)
(0.871736 0.832195 0)
(0.984671 0.903815 0)
(1.12032 0.956647 0)
(2.61634 3.8372e-05 0)
(1.68328 -0.0015299 0)
(0.545092 -0.00484805 0)
(0.567291 -0.0030514 0)
(0.675903 0.00099403 0)
(0.7541 0.00904702 0)
(0.774426 0.0185807 0)
(0.77149 0.0278647 0)
(0.765107 0.0364513 0)
(0.759438 0.0442529 0)
(0.756961 0.0517451 0)
(0.755836 0.0592235 0)
(0.754553 0.0667658 0)
(0.752719 0.0743916 0)
(0.750477 0.0820961 0)
(0.748015 0.0899153 0)
(0.745413 0.0978944 0)
(0.742682 0.106075 0)
(0.739819 0.114494 0)
(0.736832 0.12319 0)
(0.733734 0.132201 0)
(0.730543 0.141566 0)
(0.727275 0.151326 0)
(0.723952 0.161521 0)
(0.720598 0.172198 0)
(0.717239 0.183417 0)
(0.713923 0.195199 0)
(0.71067 0.207586 0)
(0.707439 0.220682 0)
(0.704355 0.234563 0)
(0.701632 0.249281 0)
(0.699236 0.265002 0)
(0.697181 0.281814 0)
(0.695634 0.299735 0)
(0.694699 0.318919 0)
(0.694538 0.339521 0)
(0.695372 0.361712 0)
(0.697457 0.38569 0)
(0.701147 0.411681 0)
(0.706875 0.43994 0)
(0.715247 0.470748 0)
(0.727073 0.504436 0)
(0.74349 0.541283 0)
(0.765992 0.58157 0)
(0.796634 0.625377 0)
(0.838108 0.672425 0)
(0.894048 0.721658 0)
(0.967151 0.770487 0)
(1.06834 0.814693 0)
(1.18137 0.84025 0)
(2.61201 0.00229023 0)
(1.67325 -0.00676687 0)
(0.54964 -0.0137879 0)
(0.583079 -0.00801649 0)
(0.69614 -0.000389338 0)
(0.777905 0.00988536 0)
(0.798513 0.0200788 0)
(0.794093 0.0297252 0)
(0.785762 0.0382386 0)
(0.778718 0.0460991 0)
(0.775603 0.0537796 0)
(0.774122 0.0614367 0)
(0.772537 0.0691048 0)
(0.770397 0.0768159 0)
(0.767862 0.0846226 0)
(0.765173 0.0925778 0)
(0.762412 0.100726 0)
(0.759585 0.109105 0)
(0.75669 0.117747 0)
(0.753739 0.126686 0)
(0.750751 0.135955 0)
(0.747744 0.145585 0)
(0.74474 0.155612 0)
(0.741766 0.166066 0)
(0.738874 0.17696 0)
(0.736046 0.18835 0)
(0.733279 0.200319 0)
(0.730735 0.212883 0)
(0.72851 0.22611 0)
(0.726585 0.240105 0)
(0.725023 0.2549 0)
(0.723931 0.270522 0)
(0.723396 0.287081 0)
(0.723563 0.304671 0)
(0.724595 0.323394 0)
(0.726674 0.343385 0)
(0.73005 0.36476 0)
(0.735001 0.387673 0)
(0.741904 0.412257 0)
(0.751225 0.438662 0)
(0.763561 0.467017 0)
(0.779686 0.497427 0)
(0.800573 0.529912 0)
(0.827473 0.564355 0)
(0.861909 0.600412 0)
(0.905713 0.637322 0)
(0.961171 0.67375 0)
(1.02989 0.707361 0)
(1.11625 0.735229 0)
(1.20909 0.748978 0)
(2.60374 0.00791026 0)
(1.64304 -0.0735187 0)
(0.584948 -0.0725636 0)
(0.623954 -0.0457618 0)
(0.731395 -0.00576748 0)
(0.80902 0.0165214 0)
(0.827022 0.0266232 0)
(0.821065 0.0352833 0)
(0.811551 0.0426486 0)
(0.80419 0.0507638 0)
(0.800816 0.0592941 0)
(0.798957 0.0677264 0)
(0.796975 0.0759371 0)
(0.794533 0.0840062 0)
(0.791809 0.0920705 0)
(0.788977 0.100209 0)
(0.786097 0.10847 0)
(0.783168 0.116894 0)
(0.78019 0.125524 0)
(0.777176 0.134408 0)
(0.774147 0.143592 0)
(0.771128 0.153103 0)
(0.768143 0.162957 0)
(0.765183 0.173206 0)
(0.762327 0.183917 0)
(0.759716 0.195099 0)
(0.757337 0.206808 0)
(0.755188 0.219101 0)
(0.75339 0.232 0)
(0.752016 0.24556 0)
(0.751141 0.259853 0)
(0.750875 0.274942 0)
(0.751348 0.290889 0)
(0.752712 0.307774 0)
(0.755143 0.325656 0)
(0.758839 0.344623 0)
(0.764051 0.364744 0)
(0.771079 0.386099 0)