/*--------------------------------*- C++ -*----------------------------------*\
| =========                 |                                                 |
| \\      /  F ield         | OpenFOAM: The Open Source CFD Toolbox           |
|  \\    /   O peration     | Version:  2412                                  |
|   \\  /    A nd           | Website:  www.openfoam.com                      |
|    \\/     M anipulation  |                                                 |
\*---------------------------------------------------------------------------*/
FoamFile
{
    version     2.0;
    format      ascii;
    arch        "LSB;label=32;scalar=64";
    class       volScalarField;
    location    "5.5";
    object      Ma;
}
// * * * * * * * * * * * * * * * * * * * * * * * * * * * * * * * * * * * * * //

dimensions      [0 0 0 0 0 0 0];

internalField   nonuniform List<scalar> 
7000
(
3.00001
3.00001
3.00001
3.00001
3.00001
3.00001
3.00001
3
3
2.99998
2.99998
2.99987
2.99984
2.99922
2.99899
2.99566
2.99404
2.97892
2.95495
2.84562
2.69029
2.12109
1.23439
0.603431
0.293702
0.357275
0.415191
0.429258
0.421033
0.403986
0.387533
0.37484
0.362691
0.349083
0.33412
0.317869
0.300723
0.282612
0.263827
0.244408
0.224278
0.203408
0.181715
0.159426
0.136662
0.113259
0.089387
0.065238
0.0393741
0.0190424
3.00001
3.00001
3.00001
3.00001
3.00001
3.00001
3.00001
3
3
2.99998
2.99998
2.99987
2.99986
2.99925
2.99902
2.99591
2.99361
2.97825
2.95484
2.84976
2.68822
2.12427
1.23782
0.610781
0.302052
0.362163
0.417516
0.430069
0.420987
0.403702
0.387234
0.374576
0.362437
0.348889
0.333997
0.317837
0.3008
0.282795
0.264096
0.244742
0.224662
0.203842
0.18221
0.160009
0.13737
0.11416
0.0906093
0.0670926
0.0428453
0.0264012
3.00001
3.00001
3.00001
3.00001
3.00001
3.00001
3.00001
3
3
2.99998
2.99998
2.99988
2.99982
2.99925
2.99897
2.99568
2.99403
2.97916
2.95549
2.84723
2.69202
2.12623
1.23865
0.605254
0.292491
0.356715
0.415068
0.429365
0.421368
0.404557
0.388198
0.375396
0.363066
0.349472
0.334565
0.31843
0.301456
0.283535
0.264935
0.245695
0.225758
0.205122
0.183738
0.161867
0.139671
0.11709
0.0944904
0.0725796
0.051563
0.0396598
3.00001
3.00001
3.00001
3.00001
3.00001
3.00001
3.00001
3
3
2.99998
2.99998
2.99988
2.99982
2.99929
2.99894
2.99599
2.9933
2.97698
2.95791
2.85197
2.69003
2.17113
1.24563
0.613911
0.29804
0.360568
0.417792
0.431472
0.423027
0.405989
0.389363
0.376256
0.363745
0.350195
0.335336
0.319295
0.302457
0.2847
0.266289
0.247259
0.22758
0.207264
0.186287
0.164945
0.143448
0.121825
0.100602
0.0807728
0.0630926
0.0542786
3.00001
3.00001
3.00001
3.00001
3.00001
3.00001
3.00001
3
3
2.99999
2.99998
2.99988
2.99986
2.99926
2.99905
2.99616
2.9938
2.97886
2.95665
2.85308
2.69412
2.13799
1.25248
0.616717
0.29727
0.360424
0.418467
0.432461
0.424178
0.407309
0.390667
0.377417
0.364873
0.351385
0.336568
0.320601
0.303918
0.286376
0.268228
0.249518
0.230215
0.210371
0.189975
0.169359
0.148778
0.128372
0.108788
0.0911742
0.0763992
0.0696631
3.00001
3.00001
3.00001
3.00001
3.00001
3.00001
3.00001
3.00001
3
2.99999
2.99999
2.99991
2.99988
2.99931
2.99922
2.99585
2.99445
2.97575
2.95891
2.85407
2.69063
2.16515
1.26622
0.618266
0.294481
0.359863
0.419205
0.433843
0.425918
0.409212
0.392326
0.378766
0.366086
0.352571
0.337794
0.321998
0.305571
0.28839
0.270658
0.252441
0.233693
0.214487
0.194857
0.175163
0.155715
0.13672
0.118916
0.103472
0.0911535
0.0858934
3.00001
3.00001
3.00001
3.00001
3.00001
3.00001
3.00001
3
3
2.99999
2.99999
2.99989
2.99987
2.99928
2.99911
2.99594
2.99381
2.9764
2.96193
2.8796
2.6866
2.18743
1.28145
0.627821
0.292947
0.359417
0.420583
0.436229
0.428636
0.411791
0.394222
0.380072
0.367122
0.353536
0.338874
0.323359
0.307367
0.290687
0.273562
0.255982
0.237993
0.219616
0.200938
0.182369
0.16425
0.146831
0.130868
0.117457
0.107151
0.103011
3.00001
3.00001
3.00001
3.00001
3.00001
3.00001
3.00001
3
3
2.99999
2.99998
2.99988
2.99986
2.99929
2.9991
2.99614
2.99397
2.97704
2.96241
2.84634
2.71312
2.17309
1.2977
0.632581
0.293953
0.361754
0.424183
0.440143
0.432009
0.414208
0.395454
0.38071
0.367593
0.354108
0.33977
0.324726
0.309336
0.293351
0.276975
0.260244
0.243144
0.22581
0.208288
0.191012
0.174355
0.158621
0.144489
0.132933
0.124364
0.121108
3.00001
3.00001
3.00001
3.00001
3.00001
3.00001
3.00001
3
3
2.99999
2.99998
2.99989
2.99987
2.9993
2.99913
2.99652
2.99423
2.97817
2.96192
2.86377
2.70304
2.21694
1.3073
0.641672
0.292092
0.362469
0.426882
0.443341
0.434618
0.415918
0.396263
0.381123
0.367979
0.354752
0.340846
0.326404
0.311703
0.296528
0.281039
0.265279
0.249261
0.233109
0.216917
0.201111
0.186071
0.17205
0.159729
0.149906
0.142764
0.14024
3.00001
3.00001
3.00001
3.00001
3.00001
3.00001
3.00001
3.00001
3.00001
3
2.99999
2.9999
2.99987
2.99931
2.99912
2.99595
2.99452
2.97729
2.96465
2.89171
2.7045
2.22966
1.3369
0.655466
0.296408
0.366022
0.430507
0.44621
0.436135
0.416415
0.396172
0.381072
0.368279
0.355549
0.342242
0.328501
0.3146
0.300305
0.285822
0.271152
0.256377
0.241582
0.226871
0.212695
0.199361
0.187135
0.176571
0.168339
0.162529
0.160641
3.00001
3.00001
3.00001
3.00001
3.00001
3.00001
3.00001
3.00001
3.00001
2.99999
2.99999
2.99993
2.99991
2.99937
2.99933
2.99586
2.99504
2.9773
2.96542
2.86092
2.72009
2.22337
1.36327
0.663295
0.296941
0.367985
0.432594
0.44732
0.435986
0.415653
0.395489
0.380863
0.368678
0.356584
0.343988
0.331017
0.318
0.304672
0.291292
0.277878
0.264445
0.251195
0.238148
0.22573
0.214249
0.203867
0.195076
0.18837
0.183723
0.18242
3.00001
3.00001
3.00001
3.00001
3.00001
3.00001
3.00001
3.00001
3.00001
3
2.99999
2.99991
2.9999
2.99935
2.99922
2.99608
2.99494
2.9777
2.96643
2.86509
2.72018
2.24193
1.3854
0.678485
0.300819
0.370435
0.433706
0.447188
0.434849
0.414525
0.394908
0.380935
0.369398
0.35795
0.346088
0.333949
0.321879
0.309655
0.297475
0.285469
0.273587
0.261997
0.250807
0.240307
0.230787
0.222353
0.215331
0.210193
0.206751
0.206025
3.00001
3.00001
3.00001
3.00001
3.00001
3.00001
3.00001
3.00001
3.00001
3
3
2.99995
2.99991
2.99942
2.99937
2.99627
2.99458
2.97752
2.96689
2.86778
2.72288
2.25401
1.40371
0.694821
0.304745
0.371545
0.43282
0.445382
0.432793
0.413112
0.394527
0.381412
0.370549
0.359811
0.348758
0.337573
0.326562
0.315551
0.304714
0.294166
0.283938
0.274127
0.264875
0.256497
0.24908
0.242696
0.237593
0.234023
0.231778
0.231671
3.00001
3.00001
3.00001
3.00001
3.00001
3.00001
3.00001
3.00001
3.00001
3.00001
3.00001
3.00002
2.99991
2.9997
2.99938
2.99649
2.99507
2.97794
2.96523
2.87322
2.72289
2.30054
1.42565
0.711073
0.305931
0.369515
0.429829
0.442279
0.430206
0.411752
0.394605
0.38251
0.372491
0.362651
0.352624
0.342552
0.33272
0.323013
0.313587
0.304562
0.295989
0.288047
0.280703
0.274433
0.269308
0.265196
0.262156
0.260418
0.259618
0.260262
3.00001
3.00001
3.00001
3.00001
3.00001
3.00001
3.00001
3.00001
3.00001
3.00002
3.00003
3.00006
3.00003
3.00007
2.99941
2.99742
2.9939
2.97832
2.96641
2.88062
2.72903
2.31594
1.43707
0.723522
0.308325
0.36935
0.428254
0.440403
0.428768
0.41151
0.395828
0.384877
0.375948
0.367169
0.358207
0.349194
0.340486
0.33208
0.324096
0.31667
0.309905
0.303886
0.298751
0.294589
0.291746
0.290119
0.28952
0.289917
0.290767
0.292385
3.00001
3.00001
3.00001
3.00001
3.00001
3.00001
3.00001
3.00001
3.00001
3.00003
3.00004
3.00012
3.00013
3.00043
2.99975
2.99874
2.99153
2.98417
2.96513
2.88342
2.74533
2.31088
1.45366
0.730308
0.303824
0.365816
0.425928
0.438627
0.428211
0.412625
0.398784
0.38912
0.381147
0.373344
0.365433
0.357587
0.350193
0.343131
0.336636
0.33078
0.325766
0.321787
0.318837
0.317291
0.316986
0.318045
0.320296
0.323572
0.326915
0.330133
3.00001
3.00001
3.00001
3.00001
3.00001
3.00001
3.00001
3.00001
3.00001
3.00003
3.00004
3.00015
3.00014
3.0007
2.99964
2.99858
2.98586
2.98602
2.9473
2.9732
2.74759
2.32123
1.45201
0.719147
0.292669
0.361899
0.424189
0.437966
0.429665
0.416119
0.403731
0.395063
0.388109
0.381455
0.374723
0.368064
0.361886
0.356256
0.351259
0.347149
0.344001
0.342116
0.341521
0.342418
0.345212
0.349637
0.355548
0.362615
0.369664
0.37566
3.00001
3.00001
3.00001
3.00001
3.00001
3.00001
3.00001
3.00001
3.00001
3.00003
3.00003
3.00015
3.00012
3.00081
2.99949
2.99868
2.98227
2.98505
2.91741
2.99982
2.79539
2.33551
1.44435
0.714446
0.28948
0.362059
0.424605
0.440089
0.433808
0.422041
0.410589
0.402739
0.396876
0.391379
0.385851
0.380469
0.375545
0.371246
0.36783
0.36545
0.364331
0.364749
0.366856
0.370838
0.37684
0.385442
0.396428
0.409361
0.423041
0.435399
3.00001
3.00001
3.00001
3.00001
3.00001
3.00001
3.00001
3.00001
3.00001
3.00002
3.00003
3.00011
3.00008
3.00064
2.99938
2.99876
2.98335
2.99024
2.9157
3.11048
2.78374
2.34486
1.46129
0.733381
0.292292
0.36479
0.426264
0.443911
0.44003
0.430045
0.419225
0.412322
0.407557
0.403183
0.398833
0.39472
0.391196
0.388393
0.386547
0.385922
0.38681
0.389437
0.394382
0.402068
0.412837
0.426485
0.44404
0.466254
0.491924
0.520608
3.00001
3.00001
3.00001
3.00001
3.00001
3.00001
3.00001
3.00001
3.00001
3.00001
3.00001
3.00004
2.99998
3.00036
2.99922
2.99884
2.98665
2.99568
2.92375
3.12703
2.80692
2.37258
1.49738
0.761849
0.298906
0.369266
0.427723
0.448996
0.447866
0.439423
0.429021
0.422722
0.418839
0.415554
0.412322
0.409487
0.407408
0.406341
0.406369
0.407763
0.410733
0.416048
0.424221
0.435831
0.451447
0.472521
0.499578
0.536503
0.588673
0.67994
3.00001
3.00001
3.00001
3.00001
3.00001
3.00001
3.00001
3.00001
3
3
2.99998
2.99998
2.99981
2.99978
2.99866
2.99822
2.99066
3.00015
2.93355
3.13657
2.82952
2.41141
1.55902
0.805756
0.316351
0.377554
0.430103
0.457092
0.458706
0.450923
0.440687
0.434337
0.431126
0.429029
0.427384
0.426464
0.426636
0.428142
0.430983
0.435483
0.442702
0.452499
0.465657
0.482582
0.505544
0.536082
0.578849
0.640045
0.736568
0.883614
3.00001
3.00001
3.00001
3.00001
3.00001
3.00001
3.00001
3.00001
3.00001
3.00001
3
3
2.99995
2.99993
2.99936
2.99917
2.99437
3.00406
2.9436
3.13799
2.85125
2.46151
1.63519
0.869611
0.34947
0.382913
0.432564
0.463866
0.467028
0.458401
0.448072
0.441779
0.439322
0.438425
0.438411
0.43963
0.442103
0.445956
0.4519
0.460316
0.47137
0.485511
0.503304
0.526355
0.555601
0.595183
0.647055
0.719611
0.824983
0.952497
3.00001
3.00001
3.00001
3.00001
3.00001
3.00001
3.00001
3.00001
3.00001
3.00001
3.00001
3.00003
3.00002
3.00004
2.99981
3.00017
2.99755
3.00665
2.95288
3.1374
2.87116
2.5114
1.71297
0.944724
0.386305
0.384567
0.434196
0.467288
0.470742
0.461931
0.4528
0.447819
0.446362
0.446513
0.447934
0.450522
0.454743
0.461261
0.470199
0.481591
0.495636
0.513147
0.534732
0.562061
0.595866
0.638862
0.694139
0.761651
0.854262
0.943492
3.00001
3.00001
3.00001
3.00001
3.00001
3.00001
3.00001
3.00001
3.00001
3.00001
3
3.00001
2.99993
3.00013
3.00021
3.00203
3.00093
3.0106
2.96346
3.13652
2.89449
2.56339
1.80009
1.02653
0.416104
0.380764
0.430458
0.466941
0.473248
0.467237
0.460767
0.457468
0.456877
0.458048
0.460281
0.463894
0.469841
0.478282
0.48892
0.501899
0.517629
0.536799
0.560014
0.588245
0.622938
0.664305
0.716423
0.774555
0.850178
0.921597
3.00001
3.00001
3.00001
3.00001
3.00001
3.00001
3.00001
3.00001
3.00001
3.00001
3.00001
3.00001
3.00004
3.00018
3.00034
3.002
3.0009
3.01472
2.97483
3.14221
2.91655
2.62104
1.8918
1.1147
0.447026
0.377085
0.426763
0.468458
0.479895
0.479035
0.476706
0.475759
0.476577
0.478452
0.481034
0.485197
0.491597
0.50025
0.510973
0.524447
0.540728
0.560333
0.583482
0.610612
0.642983
0.680476
0.725597
0.776763
0.83696
0.897235
3.00001
3.00001
3.00001
3.00001
3.00001
3.00001
3.00001
3.00001
3.00001
3
3
2.99998
2.99997
2.9999
2.99978
2.99957
2.99933
3.00123
2.99791
3.0637
2.92771
2.79709
2.04343
1.2602
0.504246
0.395061
0.436371
0.481919
0.498965
0.502863
0.503263
0.503089
0.504602
0.506818
0.5099
0.514564
0.52111
0.528954
0.538809
0.550882
0.566209
0.584354
0.606559
0.631903
0.661784
0.695509
0.734098
0.777082
0.826218
0.875586
3.00001
3.00001
3.00001
3.00001
3.00001
3.00001
3.00001
3.00001
3.00001
3
3
2.99998
2.99997
2.99976
2.99972
2.99819
2.99751
2.98667
2.99667
2.9185
3.06048
2.79973
2.2712
1.35238
0.712714
0.418297
0.454689
0.502727
0.528567
0.532432
0.529869
0.527912
0.528283
0.530692
0.534636
0.540808
0.548976
0.557549
0.56759
0.579085
0.593257
0.60972
0.629555
0.652491
0.679089
0.709248
0.743189
0.780863
0.821438
0.861857
3.00001
3.00001
3.00001
3.00001
3.00001
3.00001
3.00001
3.00001
3.00001
3.00001
3.00001
3
3
2.99997
2.99997
2.99967
2.99976
2.99511
3.00509
2.94474
3.137
2.84643
2.44413
1.62863
0.879192
0.41406
0.451591
0.49743
0.532358
0.538716
0.535069
0.533242
0.534808
0.539042
0.545584
0.554406
0.565067
0.57639
0.588879
0.602151
0.617173
0.633672
0.652184
0.673099
0.69638
0.722923
0.751787
0.7843
0.819005
0.853465
3.00001
3.00001
3.00001
3.00001
3.00001
3.00001
3.00001
3.00001
3.00001
3.00001
3.00001
3.00001
3.00003
3.00004
3.0002
3.00043
3.00177
3.00083
3.01194
2.96489
3.14761
2.88943
2.54518
1.80005
1.02592
0.448632
0.439498
0.485175
0.52181
0.529987
0.528697
0.529516
0.53354
0.540069
0.549159
0.561366
0.574944
0.588942
0.603453
0.618703
0.634528
0.652112
0.670425
0.691016
0.712373
0.73635
0.761654
0.789564
0.819087
0.848077
3.00001
3.00001
3.00001
3.00001
3.00001
3.00001
3.00001
3.00001
3.00001
3.00001
3
3
3
2.99997
2.99998
2.99998
3.00021
3.0007
3.00643
2.9988
3.05607
2.95575
2.75381
2.0065
1.20198
0.492293
0.440019
0.480694
0.516596
0.527482
0.529713
0.532879
0.538359
0.545927
0.556013
0.568994
0.583459
0.598454
0.613893
0.630225
0.646897
0.664843
0.683251
0.703141
0.723881
0.746151
0.769559
0.793753
0.819608
0.844249
3.00001
3.00001
3.00001
3.00001
3.00001
3.00001
3.00001
3.00001
3.00001
3.00001
3
3
2.99997
2.99997
2.99983
2.99978
2.99923
2.99844
2.99584
2.99091
2.97105
2.92714
2.68976
2.24102
1.40058
0.594227
0.438987
0.473278
0.511575
0.535858
0.546911
0.552061
0.555844
0.560835
0.568429
0.578893
0.591044
0.604355
0.618591
0.633926
0.650424
0.668155
0.686919
0.706539
0.727299
0.748698
0.770782
0.793343
0.816736
0.839085
3.00001
3.00001
3.00001
3.00001
3.00001
3.00001
3.00001
3.00001
3.00001
3.00001
3
3
2.99998
2.99997
2.99984
2.9998
2.99903
2.99882
2.99421
2.99137
2.96393
2.94811
2.74811
2.4625
1.67586
0.721921
0.456122
0.479817
0.521805
0.561116
0.576367
0.577977
0.576302
0.576148
0.579533
0.585768
0.594208
0.604837
0.617596
0.631749
0.647403
0.664298
0.682492
0.701755
0.722024
0.74285
0.76399
0.785619
0.807783
0.828595
3.00001
3.00001
3.00001
3.00001
3.00001
3.00001
3.00001
3.00001
3.00001
3.00001
3.00001
3
3
2.99999
2.99998
2.99999
2.99998
3.00055
2.99949
3.00753
2.9674
3.14406
2.86618
2.55532
1.79439
1.00304
0.445253
0.439414
0.49166
0.542605
0.561376
0.564879
0.564596
0.566084
0.570541
0.577212
0.585388
0.595684
0.608514
0.622726
0.638442
0.655306
0.673283
0.692249
0.711912
0.732159
0.752924
0.774035
0.795596
0.815779
3.00001
3.00001
3.00001
3.00001
3.00001
3.00001
3.00001
3.00001
3.00001
3.00001
3.00001
3
3
2.99998
2.99996
2.99985
2.99967
2.99958
2.99897
3.00186
2.99363
3.04079
2.93962
2.73453
1.99773
1.1862
0.468172
0.409233
0.462255
0.515454
0.536438
0.543563
0.547719
0.553109
0.560089
0.568581
0.578115
0.588533
0.600457
0.614309
0.629475
0.645975
0.663532
0.681812
0.700525
0.719821
0.739706
0.760077
0.780931
0.800481
3.00001
3.00001
3.00001
3.00001
3.00001
3.00001
3.00001
3.00001
3.00001
3.00001
3.00001
3
3
2.99997
2.99997
2.99981
2.99975
2.99908
2.99831
2.99444
2.98814
2.98763
2.93498
2.85632
2.16511
1.35349
0.563405
0.41554
0.454356
0.502225
0.526529
0.538681
0.54656
0.554762
0.563633
0.572406
0.581127
0.590399
0.600285
0.6111
0.623742
0.638387
0.654156
0.670802
0.688182
0.706433
0.725131
0.744318
0.764137
0.783018
3.00001
3.00001
3.00001
3.00001
3.00001
3.00001
3.00001
3.00001
3.00001
3.00001
3.00001
3.00001
3
2.99999
2.99998
2.99986
2.99982
2.99892
2.99869
2.99192
3.0018
2.93604
3.13947
2.81876
2.40758
1.5374
0.816308
0.43398
0.454447
0.491545
0.5268
0.542162
0.54924
0.556052
0.564551
0.5737
0.581628
0.589174
0.597556
0.606936
0.616903
0.62873
0.64373
0.659849
0.676267
0.69294
0.71051
0.728266
0.746924
0.764623
3.00001
3.00001
3.00001
3.00001
3.00001
3.00001
3.00001
3.00001
3.00001
3.00001
3.00001
3
3
2.99998
2.99998
2.99986
2.9998
2.99926
2.99871
2.99613
2.99105
2.97225
2.9408
2.76596
2.53626
1.78539
0.863148
0.490157
0.438314
0.475896
0.521514
0.544584
0.553674
0.559406
0.565941
0.573535
0.581574
0.588588
0.595383
0.603282
0.611981
0.621313
0.632753
0.647539
0.663579
0.679625
0.696083
0.713017
0.730324
0.747146
3.00001
3.00001
3.00001
3.00001
3.00001
3.00001
3.00001
3.00001
3.00001
3.00001
3.00001
3.00001
3
3
2.99997
2.99991
2.9998
2.99932
2.99902
2.99608
2.99357
2.97668
2.95586
2.86385
2.64343
2.06041
1.13911
0.629091
0.438132
0.471821
0.524382
0.557358
0.567369
0.569015
0.571486
0.577311
0.583386
0.588957
0.594614
0.600467
0.607472
0.615268
0.624781
0.636886
0.650615
0.66561
0.681331
0.697961
0.714563
0.730602
3.00001
3.00001
3.00001
3.00001
3.00001
3.00001
3.00001
3.00001
3.00001
3.00001
3.00001
3.00001
3
3
2.99993
2.99992
2.9995
2.99944
2.99718
2.9962
2.98621
2.98772
2.94888
3.00206
2.71011
2.23985
1.37655
0.720484
0.389455
0.444499
0.517225
0.558307
0.569622
0.570012
0.56962
0.571505
0.576102
0.581912
0.587988
0.594635
0.602146
0.610281
0.619686
0.630735
0.642958
0.656566
0.670851
0.686166
0.701859
0.716959
3.00001
3.00001
3.00001
3.00001
3.00001
3.00001
3.00001
3.00001
3.00001
3.00001
3.00001
3.00001
3
3
2.99995
2.99994
2.99966
2.99961
2.99774
2.99686
2.98543
2.99421
2.92015
3.12022
2.78786
2.35143
1.46061
0.749254
0.346596
0.42004
0.499898
0.543511
0.556131
0.557347
0.557387
0.560338
0.565797
0.572674
0.580533
0.588861
0.597516
0.606792
0.61679
0.627416
0.638842
0.651032
0.663946
0.677249
0.691158
0.704274
3.00001
3.00001
3.00001
3.00001
3.00001
3.00001
3.00001
3.00001
3.00001
3.00001
3.00001
3.00001
3
3
2.99998
2.99998
2.99989
2.99985
2.9991
2.99938
2.99587
2.99122
2.96553
2.9459
2.77894
2.32786
1.52464
0.592405
0.30599
0.38817
0.467107
0.509777
0.527637
0.534619
0.539607
0.545674
0.554496
0.564529
0.5744
0.584048
0.593744
0.603773
0.614319
0.625266
0.636106
0.646953
0.658168
0.669854
0.681921
0.693391
3.00001
3.00001
3.00001
3.00001
3.00001
3.00001
3.00001
3.00001
3.00001
3.00001
3.00001
3.00001
3.00001
3.00001
3
3
2.99993
2.9999
2.99908
2.99892
2.99235
3.00234
2.93917
3.13722
2.83899
2.45398
1.6134
0.860042
0.386029
0.419702
0.468412
0.50913
0.522166
0.52512
0.528418
0.535104
0.544313
0.555296
0.567129
0.578906
0.590189
0.60114
0.611861
0.622452
0.63298
0.643118
0.653021
0.66318
0.673616
0.68369
3.00001
3.00001
3.00001
3.00001
3.00001
3.00001
3.00001
3.00001
3.00001
3.00001
3.00001
3.00001
3.00001
3.00001
3.00001
3.00002
3
3
2.99974
2.99984
2.99613
3.00561
2.95033
3.13598
2.86633
2.51515
1.71783
0.95377
0.409858
0.409112
0.456593
0.500719
0.516353
0.519859
0.524154
0.531557
0.54196
0.553739
0.565492
0.576935
0.588036
0.598858
0.609068
0.619079
0.628921
0.638438
0.647735
0.657131
0.666556
0.675307
3.00001
3.00001
3.00001
3.00001
3.00001
3.00001
3.00001
3.00001
3.00001
3.00001
3.00001
3
3
2.99999
2.99999
2.99991
2.99989
2.99944
2.9994
2.997
2.99638
2.98575
2.98438
2.94026
2.79073
2.5695
1.87672
0.857462
0.446327
0.389682
0.438937
0.489355
0.512452
0.521387
0.528267
0.536654
0.547004
0.557995
0.568498
0.57811
0.586603
0.594839
0.60307
0.611209
0.619124
0.627518
0.637162
0.647144
0.656911
0.666398
3.00001
3.00001
3.00001
3.00001
3.00001
3.00001
3.00001
3.00001
3.00001
3.00001
3.00001
3.00001
3.00001
3
3
2.99993
2.99992
2.99953
2.99949
2.99758
2.99666
2.99015
2.97622
2.94874
2.82246
2.64693
2.02175
1.03927
0.563962
0.403841
0.443016
0.497991
0.525554
0.532807
0.535524
0.539866
0.546266
0.553491
0.560718
0.567577
0.574664
0.582258
0.590196
0.598527
0.607062
0.615999
0.625605
0.635655
0.645966
0.655817
3.00001
3.00001
3.00001
3.00001
3.00001
3.00001
3.00001
3.00001
3.00001
3.00001
3.00001
3.00001
3.00001
3
2.99999
2.99994
2.99993
2.99955
2.99953
2.99755
2.99711
2.98785
2.98561
2.93819
2.90773
2.69921
2.11828
1.2001
0.634476
0.378246
0.431273
0.50101
0.531633
0.536667
0.535725
0.536981
0.540361
0.545798
0.551966
0.55875
0.566179
0.574303
0.583148
0.591897
0.600096
0.608675
0.617755
0.627386
0.637189
0.646406
3.00001
3.00001
3.00001
3.00001
3.00001
3.00001
3.00001
3.00001
3.00001
3.00001
3.00001
3.00001
3.00001
3
3
2.99997
2.99996
2.99981
2.99971
2.9993
2.99771
2.9975
2.9916
3.01173
2.95221
2.79627
2.09355
1.29142
0.470656
0.302141
0.385561
0.46743
0.503321
0.516137
0.522807
0.529153
0.536686
0.544607
0.552408
0.560396
0.568644
0.57684
0.584739
0.592613
0.60086
0.608956
0.61647
0.62433
0.632705
0.640997
3.00001
3.00001
3.00001
3.00001
3.00001
3.00001
3.00001
3.00001
3.00001
3.00001
3.00001
3.00001
3.00001
3
3
2.99998
2.99996
2.99975
2.99968
2.998
2.99713
2.98552
2.99307
2.91786
3.06383
2.78097
2.28183
1.35485
0.681776
0.33964
0.404605
0.477781
0.512574
0.522273
0.52423
0.526835
0.532129
0.539512
0.547765
0.556206
0.564691
0.573359
0.582121
0.590545
0.598592
0.60655
0.614312
0.621977
0.629952
0.637736
3.00001
3.00001
3.00001
3.00001
3.00001
3.00001
3.00001
3.00001
3.00001
3.00001
3.00001
3.00001
3.00001
3.00001
3
2.99999
2.99998
2.99987
2.99983
2.99892
2.9987
2.99146
3.00186
2.93257
3.14162
2.81658
2.38628
1.5026
0.764457
0.305973
0.386401
0.462924
0.506491
0.521274
0.523278
0.523878
0.527766
0.534386
0.542766
0.551894
0.56109
0.569624
0.577454
0.585316
0.593304
0.60143
0.609536
0.617448
0.625462
0.634042
3.00001
3.00001
3.00001
3.00001
3.00001
3.00001
3.00001
3.00001
3.00001
3.00001
3.00001
3.00001
3.00001
3.00001
3
2.99999
2.99995
2.99995
2.99968
2.99913
2.99836
2.99342
2.9914
2.96362
2.94673
2.73112
2.3922
1.57429
0.587206
0.282873
0.369708
0.450923
0.499963
0.522518
0.530694
0.535427
0.540993
0.547607
0.554633
0.561361
0.567427
0.573062
0.578891
0.584863
0.590877
0.597526
0.604799
0.612526
0.620495
0.628615
3.00001
3.00001
3.00001
3.00001
3.00001
3.00001
3.00001
3.00001
3.00001
3.00001
3.00001
3.00001
3.00001
3.00001
3.00001
3
3
2.99998
3.00001
2.99981
3.00001
2.99556
3.00609
2.94335
3.1417
2.84166
2.44813
1.6014
0.832885
0.326998
0.379201
0.442683
0.494013
0.515339
0.52264
0.527997
0.535142
0.543682
0.552175
0.559639
0.566099
0.572
0.577618
0.583214
0.589146
0.595711
0.602951
0.610867
0.619438
0.627638
3.00001
3.00001
3.00001
3.00001
3.00001
3.00001
3.00001
3.00001
3.00001
3.00001
3.00001
3.00001
3.00001
3.00001
3.00001
3.00001
3.00004
3.00005
3.00031
3.00044
3.00169
2.99987
3.00995
2.95343
3.14813
2.86891
2.4859
1.66846
0.8853
0.329857
0.370342
0.431429
0.484152
0.505443
0.512674
0.519275
0.528417
0.539541
0.550759
0.560425
0.56815
0.574245
0.579541
0.584886
0.590717
0.596805
0.603321
0.611298
0.620293
0.628498
3.00001
3.00001
3.00001
3.00001
3.00001
3.00001
3.00001
3.00001
3.00001
3.00001
3.00001
3.00001
3.00001
3.00001
3.00001
3.00001
3.00001
3.00003
3.00013
3.00016
3.0017
3.00047
3.01173
2.96083
3.15292
2.87884
2.51388
1.73479
0.948638
0.35108
0.361129
0.417338
0.467544
0.489109
0.498645
0.508402
0.520893
0.534987
0.548537
0.560022
0.568859
0.57574
0.581481
0.586717
0.591897
0.596979
0.60208
0.609084
0.617787
0.626034
3.00001
3.00001
3.00001
3.00001
3.00001
3.00001
3.00001
3.00001
3.00001
3.00001
3.00001
3.00001
3.00001
3.00001
3
3
2.99999
2.99998
3
3
3.00103
3.0009
3.01319
2.97776
3.15725
2.88645
2.5901
1.81574
1.01765
0.379703
0.346341
0.396478
0.450568
0.474754
0.484196
0.492308
0.50305
0.516364
0.529989
0.542163
0.552434
0.561135
0.568744
0.575694
0.582084
0.587828
0.594474
0.603885
0.613499
0.622603
3.00001
3.00001
3.00001
3.00001
3.00001
3.00001
3.00001
3.00001
3.00001
3.00001
3.00001
3.00001
3.00001
3.00001
2.99999
2.99999
2.99993
2.99992
2.99961
2.99954
2.99817
2.9979
2.99138
2.97792
2.95822
2.83855
2.64246
2.00627
1.02761
0.522886
0.370898
0.426125
0.495695
0.528192
0.533728
0.529481
0.525956
0.52672
0.530658
0.534862
0.539482
0.545077
0.551064
0.557895
0.566112
0.574916
0.584677
0.595876
0.607293
0.617561
3.00001
3.00001
3.00001
3.00001
3.00001
3.00001
3.00001
3.00001
3.00001
3.00001
3.00001
3.00001
3.00001
3.00001
2.99999
2.99999
2.99992
2.99991
2.99948
2.99945
2.99706
2.9964
2.98552
2.98411
2.93807
2.95424
2.70182
2.12627
1.20949
0.610285
0.328813
0.410831
0.502231
0.541098
0.545234
0.535604
0.525523
0.519806
0.519241
0.52096
0.524585
0.529967
0.537535
0.547383
0.558385
0.569715
0.581745
0.593721
0.60558
0.616014
3.00001
3.00001
3.00001
3.00001
3.00001
3.00001
3.00001
3.00001
3.00001
3.00001
3.00001
3.00001
3.00001
3
2.99999
2.99999
2.99992
2.99991
2.99949
2.99945
2.99717
2.99642
2.98722
2.99347
2.95529
2.9817
2.69285
2.20415
1.26329
0.63974
0.342159
0.41923
0.504424
0.538258
0.538358
0.527457
0.518232
0.514862
0.515666
0.518246
0.522358
0.528166
0.536361
0.54684
0.558745
0.57133
0.584262
0.596459
0.6083
0.618453
3.00001
3.00001
3.00001
3.00001
3.00001
3.00001
3.00001
3.00001
3.00001
3.00001
3.00001
3.00001
3.00001
3.00001
3
3
2.99997
2.99995
2.99985
2.99957
2.99943
2.99672
2.99676
2.984
3.00829
2.93965
2.78161
2.05499
1.25712
0.441361
0.291696
0.368201
0.446289
0.480009
0.492463
0.499208
0.506536
0.515431
0.525071
0.534062
0.541319
0.54815
0.555266
0.562318
0.569531
0.578787
0.588795
0.597683
0.60571
0.612688
3.00001
3.00001
3.00001
3.00001
3.00001
3.00001
3.00001
3.00001
3.00001
3.00001
3.00001
3.00001
3.00001
3.00001
3
3
2.99997
2.99996
2.99983
2.99971
2.99905
2.99814
2.99652
2.98888
2.9714
2.91386
2.74648
2.08024
1.29873
0.476861
0.313383
0.38263
0.456062
0.487309
0.498904
0.507131
0.515786
0.524922
0.53372
0.542023
0.549536
0.556171
0.562016
0.566828
0.572402
0.580404
0.588251
0.595827
0.602966
0.610021
3.00001
3.00001
3.00001
3.00001
3.00001
3.00001
3.00001
3.00001
3.00001
3.00001
3.00001
3.00001
3.00001
3.00001
3
3
2.99997
2.99995
2.99982
2.99983
2.999
2.99744
2.99759
2.9843
3.04866
2.90337
2.76886
2.05323
1.26177
0.44987
0.317357
0.391586
0.466911
0.498588
0.509414
0.517113
0.525053
0.53283
0.540321
0.547951
0.555063
0.561054
0.566165
0.570507
0.575323
0.582641
0.590933
0.599433
0.607529
0.61584
1.12738
0.772582
0.257982
0.180576
0.216742
0.305453
0.34882
0.366804
0.371988
0.37064
0.371426
0.37533
0.377652
0.374046
0.368499
0.360954
0.350092
0.336314
0.319651
0.300211
0.278736
0.255678
0.231441
0.206526
0.181204
0.155636
0.130029
0.104453
0.0790347
0.0539294
0.0291675
0.00901136
0.02482
0.0491511
0.0728308
0.0960853
0.118719
0.140603
0.161479
0.181333
0.202078
0.223041
0.243592
0.263321
0.282791
0.301742
0.320455
0.338867
0.357007
0.374889
0.392585
0.409964
0.42725
0.444229
0.4611
0.47777
0.494242
0.510601
0.526796
0.542806
0.558814
0.574432
0.590243
0.605478
0.621024
0.635918
0.651123
0.665706
0.680585
0.694808
0.709364
0.723249
0.737439
0.751041
0.764829
0.77817
0.791561
0.804646
0.817698
0.830529
0.843292
0.855798
0.868303
0.880472
0.892733
0.904593
0.916582
0.928153
0.939886
0.951197
0.962628
0.973607
0.984615
0.995038
1.00539
1.01479
1.02388
1.03128
1.03731
1.04124
1.04852
0.858952
0.588191
0.466503
0.370654
0.275379
0.198554
0.131878
0.0737858
0.0254119
0.00924874
0.0357226
0.0538626
0.0504685
0.0457053
0.039547
0.0310284
0.0237002
0.0218778
0.0297106
0.044834
0.0625261
0.0816038
0.101365
0.12172
0.142208
0.162856
0.183366
0.203711
0.223894
0.243627
0.262886
0.281334
0.299388
0.31738
0.3353
0.35291
0.370273
0.386746
0.402505
0.418498
0.435131
0.451469
0.467191
0.482555
0.497597
0.512458
0.527081
0.541618
0.555922
0.570213
0.584263
0.598285
0.61212
0.62586
0.639524
0.653137
0.666681
0.680352
0.693768
0.707466
0.72077
0.734327
0.747622
0.760851
0.774179
0.787066
0.800296
0.81296
0.82592
0.838398
0.851086
0.86331
0.875773
0.887718
0.899927
0.91165
0.923628
0.935158
0.946874
0.958245
0.969689
0.980984
0.992239
1.00348
1.01455
1.02572
1.03658
1.04757
1.0581
1.06879
1.07889
1.08918
1.09866
1.1083
1.11679
1.12522
1.13187
1.13743
1.14075
1.00792
0.953867
0.854882
0.78267
0.721612
0.655049
0.595929
0.543793
0.496331
0.455918
0.421361
0.394259
0.378735
0.361536
0.351442
0.346002
0.343226
0.345616
0.353469
0.365069
0.377418
0.390272
0.403383
0.416842
0.430763
0.444877
0.459309
0.473886
0.488525
0.503012
0.517547
0.531768
0.545654
0.559371
0.573119
0.586756
0.600403
0.613866
0.626851
0.638961
0.651124
0.66369
0.676416
0.68845
0.70004
0.711258
0.722273
0.733122
0.743874
0.754513
0.765037
0.775559
0.785777
0.796283
0.806175
0.816671
0.826424
0.836842
0.846581
0.85705
0.866862
0.877381
0.887215
0.897755
0.907621
0.918123
0.928002
0.93845
0.948331
0.958651
0.968554
0.978712
0.988631
0.998646
1.00851
1.01846
1.02843
1.03831
1.04841
1.05818
1.06838
1.07811
1.08827
1.09798
1.10803
1.11771
1.12768
1.13723
1.14715
1.15646
1.16633
1.1753
1.18499
1.19351
1.20263
1.21057
1.2183
1.22493
1.22985
1.2335
0.99353
0.999857
0.974811
0.944412
0.915374
0.884312
0.850882
0.817492
0.785106
0.757722
0.736933
0.723156
0.713692
0.70776
0.704032
0.703356
0.703815
0.703653
0.704879
0.707695
0.711059
0.714703
0.71877
0.723376
0.728722
0.734287
0.740523
0.746948
0.753794
0.760841
0.768118
0.775443
0.783052
0.790675
0.798459
0.806415
0.814469
0.822722
0.830683
0.838258
0.845774
0.854053
0.862811
0.871615
0.88005
0.888543
0.89681
0.90527
0.91354
0.922036
0.930365
0.938933
0.947327
0.955968
0.964401
0.973067
0.981502
0.990139
0.998569
1.00719
1.01564
1.02424
1.03275
1.04135
1.04991
1.05854
1.06709
1.07571
1.08423
1.09281
1.10135
1.10995
1.11853
1.12709
1.13572
1.14426
1.15282
1.16128
1.16978
1.17815
1.18664
1.19483
1.20339
1.21127
1.21988
1.22748
1.23588
1.24345
1.25137
1.25916
1.26654
1.27457
1.2815
1.28948
1.29598
1.30357
1.30931
1.31582
1.31969
1.32363
0.972707
1.00564
1.0169
1.01863
1.01489
1.00762
0.995883
0.982065
0.966842
0.954552
0.944861
0.939844
0.936402
0.934756
0.933256
0.934071
0.936058
0.937303
0.937771
0.938346
0.939043
0.939599
0.939943
0.940392
0.940803
0.941404
0.94218
0.943171
0.944493
0.946055
0.947958
0.950074
0.952508
0.955221
0.958197
0.961645
0.965342
0.96964
0.97377
0.977957
0.981972
0.98691
0.99241
0.99849
1.00443
1.01057
1.01674
1.02317
1.02968
1.03641
1.0432
1.0502
1.05724
1.06447
1.07174
1.07917
1.08661
1.09419
1.10173
1.10938
1.117
1.12467
1.13236
1.14006
1.14785
1.15568
1.16373
1.17173
1.18
1.18797
1.1963
1.20407
1.2123
1.21993
1.22805
1.2356
1.24361
1.25113
1.2589
1.26651
1.27402
1.28174
1.2891
1.29686
1.30418
1.31192
1.3192
1.32689
1.3341
1.34173
1.34878
1.35623
1.36298
1.37008
1.37634
1.38276
1.38815
1.39328
1.39675
1.39926
0.94716
0.98949
1.02
1.04131
1.05594