/*--------------------------------*- C++ -*----------------------------------*\
| =========                 |                                                 |
| \\      /  F ield         | OpenFOAM: The Open Source CFD Toolbox           |
|  \\    /   O peration     | Version:  2412                                  |
|   \\  /    A nd           | Website:  www.openfoam.com                      |
|    \\/     M anipulation  |                                                 |
\*---------------------------------------------------------------------------*/
FoamFile
{
    version     2.0;
    format      ascii;
    arch        "LSB;label=32;scalar=64";
    class       volScalarField;
    location    "5.5";
    object      p;
}
// * * * * * * * * * * * * * * * * * * * * * * * * * * * * * * * * * * * * * //

dimensions      [1 -1 -2 0 0 0 0];

internalField   nonuniform List<scalar> 
7000
(
1
1
1
1
1
1
1
1
1.00001
1.00001
1.00004
1.00006
1.00021
1.00035
1.00127
1.0017
1.00756
1.00567
1.05085
1.07023
1.33909
1.44265
3.57423
7.34278
11.266
11.0276
10.5247
10.4026
10.4596
10.6037
10.763
10.884
10.9768
11.0661
11.1556
11.2441
11.3301
11.4125
11.4917
11.5679
11.6409
11.7108
11.777
11.8395
11.8978
11.9506
11.9977
12.0368
12.0662
12.0875
1
1
1
1
1
1
1
1
1.00001
1.00001
1.00004
1.00005
1.00021
1.00032
1.00114
1.0019
1.00709
1.00803
1.04826
1.05904
1.346
1.42269
3.58589
7.33142
11.2688
11.0336
10.5279
10.4029
10.4594
10.6028
10.7618
10.8827
10.9754
11.0646
11.154
11.2424
11.3284
11.4107
11.4899
11.5661
11.6392
11.7091
11.7754
11.8381
11.8965
11.9496
11.9968
12.0361
12.0655
12.0869
1
1
1
1
1
1
1
1
1.00001
1.00001
1.00004
1.00005
1.00022
1.00032
1.0013
1.00168
1.00755
1.00555
1.05043
1.06839
1.33928
1.43385
3.56837
7.31134
11.2759
11.0346
10.5265
10.4015
10.4573
10.6002
10.7589
10.8795
10.972
11.0608
11.1498
11.2378
11.3234
11.4054
11.4844
11.5604
11.6333
11.7032
11.7694
11.8321
11.8905
11.9435
11.9908
12.0301
12.0594
12.0807
1
1
1
1
1
1
1
1
1.00001
1.00001
1.00004
1.00005
1.00022
1.00025
1.00137
1.00134
1.00792
1.00885
1.04558
1.06907
1.34265
1.34338
3.64878
7.2756
11.2865
11.0444
10.5301
10.4007
10.4554
10.5966
10.7548
10.8745
10.9667
11.0548
11.1429
11.2303
11.3153
11.3968
11.4754
11.551
11.6238
11.6934
11.7595
11.8221
11.8804
11.9334
11.9806
12.0199
12.0489
12.0701
1
1
1
1
1
1
1
1
1.00001
1.00001
1.00004
1.00005
1.0002
1.00031
1.00117
1.0015
1.00721
1.0066
1.04761
1.056
1.3415
1.40306
3.55903
7.24276
11.2999
11.0544
10.5324
10.3981
10.4518
10.5914
10.7489
10.8672
10.9594
11.0461
11.1332
11.2196
11.3037
11.3844
11.4623
11.5375
11.6098
11.6792
11.745
11.8074
11.8657
11.9186
11.9658
12.0051
12.034
12.0552
1
1
1
1
1
1
1
1
1
1.00001
1.00002
1.00006
1.00006
1.00049
1.00117
1.00152
1.00698
1.01046
1.04154
1.06726
1.33811
1.37797
3.56404
7.19278
11.3142
11.0618
10.5326
10.3946
10.4473
10.5848
10.7415
10.8582
10.9494
11.0345
11.1202
11.2053
11.2881
11.3678
11.4448
11.5193
11.5911
11.66
11.7255
11.7876
11.8457
11.8986
11.9457
11.985
12.0138
12.035
1
1
1
1
1
1
1
1
1
1.00001
1.00001
1.00008
1.00019
1.00026
1.00122
1.00164
1.00712
1.00922
1.04598
1.03259
1.3493
1.36853
3.54842
7.05394
11.3277
11.0733
10.5336
10.3901
10.4414
10.5768
10.732
10.8472
10.9365
11.0197
11.1036
11.187
11.2683
11.3466
11.4224
11.4959
11.5669
11.6352
11.7002
11.7619
11.8197
11.8724
11.9195
11.9588
11.9875
12.0089
1
1
1
1
1
1
1
1
1.00001
1.00001
1.00004
1.00004
1.00022
1.00023
1.00117
1.00156
1.00681
1.00976
1.04314
1.06898
1.30948
1.42391
3.44452
6.96499
11.3428
11.0863
10.537
10.3854
10.4347
10.5671
10.7204
10.8337
10.9204
11.0012
11.083
11.1643
11.2437
11.3203
11.3947
11.4669
11.5368
11.6042
11.6685
11.7297
11.787
11.8396
11.8864
11.9258
11.9544
11.976
1
1
1
1
1
1
1
1
1.00001
1.00001
1.00003
1.00004
1.0002
1.0003
1.00105
1.00145
1.00702
1.00682
1.046
1.04104
1.33642
1.28896
3.5234
6.84667
11.3614
11.102
10.5426
10.3804
10.4272
10.5554
10.7066
10.8171
10.9008
10.9789
11.0581
11.1371
11.2141
11.2886
11.3611
11.4317
11.5002
11.5664
11.6297
11.69
11.7468
11.7989
11.8455
11.8849
11.9135
11.9353
1
1
1
1
1
1
1
1
1
1.00001
1.00001
1.00007
1.00019
1.00023
1.00122
1.00155
1.0069
1.00923
1.04035
1.03389
1.32363
1.3223
3.41419
6.67156
11.3765
11.1221
10.5542
10.3761
10.4192
10.542
10.69
10.7969
10.8771
10.9522
11.0286
11.1048
11.1792
11.2513
11.3215
11.3899
11.4565
11.521
11.5829
11.6422
11.698
11.7495
11.7957
11.8348
11.8633
11.8853
1
1
1
1
1
1
1
1
1
1
1.00003
1.00004
1.00003
1.00045
1.00106
1.00174
1.00643
1.00947
1.03981
1.06214
1.29781
1.35947
3.28585
6.53944
11.3993
11.1417
10.5606
10.3689
10.4087
10.5263
10.67
10.7724
10.8489
10.9208
10.9942
11.0673
11.1387
11.2078
11.2752
11.3411
11.4052
11.4675
11.5275
11.585
11.6395
11.6899
11.7353
11.7741
11.8025
11.8248
1
1
1
1
1
1
1
1
1
1
1.00002
1.00003
1.00018
1.00019
1.00118
1.00126
1.00694
1.008
1.03892
1.06159
1.2914
1.33504
3.23853
6.36528
11.4096
11.1552
10.5631
10.3589
10.396
10.5085
10.6461
10.7433
10.8158
10.8843
10.9544
11.0242
11.0922
11.158
11.2221
11.2847
11.3457
11.405
11.4623
11.5174
11.5698
11.6185
11.6626
11.7007
11.7285
11.7511
1
1
1
1
1
1
1
1
1
1
1
1.00004
1.00015
1.0002
1.00106
1.00124
1.00697
1.00799
1.03852
1.05996
1.28366
1.33462
3.17866
6.18788
11.4066
11.1545
10.554
10.3447
10.3799
10.4876
10.6177
10.7088
10.7772
10.8423
10.9088
10.9749
11.0393
11.1014
11.1617
11.2204
11.2775
11.3329
11.3864
11.438
11.4874
11.5335
11.5755
11.6121
11.6392
11.6619
1
1
1
1
1
1
0.999999
0.999999
0.999997
0.999997
0.999998
1.00001
1.0001
1.00013
1.00104
1.00095
1.00697
1.00642
1.04016
1.05082
1.29212
1.258
3.21498
6.02118
11.3771
11.1296
10.5341
10.3244
10.3586
10.462
10.5836
10.6684
10.7326
10.794
10.8569
10.919
10.9795
11.0374
11.0933
11.1475
11.1997
11.2503
11.2988
11.3455
11.3902
11.4322
11.4706
11.5046
11.5299
11.5525
1
1
1
1
1
1
0.999999
0.999999
0.999995
0.999994
0.99998
0.999976
0.999967
1.0001
1.0005
1.00089
1.00681
1.00574
1.03973
1.04813
1.28413
1.22797
3.19293
5.90869
11.3269
11.0839
10.4981
10.2947
10.3292
10.4297
10.5431
10.6216
10.6818
10.739
10.798
10.8555
10.9117
10.9652
11.0162
11.065
11.1115
11.1558
11.198
11.238
11.2759
11.3116
11.3443
11.3735
11.3956
11.4177
1
1
1
1
1
1
0.999999
0.999998
0.999993
0.999992
0.999966
0.999952
0.999839
0.999851
0.999751
0.999835
1.00553
1.01095
1.03779
1.05141
1.26244
1.24982
3.10745
5.88499
11.2802
11.0273
10.4452
10.2527
10.2881
10.3865
10.4939
10.5676
10.6234
10.6766
10.7309
10.7843
10.8356
10.8839
10.9295
10.9721
11.0118
11.0484
11.082
11.1129
11.1413
11.1672
11.1904
11.2114
11.2269
11.2468
1
1
1
1
1
1
0.999999
0.999999
0.999992
0.999992
0.999957
0.999942
0.999777
0.999741
0.999403
0.99889
1.00952
1.02184
1.02178
1.03266
1.27559
1.26679
3.11375
5.87281
11.2295
10.9582
10.3695
10.1963
10.2335
10.3313
10.435
10.5056
10.5576
10.6064
10.6558
10.704
10.75
10.7926
10.8319
10.8674
10.8989
10.9262
10.9492
10.9679
10.9827
10.9938
11.0014
11.0075
11.0106
11.0248
1
1
1
1
1
1
0.999999
0.999999
0.999994
0.999994
0.99996
0.999949
0.999766
0.999731
0.999156
0.998214
1.01308
1.02896
1.0336
1.0821
1.24371
1.22831
3.07231
5.74114
11.1589
10.8855
10.3109
10.1381
10.1716
10.2638
10.3657
10.4355
10.4843
10.5281
10.5719
10.6145
10.6544
10.6906
10.7226
10.7498
10.7716
10.7875
10.7971
10.7993
10.7953
10.7843
10.7661
10.7445
10.7205
10.7188
1
1
1
1
1
1
1
0.999999
0.999997
0.999995
0.999974
0.999952
0.999816
0.999809
0.999318
0.998309
1.01236
1.0308
1.02283
1.08477
1.19386
1.14294
3.04863
5.53119
11.1099
10.8287
10.2728
10.082
10.107
10.1868
10.2886
10.3581
10.4034
10.4417
10.4794
10.5154
10.5483
10.5768
10.6005
10.6182
10.6287
10.6304
10.6244
10.6065
10.5744
10.5293
10.4701
10.3978
10.3141
10.26
1
1
1
1
1
1
1
1
1
1
0.999994
0.99999
0.999926
0.999986
0.999748
0.999017
1.00982
1.02633
1.01519
1.06664
1.16039
1.08484
3.00364
5.23999
11.0454
10.7743
10.2611
10.0336
10.0433
10.1033
10.2047
10.2733
10.3145
10.3468
10.3775
10.4064
10.4313
10.451
10.4648
10.4714
10.4691
10.457
10.4288
10.3824
10.3153
10.2226
10.0962
9.9284
9.70888
9.46867
1
1
1
1
1
1
1
1
1
1.00001
1.00001
1.00005
1.00007
1.00036
1.00045
1.00233
1.00394
1.01743
1.00662
1.05235
1.12975
1.0307
2.93915
4.82275
10.8976
10.692
10.2885
10.0007
9.9731
10.0129
10.0998
10.1652
10.2017
10.2266
10.249
10.2686
10.2833
10.2914
10.2915
10.2856
10.2673
10.2298
10.1724
10.0892
9.97156
9.80324
9.5579
9.1778
8.52253
7.09851
1
1
1
1
1
1
1
1
1
1
1
1.00002
1.00002
0.999997
1.00051
1.0009
1.00263
1.01087
1.00018
1.03878
1.10195
0.99867
2.81843
4.43099
10.603
10.6044
10.2719
9.94832
9.88541
9.91587
9.98513
10.0383
10.066
10.083
10.097
10.1064
10.1096
10.1061
10.0936
10.0663
10.0226
9.96027
9.87201
9.7476
9.57248
9.32491
8.96644
8.43532
7.65232
6.40203
1
1
1
1
1
1
1
1
0.999999
0.999998
0.999994
0.999991
0.999987
1
1.0001
1.00046
1.0008
1.00352
0.995372
1.02756
1.07843
0.973111
2.69746
4.07456
10.1306
10.5546
10.2323
9.87717
9.79126
9.8155
9.87091
9.9102
9.92835
9.93834
9.94485
9.94496
9.94048
9.92515
9.89263
9.84542
9.78267
9.69828
9.58287
9.42641
9.21421
8.92709
8.53909
8.01622
7.35185
6.49001
1
1
1
1
1
1
1
1
1
1
1
1.00001
1.00001
1.00007
1.00018
0.998502
0.996888
0.997856
0.988826
1.01588
1.05578
0.951334
2.57914
3.70321
9.62441
10.4534
10.1494
9.78595
9.69609
9.71795
9.76585
9.79468
9.80574
9.80905
9.80833
9.80369
9.78982
9.7599
9.7139
9.65353
9.57448
9.471
9.33692
9.16377
8.94158
8.65623
8.30019
7.85619
7.34414
6.71027
1
1
1
1
1
1
1
1
1
1
1
0.999994
0.999966
0.999957
0.999461
0.999063
0.996055
0.996477
0.978826
0.998475
1.02592
0.921069
2.44202
3.31096
9.02806
10.2841
10.0274
9.67704
9.59289
9.61447
9.66116
9.68877
9.69835
9.6978
9.69385
9.68255
9.65801
9.61773
9.5633
9.493
9.40348
9.29105
9.15124
8.97736
8.76158
8.49524
8.17807
7.80305
7.37402
6.8969
1
1
1
1
1
1
1
1
1
1
1.00001
1.00001
1.00004
1.00004
1.00019
1.0003
1.00034
1.00018
0.989836
0.987327
0.993418
0.892714
2.34579
2.55933
8.53331
10.3376
10.0888
9.69099
9.54203
9.54582
9.56777
9.59708
9.60782
9.60552
9.59823
9.58117
9.54723
9.49916
9.43833
9.36159
9.26598
9.14922
9.00841
8.83939
8.63768
8.39982
8.12472
7.80489
7.44269
7.04909
1
1
1
1
1
1
1
1
1
1
1.00001
1.00001
1.00006
1.00008
1.00049
1.00053
1.00356
1.00567
1.02462
1.02386
1.11203
1.19403
1.19572
3.28096
6.4264
10.5032
10.3576
9.88102
9.56851
9.49419
9.50295
9.52335
9.53095
9.5267
9.51384
9.48705
9.44674
9.39584
9.33305
9.25398
9.15655
9.03925
8.90054
8.73843
8.55078
8.33495
8.08982
7.81465
7.51719
7.18514
1
1
1
1
1
1
1
1
1
1
1
1
1.00001
1.00001
1.00008
1.00013
1.00094
1.00183
1.00973
1.00052
1.03995
1.10915
1.01566
2.85268
4.52327
10.499
10.3777
9.98871
9.5642
9.42457
9.42859
9.44369
9.45374
9.4494
9.43645
9.40923
9.36612
9.31199
9.2455
9.16439
9.06675
8.95178
8.81864
8.66576
8.49187
8.29639
8.07836
7.83677
7.57875
7.2958
1
1
1
1
1
1
1
1
1
1
1
0.999996
0.999991
0.999955
0.999938
0.999509
0.999098
0.996625
0.9977
0.985428
1.01333
1.05819
0.959804
2.59965
3.73928
9.77255
10.2956
9.96447
9.53782
9.38817
9.38871
9.39857
9.40572
9.39915
9.38292
9.34926
9.30101
9.24417
9.17575
9.09408
8.99769
8.88582
8.75788
8.61377
8.45299
8.27511
8.08063
7.86733
7.64163
7.39808
1
1
1
1
1
1
1
1
1
1
1
1.00001
1.00001
1.00002
1.00003
0.999991
0.999917
0.998491
0.997766
0.985622
0.996518
0.981346
0.943015
2.36632
2.78986
8.94289
10.215
9.95948
9.55347
9.39461
9.37132
9.37293
9.3707
9.36085
9.33904
9.29917
9.24856
9.18919
9.12056
9.0402
8.94516
8.83725
8.71631
8.58216
8.43417
8.27214
8.09342
7.9054
7.70695
7.49419
1
1
1
1
1
1
1
1
1
1
1
1.00001
1.00001
1.00006
1.00006
1.00027
1.00029
1.0015
1.00196
1.00732
1.01732
1.06442
1.02562
2.03903
2.35429
7.63326
10.3028
10.1087
9.67681
9.44113
9.3579
9.33851
9.33568
9.32622
9.30213
9.25764
9.20311
9.14123
9.07059
8.99115
8.90087
8.79917
8.68672
8.56284
8.42715
8.2785
8.12016
7.9527
7.77649
7.58882
1
1
1
1
1
1
1
1
1
1
1
1.00001
1.00001
1.00004
1.00007
1.00028
1.00037
1.00171
1.00192
1.00982
1.01915
1.0621
1.07289
1.69603
1.79046
5.96606
10.4927
10.399
9.99772
9.579
9.37827
9.32969
9.32324
9.30818
9.27459
9.22682
9.16907
9.10895
9.03777
8.958
8.86992
8.77332
8.6681
8.55369
8.4294
8.29514
8.154
8.00414
7.84659
7.67886
1
1
1
1
1
1
1
1
1
1
1
1
1.00001
1.00001
1.00002
1.00003
0.999988
0.999769
0.998648
0.999622
0.987574
1.01375
1.05481
0.962962
2.67083
3.9148
10.2656
10.6402
10.2234
9.64868
9.38866
9.32141
9.30894
9.28973
9.25222
9.2015
9.142
9.08012
9.00938
8.93357
8.85091
8.76053
8.66231
8.55504
8.43925
8.31821
8.19052
8.05538
7.91355
7.76274
1
1
1
1
1
1
1
1
1
1
1
1
1.00001
1.00001
1.00004
1.00011
1.00016
1.00057
1.00031
0.999589
0.993127
1.00558
0.992174
0.955613
2.38759
2.8892
9.25555
10.5229
10.17
9.63332
9.39186
9.32793
9.3113
9.28958
9.25016
9.19775
9.1366
9.07139
9.00178
8.92498
8.84401
8.75756
8.66449
8.56527
8.46235
8.35307
8.23607
8.11205
7.98222
7.84466
1
1
1
1
1
1
1
1
1
1
1
1
1.00001
1.00001
1.00006
1.00008
1.0003
1.00036
1.00167
1.00364
1.00469
1.02334
0.99837
0.923759
2.21772
2.29169
8.32634
10.6102
10.2749
9.7088
9.44212
9.35264
9.32328
9.29698
9.25555
9.20147
9.13895
9.07254
9.00249
8.92643
8.84722
8.76438
8.67695
8.58589
8.48882
8.38623
8.27821
8.16513
8.04737
7.92226
1
1
1
1
1
1
1
1
1
1
1
1
1
1.00001
1.00004
1.00005
1.00031
1.00041
1.00201
1.00334
1.01569
1.00478
1.05055
1.13175
1.05252
3.01674
5.29693
10.5509
10.4391
10.0228
9.59823
9.41458
9.35479
9.31982
9.27384
9.21703
9.14608
9.07808
9.00645
8.93184
8.85472
8.77439
8.69296
8.60371
8.51242
8.41739
8.31826
8.21434
8.10622
7.99187
1
1
1
1
1
1
1
1
1
1
1
1
1.00001
1.00001
1.00005
1.00004
1.00025
1.00033
1.00135
1.00182
1.00853
1.01432
1.06184
1.0927
1.53776
1.76223
4.85685
9.66796
10.4715
10.2031
9.72431
9.45974
9.36004
9.32112
9.28127
9.22543
9.16048
9.0864
9.01557
8.9433
8.86731
8.78945
8.71174
8.62974
8.54147
8.45142
8.35851
8.26204
8.16184
8.05616
1
1
1
1
1
1
1
1
1
1
1
1
1
1.00001
1.00003
1.00004
1.00023
1.00022
1.00123
1.00179
1.00692
1.00886
1.05167
1.02701
1.41715
1.48897
3.97044
7.96997
10.6349
10.4651
9.9557
9.54783
9.37357
9.3195
9.28523
9.23265
9.16532
9.09566
9.02229
8.95154
8.87871
8.80324
8.72749
8.65011
8.56687
8.48269
8.39502
8.3045
8.21139
8.11328
1
1
1
1
1
1
1
1
1
1
1
1
1
1
1.00005
1.00013
1.00019
1.00084
1.001
1.00443
1.00564
1.02097
1.01474
1.01115
1.32268
1.3157
3.38316
6.60754
11.0419
10.7675
10.0443
9.5489
9.35725
9.30334
9.27116
9.2222
9.16204
9.09378
9.0247
8.95949
8.89216
8.8224
8.74983
8.67415
8.59496
8.51365
8.43032
8.34474
8.25707
8.16487
1
1
1
1
1
1
1
1
1
1
1
1
1
1.00001
1.00002
1.00009
1.00013
1.00064
1.00073
1.00413
1.00621
1.02751
1.01727
1.07637
1.18374
1.13627
3.05404
5.61539
10.9338
10.6484
9.94553
9.48671
9.30916
9.26533
9.24288
9.20436
9.15089
9.0903
9.02902
8.96524
8.901
8.83567
8.76626
8.69388
8.61898
8.54181
8.46144
8.37859
8.29372
8.20571
1
1
1
1
1
1
1
1
1
1
1
1
1
1.00001
1.00001
1.00004
1.00006
1.00007
1.0006
1.00142
1.00249
1.00273
1.02739
1.06787
1.02555
1.86956
2.07296
6.52394
10.5353
10.2721
9.69602
9.38017
9.25653
9.22966
9.21592
9.18674
9.14541
9.09151
9.03527
8.97746
8.91718
8.85382
8.78778
8.71831
8.64418
8.5691
8.49146
8.41155
8.33043
8.24664
1
1
1
1
1
1
1
1
1
1
1
1
1
1
1
1.00002
1.00005
1.00004
1.0007
1.00164
1.00321
1.01496
1.00403
1.0456
1.11348
1.01819
2.85368
4.61885
10.39
10.2421
9.85937
9.44023
9.27254
9.23411
9.22056
9.19253
9.1486
9.0974
9.0426
8.98692
8.92957
8.86956
8.80572
8.73871
8.66836
8.59382
8.51851
8.44107
8.36244
8.28175
1
1
1
1
1
1
1
1
1
1
1
1
1
1
1
0.999995
1
1.00005
1.00014
1.00067
1.0015
1.00709
0.998132
1.03119
1.08265
0.980085
2.69812
4.07027
9.98751
10.2707
9.92214
9.47363
9.28431
9.24374
9.23375
9.20881
9.16578
9.11272
9.05509
8.99709
8.93923
8.879
8.81678
8.7525
8.68501
8.6152
8.5428
8.46866
8.39261
8.31464
1
1
1
1
1
1
1
1
1
1
1
1
1
1.00001
1.00003
1.00003
1.00016
1.0002
1.0009
1.00105
1.00445
1.00607
1.01594
1.05988
1.0707
1.51055
1.59894
4.74583
9.34016
10.1952
9.92943
9.49742
9.29401
9.24912
9.24315
9.2266
9.18804
9.12899
9.06846
9.00714
8.94788
8.88944
8.82985
8.76719
8.70178
8.63435
8.56579
8.49223
8.41908
8.34434
1
1
1
1
1
1
1
1
1
1
1
1
1
1
1
1.00005
1.00013
1.00018
1.00076
1.00087
1.00364
1.00478
1.01693
1.05965
1.04046
1.44377
1.48235
4.22646
8.42212
10.3676
10.1376
9.62409
9.33811
9.26141
9.25487
9.23132
9.18504
9.12693
9.06772
9.00928
8.95364
8.89748
8.84038
8.78011
8.71781
8.65219
8.58472
8.51459
8.44366
8.37172
1
1
1
1
1
1
1
1
1
1
1
1
1
1
1.00002
1.00002
1.00013
1.00016
1.00075
1.00087
1.00382
1.00432
1.01963
1.02574
1.11403
1.31986
1.33628
3.78368
7.64707
10.753
10.4604
9.78415
9.39707
9.28566
9.26368
9.23698
9.19001
9.1326
9.07526
9.02032
8.96587
8.9106
8.85442
8.79229
8.73065
8.66683
8.60059
8.53284
8.46414
8.39515
1
1
1
1
1
1
1
1
1
1
1
1
1
1
1.00001
1.00002
1.00007
1.00008
1.00031
1.00028
1.00185
1.00359
1.00285
1.00656
0.982827
0.933024
2.24545
2.55062
8.47893
10.8518
10.413
9.72954
9.3902
9.28547
9.25547
9.22914
9.18929
9.13741
9.08345
9.0299
8.976
8.92107
8.8639
8.80513
8.7444
8.68105
8.61657
8.5518
8.4857
8.41794
1
1
1
1
1
1
1
1
1
1
1
1
1
1
1.00001
1.00001
1.00007
1.00007
1.00057
1.00062
1.00393
1.00691
1.02595
1.02541
1.1067
1.22052
1.20691
3.29374
6.46807
10.9964
10.681
9.93401
9.49243
9.32651
9.2744
9.24503
9.2065
9.15867
9.10668
9.05265
8.99694
8.93958
8.88015
8.81983
8.75854
8.69797
8.63419
8.57108
8.50736
8.44165
1
1
1
1
1
1
1
1
1
1
1
1
1
1
1
1.00001
1.00003
1.00005
1.0003
1.00038
1.00215
1.00343
1.01804
1.00564
1.05399
1.14061
1.05817
3.0387
5.33453
11.1821
10.8013
10.0495
9.56308
9.35819
9.29501
9.26667
9.23022
9.18373
9.13089
9.07474
9.01702
8.9548
8.89385
8.83251
8.77146
8.71098
8.65018
8.58847
8.52504
8.46479
1
1
1
1
1
1
1
1
1
1
1
1
1
1
1
1.00002
1.00003
1.00004
1.00029
1.00043
1.00186
1.00236
1.01016
1.01713
1.06573
1.0698
1.77569
1.88383
6.47424
10.8983
10.603
9.95224
9.55361
9.37171
9.31674
9.29737
9.26756
9.22177
9.16654
9.10655
9.0441
8.98012
8.91699
8.85288
8.79102
8.73046
8.67008
8.60966
8.54642
8.48348
1
1
1
1
1
1
1
1
1
1
1
1
1
1
1
1.00001
1.00001
1.00001
1.00004
1.00007
1.0006
1.00149
1.01014
0.998866
1.03967
1.10967
1.0193
2.88926
4.69721
10.8347
10.5931
10.0834
9.59973
9.39137
9.34065
9.32763
9.30117
9.25448
9.19545
9.13082
9.06453
8.99745
8.93222
8.86705
8.80563
8.74569
8.68578
8.6261
8.56483
8.50161
1
1
1
1
1
1
1
1
1
1
1
1
1
1
0.999999
0.999995
0.999992
0.999924
0.999903
0.999528
0.9991
0.997859
1.00004
0.991725
1.02701
1.08541
0.982039
2.78731
4.33025
10.6588
10.5095
10.0879
9.61626
9.41124
9.36641
9.35703
9.33572
9.29109
9.22828
9.15923
9.08848
9.01847
8.95074
8.88569
8.8238
8.76249
8.70195
8.64623
8.5842
8.52151
1
1
1
1
1
1
1
1
1
1
1
1
1
1
1
0.999999
0.999996
0.999974
0.999934
1.00004
0.998631
0.996858
0.997721
0.986045
1.01671
1.06767
0.965948
2.6915
4.0245
10.3421
10.5079
10.1086
9.64911
9.45005
9.40477
9.3906
9.36397
9.31542
9.25015
9.17805
9.10444
9.03295
8.96456
8.89973
8.8385
8.77728
8.71659
8.66349
8.60169
8.53974
1
1
1
1
1
1
1
1
1
1
1
1
1
1
1
1.00001
1.00001
1.00002
1.00005
1.00016
0.998966
0.997356
0.997562
0.976357
0.997727
1.02903
0.925804
2.60103
3.75642
10.0965
10.6154
10.2026
9.70494
9.47423
9.40912
9.38533
9.35307
9.30242
9.23773
9.16745
9.09717
9.02972
8.96572
8.90568
8.84799
8.78828
8.73261
8.67981
8.61854
8.55761
1
1
1
1
1
1
1
1
1
1
1
1
1
1
1.00001
1.00002
1.00003
1.00012
1.00014
1.00058
1.0008
1.00167
1.00726
1.00988
1.05107
1.0382
1.44034
1.41594
4.45447
8.91492
10.8668
10.5482
9.89253
9.53563
9.40866
9.37528
9.34211
9.29789
9.23051
9.16148
9.0933
9.03194
8.96853
8.9126
8.85813
8.80157
8.74853
8.69324
8.6334
8.57214
1
1
1
1
1
1
1
1
1
1
1
1
1
1
1
1.00002
1.00003
1.00015
1.00018
1.00088
1.001
1.00463
1.00554
1.02139
1.02606
1.07111
1.34152
1.36676
3.81985
7.77635
11.4172
10.9605
10.0234
9.53747
9.36884
9.32613
9.2919
9.2482
9.18567
9.12231
9.06378
9.00858
8.95697
8.90849
8.8563
8.806
8.75448
8.69998
8.6413
8.58026
1
1
1
1
1
1
1
1
1
1
1
1
1
1
1
1.00003
1.00003
1.00015
1.00018
1.00085
1.00101
1.00438
1.00482
1.0167
1.00923
0.999574
1.35319
1.2572
3.85232
7.51338
11.401
10.9749
10.0479
9.54212
9.36611
9.31898
9.2804
9.23822
9.17681
9.11804
9.06215
9.01036
8.96171
8.91347
8.86327
8.81416
8.76238
8.70786
8.64988
8.59
1
1
1
1
1
1
1
1
1
1
1
1
1
1
1
1.00001
1.00001
1.00005
1.00012
1.00026
1.00022
1.00264
1.00572
1.00542
1.01609
1.00288
0.90191
2.38822
2.68785
8.78439
10.7653
10.3316
9.685
9.37038
9.26535
9.22633
9.19423
9.15494
9.11048
9.06169
9.01446
8.97113
8.9283
8.8828
8.83491
8.79608
8.745
8.69308
8.63905
8.58252
1
1
1
1
1
1
1
1
1
1
1
1
1
1
1
1.00001
1.00001
1.00006
1.00006
1.00032
1.00045
1.00158
1.00246
1.00609
1.02891
1.0504
0.932192
2.32458
2.57352
8.39333
10.6287
10.2517
9.61429
9.30725
9.21216
9.17869
9.15481
9.12589
9.08918
9.04765
9.00621
8.96454
8.92439
8.87887
8.83813
8.79315
8.74049
8.68863
8.63565
8.5796
1
1
1
1
1
1
1
1
1
1
1
1
1
1
1
1.00001
1.00001
1.00006
1.00011
1.0001
1.00097
1.00062
1.00634
0.998571
1.00625
1.01723
0.91453
2.39421
2.64586
8.77921
10.6677
10.2076
9.52014
9.204
9.12089
9.10467
9.09566
9.08261
9.06023
9.02413
8.9838
8.9436
8.90478
8.86162
8.81797
8.7786
8.72814
8.6782
8.62753
8.57331
3.14566
3.16994
4.18831
4.32646
4.15224
4.04819
3.99575
3.97241
3.96233
3.95625
3.94237
3.91674
3.90032
3.89519
3.8967
3.90948
3.93217
3.9637
4.00395
4.05061
4.10338
4.1595
4.21712
4.27464
4.33092
4.38526
4.43694
4.48562
4.53081
4.57203
4.60895
4.64187
4.6724
4.69848
4.71812
4.73242
4.74197
4.74705
4.74722
4.74513
4.73871
4.72651
4.71056
4.6918
4.66997
4.64556
4.61853
4.58919
4.55772
4.52432
4.48913
4.45242
4.41422
4.37481
4.33424
4.29269
4.25028
4.20711
4.16329
4.1189
4.07397
4.02869
3.98301
3.93718
3.89112
3.84504
3.79888
3.7528
3.70674
3.66084
3.61506
3.5695
3.52411
3.47893
3.43401
3.38941
3.34511
3.30114
3.25749
3.21418
3.17126
3.12882
3.08688
3.04546
3.0046
2.96434
2.92475
2.88585
2.84778
2.81054
2.77423
2.7389
2.70472
2.67181
2.64044
2.61091
2.58381
2.55997
2.54064
2.52923
4.22418
4.18199
4.36772
4.29123
4.12496
4.0345
4.00217
3.99007
3.98957
3.98593
3.96587
3.93258
3.89916
3.88418
3.88801
3.90374
3.92749
3.9587
3.99855
4.04457
4.09653
4.15246
4.20988
4.26728
4.32345
4.37779
4.42943
4.4781
4.52334
4.56472
4.602
4.6353
4.66535
4.69113
4.71129
4.72603
4.73585
4.74102
4.74136
4.73981
4.73442
4.7226
4.70587
4.68702
4.66563
4.64158
4.61489
4.58581
4.55457
4.52138
4.4864
4.44985
4.41183
4.37255
4.33211
4.29066
4.24834
4.20526
4.1615
4.11714
4.07226
4.02699
3.98138
3.93556
3.88956
3.8435
3.79739
3.75132
3.70529
3.6594
3.61365
3.5681
3.52272
3.47754
3.43269
3.38818
3.34392
3.29995
3.25629
3.21297
3.17008
3.12768
3.08578
3.04441
3.00363
2.96345
2.92397
2.8852
2.8472
2.81001
2.77376
2.73848
2.70435
2.67145
2.64011
2.61054
2.58336
2.55934
2.53959
2.52759
5.34351
4.86065
4.67447
4.43344
4.24104
4.11324
4.04519
4.0031
3.97863
3.96313
3.94286
3.91922
3.90251
3.89718
3.8998
3.91012
3.93186
3.96127
3.99951
4.04404
4.09524
4.15041
4.20716
4.26411
4.32007
4.37409
4.42542
4.4737
4.51853
4.55968
4.59681
4.6299
4.65925
4.68431
4.70422
4.71891
4.72857
4.73353
4.73356
4.73237
4.72808
4.71797
4.70023
4.68075
4.65947
4.63579
4.60955
4.58085
4.54994
4.51703
4.48232
4.44599
4.4082
4.3691
4.32884
4.28752
4.24531
4.20235
4.15859
4.11427
4.0694
4.02415
3.97855
3.93278
3.88682
3.84082
3.79477
3.74877
3.70279
3.65698
3.6113
3.5658
3.52042
3.47505
3.43034
3.38593
3.34176
3.29786
3.25432
3.21118
3.1685
3.12618
3.08441
3.04314
3.00251
2.96246
2.92311
2.88443
2.84656
2.80947
2.77335
2.73815
2.70413
2.67132
2.64004
2.61052
2.58324
2.55906
2.53878
2.5258
5.89586
5.31762
4.96447
4.6811
4.45344
4.27997
4.16558
4.09866
4.06328
4.04036
4.01301
3.98056
3.95032
3.93026
3.92646
3.93008
3.9428
3.97099
4.01065
4.05272
4.09993
4.15142
4.2055
4.26023
4.31396
4.36638
4.41643
4.46362
4.50741
4.54762
4.58406
4.61663
4.64527
4.66978
4.68956
4.70429
4.71399
4.7188
4.71874
4.71771
4.71425
4.70601
4.68931
4.66929
4.64775
4.62435
4.59867
4.57062
4.5403
4.50794
4.47371
4.43783
4.40044
4.36171
4.32176
4.28073
4.23872
4.19593
4.15236
4.10817
4.06343
4.0183
3.97286
3.92725
3.88149
3.83566
3.78981
3.74398
3.6981
3.65244
3.60698
3.56169
3.5166
3.47196
3.42713
3.38249
3.33824
3.29438
3.25098
3.20798
3.16544
3.12333
3.08174
3.04063
3.00019
2.9603
2.92116
2.88268
2.84501
2.80817
2.77219
2.73729
2.70341
2.67091
2.63974
2.61055
2.58322
2.55919
2.53845
2.52485
6.25238
5.71263
5.30248
4.97688
4.71291
4.50451
4.35215
4.2502
4.18174
4.13154
4.08651
4.04405
4.00821
3.98557
3.97898
3.98024
3.98655
4.00255
4.03505
4.07206
4.1139
4.15988
4.20906
4.25981
4.31052
4.36056
4.40863
4.45413
4.4965
4.53538
4.57063
4.60217
4.62983
4.65346
4.67281
4.68746
4.69716
4.70191
4.70181
4.70084
4.69786
4.69086
4.67645
4.65653
4.63467
4.61123
4.58588
4.55837
4.52868
4.49694
4.46329
4.42794
4.39104
4.35275
4.31321
4.27255
4.23086
4.18829
4.14494
4.10091
4.05633
4.01135
3.96612
3.92073
3.87516
3.82946
3.78378
3.73815
3.69275
3.64731
3.60198
3.55676
3.51179
3.46702
3.42247
3.37806
3.33404
3.29033
3.2471
3.20426
3.16191
3.12004
3.07867
3.03786
2.99762
2.95806
2.91912
2.88098
2.84352
2.80703
2.7713
2.73676
2.70324
2.67112
2.64033
2.61144
2.58454
2.56071
2.54014
2.5263
6.52797
6.05568
5.64458
5.29535
5.00188
4.76251
4.57586
4.43786
4.33703
4.26297
4.20327
4.15187
4.10881
4.07674
4.05642
4.04719
4.04766
4.05193
4.06447
4.09136
4.12887
4.17035
4.21443
4.26037
4.30742
4.35383
4.39908
4.4423
4.48285
4.5202
4.55408
4.58439
4.6109
4.63351
4.6522
4.66668
4.67629
4.68111
4.68097
4.68002
4.67729
4.67111
4.65846
4.63972
4.61816
4.59476
4.56956
4.54243
4.51328
4.48214
4.44914
4.41439
4.37808
4.34033
4.30129
4.26105
4.21975
4.17747
4.13438
4.09055
4.04623
4.00143
3.95641
3.91131
3.86619
3.82105
3.77587
3.73064
3.68548
3.64029
3.59518
3.55013
3.50533
3.46068
3.41638
3.37223
3.32849
3.28498
3.24198
3.19935
3.15725
3.11564
3.07456
3.03408
2.99415
2.95495
2.91632
2.87859
2.84142
2.80546
2.77007
2.73612
2.70312
2.67163
2.64144
2.61326
2.58712
2.56412
2.54411
2.53105
6.74913
6.34194
5.95642
5.60023
5.29052
5.02999
4.81741
4.65002
4.52111
4.42203
4.343
4.27695
4.22107
4.17625
4.14405
4.12361
4.11307
4.11318
4.11618
4.12608
4.14842
4.18364
4.2231
4.26444
4.30673
4.34908
4.39082
4.43116
4.46937
4.50482
4.53706
4.56586
4.59107
4.61259
4.63042
4.64428
4.6537
4.65834
4.65819
4.65726
4.65468
4.64895
4.63731
4.62007
4.59939
4.57634
4.55131
4.52442
4.49565
4.46503
4.43263
4.39853
4.36286
4.32572
4.28724
4.24751
4.20665
4.16475
4.12201
4.07847
4.0346
3.9905
3.94612
3.90144
3.85666
3.81179
3.76688
3.72187
3.67693
3.63195
3.58712
3.54231
3.49775
3.45333
3.40924
3.3654
3.3219
3.27875
3.23599
3.19373
3.15188
3.11068
3.06989
3.02985
2.99027
2.95153
2.9133
2.87606
2.83943
2.80396
2.76926
2.73599
2.70373
2.67304
2.64388
2.61686
2.59206
2.57059
2.55206
2.54111
6.93025
6.57828
6.22453
5.88088
5.56671
5.29304
5.06249
4.87333
4.72079
4.59852
4.49941
4.41703
4.3476
4.29051
4.24574
4.21276
4.19025
4.17752
4.17445
4.17613
4.18284
4.19905
4.2314
4.26767
4.3056
4.34404
4.38223
4.41943
4.45492
4.48809
4.51839
4.54551
4.56928
4.58961
4.60639
4.6197
4.62869
4.63302
4.63285
4.63192
4.62942
4.62394
4.61291
4.59704
4.57756
4.55524
4.5306
4.50396
4.47547
4.44524
4.41334
4.37983
4.34478
4.30826
4.27037
4.23114
4.19075
4.14921
4.10696
4.0642
4.02088
3.97716
3.93322
3.88894
3.84453
3.79992
3.75533
3.71063
3.66601
3.62138
3.57689
3.53246
3.48825
3.44418
3.40042
3.35694
3.3138
3.27106
3.22869
3.18685
3.14542
3.10465
3.06432
3.02476
2.98567
2.94747
2.90979
2.87319
2.83723
2.80249
2.76873
2.73636
2.70514
2.67567
2.64796
2.62265
2.59989
2.58093
2.56488
2.55774
7.08435
6.77613
6.45511
6.12989
5.82308
5.54668
5.30539
5.09937
4.92685
4.7844
4.66628
4.56713
4.48313
4.41254
4.3546
4.3087
4.2739
4.24931
4.23438
4.22822
4.22908
4.23369
4.24602
4.27165
4.30371
4.33819
4.37327
4.40752
4.44015
4.4707
4.4987
4.5239
4.54608
4.56512
4.58092
4.59344
4.60217
4.60562
4.60542
4.60446
4.60193
4.5965
4.58578
4.57107
4.55284
4.53148
4.50747
4.48123
4.45308
4.42321
4.39176
4.35876
4.32431
4.28837
4.25106
4.21234
4.17249
4.13167
4.09013
4.04792
4.00525
3.96204
3.91856
3.8747
3.83069
3.78648
3.74225
3.69795
3.6537
3.60949
3.56539
3.52141
3.4776
3.43399
3.39063
3.34759
3.30488
3.26257
3.22067
3.17929
3.13836
3.09807
3.05829
3.01926
2.9808
2.94321
2.9063
2.87041
2.83539
2.80165
2.76908
2.73781
2.70812
2.68037
2.6548
2.63197
2.61226
2.59692
2.58494
2.58265
7.21863
6.9458
6.65691
6.35488
6.05992
5.78544
5.53861
5.32206
5.1353
4.9755
4.83957
4.72382
4.62506
4.54098
4.47018
4.41172
4.36475
4.32836
4.30185
4.2845
4.27488
4.27492
4.27719
4.28507
4.30272
4.32997
4.36092
4.39226
4.42237
4.45047
4.47612
4.49933
4.51979
4.53765
4.5525
4.56412
4.57267
4.57578
4.57554
4.57449
4.57185
4.56627
4.55613
4.54222
4.52515
4.50475
4.48156
4.45591
4.42826
4.39877
4.36776
4.33519
4.30124
4.26581
4.22901
4.19086
4.15175
4.11172
4.07094
4.0294
3.98731
3.94466
3.90164
3.85829
3.81471
3.77098
3.72715
3.68332
3.63949
3.59576
3.55211
3.50864
3.46533
3.42224
3.37942
3.33689
3.29473
3.25295
3.21163
3.17079
3.13049
3.09076
3.05167
3.01327
2.97559
2.93875
2.90279
2.86786
2.83409
2.8017
2.77046
2.74084
2.71318
2.6878
2.66519
2.64587
2.63054
2.6202
2.61482
2.61538
7.34451
7.09926
6.83622
6.55687
6.27726
6.00996
5.76253
5.53926
5.34097
5.16717
5.0161
4.88545
4.77246
4.67503
4.59153
4.521
4.46214
4.41398
4.3758
4.34695
4.32666
4.31454
4.31006
4.31098
4.31535
4.3263
4.34769
4.37313
4.40037
4.42618
4.44992
4.47149
4.49056
4.50713
4.521
4.53184
4.54008
4.54288
4.54255
4.54144
4.53876
4.53324
4.5238
4.51062
4.49452
4.47514
4.45292
4.42812
4.40115
4.37225
4.3417
4.3096
4.27606
4.24109
4.20479
4.1674
4.12907
4.0898
4.0497
4.00884
3.96733
3.9253
3.88281
3.84002
3.79695
3.75376
3.71043
3.66713
3.62381
3.58062
3.53751
3.49461
3.45187
3.40939
3.36718
3.32526
3.28374
3.24258
3.20192
3.16171
3.12211
3.08308
3.04476
3.00715
2.9704
2.93454
2.89974
2.86611
2.83398
2.80296
2.77361
2.74629
2.72139
2.69932
2.68076
2.66631
2.65698
2.65348
2.65404
2.65673
7.45961
7.23988
7.00146
6.74181
6.47573
6.21627
5.97134
5.74552
5.54061
5.3568
5.19374
5.05003
4.92402
4.81391
4.71809
4.63571
4.56518
4.50558
4.45598
4.41574
4.38417
4.36072
4.34501
4.33554
4.33444
4.33592
4.34165
4.35453
4.37477
4.39657
4.41841
4.43865
4.45663
4.47211
4.48507
4.49532
4.50331
4.50616
4.50591
4.50488
4.50241
4.49728
4.48848
4.4761
4.46078
4.44241
4.42121
4.3974
4.37129
4.34313
4.31318
4.28156
4.2484
4.21385
4.17826
4.14164
4.10402
4.0655
4.0261
3.98598
3.94515
3.90381
3.86195
3.8198
3.77733
3.73475
3.692
3.6493
3.60656
3.56399
3.5215
3.47924
3.43716
3.39535
3.35384
3.31262
3.27183