/*--------------------------------*- C++ -*----------------------------------*\
| =========                 |                                                 |
| \\      /  F ield         | OpenFOAM: The Open Source CFD Toolbox           |
|  \\    /   O peration     | Version:  2412                                  |
|   \\  /    A nd           | Website:  www.openfoam.com                      |
|    \\/     M anipulation  |                                                 |
\*---------------------------------------------------------------------------*/
FoamFile
{
    version     2.0;
    format      ascii;
    arch        "LSB;label=32;scalar=64";
    class       surfaceScalarField;
    location    "5.5";
    object      phi;
}
// * * * * * * * * * * * * * * * * * * * * * * * * * * * * * * * * * * * * * //

dimensions      [1 0 -1 0 0 0 0];

oriented        oriented;

internalField   nonuniform List<scalar> 
13790
(
0.00290515
1.34928e-13
0.00290515
2.62934e-13
0.00290515
1.01671e-12
0.00290515
1.83138e-12
0.00290515
5.27884e-12
0.00290515
9.37658e-12
0.00290515
2.37203e-11
0.00290515
4.24272e-11
0.00290515
7.39692e-11
0.00290515
2.47398e-10
0.00290516
1.66505e-10
0.0029051
9.95209e-10
0.00290522
1.09292e-09
0.00290472
6.70828e-09
0.00290519
5.07165e-08
0.00290346
1.52697e-09
0.00290413
1.87331e-07
0.00291229
-4.2058e-07
0.00289806
1.09267e-06
0.00291742
3.45552e-06
0.00289898
-1.12336e-06
0.00260962
1.03306e-05
0.00282098
4.48462e-06
0.00265377
4.02514e-05
0.00262013
3.87546e-05
0.00259656
2.36683e-05
0.00256902
2.10631e-05
0.00254127
2.47896e-05
0.00251161
2.89282e-05
0.00247612
3.51655e-05
0.0024327
4.27363e-05
0.00237794
5.16455e-05
0.00230708
6.07759e-05
0.00222774
7.02606e-05
0.00214018
7.94809e-05
0.0020448
8.78525e-05
0.00194088
9.5439e-05
0.00182903
0.000102306
0.00171114
0.000108887
0.00158685
0.000115415
0.00145567
0.000121945
0.00131721
0.00012846
0.00117247
0.000134812
0.00102234
0.000141127
0.000866084
0.000147228
0.000703998
0.000152803
0.000536512
0.000158109
0.000364176
0.000162701
0.00018586
0.00016895
0.000176598
0.00301309
2.65833e-13
0.00301309
5.33206e-13
0.00301309
2.28263e-12
0.00301309
4.07211e-12
0.00301309
1.25205e-11
0.00301309
2.34631e-11
0.00301309
6.5378e-11
0.00301309
1.07915e-10
0.00301309
2.32853e-10
0.00301309
4.756e-10
0.0030131
8.80353e-10
0.00301307
7.11924e-10
0.00301315
1.2161e-09
0.00301277
-3.604e-10
0.00301357
-3.73361e-08
0.00301063
1.38882e-08
0.00301298
-1.28379e-07
0.00301548
3.83917e-07
0.00299852
-4.19843e-07
0.00305506
-1.64718e-06
0.00302036
3.62904e-06
0.0027447
-2.74214e-06
0.00295956
2.66434e-05
0.00279634
6.10351e-05
0.00276548
7.26309e-05
0.00272159
6.46688e-05
0.00267544
5.86767e-05
0.00263865
5.76341e-05
0.00260425
6.27248e-05
0.00256626
7.2809e-05
0.00252088
8.73901e-05
0.00246367
0.000105208
0.00239025
0.000123623
0.0023082
0.00014299
0.00221772
0.000161656
0.00211919
0.000178598
0.00201181
0.000194036
0.00189612
0.000208128
0.001774
0.000221719
0.00164502
0.000235222
0.00150873
0.00024869
0.00136475
0.000262092
0.00121418
0.000275124
0.00105795
0.000288059
0.000895292
0.000300544
0.000726476
0.000312028
0.000552006
0.000322875
0.000372385
0.000332353
0.000188156
0.000343477
0.000355149
0.00312505
3.27229e-13
0.00312505
1.02105e-12
0.00312505
3.66793e-12
0.00312505
6.01058e-12
0.00312505
2.17281e-11
0.00312505
4.24483e-11
0.00312505
1.74008e-10
0.00312505
1.83377e-10
0.00312504
4.52278e-10
0.00312504
7.41642e-10
0.00312504
1.60591e-09
0.00312505
3.15382e-09
0.00312504
4.5481e-09
0.00312485
2.20997e-08
0.0031251
-5.8521e-09
0.00312332
5.51168e-08
0.0031239
-5.95102e-08
0.00313535
-8.71038e-07
0.00311756
1.48165e-06
0.00314276
1.00035e-06
0.00311559
1.82671e-06
0.00281769
2.67023e-05
0.00302846
1.11792e-05
0.00285078
0.0001025
0.0028129
0.000113189
0.00278916
8.55882e-05
0.00276328
7.73307e-05
0.00273612
8.23579e-05
0.00270577
9.25475e-05
0.00266755
0.000110776
0.0026198
0.000134249
0.00255832
0.000161894
0.00248108
0.00019001
0.00239527
0.00021945
0.0023009
0.000247523
0.00219832
0.000273059
0.00208669
0.000296487
0.00196651
0.000318048
0.00183965
0.000338958
0.00170567
0.000359735
0.00156408
0.000380441
0.00141452
0.000400988
0.00125813
0.000420961
0.00109583
0.000440788
0.000926808
0.000459958
0.00075133
0.000477613
0.000569937
0.00049424
0.000383297
0.000508658
0.000192879
0.000523834
0.000538062
0.00324116
7.31739e-13
0.00324116
1.14539e-12
0.00324116
5.00081e-12
0.00324116
6.38882e-12
0.00324116
2.72156e-11
0.00324116
3.52709e-11
0.00324116
4.97437e-10
0.00324116
-1.43901e-11
0.00324116
1.17069e-09
0.00324116
1.01249e-09
0.00324115
3.72698e-09
0.00324118
5.30924e-09
0.0032411
2.32855e-08
0.00324133
-7.78946e-09
0.00324092
7.12163e-08
0.00324159
4.63982e-08
0.00324006
2.70244e-07
0.00324463
9.46896e-07
0.00323807
1.92429e-08
0.00324085
3.90181e-06
0.00320688
1.48563e-06
0.003314
-7.39868e-06
0.00314086
4.39103e-05
0.00299237
0.000124629
0.00295728
0.000149147
0.00292051
0.000117143
0.00288378
0.000106237
0.00285139
0.000111947
0.00281676
0.000126699
0.0027747
0.00015221
0.00272241
0.000185048
0.00265556
0.000222361
0.00257472
0.000260553
0.00248527
0.000299836
0.002387
0.000337066
0.00228033
0.000371155
0.00216441
0.000402725
0.00203974
0.000432046
0.00190813
0.000460632
0.00176913
0.000489003
0.0016222
0.000517266
0.00146698
0.00054524
0.00130467
0.000572433
0.00113623
0.000599429
0.000960743
0.000625599
0.000778503
0.000649677
0.000590145
0.00067226
0.000396581
0.000691555
0.000199346
0.000710651
0.000727067
0.00336158
7.06024e-13
0.00336158
1.19698e-12
0.00336158
5.30862e-12
0.00336158
1.03772e-11
0.00336158
3.1428e-11
0.00336158
3.95737e-11
0.00336158
-4.46131e-11
0.00336158
5.09775e-10
0.00336158
2.1718e-09
0.00336158
1.76525e-10
0.00336158
1.07717e-08
0.00336158
4.90674e-10
0.00336159
6.12527e-08
0.00336127
-4.66947e-08
0.00336182
1.81262e-08
0.0033601
1.07957e-08
0.00336036
1.14453e-07
0.00337412
-4.57856e-07
0.00334963
1.20457e-06
0.00339928
-1.91836e-06
0.00337208
2.33661e-06
0.00308052
5.24952e-06
0.00331883
3.92342e-05
0.00310846
0.000170885
0.00306805
0.000189812
0.00303159
0.000148844
0.00299657
0.000133833
0.00296478
0.000141652
0.00292974
0.000161805
0.00288546
0.000195776
0.0028296
0.000238873
0.00275827
0.000286124
0.00267395
0.000335354
0.00258027
0.00038442
0.00247734
0.000430739
0.00236596
0.000473301
0.0022454
0.000513093
0.00211603
0.000550347
0.0019796
0.000586822
0.00183551
0.000623105
0.0016833
0.000659149
0.00152247
0.000694932
0.00135421
0.000729703
0.00117943
0.000764252
0.000997328
0.000797633
0.000808128
0.000828548
0.000612502
0.000857285
0.000411259
0.000881785
0.000206706
0.00090443
0.000923054
0.00348648
4.10515e-13
0.00348648
1.20173e-12
0.00348648
2.32032e-12
0.00348648
3.91449e-12
0.00348648
6.8126e-12
0.00348648
1.95864e-11
0.00348648
1.42925e-10
0.00348648
-4.12979e-11
0.00348648
-1.06596e-09
0.00348648
1.09565e-09
0.00348649
4.53894e-09
0.0034865
-5.17927e-09
0.00348661
-4.64441e-08
0.00348649
5.35072e-08
0.00348654
-5.60358e-09
0.00348632
-3.67203e-08
0.00348755
9.56389e-08
0.00347508
4.28742e-07
0.00350041
-6.08108e-07
0.00341454
6.93135e-06
0.00347778
3.67063e-06
0.00329417
1.63722e-06
0.00344905
6.9418e-05
0.00320789
0.000217287
0.00317425
0.000221157
0.00314432
0.000174124
0.00311594
0.000158501
0.00308693
0.000170513
0.00305152
0.000198172
0.00300363
0.000242576
0.00294184
0.000296966
0.00286469
0.000355239
0.00277513
0.000415132
0.00267622
0.000473719
0.00256841
0.000528627
0.00245247
0.000579398
0.00232764
0.000627254
0.00219402
0.000672547
0.00205333
0.000717112
0.00190464
0.000761651
0.00174735
0.00080594
0.00158105
0.000849871
0.00140688
0.000892692
0.00122573
0.000935283
0.00103664
0.000976555
0.000840068
0.0010145
0.00063678
0.0010497
0.000427897
0.00107939
0.000215047
0.00110614
0.00112698
0.00361602
8.71218e-13
0.00361602
1.50632e-12
0.00361602
4.09275e-12
0.00361602
1.01175e-11
0.00361602
1.31797e-11
0.00361602
3.48896e-11
0.00361602
-2.14592e-10
0.00361602
2.38178e-10
0.00361602
-6.9357e-10
0.00361602
3.65166e-10
0.00361604
-1.09375e-08
0.00361602
1.05992e-08
0.00361597
-1.86196e-08
0.0036162
1.37107e-08
0.0036161
2.45309e-08
0.0036162
4.84524e-08
0.00361495
2.12607e-07
0.00361768
8.78503e-08
0.00361597
1.49431e-06
0.00366515
-4.01381e-06
0.00360178
1.14876e-05
0.00366294
-3.20543e-06
0.00347482
7.04236e-05
0.00333132
0.000228392
0.00329216
0.000258043
0.00326539
0.000198531
0.00324773
0.00017778
0.00322222
0.000198704
0.00318427
0.000237857
0.00312923
0.000295809
0.00305773
0.000361797
0.00297224
0.000431535
0.00287576
0.00050121
0.00277113
0.000568057
0.00265858
0.000630576
0.00253876
0.000688874
0.00241026
0.000744655
0.00227313
0.000797954
0.00212855
0.000850995
0.00197585
0.000904022
0.00181398
0.000957177
0.00164244
0.00100982
0.00146256
0.00106126
0.00127523
0.00111249
0.00107933
0.00116222
0.000875147
0.00120798
0.000663606
0.00125023
0.000445678
0.00128567
0.000224085
0.00131621
0.00133957
0.00375038
7.75254e-13
0.00375038
1.20231e-12
0.00375038
6.19841e-12
0.00375038
8.77343e-12
0.00375038
2.65652e-11
0.00375038
4.14937e-11
0.00375038
4.13282e-11
0.00375038
1.644e-10
0.00375037
3.61033e-10
0.00375037
7.21266e-10
0.00375036
1.64939e-09
0.00375038
1.34905e-09
0.00375034
1.11784e-08
0.00375041
-1.86113e-09
0.00375042
4.61626e-08
0.00375074
8.2823e-08
0.00374918
4.20269e-08
0.00374588
5.66674e-07
0.00375736
5.5735e-07
0.00362146
6.13581e-06
0.00376432
3.218e-07
0.00344502
3.8252e-05
0.00364115
3.97872e-05
0.0034631
0.000234414
0.00343918
0.000278059
0.00342043
0.000219036
0.0034046
0.000201862
0.0033728
0.00023435
0.00332334
0.000287562
0.00325403
0.000359016
0.00317016
0.000436466
0.00307572
0.000515681
0.00297272
0.000592965
0.00286345
0.000666353
0.00274732
0.000735437
0.00262455
0.000800781
0.00249343
0.000864382
0.00235343
0.000925998
0.00220585
0.000987755
0.00204939
0.00104999
0.00188352
0.00111226
0.00170731
0.00117456
0.00152185
0.0012354
0.00132816
0.00129594
0.00112538
0.00135473
0.000913259
0.00140935
0.000692941
0.00145918
0.000466137
0.00150052
0.000234404
0.00153607
0.00156207
0.00388972
8.41863e-13
0.00388972
2.21186e-12
0.00388972
8.60367e-12
0.00388972
1.12268e-11
0.00388972
3.83066e-11
0.00388972
7.0468e-11
0.00388972
1.77755e-10
0.00388972
2.54743e-10
0.00388972
9.17759e-10
0.00388972
9.94195e-10
0.00388971
1.19647e-08
0.0038897
-1.12867e-09
0.00388976
2.0804e-08
0.00388935
2.27951e-08
0.00389008
-1.12082e-08
0.00388874
1.87603e-08
0.00388626
3.6351e-08
0.00390106
-3.45218e-07
0.00387129
1.69483e-06
0.00397222
5.47419e-07
0.00389797
8.56199e-06
0.00414356
2.55534e-07
0.00378257
8.93544e-05
0.00359084
0.000268912
0.00357481
0.000290902
0.00357246
0.000230599
0.00356229
0.000227133
0.00352214
0.000278031
0.003459
0.000347505
0.00337587
0.00043226
0.00328072
0.000520006
0.00317775
0.000606736
0.00306905
0.000689441
0.00295601
0.000767936
0.00283711
0.000842699
0.00271188
0.000914826
0.00257848
0.000986122
0.00243611
0.00105626
0.00228577
0.00112712
0.00212618
0.00119889
0.00195645
0.00127123
0.0017759
0.00134363
0.0015853
0.00141476
0.00138557
0.00148573
0.00117543
0.00155481
0.000955359
0.00161852
0.000725885
0.0016773
0.000488139
0.00172621
0.000245698
0.00176634
0.00179552
0.00403424
1.00435e-12
0.00403424
1.7006e-12
0.00403424
6.97633e-12
0.00403424
1.68983e-11
0.00403424
4.84212e-11
0.00403424
7.36031e-11
0.00403424
2.29361e-10
0.00403424
4.34894e-10
0.00403424
9.73377e-10
0.00403424
1.80731e-09
0.00403425
-1.56816e-09
0.00403425
1.53035e-08
0.00403416
6.13304e-08
0.00403435
-1.57255e-08
0.00403414
7.03372e-08
0.00403469
6.01738e-08
0.00403388
1.19547e-07
0.00403441
2.23266e-07
0.00403581
3.69633e-07
0.00408223
-4.76564e-06
0.00401057
6.92082e-06
0.00415413
1.64804e-06
0.00389521
6.88389e-05
0.00376872
0.000250238
0.00376319
0.000302403
0.0037578
0.000257947
0.0037302
0.000271615
0.0036695
0.000338292
0.00358687
0.000422128
0.00348929
0.000515562
0.00338489
0.000610354
0.00327657
0.000702246
0.00316477
0.000788838
0.00304959
0.000871576
0.00292877
0.000951734
0.00280167
0.00103054
0.00266618
0.00110972
0.00252168
0.00118837
0.00236885
0.00126869
0.0022066
0.00135036
0.0020337
0.00143325
0.00184909
0.00151671
0.00165374
0.001599
0.00144802
0.00168156
0.00123082
0.00176185
0.00100194
0.00183671
0.000762519
0.00190525
0.000514059
0.00196228
0.000258869
0.00200906
0.00204181
0.00418414
4.29573e-13
0.00418414
1.7922e-12
0.00418414
7.16097e-12
0.00418414
1.36667e-11
0.00418414
4.94414e-11
0.00418414
8.98634e-11
0.00418414
2.5364e-10
0.00418414
4.39231e-10
0.00418413
1.16949e-09
0.00418414
2.19621e-09
0.00418414
3.44841e-09
0.00418413
9.02192e-09
0.00418422
-1.86333e-08
0.00418405
9.48515e-08
0.00418454
3.39362e-08
0.00418173
1.5942e-07
0.00418636
4.69817e-08
0.0041697
3.67645e-07
0.00418073
5.28209e-07
0.00414585
5.93757e-07
0.0041671
3.2764e-06
0.00389975
9.95419e-06
0.0041029
5.43651e-05
0.00392589
0.000235723
0.00393718
0.000294789
0.00393274
0.000285172
0.00388533
0.00032987
0.00380273
0.000414591
0.00370236
0.000509078
0.00359454
0.000606685
0.00348497
0.000704999
0.0033742
0.000799861
0.00326107
0.000889632
0.00314471
0.000976531
0.00302238
0.00106231
0.0028936
0.00114779
0.00275623
0.00123485
0.00260973
0.00132203
0.00245503
0.00141171
0.00229028
0.00150382
0.00211484
0.00159744
0.00192711
0.00169283
0.00172744
0.0017876
0.0015164
0.00188278
0.00129211
0.00197636
0.0010546
0.00206363
0.000804197
0.00214415
0.000542654
0.00221139
0.000273694
0.00226536
0.00230269
0.0043396
6.58392e-13
0.0043396
1.90262e-12
0.0043396
6.99278e-12
0.0043396
1.39644e-11
0.0043396
4.60918e-11
0.0043396
8.78499e-11
0.0043396
3.09453e-10
0.0043396
5.91194e-10
0.0043396
1.69375e-09
0.0043396
2.48894e-09
0.00433958
1.2304e-08
0.00433958
7.95342e-09
0.00433951
2.80752e-08
0.00433956
4.95114e-08
0.00433932
1.33587e-07
0.00433954
1.87109e-07
0.00433883
3.09822e-07
0.00433655
3.07224e-07
0.00434229
6.7374e-07
0.00429876
8.56098e-07
0.00431643
3.30802e-06
0.00409724
5.7426e-06
0.00428128
4.91636e-05
0.00412585
0.000197713
0.00413705
0.000285124
0.00410811
0.000328115
0.00402836
0.000407063
0.00392466
0.000505495
0.00381223
0.000605383
0.00369867
0.000703094
0.00358591
0.000802322
0.00347355
0.00089917
0.00335927
0.000991974
0.00324153
0.00108307
0.00311762
0.00117447
0.00298717
0.00126659
0.00284845
0.0013612
0.0027004
0.00145686
0.00254449
0.00155563
0.00237866
0.00165822
0.00220133
0.0017632
0.00201152
0.00187064
0.00180855
0.00197921
0.00159252
0.00208911
0.00136162
0.00219765
0.00111463
0.00230013
0.000852983
0.00239427
0.000577457
0.00247438
0.000291681
0.00253831
0.00258135
0.00450084
1.29853e-12
0.00450084
6.6327e-13
0.00450084
5.14802e-12
0.00450084
8.64812e-12
0.00450084
3.98899e-11
0.00450084
6.90669e-11
0.00450084
2.98034e-10
0.00450084
4.8768e-10
0.00450083
1.98273e-09
0.00450083
3.99826e-09
0.00450084
7.70502e-09
0.00450079
2.45047e-08
0.00450076
5.78075e-08
0.00450048
8.10378e-08
0.00450052
1.86831e-07
0.00450096
4.33081e-07
0.00449818
4.33441e-07
0.00450415
1.00253e-06
0.00450288
3.22266e-07
0.00447577
1.37389e-06
0.00449448
1.21197e-06
0.0042174
1.6648e-05
0.00440258
3.5776e-05
0.00433504
0.000165812
0.00433115
0.000280228
0.00425762
0.000387741
0.00414773
0.000500258
0.00403218
0.000604799
0.00391606
0.000704788
0.00380161
0.000800867
0.00368846
0.000900837
0.00357554
0.000999843
0.0034604
0.0010957
0.00334176
0.00119135
0.00321702
0.0012882
0.00308586
0.00138705
0.00294664
0.00148895
0.00279808
0.00159311
0.00264123
0.00170117
0.00247447
0.0018138
0.00229584
0.00193051
0.00210412
0.00205048
0.0018992
0.00217279
0.0016792
0.00229919
0.00144174
0.00242548
0.00118548
0.00254602
0.000910254
0.00265822
0.000618178
0.00275368
0.000313113
0.00283055
0.00288147
0.00466806
1.57674e-13
0.00466806
-4.823e-14
0.00466806
2.53147e-13
0.00466806
-2.6876e-14
0.00466806
1.06429e-11
0.00466806
1.76864e-11
0.00466806
1.24045e-10
0.00466807
2.21111e-10
0.00466806
1.12601e-09
0.00466806
2.01563e-09
0.00466806
9.09245e-09
0.00466809
1.96267e-08
0.00466783
6.72274e-08
0.00466841
9.94544e-08
0.00466738
3.80398e-07
0.00466886
4.71158e-07
0.00466599
5.68683e-07
0.0046668
3.45735e-07
0.00465987
-3.46266e-08
0.00472413
5.7138e-07
0.00465457
3.3805e-06
0.00495373
1.32557e-05
0.00457488
2.56392e-05
0.00454563
0.000117271
0.00448311
0.000315005
0.00436325
0.000470725
0.00424131
0.00059463
0.00412787
0.000700221
0.00401741
0.000799283
0.00390663
0.000896638
0.00379542
0.000998988
0.00368357
0.00110081
0.00356966
0.0012007
0.0034524
0.00130138
0.00332922
0.00140423
0.00319894
0.00150946
0.0030606
0.00161849
0.00291234
0.00173073
0.00275501
0.00184827
0.00258698
0.00197151
0.00240685
0.00210003
0.00221232
0.00223392
0.00200385
0.0023705
0.00178053
0.0025128
0.00153746
0.00265918
0.00127132
0.00280209
0.000982096
0.00293609
0.000670718
0.00305312
0.000341077
0.00314744
0.00320956
0.00484151
-5.56202e-13
0.00484151
-1.10866e-12
0.00484151
-3.42489e-12
0.00484151
-6.76376e-12
0.00484151
-1.13262e-11
0.00484151
-2.35162e-11
0.00484151
3.98454e-12
0.00484151
-6.95732e-12
0.0048415
4.95299e-10
0.00484151
6.78054e-10
0.00484149
4.98604e-09
0.00484153
1.14837e-08
0.00484148
5.24113e-08
0.00484122
1.15418e-07
0.00483905
3.02579e-07
0.00484201
6.91856e-07
0.0048374
2.5607e-07
0.00485208
-2.14217e-06
0.00484243
-1.59837e-06
0.00490615
-9.03992e-07
0.00485381
1.53295e-06
0.00519386
4.02733e-06
0.00479466
2.89113e-05
0.00474912
9.26372e-05
0.00463501
0.000377241
0.00447776
0.000569719
0.00434222
0.000696606
0.00423299
0.000792818
0.00412953
0.000890116
0.00402333
0.00099043
0.00391541
0.00109688
0.0038074
0.00120251
0.00369713
0.00130677
0.00358189
0.00141183
0.00345943
0.00151985
0.00332869
0.00163063
0.00319047
0.00174682
0.0030428
0.00186736
0.00288607
0.00199419
0.00271883
0.00212793
0.00253875
0.00226915
0.00234406
0.00241753
0.00213228
0.00257205
0.00190346
0.00273277
0.00165427
0.00289941
0.00137874
0.00306797
0.00107326
0.00323064
0.000737859
0.00337627
0.000377536
0.00349557
0.0035746
0.00502139
-8.42415e-13
0.00502139
-1.88423e-12
0.00502139
-6.08596e-12
0.00502139
-1.18625e-11
0.00502139
-3.12531e-11
0.00502139
-5.69052e-11
0.00502139
-1.27276e-10
0.00502139
-2.36716e-10
0.00502139
-2.8154e-10
0.0050214
-8.09974e-10
0.00502139
1.25209e-09
0.00502141
1.90426e-09
0.00502139
2.11741e-08
0.00502146
4.69268e-08
0.00502063
1.59586e-07
0.00501862
4.25332e-07
0.00502658
-1.07806e-06
0.00501322
-5.54406e-06
0.00502241
-4.0191e-07
0.00494489
-2.11484e-06
0.00505705
-5.51514e-06
0.00491212
1.89019e-06
0.00513366
4.72883e-05
0.00491426
0.000150263
0.00471327
0.000500352
0.00454603
0.000677259
0.00443314
0.000780205
0.00434352
0.000869485
0.00425419
0.000969586
0.00415791
0.00107885
0.00405766
0.00119227
0.00395302
0.00130175
0.00384321
0.00140919
0.00372867
0.00151929
0.00360725
0.00163296
0.00347902
0.00175049
0.00334285
0.00187404
0.00319686
0.00200279
0.00304117
0.0021392
0.00287432
0.00228375
0.00269529
0.00243726
0.002501
0.00260091
0.00229034
0.00277252
0.00205893
0.00295503
0.00180288
0.00314676
0.00151701
0.00334435
0.00119522
0.00354189
0.000832444
0.00372751
0.000430962
0.00388511
0.00399356
0.00520796
-1.0197e-12
0.00520796
-1.68995e-12
0.00520796
-7.24847e-12
0.00520796
-1.23392e-11
0.00520796
-4.21326e-11
0.00520796
-7.68928e-11
0.00520796
-2.16176e-10
0.00520796
-4.00761e-10
0.00520796
-1.05294e-09
0.00520797
-1.8432e-09
0.00520797
-4.0343e-09
0.00520799
-8.03519e-09
0.00520794
-1.00419e-08
0.00520814
-2.14567e-08
0.00520734
1.86664e-08
0.00520668
1.51079e-07
0.00520745
-9.32156e-07
0.00522018
-2.68413e-06
0.00520371
-2.89988e-06
0.00532825
-1.51413e-05
0.00531186
1.07618e-05
0.00514821
3.08822e-05
0.00520628
8.88409e-05
0.00491759
0.000273758
0.00473884
0.000601419
0.00460497
0.000755369
0.00454034
0.000833229
0.00447703
0.000929685
0.00440614
0.00103722
0.00431816
0.00115902
0.0042216
0.00128016
0.00411911
0.00139457
0.00401188
0.00150737
0.0039
0.0016235
0.0037808
0.00174392
0.00365412
0.00186847
0.00352053
0.00199891
0.00337772
0.00213581
0.00322564
0.00228102
0.0030623
0.00243655
0.00288614
0.00260274
0.00269441
0.00278197
0.00248351
0.00297291
0.00225268
0.00317661
0.00199523
0.00339539
0.00170182
0.00362836
0.00136194
0.00387202
0.000966575
0.00411175
0.000509654
0.00433097
0.00449236
0.00540147
-7.44107e-13
0.00540147
-1.36997e-12
0.00540147
-6.75667e-12
0.00540147
-1.07003e-11
0.00540147
-4.39228e-11
0.00540147
-6.48553e-11
0.00540147
-2.70183e-10
0.00540147
-4.07302e-10
0.00540147
-1.49865e-09
0.00540147
-2.19482e-09
0.00540148
-7.8341e-09
0.00540148
-1.07908e-08
0.00540152
-3.63231e-08
0.00540158
-7.47576e-08
0.00540167
-1.62096e-07
0.00540246
-2.57259e-07
0.00539822
8.66128e-08
0.00541863
3.26264e-07
0.00533484
3.90037e-06
0.0057312
5.60882e-06
0.0054993
2.09039e-05
0.00529008
4.86773e-05
0.00523155
8.48901e-05
0.00498139
0.000314827
0.0048556
0.000684454
0.00474482
0.000837326
0.00470487
0.000892514
0.00465208
0.000986938
0.0045855
0.0010983
0.00450198
0.00123141
0.00440722
0.00135975
0.00430785
0.00148211
0.00420387
0.00160225
0.00409502
0.00172529
0.00397938
0.00185296
0.00385556
0.00198507
0.00372406
0.00212268
0.00358489
0.00226673
0.00343782
0.00241986
0.00328096
0.00258387
0.0031124
0.00276119
0.00292908
0.00295466
0.00272793
0.00316373
0.00250335
0.00339144
0.00224777
0.00364195
0.00195249
0.00391446
0.0016024
0.00421133
0.00117554
0.00452809
0.000648142
0.0048482
0.00513071
0.00560216
-9.85944e-14
0.00560216
-6.82737e-13
0.00560216
-1.81539e-12
0.00560216
-6.59447e-12
0.00560216
-1.89238e-11
0.00560216
-5.29892e-11
0.00560216
-1.73272e-10
0.00560216
-3.87096e-10
0.00560216
-1.39476e-09
0.00560217
-2.52367e-09
0.00560217
-9.33899e-09
0.00560219
-1.98913e-08
0.00560224
-5.54597e-08
0.00560226
-1.06974e-07
0.0056028
-2.42165e-07
0.00560358
-5.19691e-07
0.00560196
5.60243e-07
0.00559948
2.39423e-06
0.00559568
4.96882e-06
0.00557118
1.31498e-05
0.00553939
1.99651e-05
0.00549716
3.90045e-05
0.00545934
8.39299e-05
0.00518434
0.000334269
0.00505452
0.000775198
0.00495148
0.000937133
0.00491404
0.000958532
0.00485676
0.0010471
0.00478977
0.00115936
0.0047072
0.00129884
0.0046183
0.00143623
0.0045245
0.00156751
0.00442416
0.00169555
0.00431811
0.00182573
0.004206
0.00196
0.00408684
0.00209874
0.00396083
0.00224325
0.00382684
0.00239429
0.00368563
0.00255424
0.00353623
0.0027261
0.00337819
0.00291026
0.00321214
0.00311059
0.00302692
0.00333796
0.00281672
0.00359109
0.002576
0.00387289
0.00229326
0.00418781
0.00195142
0.00454339
0.00151051
0.00495871
0.000908532
0.0054405
0.00603098
0.00581031
4.84919e-14
0.00581031
4.26741e-13
0.00581031
7.38105e-13
0.00581031
1.74515e-12
0.00581031
1.83294e-12
0.00581031
-2.2335e-12
0.00581031
-1.85545e-11
0.00581031
-1.28958e-10
0.00581031
-3.67738e-10
0.0058103
-1.60338e-09
0.00581032
-4.31291e-09
0.00581032
-1.58419e-08
0.00581033
-4.06471e-08
0.00581041
-1.08635e-07
0.0058108
-2.33949e-07
0.00581213
-9.05446e-07
0.0058089
1.01191e-06
0.00579872
2.81552e-06
0.00578987
4.48935e-06
0.00577786
1.00029e-05
0.00575539
1.57229e-05
0.00572298
2.87298e-05
0.00569025
8.21793e-05
0.00543585
0.00032294
0.00529843
0.000876949
0.00520921
0.00103898
0.00515553
0.00103449
0.00509062
0.00111285
0.00500971
0.00123479
0.00493055
0.00136663
0.00484638
0.00151316
0.0047556
0.00165286
0.00465755
0.00178809
0.00455361
0.0019243
0.00444463
0.0020633
0.00433134
0.00220652
0.00421433
0.00235505
0.00409215
0.00251103
0.00396475
0.002676
0.00383423
0.00285065
0.00369559
0.00304205
0.00354132
0.00325624
0.00337664
0.00349249
0.00320052
0.00375697
0.00300335
0.00406021
0.00276752
0.00441357
0.00247333
0.00482774
0.00207874
0.00534381
0.00147595
0.0060349
0.00749985
0.00840003
3.70479e-13
0.00840003
8.97233e-13
0.00840003
2.71871e-12
0.00840003
6.03467e-12
0.00840003
1.58867e-11
0.00840003
3.95392e-11
0.00840003
8.14874e-11
0.00840003
2.46836e-10
0.00840002
4.49453e-10
0.00840003
1.31857e-09
0.00839998
2.55948e-09
0.00839999
6.84655e-09
0.00839976
9.28042e-09
0.00839958
5.95416e-08
0.00839945
1.36855e-08
0.00839776
1.36579e-07
0.00839924
5.25858e-07
0.00838285
2.33305e-06
0.00839572
3.70319e-06
0.00836685
8.10871e-06
0.00834584
1.24544e-05
0.00834851
1.85151e-05
0.00829554
8.19628e-05
0.0080299
0.000259909
0.00782621
0.00101462
0.00771778
0.00112562
0.0075809
0.00116341
0.00745779
0.00123112
0.00733018
0.00135687
0.00720266
0.00148931
0.0070772
0.00163624
0.00694633
0.00178275
0.00680941
0.00192322
0.00667092
0.00206029
0.00653335
0.00219762
0.00639714
0.00233857
0.00626324
0.00248466
0.00613403
0.00263609
0.00600928
0.00279662
0.00588129
0.00297492
0.0057455
0.00317215
0.00560918
0.00338479
0.00546851
0.0036227
0.00532457
0.0038883
0.00518446
0.00418712
0.00505597
0.00452859
0.00496588
0.00490509
0.00498779
0.00530905
0.00538062
0.00563219
0.00544089
0.00743674
0.00840003
-1.0356e-13
0.00840003
-2.49777e-13
0.00840003
8.4916e-14
0.00840003
2.69589e-13
0.00840003
4.17432e-12
0.00840003
9.24227e-12
0.00840003
4.63245e-11
0.00840003
9.79908e-11
0.00840003
3.54191e-10
0.00840003
8.96413e-10
0.00840003
2.18867e-09
0.0084
7.36492e-09
0.00840006
1.26762e-08
0.00840014
2.07793e-08
0.00839991
1.08088e-07
0.00839984
2.55534e-07
0.00839922
7.84016e-07
0.00837457
2.43212e-06
0.00838977
3.34505e-06
0.0083648
7.19833e-06
0.00834636
1.11597e-05
0.00834734
1.56024e-05
0.0083044
7.66237e-05
0.00812106
0.000228846
0.00784929
0.00107361
0.00773053
0.00120483
0.00762869
0.00129207
0.00749418
0.00137119
0.00734522
0.001508
0.00719208
0.00164579
0.00704503
0.00179064
0.0069095
0.00193221
0.00678456
0.00206472
0.00666787
0.00218984
0.00656187
0.0023141
0.0064652
0.00244175
0.00637953
0.00257306
0.00629833
0.0027132
0.00622147
0.00286863
0.00615539
0.00303659
0.00610498
0.00321819
0.00606615
0.00341953
0.00604186
0.00363965
0.00603416
0.00388619
0.00606371
0.00414634
0.00615293
0.00442876
0.00634481
0.0047032
0.00672138
0.00492432
0.0072804
0.00506609
0.0046816
0.00803978
0.00840003
-4.39681e-13
0.00840003
-8.85416e-13
0.00840003
-3.61789e-12
0.00840003
-6.09854e-12
0.00840003
-1.97281e-11
0.00840003
-3.28216e-11
0.00840003
-9.11817e-11
0.00840003
-1.46408e-10
0.00840003
-3.95283e-10
0.00840003
-6.94583e-10
0.00840003
-1.91839e-09
0.00840003
-4.38027e-09
0.00840003
-4.9483e-09
0.00839998
-1.60275e-08
0.00839966
5.12703e-09
0.0083991
3.53399e-07
0.00839677
9.55479e-07
0.00839289
1.85941e-06
0.008394
3.08709e-06
0.008369
6.82371e-06
0.00835406
1.06476e-05
0.00835955
1.45552e-05
0.00832174
7.19522e-05
0.0081405
0.000217618
0.00787291
0.00107645
0.00774587
0.00134147
0.00759078
0.00146297
0.00741729
0.00155749
0.00725077
0.0016909
0.00710015
0.0018229
0.00696275
0.00195582
0.00684397
0.00207887
0.00674171
0.00218899
0.00665498
0.00229294
0.00658433
0.00239711
0.0065283
0.00250343
0.00648406
0.00262102
0.00644587
0.00275115
0.00642402
0.00288928
0.00642053
0.00303921
0.00643756
0.00320163
0.00647881
0.00337846
0.00654951
0.00356701
0.0066592
0.00377049
0.00681651
0.00398044
0.00705154
0.00418412
0.00736333
0.00438277
0.00778557
0.0044956
0.00826847
0.0045783
0.00432857
0.00862144
0.00840003
-2.97373e-13
0.00840003
-4.27057e-13
0.00840003
-1.93533e-12
0.00840003
-3.7345e-12
0.00840003
-1.10891e-11
0.00840003
-2.322e-11
0.00840003
-6.9668e-11
0.00840003
-1.21865e-10
0.00840003
-3.90347e-10
0.00840002
-7.78899e-10
0.00840002
-1.35145e-09
0.00839997
-1.10408e-09
0.00839994
-3.01081e-09
0.00839993
-1.36145e-09
0.00839994
5.09309e-08
0.00839946
-1.47981e-07
0.00839652
-8.37625e-08
0.00839593
-1.50051e-07
0.00839197
6.32242e-07
0.00837434
3.10271e-06
0.0083639
7.58191e-06
0.00836741
1.13657e-05
0.00832676
6.13483e-05
0.00810597
0.000203961
0.00771747
0.00121461
0.00755013
0.00155843
0.00739147
0.00166758
0.00726631
0.0017472
0.00716079
0.00185864
0.00706548
0.00197262
0.00696429
0.00208617
0.00687511
0.00218636
0.00680574
0.00227465
0.00675541
0.00235924
0.00672128
0.00244373
0.0067012
0.00253513
0.00669471
0.00263773
0.00670244
0.00275087
0.00672579
0.00287447
0.00676486
0.00300969
0.0068241
0.00315226
0.00690847
0.00330215
0.00702539
0.00345616
0.00718744
0.00361105
0.00739948
0.00376656
0.00767519
0.00390394
0.0080143
0.00403707
0.00839903
0.00410505
0.00886824
0.00410478
0.00401892
0.00917719
0.00840003
7.32013e-14
0.00840003
1.75502e-14
0.00840003
-9.39597e-17
0.00840003
3.49133e-13
0.00840003
-2.52911e-12
0.00840003
-1.03409e-12
0.00840003
-2.98724e-11
0.00840003
-5.04532e-11
0.00840003
-2.11419e-10
0.00840003
-2.45079e-10
0.00840004
-1.61633e-09
0.00840011
-3.0665e-09
0.00840016
-1.38821e-08
0.00840012
-1.8884e-08
0.00840074
-1.21688e-07
0.00840109
-3.07934e-07
0.00840356
-1.11856e-06
0.00841336
-1.70034e-06
0.00840318
-5.03396e-06
0.00838529
-4.71207e-06
0.00834305
-1.72772e-06
0.00838096
-9.25583e-06
0.00829789
8.93185e-05
0.00797159
0.000263215
0.0074989
0.00146877
0.00731197
0.00187632
0.00725267
0.00186281
0.00724522
0.00187482
0.00724046
0.00194128
0.00722479
0.00203126
0.0071814
0.00213325
0.00713721
0.00222278
0.00710145
0.00230337
0.00707602
0.00237844
0.00706021
0.00245389
0.0070559
0.00253347
0.00706643
0.00262201
0.00709583
0.00271952
0.00714436
0.00282703
0.00721461
0.00294327
0.00730578
0.00306819
0.00742015
0.00319577
0.00755727
0.00332746
0.00772643
0.00345021
0.00793291
0.00356676
0.00818154
0.00365958
0.00848585
0.00373349
0.00882892
0.00375924
0.0091896
0.00374096
0.00366905
0.0095371
0.00840003
2.77241e-13
0.00840003
3.78326e-13
0.00840003
1.80702e-12
0.00840003
2.19069e-12
0.00840003
1.03699e-11
0.00840003
1.36338e-11
0.00840003
4.9847e-11
0.00840003
7.10444e-11
0.00840003
2.27325e-10
0.00840003
3.76312e-10
0.00840004
6.54921e-10
0.0084
7.98395e-10
0.00840007
-1.01004e-09
0.0083999
-2.34277e-09
0.00840016
-4.75791e-08
0.00839982
-6.23027e-08
0.00840156
-5.80759e-07
0.00839996
-1.06346e-06
0.00847255
-6.41383e-06
0.00834165
-6.99645e-06
0.0084025
-1.91252e-05
0.00901246
-6.11866e-05
0.00833629
0.000268355
0.0083313
5.76366e-05
0.00745858
0.00207724
0.00735122
0.00213995
0.00740754
0.00195107
0.00754826
0.00180374
0.00760147
0.00189267
0.00759803
0.00200638
0.00758126
0.00210267
0.00755836
0.00219826
0.00754022
0.0022828
0.00752894
0.00235961
0.00753335
0.00243548
0.00754361
0.00251383
0.00755912
0.00259621
0.00758911
0.00267895
0.0076377
0.00277004
0.00771014
0.00286415
0.00780723
0.00296696
0.00793286