/*--------------------------------*- C++ -*----------------------------------*\
| =========                 |                                                 |
| \\      /  F ield         | OpenFOAM: The Open Source CFD Toolbox           |
|  \\    /   O peration     | Version:  2412                                  |
|   \\  /    A nd           | Website:  www.openfoam.com                      |
|    \\/     M anipulation  |                                                 |
\*---------------------------------------------------------------------------*/
FoamFile
{
    version     2.0;
    format      ascii;
    arch        "LSB;label=32;scalar=64";
    class       volScalarField;
    location    "5.5";
    object      T;
}
// * * * * * * * * * * * * * * * * * * * * * * * * * * * * * * * * * * * * * //

dimensions      [0 0 0 1 0 0 0];

internalField   nonuniform List<scalar> 
7000
(
1
1
1
1
1
1
1
1
1
1.00001
1.00001
1.00007
1.00008
1.0004
1.00046
1.00217
1.00281
1.00957
1.02199
1.07656
1.17798
1.54606
2.0422
2.58312
2.72819
2.7066
2.69879
2.69939
2.70385
2.70619
2.70663
2.70752
2.71333
2.72231
2.72899
2.73481
2.73902
2.74645
2.75272
2.7577
2.76244
2.76727
2.77378
2.77728
2.77909
2.78305
2.78573
2.79136
2.7953
2.79403
1
1
1
1
1
1
1
1
1
1.00001
1.00001
1.00007
1.00006
1.00039
1.00045
1.00203
1.00305
1.01019
1.02259
1.07299
1.18121
1.54202
2.04266
2.57879
2.72436
2.70389
2.69837
2.69899
2.70361
2.70541
2.70588
2.70704
2.71337
2.7223
2.72889
2.7347
2.73892
2.74635
2.75261
2.75755
2.76229
2.76712
2.77361
2.77708
2.77891
2.78284
2.7855
2.7911
2.79482
2.79332
1
1
1
1
1
1
1
1
1
1.00001
1.00001
1.00007
1.00008
1.00038
1.00047
1.00216
1.00281
1.00946
1.02177
1.07551
1.17722
1.54075
2.04102
2.58269
2.729
2.70848
2.70018
2.6985
2.70177
2.7037
2.70438
2.70622
2.71337
2.72194
2.72833
2.73419
2.73856
2.7461
2.75238
2.75735
2.76205
2.76686
2.77332
2.77674
2.77854
2.78245
2.78509
2.79068
2.79446
2.79296
1
1
1
1
1
1
1
1
1
1.00001
1.00001
1.00006
1.00009
1.00035
1.00049
1.00194
1.00316
1.01114
1.02042
1.07187
1.18169
1.48809
2.05442
2.58053
2.72779
2.70809
2.70025
2.69717
2.70036
2.70197
2.70315
2.706
2.71362
2.72125
2.72738
2.73335
2.73798
2.7457
2.75195
2.75693
2.76152
2.76632
2.7728
2.77624
2.77799
2.78187
2.78454
2.79019
2.79365
2.79198
1
1
1
1
1
1
1
1
1
1.00001
1.00001
1.00006
1.00006
1.00038
1.00043
1.00187
1.00297
1.00985
1.02164
1.07115
1.1781
1.52893
2.03564
2.57686
2.72905
2.71092
2.70146
2.69613
2.69862
2.70001
2.70173
2.70555
2.71305
2.72005
2.72607
2.73249
2.73735
2.7451
2.75137
2.75626
2.76096
2.76558
2.77187
2.77521
2.77707
2.78082
2.78335
2.78883
2.79276
2.79116
1
1
1
1
1
1
1
1
1
1.00001
1.00001
1.00005
1.00004
1.00034
1.00032
1.00208
1.00246
1.01209
1.01996
1.07029
1.18056
1.49366
2.0384
2.58667
2.73242
2.71437
2.70179
2.69375
2.69545
2.69694
2.70012
2.705
2.71234
2.71904
2.7253
2.73173
2.73687
2.74442
2.75063
2.75517
2.75972
2.76441
2.77058
2.77385
2.77558
2.77956
2.78229
2.78785
2.79094
2.78922
1
1
1
1
1
1
1
1
1
1.00001
1.00001
1.00006
1.00006
1.00036
1.00039
1.00203
1.00296
1.01149
1.01838
1.05202
1.18419
1.48098
2.03309
2.56991
2.73617
2.72006
2.70119
2.6897
2.69078
2.69288
2.69844
2.70462
2.71195
2.71859
2.72481
2.73132
2.73613
2.74378
2.74948
2.75433
2.75833
2.76306
2.76937
2.77249
2.77392
2.77755
2.78008
2.78544
2.78953
2.78788
1
1
1
1
1
1
1
1
1
1.00001
1.00001
1.00006
1.00006
1.00036
1.00039
1.00192
1.00286
1.01129
1.01781
1.07815
1.16108
1.49682
2.01517
2.57026
2.73832
2.72122
2.69566
2.68301
2.68507
2.68932
2.69829
2.70496
2.71212
2.71863
2.72456
2.73104
2.73557
2.74273
2.74833
2.7526
2.75703
2.76114
2.76718
2.77056
2.77233
2.77532
2.77794
2.78381
2.78663
2.78479
1
1
1
1
1
1
1
1
1
1.00001
1.00001
1.00006
1.00006
1.00036
1.00039
1.00168
1.00275
1.01057
1.01887
1.06476
1.1749
1.44744
2.02523
2.56615
2.74192
2.72179
2.69018
2.67775
2.68174
2.6882
2.69899
2.70615
2.71336
2.71914
2.72465
2.73048
2.73485
2.74138
2.74659
2.75067
2.75476
2.75898
2.76477
2.76802
2.76948
2.77308
2.7753
2.78026
2.78449
2.78274
1
1
1
1
1
1
1
1
1
1.00001
1
1.00005
1.00006
1.00035
1.00038
1.00205
1.00248
1.01143
1.01703
1.04559
1.1744
1.44519
2.00557
2.55726
2.74162
2.71823
2.68384
2.67429
2.68098
2.6895
2.70152
2.7085
2.71494
2.71982
2.7246
2.72987
2.73369
2.73992
2.74449
2.74849
2.7519
2.7558
2.76156
2.76439
2.7662
2.76953
2.77199
2.77704
2.77989
2.77806
1
1
1
1
1
1
1
1
1
1.00001
1
1.00004
1.00003
1.00031
1.00027
1.00213
1.00218
1.01143
1.01576
1.06892
1.16151
1.45139
1.97911
2.56238
2.74152
2.71181
2.67885
2.67396
2.68312
2.693
2.7046
2.71091
2.71625
2.72026
2.72416
2.72904
2.73219
2.73824
2.74242
2.74573
2.74957
2.75268
2.75795
2.76094
2.76225
2.7656
2.7677
2.77285
2.77677
2.77498
1
1
1
1
1
1
1
1
1
1.00001
1.00001
1.00005
1.00004
1.00034
1.00034
1.00198
1.00226
1.01123
1.01515
1.06636
1.16356
1.43329
1.97171
2.5502
2.73655
2.70568
2.67882
2.67718
2.68783
2.69693
2.70758
2.71295
2.71697
2.72015
2.72336
2.72784
2.73076
2.73621
2.74065
2.74315
2.74634
2.74958
2.75365
2.75639
2.75753
2.76028
2.76307
2.76709
2.76992
2.76805
1
1
1
1
1
1
1
1
0.999999
1
1
1.00003
1.00005
1.00031
1.00027
1.00188
1.00251
1.01139
1.01497
1.06476
1.16252
1.42249
1.96681
2.52844
2.72861
2.702
2.68358
2.68335
2.69375
2.70156
2.71047
2.71412
2.71707
2.71927
2.72192
2.72562
2.7282
2.73307
2.73725
2.74013
2.74306
2.74663
2.75063
2.7516
2.75219
2.75458
2.75674
2.76167
2.76523
2.76338
1
1
1
1
1
1
1
0.999999
0.999999
0.999997
1
0.999993
1.00006
1.00014
1.00032
1.00178
1.0023
1.01114
1.01613
1.0608
1.16389
1.37809
1.96462
2.49765
2.72202
2.70597
2.69332
2.69113
2.69992
2.70561
2.71211
2.71418
2.7156
2.71634
2.71731
2.71956
2.72124
2.72511
2.72879
2.73203
2.73586
2.73949
2.74582
2.74772
2.74669
2.74723
2.74931
2.75327
2.75541
2.75309
1
1
1
1
1
1
1
0.999998
0.999998
0.999992
0.999991
0.999977
0.999993
0.999961
1.00038
1.00121
1.00314
1.01075
1.0152
1.056
1.16209
1.3652
1.95947
2.47583
2.72193
2.71304
2.7051
2.69849
2.70447
2.7071
2.71068
2.71065
2.70961
2.70897
2.70946
2.71203
2.71441
2.7181
2.72148
2.72427
2.72685
2.73037
2.73474
2.73991
2.74082
2.74001
2.74019
2.74374
2.74747
2.74557
1
1
1
1
1
1
1
0.999998
0.999998
0.999988
0.999987
0.999945
0.999952
0.999766
1.00027
1.00033
1.00418
1.00653
1.01668
1.05488
1.14957
1.3689
1.92567
2.47142
2.73517
2.7294
2.71645
2.70145
2.70375
2.70361
2.70313
2.70191
2.70216
2.70273
2.70404
2.70649
2.70773
2.71085
2.71326
2.71628
2.71909
2.72141
2.72584
2.72741
2.7297
2.7304
2.73023
2.73083
2.73225
2.72952
1
1
1
1
1
1
1
0.999998
0.999998
0.999987
0.999986
0.999927
0.999949
0.999616
1.00042
1.00016
1.00662
1.0053
1.03002
0.990189
1.14604
1.35834
1.93053
2.50709
2.75628
2.74438
2.71862
2.69773
2.69591
2.69375
2.69389
2.69455
2.69619
2.69695
2.69802
2.70058
2.70216
2.7037
2.70555
2.70647
2.70833
2.70974
2.71322
2.71786
2.71764
2.71691
2.71603
2.71659
2.71784
2.71484
1
1
1
1
1
1
1
0.999998
0.999999
0.999989
0.999988
0.99993
0.99996
0.99955
1.00056
0.999895
1.00847
1.00535
1.04721
0.975233
1.11988
1.34818
1.95087
2.54505
2.76598
2.7496
2.71209
2.68719
2.68488
2.68458
2.68723
2.69004
2.69216
2.693
2.69352
2.69491
2.6966
2.69878
2.69962
2.69981
2.6996
2.69898
2.69856
2.69962
2.70326
2.70225
2.69792
2.69487
2.692
2.6856
1
1
1
1
1
1
1
0.999999
0.999999
0.999993
0.999992
0.99995
0.999975
0.999635
1.00059
0.9999
1.0079
1.00283
1.05042
0.911249
1.13872
1.34065
1.96161
2.58621
2.7703
2.74538
2.69834
2.67813
2.67766
2.67918
2.6832
2.68473
2.68593
2.68653
2.68652
2.68682
2.68712
2.6884
2.68958
2.69037
2.69057
2.68976
2.68749
2.68469
2.68036
2.68129
2.6783
2.66911
2.66075
2.64575
1
1
1
1
1
1
1
1
1
1
1
0.999983
1.00002
0.999778
1.0006
1.00005
1.00637
1.00031
1.04676
0.90482
1.12684
1.31776
1.95845
2.62972
2.7672
2.72727
2.68797
2.67202
2.67234
2.67485
2.6788
2.67961
2.68053
2.68078
2.68114
2.681
2.6805
2.67932
2.67899
2.67746
2.67683
2.67571
2.67437
2.67
2.66375
2.65221
2.64574
2.63177
2.60531
2.53621
1
1
1
1
1
1
1
1
1
1
1.00001
1.00001
1.0001
1.0001
1.0007
1.00076
1.00472
0.998374
1.04139
0.902229
1.11511
1.28751
1.93766
2.67515
2.74884
2.70294
2.68807
2.67201
2.66922
2.67089
2.67305
2.67346
2.67394
2.67409
2.67405
2.67386
2.67342
2.67217
2.66957
2.66653
2.66052
2.65688
2.64949
2.64492
2.63387
2.62252
2.59938
2.56895
2.51412
2.39494
1
1
1
1
1
1
1
1
1
1
1
1
1.00004
1.00001
1.00034
1.00032
1.00289
0.996805
1.03585
0.904235
1.10277
1.25323
1.89483
2.67577
2.73353
2.70178
2.68626
2.66955
2.66103
2.66231
2.66184
2.66021
2.65661
2.65459
2.65418
2.65343
2.65338
2.65453
2.65406
2.65227
2.64823
2.63997
2.63045
2.61556
2.60309
2.57729
2.5547
2.5094
2.44343
2.36534
1
1
1
1
1
1
1
0.999999
0.999999
0.999998
0.999997
0.999991
0.999996
0.999983
1.00012
0.999868
1.00146
0.995959
1.03059
0.90696
1.09119
1.22083
1.84766
2.65346
2.71362
2.70564
2.68104
2.66763
2.65381
2.64966
2.64138
2.63299
2.62638
2.62419
2.62394
2.62555
2.62732
2.6302
2.6333
2.63366
2.63198
2.62621
2.61799
2.60076
2.58165
2.5539
2.51378
2.4775
2.39858
2.3612
1
1
1
1
1
1
1
1
1
1
1
0.999997
1.00005
0.999899
0.999992
0.999045
0.999842
0.994235
1.02481
0.910182
1.0775
1.1886
1.79712
2.63923
2.7011
2.69329
2.66644
2.64772
2.6267
2.61573
2.60638
2.59919
2.59524
2.59191
2.59046
2.5903
2.59029
2.59055
2.59092
2.59194
2.59409
2.59481
2.59267
2.58463
2.56711
2.54711
2.50362
2.47312
2.40532
2.36291
1
1
1
1
1
1
1
1
1
1
1
0.999998
0.99998
0.999917
0.999853
0.998958
0.999801
0.992078
1.01871
0.909628
1.06519
1.15277
1.73826
2.60071
2.67913
2.67492
2.64249
2.60794
2.58561
2.57424
2.56902
2.56598
2.56368
2.56209
2.56149
2.56083
2.56003
2.55723
2.55423
2.54887
2.54514
2.54145
2.53893
2.5374
2.53105
2.52277
2.49761
2.46897
2.42599
2.37896
1
1
1
1
1
1
1
1
1
1
1
1.00001
1.00002
1.00005
1.00011
1.0002
1.00024
0.999321
1.00141
0.958594
1.05735
1.03201
1.69064
2.53861
2.5854
2.6042
2.5871
2.56011
2.55695
2.56031
2.56779
2.57367
2.57344
2.57175
2.56644
2.56138
2.55622
2.55194
2.54403
2.53684
2.52533
2.51676
2.50325
2.49527
2.4835
2.47347
2.4603
2.44759
2.42208
2.3896
1
1
1
1
1
1
1
1
1
1
1
1.00002
1.00002
1.00012
1.00013
1.00093
1.00109
1.00679
0.999563
1.04925
0.94232
1.12444
1.39621
2.04042
2.64355
2.75213
2.69444
2.64064
2.60152
2.5916
2.59246
2.59665
2.60025
2.60002
2.59684
2.58837
2.57363
2.56327
2.5508
2.54123
2.52729
2.51555
2.49971
2.48442
2.46728
2.44998
2.43192
2.41132
2.39403
2.37448
1
1
1
1
1
1
1
1
1
1
1
1
1
1.00002
1.00002
1.00018
1.00006
1.00266
0.996477
1.03551
0.905064
1.10607
1.26781
1.8987
2.6681
2.7565
2.71475
2.68849
2.63599
2.6056
2.5972
2.59544
2.59692
2.60041
2.60037
2.59851
2.59184
2.58302
2.56861
2.55547
2.53824
2.52188
2.50482
2.48666
2.46954
2.44834
2.43085
2.40663
2.38623
2.36366
1
1
1
1
1
1
1
1
1
1
1
0.999999
0.99999
0.999981
0.999909
0.99981
0.999113
0.999813
0.993506
1.0243
0.904166
1.08154
1.20261
1.80185
2.65834
2.7236
2.70205
2.66411
2.6201
2.58957
2.57796
2.57239
2.57228
2.57881
2.58579
2.58738
2.58634
2.58215
2.57483
2.56431
2.55392
2.53579
2.51997
2.49673
2.47923
2.45565
2.43686
2.41301
2.3915
2.36877
1
1
1
1
1
1
1
1
1
1
1
1
1
1.00002
1.00001
1
0.9999
0.999624
0.996621
1.00186
0.964705
1.03813
1.05787
1.70909
2.6219
2.62278
2.63097
2.61193
2.57672
2.55906
2.55613
2.55596
2.55744
2.56241
2.57144
2.57791
2.5801
2.57961
2.57721
2.57021
2.5633
2.54905
2.53505
2.51512
2.49533
2.47326
2.45108
2.42969
2.40666
2.38589
1
1
1
1
1
1
1
1
1
1
1
1
1.00002
1.00002
1.00009
1.0001
1.00036
1.00075
1.00193
1.00409
1.01294
1.04398
1.13733
1.49579
2.3985
2.56111
2.60759
2.58799
2.56732
2.5509
2.55105
2.55385
2.56006
2.57
2.5826
2.59117
2.59509
2.59613
2.59608
2.59377
2.58811
2.57706
2.56181
2.54383
2.52219
2.50039
2.47692
2.45394
2.43116
2.40887
1
1
1
1
1
1
1
1
1
1
1
1
1.00001
1.00002
1.00009
1.0001
1.00049
1.00052
1.00293
1.00377
1.01829
1.02607
1.122
1.33163
2.02472
2.42818
2.61407
2.61327
2.60915
2.59345
2.5944
2.59939
2.60976
2.62348
2.63091
2.63391
2.63323
2.62913
2.62145
2.61397
2.60468
2.59402
2.57995
2.56365
2.54481
2.52429
2.50339
2.48163
2.45989
2.43988
1
1
1
1
1
1
1
1
1
1
1
1
1
1.00001
1.00001
1
1.00002
0.999692
1.00034
0.995806
1.02173
0.905848
1.09816
1.18569
1.82401
2.70257
2.73696
2.68197
2.63005
2.59793
2.59869
2.60661
2.62462
2.64058
2.64767
2.64869
2.64692
2.63923
2.62312
2.60818
2.5934
2.58024
2.56764
2.55448
2.53965
2.5228
2.50483
2.48639
2.46736
2.44969
1
1
1
1
1
1
1
1
1
1
1
1
1
1.00002
1.00002
1.00008
1.00015
1.00018
1.00048
0.998773
1.0038
0.972425
1.04648
1.06831
1.71278
2.63195
2.66493
2.65664
2.61808
2.57943
2.57511
2.57923
2.59141
2.60345
2.6139
2.61826
2.61802
2.61546
2.6076
2.59231
2.57567
2.55883
2.54301
2.5281
2.51507
2.50282
2.49024
2.47654
2.46178
2.44786
1
1
1
1
1
1
1
1
1
1
1
1
1
1.00002
1.00002
1.0001
1.00012
1.00043
1.00074
1.00283
1.0052
1.00407
1.04482
0.996869
1.58975
2.45768
2.59784
2.6226
2.60075
2.57431
2.5725
2.57676
2.58599
2.5912
2.59558
2.6029
2.60987
2.6112
2.60974
2.60445
2.59032
2.56896
2.54794
2.52932
2.51377
2.49888
2.48626
2.47425
2.46173
2.44901
1
1
1
1
1
1
1
1
1
1
1
1
1
1.00001
1.00001
1.00008
1.00008
1.00057
1.00054
1.00412
0.997659
1.04014
0.901187
1.123
1.28533
1.97428
2.69484
2.73185
2.6641
2.63406
2.59632
2.5768
2.57121
2.57019
2.57061
2.57571
2.59222
2.61016
2.62087
2.62317
2.62099
2.60845
2.57872
2.54823
2.52354
2.50546
2.48867
2.47698
2.46496
2.45487
1
1
1
1
1
1
1
1
1
1
1
1
1
1.00001
1.00001
1.00007
1.00009
1.00036
1.00062
1.00179
1.00442
1.01286
1.03078
1.11907
1.27537
1.89327
2.30959
2.67923
2.69098
2.67105
2.62772
2.60725
2.59832
2.58963
2.58435
2.58455
2.58891
2.60323
2.61865
2.62554
2.6262
2.62299
2.60892
2.57688
2.54225
2.51578
2.49526
2.4794
2.46847
2.45788
1
1
1
1
1
1
1
1
1
1
1
1
1
1
1.00002
1.00004
1.0001
1.00034
1.00044
1.00194
1.00314
1.01105
1.02267
1.05889
1.20962
1.60402
2.11056
2.57471
2.67883
2.65735
2.65014
2.65131
2.65489
2.65268
2.64303
2.62144
2.60942
2.60915
2.61328
2.61977
2.62142
2.61992
2.61132
2.59076
2.56464
2.53698
2.51286
2.49013
2.4758
2.46369
1
1
1
1
1
1
1
1
1
1
1
1
1.00001
1
1.00004
1.00004
1.00026
1.00024
1.00143
1.00168
1.00682
1.00461
1.03042
0.968989
1.17251
1.43227
1.9689
2.53455
2.73776
2.71393
2.69058
2.66352
2.65987
2.66099
2.66062
2.65477
2.63844
2.61996
2.6059
2.59639
2.58958
2.58605
2.58084
2.57007
2.55626
2.53791
2.52111
2.50319
2.48952
2.47782
1
1
1
1
1
1
1
1
1
1
1
1
1
1
1.00003
1.00003
1.00018
1.00017
1.00116
1.00139
1.00735
1.00095
1.04863
0.907064
1.1374
1.33372
1.97034
2.5885
2.78436
2.74361
2.69716
2.66748
2.66204
2.6544
2.64567
2.62814
2.60568
2.58364
2.56423
2.55128
2.54528
2.54391
2.54464
2.54563
2.54491
2.54245
2.53806
2.53372
2.52793
2.52303
1
1
1
1
1
1
1
1
1
1
1
1
1
1
1.00001
1.00001
1.00007
1.00005
1.00043
1.00013
1.00246
1.00344
1.01537
1.02834
1.08142
1.43856
2.26215
2.50558
2.63378
2.62686
2.61708
2.62038
2.6346
2.64357
2.64305
2.63516
2.61156
2.58369
2.56147
2.54731
2.54023
2.53773
2.53759
2.53908
2.5439
2.55065
2.55643
2.55945
2.56015
2.55979
1
1
1
1
1
1
1
1
1
1
1
1
1
1
1
1
1.00005
1.00003
1.00048
1.00043
1.00391
0.997438
1.03835
0.903686
1.11001
1.25705
1.91327
2.65623
2.71052
2.67033
2.65374
2.62345
2.62346
2.62954
2.63411
2.63248
2.62608
2.61062
2.58884
2.56823
2.55429
2.54653
2.54342
2.54323
2.54475
2.54965
2.55672
2.56208
2.56536
2.56631
1
1
1
1
1
1
1
1
1
1
1
1
1
0.999999
0.999999
0.999997
1
1
1.00015
1.00003
1.00212
0.996321
1.03208
0.907388
1.09403
1.21724
1.84759
2.64276
2.71123
2.7022
2.66907
2.60863
2.57964
2.57565
2.5781
2.58719
2.59312
2.59601
2.59806
2.59773
2.59564
2.59166
2.58827
2.58292
2.57629
2.57079
2.56714
2.56339
2.56055
2.55925
1
1
1
1
1
1
1
1
1
1
1
1
1
1.00001
1.00001
1.00005
1.00005
1.00029
1.00025
1.00153
1.00154
1.00736
1.00484
1.03294
1.10231
1.25362
1.76936
2.28944
2.62528
2.67264
2.66431
2.64337
2.63288
2.62124
2.60734
2.59958
2.5951
2.59272
2.5932
2.59646
2.60375
2.60965
2.61231
2.61247
2.61108
2.60482
2.58957
2.57202
2.55759
2.54298
1
1
1
1
1
1
1
1
1
1
1
1
1
1.00001
1
1.00004
1.00004
1.00024
1.00022
1.00122
1.00147
1.00469
1.0105
1.02764
1.08557
1.19923
1.62777
2.18888
2.568
2.6803
2.68395
2.69373
2.69975
2.69577
2.6786
2.6545
2.62773
2.60603
2.59257
2.58829
2.5882
2.58936
2.59114
2.59118
2.59007
2.58645
2.57791
2.5662
2.55365
2.54157
1
1
1
1
1
1
1
1
1
1
1
1
1
1.00001
1.00001
1.00004
1.00003
1.00023
1.00019
1.00125
1.00124
1.0061
1.00605
1.03357
1.03123
1.18225
1.5313
2.07944
2.58248
2.76281
2.76067
2.74851
2.72553
2.7013
2.67617
2.64251
2.61095
2.57889
2.55646
2.54386
2.5387
2.53794
2.53947
2.54574
2.55842
2.57013
2.57791
2.58017
2.57991
2.57871
1
1
1
1
1
1
1
1
1
1
1
1
1
1
1
1.00002
1.00002
1.0001
1.00015
1.00029
1.00105
1.00108
1.00418
0.990939
1.03706
1.03483
1.63368
2.50515
2.61264
2.6537
2.64828
2.64283
2.64466
2.64924
2.64887
2.64313
2.62918
2.61224
2.59613
2.57965
2.5638
2.55264
2.54852
2.54858
2.55
2.55534
2.56685
2.5772
2.58414
2.58827
1
1
1
1
1
1
1
1
1
1
1
1
1
1
1
1.00002
1.00002
1.00013
1.00014
1.00104
1.00126
1.00746
1.00158
1.04858
0.939169
1.13924
1.38567
2.03805
2.66672
2.80292
2.76202
2.69996
2.6537
2.63562
2.63137
2.6294
2.62494
2.61642
2.60712
2.59857
2.59005
2.5801
2.56975
2.56285
2.56062
2.56133
2.56486
2.57017
2.57454
2.5776
1
1
1
1
1
1
1
1
1
1
1
1
1
1
1
1.00001
1.00001
1.00007
1.00008
1.00057
1.00054
1.00435
0.997593
1.04246
0.899184
1.12402
1.30302
1.98147
2.68692
2.82486
2.78749
2.71911
2.65649
2.61266
2.58767
2.57802
2.57254
2.57121
2.57088
2.57127
2.57343
2.58014
2.59096
2.60002
2.60583
2.6085
2.60921
2.60882
2.60537
2.5941
1
1
1
1
1
1
1
1
1
1
1
1
1
1
1.00001
1.00001
1.00003
1.00001
1.00017
1.00041
1.00082
1.00335
1.00363
1.018
1.02735
1.12756
1.39008
2.17791
2.49781
2.67626
2.69255
2.68235
2.66686
2.66059
2.6511
2.63636
2.62151
2.60856
2.59636
2.58656
2.58136
2.58024
2.58073
2.58357
2.58965
2.59465
2.59754
2.5983
2.59715
2.5916
1
1
1
1
1
1
1
1
1
1
1
1
1
1
1
1
1
1.00002
0.999991
1.00012
0.999951
1.00245
0.996043
1.03666
0.902274
1.10918
1.25948
1.92593
2.69558
2.79288
2.74499
2.68345
2.64179
2.6301
2.62493
2.61881
2.61201
2.60505
2.59953
2.5963
2.59469
2.59359
2.59368
2.59495
2.59688
2.59753
2.59639
2.59351
2.58707
2.5806
1
1
1
1
1
1
1
1
1
1
1
1
1
1
0.999999
0.999998
0.999986
0.999982
0.999839
0.999813
0.999152
1.00039
0.994453
1.031
0.901255
1.09343
1.23648
1.88834
2.73025
2.8026
2.72811
2.66753
2.61235
2.5856
2.57781
2.57527
2.57468
2.576
2.57829
2.58227
2.59075
2.60387
2.61749
2.6268
2.6305
2.63034
2.62621
2.61334
2.59417
2.57784
1
1
1
1
1
1
1
1
1
1
1
1
1
1
1
1
0.999996
0.999992
0.999917
0.999989
0.999147
0.999978
0.993522
1.02669
0.900126
1.08822
1.22015
1.85072
2.7189
2.7792
2.72713
2.6637
2.6149
2.58718
2.57713
2.57404
2.57369
2.57487
2.57803
2.58529
2.59981
2.61719
2.63254
2.64267
2.64681
2.64666
2.64242
2.62517
2.5974
2.5702
1
1
1
1
1
1
1
1
1
1
1
1
1
1
1
1
1.00001
1.00001
0.999993
1.00005
0.999488
0.999576
0.993045
1.01669
0.900893
1.08748
1.16202
1.81003
2.73618
2.74164
2.6815
2.63147
2.58611
2.57304
2.5734
2.57696
2.58372
2.5885
2.59613
2.61046
2.62943
2.6478
2.66115
2.66763
2.66857
2.66525
2.65065
2.61496
2.57894
2.54482
1
1
1
1
1
1
1
1
1
1
1
1
1
1
1.00001
1.00001
1.00004
1.00004
1.0002
1.00019
1.00095
1.00067
1.00441
1.00997
1.02138
1.076
1.21187
1.64102
2.20094
2.68987
2.73526
2.71695
2.6798
2.66469
2.66547
2.66795
2.66167
2.64079
2.61164
2.59494
2.59066
2.59271
2.60139
2.61043
2.61352
2.6126
2.60591
2.58977
2.57137
2.55729
1
1
1
1
1
1
1
1
1
1
1
1
1
1
1.00001
1.00001
1.00004
1.00004
1.00027
1.00023
1.0015
1.00155
1.00732
1.00646
1.03347
0.999079
1.18261
1.52493
2.08483
2.6644
2.81128
2.7862
2.7203
2.67865
2.66565
2.66903
2.6654
2.6479
2.61276
2.58021
2.55753
2.5475
2.54532
2.54652
2.55243
2.56402
2.57465
2.58582
2.5939
2.60264
1
1
1
1
1
1
1
1
1
1
1
1
1
1
1.00001
1.00001
1.00004
1.00004
1.00026
1.00023
1.00144
1.00157
1.00628
1.0012
1.02745
0.981412
1.18671
1.4462
2.07596
2.63681
2.80009
2.77698
2.71678
2.67885
2.66963
2.67086
2.66195
2.63303
2.59596
2.56623
2.54846
2.54204
2.54105
2.54233
2.5468
2.55618
2.56723
2.58311
2.59618
2.61043
1
1
1
1
1
1
1
1
1
1
1
1
1
1
1
1
1.00002
1.00002
1.00007
1.00025
1.00015
1.00154
1.00133
1.00848
0.99148
1.04472
1.03879
1.6683
2.55159
2.65546
2.6541
2.61962
2.58751
2.5842
2.58685
2.5954
2.59974
2.59931
2.60001
2.6075
2.62601
2.64329
2.65239
2.65359
2.64747
2.62577
2.59828
2.57903
2.56889
2.56535
1
1
1
1
1
1
1
1
1
1
1
1
1
1
1
1
1.00002
1.00002
1.00008
1.00014
1.00047
1.00093
1.00147
1.00486
1.01237
1.05711
1.06752
1.65402
2.51364
2.62756
2.63675
2.61728
2.58016
2.56146
2.56126
2.56515
2.5713
2.58223
2.60347
2.62925
2.65121
2.66422
2.6682
2.66596
2.6515
2.61736
2.58348
2.55387
2.53421
2.51851
1
1
1
1
1
1
1
1
1
1
1
1
1
1
1
1
1.00002
1.00003
1.0001
1.00003
1.00054
1.00115
1.00105
1.00869
0.964402
1.06983
1.04699
1.674
2.54822
2.6531
2.64944
2.61387
2.57489
2.55227
2.55163
2.55502
2.56299
2.57679
2.59895
2.62351
2.64317
2.65462
2.65845
2.65744
2.64846
2.62232
2.59084
2.5598
2.53817
2.51749
2.23877
2.63996
2.87818
3.18736
3.14742
3.1408
3.12372
3.12026
3.12044
3.12514
3.12542
3.1233
3.12243
3.12402
3.12406
3.12473
3.12582
3.1273
3.12876
3.12951
3.13016
3.13038
3.13041
3.1298
3.12788
3.12491
3.1204
3.1156
3.10926
3.10337
3.0965
3.0906
3.08343
3.07699
3.06593
3.05399
3.04055
3.02999
3.01469
3.00433
2.9888
2.97734
2.9612
2.94909
2.93341
2.91963
2.90463
2.88973
2.87499
2.86062
2.84553
2.83191
2.81681
2.80319
2.7888
2.77484
2.76144
2.74777
2.73443
2.72175
2.70779
2.69639
2.68196
2.67155
2.65717
2.64714
2.63333
2.62335
2.60987
2.60025
2.587
2.57753
2.56482
2.55516
2.54322
2.53325
2.52203
2.5119
2.50116
2.49101
2.48047
2.47067
2.46017
2.45092
2.44052
2.43172
2.42163
2.4132
2.40339
2.39521
2.38579
2.37788
2.36891
2.36159
2.35305
2.34691
2.33925
2.33503
2.3298
2.32847
2.25028
2.44511
2.61981
2.78052
2.97455
3.10668
3.17276
3.33947
3.55345
3.59341
3.56138
3.53283
3.50859
3.49402
3.47709
3.46293
3.44431
3.42561
3.40374
3.38015
3.35802
3.33648
3.31491
3.2948
3.27287
3.25362
3.23263
3.21347
3.19595
3.17674
3.16001
3.14348
3.12785
3.1125
3.09706
3.08087
3.0659
3.0503
3.03595
3.02116
3.00749
2.99323
2.97876
2.96443
2.94951
2.93498
2.91991
2.90518
2.88927
2.87401
2.85725
2.84149
2.82478
2.80874
2.79262
2.77636
2.75979
2.74321
2.72509
2.70857
2.68943
2.6729
2.65411
2.63684
2.61962
2.60133
2.58562
2.56725
2.5521
2.53467
2.51977
2.50319
2.48893
2.47286
2.45927
2.44381
2.43067
2.41583
2.40306
2.38905
2.37651
2.36348
2.35112
2.33891
2.32672
2.31525
2.30329
2.29259
2.28108
2.2713
2.26043
2.25166
2.24154
2.23398
2.2247
2.21864
2.21065
2.20656
2.20129
2.20012
2.2897
2.34279
2.41868
2.48143
2.52944
2.63457
2.72039
2.81987
2.93637
3.03471
3.14862
3.24905
3.29933
3.35991
3.39873
3.40487
3.40217
3.38891
3.34835
3.27836
3.21581
3.16238
3.11903
3.08089
3.04455
3.0117
2.97913
2.94771
2.91761
2.89041
2.86282
2.83759
2.81435
2.79251
2.771
2.75115
2.7312
2.71266
2.69445
2.67896
2.66378
2.65104
2.63889
2.62887
2.61984
2.61222
2.60519
2.59858
2.59195
2.58546
2.57914
2.57227
2.56688
2.55916
2.55496
2.54659
2.54248
2.534
2.52948
2.52038
2.51494
2.50518
2.49912
2.48885
2.48208
2.47157
2.46417
2.45347
2.44545
2.43485
2.42608
2.41574
2.40635
2.39611
2.38634
2.37612
2.3657
2.35564
2.34451
2.33476
2.3231
2.31332
2.30149
2.29138
2.27957
2.26908
2.2572
2.24673
2.23456
2.22452
2.21206
2.20271
2.19025
2.18158
2.17004
2.16173
2.15259
2.14516
2.13965
2.1347
2.30528
2.29673
2.31869
2.34608
2.3659
2.3962
2.43372
2.47199
2.51485
2.55413
2.59333
2.62617
2.66056
2.68643
2.7061
2.71753
2.71826
2.71601
2.709
2.69762
2.68461
2.67131
2.65737
2.64292
2.62665
2.6121
2.59602
2.58153
2.56679
2.55286
2.53915
2.52642
2.51287
2.50043
2.48859
2.47741
2.46722
2.45722
2.44821
2.43962
2.43178
2.42326
2.41532
2.40694
2.39977
2.39196
2.3854
2.37797
2.37168
2.36432
2.35789
2.35031
2.34364
2.33581
2.32906
2.32128
2.31469
2.30725
2.30092
2.29384
2.28763
2.28078
2.27443
2.26764
2.26107
2.25416
2.24754
2.2406
2.23404
2.22725
2.22079
2.21416
2.20766
2.20129
2.1947
2.18837
2.18181
2.17552
2.16888
2.16261
2.15577
2.14984
2.14243
2.13724
2.1293
2.12469
2.1171
2.11218
2.1058
2.09964
2.09458
2.08702
2.08266
2.07438
2.07016
2.06158
2.05755
2.04928
2.04614
2.03942
2.32456
2.29365
2.28564
2.28269
2.28547
2.29062
2.30224
2.31384
2.33127
2.34344
2.35888
2.36688
2.37759
2.38328
2.39072
2.39305
2.39332
2.39294
2.39201
2.39074
2.38825
2.3855
2.38307
2.38009
2.37772
2.37527
2.37314
2.37126
2.3692
2.36741
2.3653
2.36342
2.36118
2.35881
2.35658
2.35372
2.35141
2.34794
2.34552
2.34206
2.33992
2.33596
2.33261
2.32789
2.32383
2.31883
2.31403
2.30846
2.30299
2.29697
2.29108
2.28467
2.27836
2.27151
2.26482
2.25768
2.2508
2.24364
2.23684
2.2299
2.22329
2.2166
2.21003
2.20348
2.19671
2.19004
2.18286
2.17609
2.16849
2.16206
2.15429
2.14845
2.14091
2.13541
2.12813
2.12276
2.11573
2.11021
2.10368
2.09755
2.09156
2.08472
2.07885
2.07154
2.06548
2.05792
2.05163
2.04393
2.03755
2.02973
2.02347
2.01575
2.00986
2.00256
1.99724
1.99076
1.98626
1.98112
1.97821
1.97535
2.34227
2.31395
2.28803
2.27
2.25839
2.24999
2.24611
2.24514
2.24747
2.2488
2.25228
2.25261
2.25302
2.2531
2.25338
2.25366
2.25368
2.25377
2.25423
2.25522
2.25754
2.25988
2.26279
2.26477
2.26815
2.27054
2.27393
2.27652
2.27964
2.28172
2.28409
2.28539
2.28678
2.2874
2.2874
2.28711
2.28644
2.28477
2.28361
2.28128
2.27968
2.2763
2.27325
2.26856
2.26423
2.2593
2.25428
2.24935
2.2437
2.23872
2.23272
2.22758
2.22146
2.21595
2.20968
2.20391
2.19743
2.19169
2.18504
2.17944
2.17286
2.16736
2.16098
2.15534
2.14911
2.14312
2.13698
2.13076
2.12456
2.11833
2.11181
2.10597
2.09918
2.09407
2.08713
2.08275
2.07574
2.07177
2.06489
2.06089
2.05437
2.04997
2.04396
2.03877
2.0334
2.02701
2.02236
2.01466
2.01051
2.00204
1.9978
1.98919
1.98487
1.97616
1.97191
1.96346
1.95955
1.95202
1.94928
1.94341
2.34047
2.3134
2.29617
2.27287
2.25254
2.23678
2.22495
2.21601
2.20996
2.2051
2.20127
2.19748
2.19365
2.19046
2.18789
2.18662
2.18546
2.18536
2.18566
2.18652
2.1884
2.19258
2.19648
2.20102
2.20534
2.20959
2.21371
2.21772
2.22122
2.22465
2.22696
2.22922
2.23039
2.23135
2.23171
2.23159
2.23094
2.22958
2.22806
2.22607
2.22419
2.2213
2.2178
2.21346
2.20886
2.20397
2.19882
2.19354
2.18791
2.18217
2.17618
2.17009
2.16388
2.15747
2.15107
2.14444
2.13811
2.13156
2.1255
2.11915
2.11331
2.10694
2.10109
2.09489
2.08878
2.08296
2.07651
2.07116
2.06448
2.05955
2.05286
2.04809
2.0417
2.03682
2.03097
2.02574
2.02063
2.01492
2.01056
2.0044
2.00058
1.99408
1.99054
1.98388
1.98041
1.9738
1.97037
1.96381
1.96054
1.95412
1.95098
1.94484
1.94192
1.93609
1.93343
1.92814
1.9259
1.92153
1.92018
1.91726
2.33318
2.30894
2.28936
2.27067
2.25299
2.23409
2.2179
2.20389
2.19295
2.1841
2.17622
2.16939
2.16315
2.15751
2.1532
2.14962
2.14744
2.14599
2.1452
2.14533
2.14596
2.14756
2.15161
2.15576
2.16027
2.16441
2.16863
2.17231
2.17583
2.17872
2.18112
2.18321
2.18458
2.1858
2.18611
2.18587
2.18535
2.18357
2.1821
2.17961
2.17771
2.17446
2.1713
2.16675
2.16268
2.15746
2.1527
2.14714
2.1418
2.13591
2.12993
2.12366
2.11711
2.11052
2.10333
2.0965
2.08886
2.08211
2.07446
2.06793
2.06049
2.05437
2.04717
2.04126
2.03414
2.02834
2.02125
2.01548
2.00845
2.00281
1.99601
1.99063
1.98427
1.97907
1.97328
1.96804
1.9629
1.95745
1.95288
1.94715
1.94307
1.93697
1.93332
1.92687
1.92349
1.91684
1.91356
1.90695
1.90373
1.89729
1.89421
1.88809
1.88514
1.87961
1.87683
1.87214
1.86993
1.86639
1.86532
1.86325
2.33584
2.31029
2.28681
2.26512
2.24509
2.22805
2.21187
2.19818
2.18422
2.17251
2.16229
2.15326
2.14533
2.13801
2.13199
2.12689
2.12289
2.11971
2.11787
2.11639
2.11582
2.11601
2.11675
2.11931
2.12241
2.12566
2.12861
2.13162
2.1338
2.13599
2.13741
2.13855
2.13927
2.13921
2.13887
2.13788
2.13664
2.1341
2.13109
2.12881
2.12556
2.12315
2.11902
2.11584
2.11119
2.1076
2.1027
2.09879
2.09363
2.08934
2.08385
2.07924
2.07352
2.06871
2.06266
2.05772
2.05123
2.04619
2.03933
2.03432
2.02727
2.02223
2.01513
2.00998
2.003
1.99765
1.99094
1.9853
1.97888
1.97296
1.96673
1.96061
1.95447
1.94824
1.94215
1.93584
1.92984
1.92353
1.91772
1.91147
1.90598
1.8998
1.8947
1.88856
1.88382
1.87774
1.87324
1.86733
1.86299
1.85737
1.8532
1.84793
1.84399
1.83933
1.8359
1.83214
1.82966
1.82729
1.82653
1.82528
2.35142
2.32087
2.29247
2.26715
2.24489
2.22414
2.20555
2.18853
2.17422
2.16159
2.14951
2.13927
2.12907
2.12082
2.11272
2.10683
2.10039
2.09655
2.09215
2.08989
2.08767
2.08631
2.08605
2.08521
2.08657
2.08793
2.09019
2.09208
2.0936
2.09515
2.09614
2.09701
2.09703
2.09685
2.09632
2.09518
2.09445
2.09292
2.09155
2.09073
2.08959
2.08866
2.08667
2.08525
2.08229
2.08036
2.07659
2.07409
2.06972
2.06675
2.06187
2.05854
2.05321
2.04952
2.04387
2.03979
2.03388
2.02941
2.0234
2.01845
2.01241
2.00693
2.00091
1.99492
1.98893
1.98249
1.97653
1.96979
1.96376
1.95691
1.95068
1.94388
1.93743
1.93072
1.9241
1.9175
1.91079
1.90436
1.89771
1.89149
1.88509
1.87904
1.87296
1.86706
1.86127
1.8556
1.85007
1.84477
1.83951
1.83475
1.82977
1.82559
1.82114
1.81772
1.81418
1.81181
1.80983
1.80892
1.80921
1.8085
2.37643
2.34562
2.31418
2.28188
2.25387
2.22902
2.20757
2.18813
2.17118
2.15517
2.14148
2.12844
2.11757
2.10685
2.09814
2.08993
2.08311
2.07732
2.07189
2.06797
2.06432
2.06207
2.06011
2.0592
2.05892
2.05948
2.06148
2.06352
2.06556
2.06809
2.06927
2.07134
2.07206
2.07352
2.0743
2.07502
2.07643
2.07654
2.07695
2.07757
2.07784
2.07764
2.07691
2.07596
2.07387
2.07218
2.06911
2.06663
2.06292
2.05977
2.0556
2.05192
2.04738
2.04322
2.0384
2.03385
2.02886
2.02395
2.01877
2.01339
2.00799
2.00213
1.99653
1.9902
1.9844
1.97766
1.97166
1.96465
1.95841
1.95129
1.94478
1.93768
1.9309
1.92394
1.91694
1.91017
1.90301
1.8965
1.88931
1.88306
1.87598
1.86996
1.86317
1.85739
1.85098
1.84554
1.8395
1.83452
1.82896
1.82442
1.81939
1.81545
1.81128
1.80821
1.8054
1.80364
1.8028
1.80297
1.80437
1.80341
2.40771
2.37765
2.34667
2.31597
2.28398
2.25399
2.22625
2.20109
2.17971
2.16087
2.14408
2.12949
2.11611
2.10409
2.09366
2.08377
2.07613
2.06885
2.06319
2.05834
2.05467
2.05168
2.05014
2.0491
2.04905
2.04951
2.05018
2.05234
2.05455
2.05744
2.05922
2.06224
2.06371
2.06631
2.06811
2.06979
2.07212
2.07282
2.07385
2.0747
2.07514
2.07496
2.07429
2.07333
2.07135
2.06941
2.06653
2.0637
2.06019
2.05671
2.05277
2.04873
2.04438
2.03984
2.03524
2.03038
2.02565
2.02045
2.01547
2.00983
2.00457
1.99849
1.99297
1.98647
1.98068
1.97383
1.96782
1.96079
1.95457
1.94748
1.94105
1.934
1.92733
1.92044
1.9135
1.90685
1.89969
1.89331
1.88603
1.87987
1.87275
1.86672
1.85993
1.85387
1.84749
1.84143
1.83556
1.82977
1.82444
1.8192
1.81455
1.81049
1.80685
1.80439
1.8025
1.80223
1.80267
1.80366
1.80643
1.80629
2.42191
2.39602