/*--------------------------------*- C++ -*----------------------------------*\
| =========                 |                                                 |
| \\      /  F ield         | OpenFOAM: The Open Source CFD Toolbox           |
|  \\    /   O peration     | Version:  2412                                  |
|   \\  /    A nd           | Website:  www.openfoam.com                      |
|    \\/     M anipulation  |                                                 |
\*---------------------------------------------------------------------------*/
FoamFile
{
    version     2.0;
    format      ascii;
    arch        "LSB;label=32;scalar=64";
    class       volVectorField;
    location    "5.5";
    object      U;
}
// * * * * * * * * * * * * * * * * * * * * * * * * * * * * * * * * * * * * * //

dimensions      [0 1 -1 0 0 0 0];

internalField   nonuniform List<vector> 
7000
(
(3 4.0165e-11 0)
(3 7.86912e-11 0)
(3 2.98627e-10 0)
(3 5.29368e-10 0)
(3 1.52612e-09 0)
(3 2.64007e-09 0)
(3 6.52592e-09 0)
(3 1.12308e-08 0)
(3 1.82692e-08 0)
(2.99999 6.64069e-08 0)
(2.99999 3.13024e-08 0)
(2.99997 1.95113e-07 0)
(2.99994 7.6789e-08 0)
(2.99981 1.90509e-06 0)
(2.99967 2.07318e-05 0)
(2.9989 1.78107e-05 0)
(2.99822 8.43245e-05 0)
(2.99314 -8.38845e-05 0)
(2.98726 0.000496587 0)
(2.95254 0.00122407 0)
(2.91989 -0.000509872 0)
(2.63737 0.00405558 0)
(1.76401 0.000187748 0)
(0.969823 0.00504184 0)
(0.485097 0.00402697 0)
(0.587776 0.00191143 0)
(0.682073 0.00122855 0)
(0.70526 0.00155074 0)
(0.692316 0.00206414 0)
(0.66457 0.00266006 0)
(0.637552 0.00327642 0)
(0.616769 0.00395744 0)
(0.597412 0.00466398 0)
(0.57594 0.00540915 0)
(0.551919 0.00613492 0)
(0.525623 0.00679399 0)
(0.497641 0.00738673 0)
(0.468288 0.0079343 0)
(0.437641 0.00846387 0)
(0.40577 0.00899764 0)
(0.37264 0.00954716 0)
(0.33822 0.0101156 0)
(0.30245 0.0107006 0)
(0.265446 0.0112971 0)
(0.227513 0.0118987 0)
(0.188529 0.0125023 0)
(0.148613 0.0131204 0)
(0.108125 0.0137444 0)
(0.0641892 0.0146063 0)
(0.0276519 0.0157645 0)
(3 1.1996e-10 0)
(3 2.50994e-10 0)
(3 9.77416e-10 0)
(3 1.73499e-09 0)
(3 5.238e-09 0)
(3 9.44186e-09 0)
(3 2.54741e-08 0)
(3 4.24893e-08 0)
(3 8.73692e-08 0)
(2.99999 2.06801e-07 0)
(2.99999 2.96978e-07 0)
(2.99997 3.15068e-07 0)
(2.99994 4.80149e-07 0)
(2.99982 1.3513e-06 0)
(2.99968 1.85354e-06 0)
(2.99894 7.93819e-06 0)
(2.99817 1.94026e-05 0)
(2.99338 1.41876e-05 0)
(2.98802 0.000149022 0)
(2.95192 0.000408234 0)
(2.92165 0.000479816 0)
(2.63787 0.00208032 0)
(1.7691 0.00463116 0)
(0.980776 0.0100643 0)
(0.4985 0.00744756 0)
(0.59549 0.00611579 0)
(0.685814 0.00606725 0)
(0.706511 0.00648559 0)
(0.692176 0.00715473 0)
(0.663962 0.0082537 0)
(0.636906 0.00973342 0)
(0.616182 0.0115617 0)
(0.596864 0.0134835 0)
(0.575435 0.0154973 0)
(0.551465 0.0174088 0)
(0.525256 0.0191067 0)
(0.497387 0.0206089 0)
(0.468134 0.0219746 0)
(0.437542 0.0232647 0)
(0.405675 0.0245234 0)
(0.372501 0.0257683 0)
(0.338006 0.0269987 0)
(0.302142 0.0282013 0)
(0.265027 0.0293549 0)
(0.226964 0.0304351 0)
(0.187829 0.0314267 0)
(0.147727 0.0323361 0)
(0.107078 0.0331376 0)
(0.0629516 0.0341696 0)
(0.026505 0.0352773 0)
(3 1.7011e-10 0)
(3 4.30219e-10 0)
(3 1.76922e-09 0)
(3 3.01363e-09 0)
(3 1.02946e-08 0)
(3 2.04938e-08 0)
(3 5.40939e-08 0)
(3 8.45816e-08 0)
(3 1.99359e-07 0)
(2.99999 3.47335e-07 0)
(2.99999 7.31195e-07 0)
(2.99997 1.01706e-06 0)
(2.99994 1.7404e-06 0)
(2.99981 6.06722e-06 0)
(2.99967 -2.04029e-05 0)
(2.99891 -2.46985e-06 0)
(2.99823 -9.95287e-05 0)
(2.99321 -0.000247013 0)
(2.98747 0.000102054 0)
(2.95276 -0.000372317 0)
(2.92082 0.00147118 0)
(2.63921 0.00511682 0)
(1.76957 0.00608748 0)
(0.972532 0.0173482 0)
(0.483006 0.0131471 0)
(0.586956 0.0111604 0)
(0.681963 0.0106966 0)
(0.705235 0.0110066 0)
(0.6925 0.0119879 0)
(0.665063 0.0138904 0)
(0.638177 0.0164893 0)
(0.617234 0.0196785 0)
(0.597609 0.0230146 0)
(0.575958 0.0265062 0)
(0.551818 0.0297911 0)
(0.525517 0.0327155 0)
(0.497614 0.0353237 0)
(0.468339 0.03772 0)
(0.437711 0.0400031 0)
(0.405789 0.0422392 0)
(0.372552 0.0444538 0)
(0.337994 0.0466433 0)
(0.302069 0.0487879 0)
(0.26489 0.0508551 0)
(0.226748 0.0528089 0)
(0.187519 0.0546266 0)
(0.147296 0.0563061 0)
(0.106575 0.0578131 0)
(0.0623838 0.0594808 0)
(0.0258779 0.0610193 0)
(3 3.14647e-10 0)
(3 6.56898e-10 0)
(3 2.5971e-09 0)
(3 3.73342e-09 0)
(3 1.45752e-08 0)
(3 2.26266e-08 0)
(3 2.36843e-07 0)
(3 3.08611e-08 0)
(3 4.32959e-07 0)
(2.99999 4.5774e-07 0)
(2.99999 1.29228e-06 0)
(2.99997 2.35157e-06 0)
(2.99994 4.51522e-06 0)
(2.99981 7.7432e-06 0)
(2.99967 2.29777e-05 0)
(2.99889 4.19177e-05 0)
(2.99801 8.10669e-05 0)
(2.99351 3.1099e-05 0)
(2.98795 0.000546075 0)
(2.95267 0.00158558 0)
(2.9242 0.000777101 0)
(2.64849 0.00664424 0)
(1.78537 0.00854465 0)
(0.985899 0.0237885 0)
(0.491862 0.0193657 0)
(0.593169 0.0150331 0)
(0.686392 0.0139089 0)
(0.708453 0.0148334 0)
(0.694946 0.0167551 0)
(0.667053 0.0199053 0)
(0.639715 0.023849 0)
(0.618284 0.0284227 0)
(0.59828 0.0331442 0)
(0.576436 0.0380106 0)
(0.552162 0.042558 0)
(0.525819 0.0466399 0)
(0.497932 0.0503262 0)
(0.468678 0.0537504 0)
(0.438048 0.057033 0)
(0.406103 0.0602498 0)
(0.37283 0.063434 0)
(0.338235 0.0665826 0)
(0.302273 0.0696724 0)
(0.265053 0.0726604 0)
(0.226854 0.0755023 0)
(0.187554 0.0781667 0)
(0.147236 0.0806408 0)
(0.106478 0.0828631 0)
(0.0622495 0.0851208 0)
(0.0255692 0.0870162 0)
(3 4.3743e-10 0)
(3 7.56373e-10 0)
(3 3.18202e-09 0)
(3 5.41095e-09 0)
(3 1.89478e-08 0)
(3 2.55082e-08 0)
(3 1.07878e-07 0)
(3 1.43929e-07 0)
(3 1.2333e-06 0)
(2.99999 4.52973e-07 0)
(2.99999 4.56096e-06 0)
(2.99997 2.40621e-06 0)
(2.99994 3.28698e-05 0)
(2.99982 -1.61366e-05 0)
(2.99969 2.769e-05 0)
(2.99895 2.18681e-05 0)
(2.99823 0.000121868 0)
(2.9935 0.000201061 0)
(2.98846 0.000357078 0)
(2.95283 0.000732048 0)
(2.92419 0.000590041 0)
(2.64362 -0.00102988 0)
(1.78694 0.0134198 0)
(0.989511 0.0307566 0)
(0.49047 0.0245529 0)
(0.593116 0.0194005 0)
(0.687552 0.0183258 0)
(0.709824 0.0196304 0)
(0.696463 0.0222001 0)
(0.668756 0.0263807 0)
(0.641355 0.0316508 0)
(0.619656 0.0376076 0)
(0.599392 0.043834 0)
(0.577354 0.0500871 0)
(0.552881 0.0559039 0)
(0.526419 0.0611636 0)
(0.498483 0.0659623 0)
(0.469216 0.0704576 0)
(0.438586 0.0747832 0)
(0.406642 0.0790205 0)
(0.373369 0.0832036 0)
(0.338771 0.0873346 0)
(0.302798 0.0913879 0)
(0.265547 0.0953098 0)
(0.22729 0.0990398 0)
(0.187914 0.10254 0)
(0.147486 0.105774 0)
(0.106656 0.108661 0)
(0.0623359 0.111423 0)
(0.0254162 0.113575 0)
(3 3.12986e-10 0)
(3 6.70615e-10 0)
(3 2.16565e-09 0)
(3 3.79622e-09 0)
(3 9.94424e-09 0)
(3 1.61148e-08 0)
(3 1.44772e-08 0)
(3 1.26943e-07 0)
(3 3.03502e-07 0)
(3 3.22748e-07 0)
(2.99999 5.56552e-06 0)
(2.99999 -1.8705e-06 0)
(2.99993 4.29994e-06 0)
(2.9998 2.15193e-07 0)
(2.9997 -8.6896e-07 0)
(2.99895 -2.3611e-05 0)
(2.99812 3.63368e-05 0)
(2.99367 -2.28429e-05 0)
(2.9883 -3.14523e-05 0)
(2.95266 0.00081159 0)
(2.92346 0.00106351 0)
(2.64613 0.000294045 0)
(1.80771 0.0180648 0)
(0.993502 0.0413678 0)
(0.485872 0.029666 0)
(0.592411 0.0237249 0)
(0.688682 0.0225324 0)
(0.711635 0.024279 0)
(0.698714 0.0277225 0)
(0.6712 0.0332012 0)
(0.643429 0.0399726 0)
(0.621143 0.0474145 0)
(0.600381 0.0551971 0)
(0.577966 0.0628309 0)
(0.553246 0.0699022 0)
(0.526693 0.076331 0)
(0.498785 0.0822461 0)
(0.469611 0.0878311 0)
(0.439098 0.0932291 0)
(0.407269 0.0985283 0)
(0.374097 0.103761 0)
(0.339573 0.108929 0)
(0.303643 0.114004 0)
(0.266391 0.118921 0)
(0.228083 0.123603 0)
(0.188613 0.127991 0)
(0.148041 0.132017 0)
(0.107091 0.135571 0)
(0.0626181 0.138812 0)
(0.0253755 0.141188 0)
(3 3.70322e-10 0)
(3 7.969e-10 0)
(3 1.71084e-09 0)
(3 3.52801e-09 0)
(3 3.36201e-09 0)
(3 1.16066e-08 0)
(3 -7.5287e-09 0)
(3 1.17261e-08 0)
(3 -8.16804e-07 0)
(3 2.4236e-07 0)
(2.99999 -2.92857e-06 0)
(2.99997 6.62817e-07 0)
(2.99995 -2.89272e-05 0)
(2.99982 2.15978e-05 0)
(2.99968 2.72377e-06 0)
(2.99898 1.26128e-06 0)
(2.99824 9.09731e-05 0)
(2.99344 0.000160269 0)
(2.98902 0.000252251 0)
(2.95354 0.00069045 0)
(2.92356 0.00405766 0)
(2.662 -0.000115668 0)
(1.82699 0.025828 0)
(1.00528 0.0485552 0)
(0.483325 0.0347595 0)
(0.592136 0.0274278 0)
(0.69076 0.0257366 0)
(0.714866 0.0283302 0)
(0.702331 0.0331933 0)
(0.674532 0.0404943 0)
(0.645725 0.0490265 0)
(0.622343 0.0581612 0)
(0.600798 0.0674714 0)
(0.577886 0.0763956 0)
(0.552942 0.0846095 0)
(0.526403 0.0921253 0)
(0.498666 0.0991224 0)
(0.469734 0.105802 0)
(0.439484 0.112307 0)
(0.407907 0.11872 0)
(0.374952 0.125072 0)
(0.340603 0.131355 0)
(0.304795 0.137534 0)
(0.267599 0.143525 0)
(0.229268 0.149235 0)
(0.189705 0.154576 0)
(0.148949 0.159457 0)
(0.107797 0.163731 0)
(0.063056 0.167486 0)
(0.0254149 0.170108 0)
(3 4.98022e-10 0)
(3 8.16111e-10 0)
(3 3.03804e-09 0)
(3 5.76532e-09 0)
(3 1.23201e-08 0)
(3 2.38465e-08 0)
(3 -8.34782e-08 0)
(3 1.13317e-07 0)
(3 -6.75366e-08 0)
(2.99999 3.59575e-07 0)
(2.99999 -4.15206e-06 0)
(2.99997 3.84882e-06 0)
(2.99995 2.33228e-07 0)
(2.99983 4.30339e-06 0)
(2.99968 2.40065e-05 0)
(2.99902 4.52759e-05 0)
(2.99823 9.01349e-05 0)
(2.99379 0.000181736 0)
(2.98866 0.000667072 0)
(2.95546 0.00106796 0)
(2.92347 0.00278002 0)
(2.65864 0.0097538 0)
(1.84207 0.0184669 0)
(1.01291 0.0501227 0)
(0.484857 0.0390817 0)
(0.595947 0.0309798 0)
(0.695837 0.0290194 0)
(0.720189 0.0330555 0)
(0.706773 0.0398762 0)
(0.677477 0.0492355 0)
(0.646859 0.0595047 0)
(0.622198 0.0701737 0)
(0.59996 0.080744 0)
(0.576772 0.0907165 0)
(0.551861 0.0999082 0)
(0.525568 0.108428 0)
(0.498189 0.11649 0)
(0.469655 0.124289 0)
(0.439801 0.131955 0)
(0.408594 0.139555 0)
(0.375966 0.147111 0)
(0.341889 0.154605 0)
(0.306285 0.16199 0)
(0.269203 0.169159 0)
(0.230876 0.175993 0)
(0.191218 0.182384 0)
(0.150251 0.188201 0)
(0.108831 0.193258 0)
(0.0637284 0.197579 0)
(0.0255602 0.200478 0)
(3 4.77208e-10 0)
(3 9.89557e-10 0)
(3 4.49787e-09 0)
(3 5.71073e-09 0)
(3 1.89185e-08 0)
(3 3.32026e-08 0)
(3 8.58594e-08 0)
(3 1.37731e-07 0)
(3 4.02525e-07 0)
(3 5.50368e-07 0)
(2.99999 5.54878e-06 0)
(2.99997 -4.70484e-07 0)
(2.99995 7.86319e-06 0)
(2.99984 6.32551e-06 0)
(2.99971 6.97042e-06 0)
(2.99902 1.58131e-05 0)
(2.99834 6.66894e-06 0)
(2.99386 1.94126e-05 0)
(2.98973 0.000588131 0)
(2.95504 0.00155369 0)
(2.92989 0.00226131 0)
(2.66716 0.0113475 0)
(1.86028 0.0227608 0)
(1.02639 0.0557807 0)
(0.481925 0.0410094 0)
(0.597088 0.0329108 0)
(0.699406 0.0324858 0)
(0.724423 0.0390339 0)
(0.710092 0.048247 0)
(0.679313 0.059641 0)
(0.647062 0.0715143 0)
(0.621388 0.0834073 0)
(0.598668 0.0948987 0)
(0.575357 0.105666 0)
(0.550593 0.115691 0)
(0.524631 0.125158 0)
(0.497677 0.134283 0)
(0.469604 0.143238 0)
(0.440216 0.152125 0)
(0.409455 0.160992 0)
(0.377235 0.16985 0)
(0.343511 0.178665 0)
(0.308188 0.187377 0)
(0.271282 0.195857 0)
(0.233 0.203952 0)
(0.193245 0.211524 0)
(0.152018 0.218398 0)
(0.110232 0.224335 0)
(0.0646197 0.229296 0)
(0.0258014 0.232515 0)
(3 5.74318e-10 0)
(3 1.22026e-09 0)
(3 4.75581e-09 0)
(3 8.50972e-09 0)
(3 2.62603e-08 0)
(3 4.3922e-08 0)
(3 1.21773e-07 0)
(3 2.08093e-07 0)
(3 5.74138e-07 0)
(3 8.44832e-07 0)
(2.99999 2.63796e-06 0)
(2.99997 3.48203e-06 0)
(2.99995 3.008e-05 0)
(2.99983 -1.18321e-06 0)
(2.99969 1.37286e-05 0)
(2.99901 1.23781e-05 0)
(2.99823 3.02889e-05 0)
(2.99425 -4.18214e-05 0)
(2.98979 0.000521751 0)
(2.95688 -0.00130584 0)
(2.93084 0.00403349 0)
(2.6804 0.000321515 0)
(1.89304 0.030177 0)
(1.04648 0.0596807 0)
(0.48885 0.0435548 0)
(0.602404 0.0357004 0)
(0.704281 0.0373825 0)
(0.728201 0.046693 0)
(0.711717 0.0584364 0)
(0.679139 0.0716301 0)
(0.645609 0.0848316 0)
(0.619501 0.0976441 0)
(0.596802 0.109781 0)
(0.573712 0.121156 0)
(0.549298 0.131916 0)
(0.523772 0.142299 0)
(0.4973 0.152493 0)
(0.469727 0.162636 0)
(0.440848 0.1728 0)
(0.410591 0.183008 0)
(0.378852 0.193263 0)
(0.34556 0.203523 0)
(0.310595 0.213703 0)
(0.273934 0.22365 0)
(0.235736 0.233174 0)
(0.195891 0.242103 0)
(0.154354 0.250195 0)
(0.112103 0.257154 0)
(0.0658419 0.262864 0)
(0.0261831 0.266464 0)
(3 4.09971e-10 0)
(3 1.03119e-09 0)
(3 4.15703e-09 0)
(3 9.29888e-09 0)
(3 2.96959e-08 0)
(3 4.92702e-08 0)
(3 1.45207e-07 0)
(3 2.61483e-07 0)
(3 6.28646e-07 0)
(3 1.16544e-06 0)
(2.99999 -1.21287e-06 0)
(2.99999 7.17154e-06 0)
(2.99994 8.61986e-06 0)
(2.99982 1.86563e-05 0)
(2.99972 3.03265e-05 0)
(2.99904 6.60949e-05 0)
(2.9983 4.92783e-05 0)
(2.99425 0.00016397 0)
(2.98869 0.00017831 0)
(2.95786 -0.00107179 0)
(2.93153 0.00225419 0)
(2.67857 0.00290114 0)
(1.91773 0.0216705 0)
(1.06031 0.055587 0)
(0.489757 0.0432189 0)
(0.604707 0.0392672 0)
(0.706604 0.0449548 0)
(0.72922 0.0572922 0)
(0.710603 0.0711192 0)
(0.676746 0.0852909 0)
(0.642804 0.0991613 0)
(0.616914 0.112474 0)
(0.594611 0.125051 0)
(0.571946 0.136978 0)
(0.547991 0.148487 0)
(0.522956 0.159816 0)
(0.497 0.171112 0)
(0.469975 0.18248 0)
(0.441669 0.19397 0)
(0.412002 0.20559 0)
(0.380847 0.217337 0)
(0.348098 0.229167 0)
(0.313602 0.240975 0)
(0.277277 0.252581 0)
(0.239229 0.26375 0)
(0.19931 0.274258 0)
(0.157412 0.283804 0)
(0.114552 0.292006 0)
(0.0674244 0.298632 0)
(0.0267174 0.302702 0)
(3 2.69055e-10 0)
(3 1.03201e-09 0)
(3 4.21999e-09 0)
(3 8.30335e-09 0)
(3 2.86373e-08 0)
(3 5.39883e-08 0)
(3 1.70564e-07 0)
(3 3.12671e-07 0)
(3 8.64312e-07 0)
(3 1.38724e-06 0)
(3 4.96832e-06 0)
(2.99998 4.73215e-06 0)
(2.99996 -7.94801e-06 0)
(2.99984 4.0794e-05 0)
(2.99973 4.35428e-05 0)
(2.99903 8.49948e-05 0)
(2.99831 8.26167e-05 0)
(2.99436 0.000121672 0)
(2.98881 0.000280201 0)
(2.95861 0.000486311 0)
(2.93421 0.00179618 0)
(2.68403 0.00556988 0)
(1.94524 0.0198081 0)
(1.08227 0.051541 0)
(0.495899 0.0414487 0)
(0.607752 0.0437473 0)
(0.707718 0.0549547 0)
(0.728301 0.070364 0)
(0.70776 0.0855881 0)
(0.673358 0.100004 0)
(0.63972 0.114063 0)
(0.614317 0.127649 0)
(0.592424 0.140628 0)
(0.570152 0.153142 0)
(0.546644 0.165452 0)
(0.522126 0.177753 0)
(0.496751 0.19016 0)
(0.470373 0.202761 0)
(0.442763 0.215601 0)
(0.41382 0.228687 0)
(0.383394 0.242012 0)
(0.351332 0.255543 0)
(0.317435 0.269165 0)
(0.281557 0.282665 0)
(0.243726 0.295753 0)
(0.203757 0.308145 0)
(0.161443 0.319455 0)
(0.117828 0.329194 0)
(0.0695735 0.336989 0)
(0.0274843 0.341669 0)
(3 6.47789e-10 0)
(3 8.47001e-10 0)
(3 3.79566e-09 0)
(3 7.11529e-09 0)
(3 2.65302e-08 0)
(3 4.92495e-08 0)
(3 1.87127e-07 0)
(3 3.40651e-07 0)
(3 1.15056e-06 0)
(3 2.10175e-06 0)
(3 6.38394e-06 0)
(2.99998 1.00108e-05 0)
(2.99997 2.88269e-05 0)
(2.99987 4.27602e-05 0)
(2.99976 9.57876e-05 0)
(2.99907 0.000188115 0)
(2.99833 0.000225886 0)
(2.99442 0.000393089 0)
(2.989 0.000358039 0)
(2.95917 0.00066941 0)
(2.93581 0.00107896 0)
(2.68831 0.00473969 0)
(1.96854 0.0155086 0)
(1.10399 0.0433151 0)
(0.501887 0.0388928 0)
(0.608665 0.0502452 0)
(0.705762 0.0679822 0)
(0.724519 0.085744 0)
(0.703052 0.1014 0)
(0.669115 0.115479 0)
(0.636497 0.129461 0)
(0.611814 0.143246 0)
(0.59037 0.156626 0)
(0.568536 0.169744 0)
(0.545566 0.182838 0)
(0.521676 0.196091 0)
(0.497009 0.209577 0)
(0.471409 0.223406 0)
(0.444627 0.237613 0)
(0.416529 0.252223 0)
(0.386949 0.267239 0)
(0.355703 0.282615 0)
(0.322526 0.298257 0)
(0.287198 0.313922 0)
(0.249649 0.329276 0)
(0.20963 0.343952 0)
(0.166816 0.357479 0)
(0.122214 0.369202 0)
(0.0724628 0.378549 0)
(0.0285603 0.384054 0)
(3 4.45294e-10 0)
(3 2.2128e-10 0)
(3 1.60133e-09 0)
(3 2.56626e-09 0)
(3 1.49818e-08 0)
(3 2.59617e-08 0)
(3 1.26949e-07 0)
(3 2.14783e-07 0)
(3 9.3571e-07 0)
(3 1.86679e-06 0)
(3 5.1009e-06 0)
(3 1.38886e-05 0)
(2.99999 3.91103e-05 0)
(2.9999 5.70512e-05 0)
(2.99986 0.000179465 0)
(2.99915 0.000290928 0)
(2.9985 0.000344763 0)
(2.99448 0.000573717 0)
(2.98904 0.000198222 0)
(2.95927 0.000424859 0)
(2.93755 0.00127497 0)
(2.70064 0.007063 0)
(1.99823 0.0115055 0)
(1.12326 0.0340635 0)
(0.503087 0.0408259 0)
(0.604775 0.0610157 0)
(0.700506 0.0829911 0)
(0.718419 0.10142 0)
(0.697151 0.116931 0)
(0.66452 0.130842 0)
(0.633475 0.144976 0)
(0.609765 0.159084 0)
(0.588967 0.172928 0)
(0.567792 0.186687 0)
(0.545578 0.200562 0)
(0.5225 0.214735 0)
(0.498681 0.229265 0)
(0.473971 0.244297 0)
(0.448098 0.259899 0)
(0.420929 0.276109 0)
(0.392263 0.292945 0)
(0.361902 0.310362 0)
(0.32954 0.328264 0)
(0.294841 0.346421 0)
(0.257629 0.364466 0)
(0.217569 0.381934 0)
(0.174162 0.398264 0)
(0.128312 0.412619 0)
(0.0765439 0.424098 0)
(0.0301304 0.430784 0)
(3 -1.85438e-10 0)
(3 -4.08785e-10 0)
(3 -1.09795e-09 0)
(3 -2.27575e-09 0)
(3 -8.03507e-10 0)
(3 -3.31875e-09 0)
(3 3.5045e-08 0)
(3 5.67521e-08 0)
(3 4.70701e-07 0)
(3 7.48169e-07 0)
(3.00001 4.1268e-06 0)
(3.00001 9.20595e-06 0)
(3.00001 3.55648e-05 0)
(3 6.52114e-05 0)
(2.99997 0.000211028 0)
(2.99923 0.000359926 0)
(2.99859 0.000300139 0)
(2.99428 -0.000372903 0)
(2.98887 -0.00029623 0)
(2.96017 0.000295201 0)
(2.9419 0.00219756 0)
(2.70597 0.00639015 0)
(2.0116 0.00864984 0)
(1.13822 0.022791 0)
(0.506485 0.0472148 0)
(0.603733 0.0749331 0)
(0.69739 0.0988152 0)
(0.713988 0.11663 0)
(0.69268 0.131854 0)
(0.661146 0.145964 0)
(0.631628 0.160475 0)
(0.609014 0.17501 0)
(0.589145 0.189402 0)
(0.568913 0.203815 0)
(0.547649 0.218486 0)
(0.525492 0.233563 0)
(0.502585 0.249178 0)
(0.478832 0.26545 0)
(0.453942 0.282479 0)
(0.427765 0.300342 0)
(0.400091 0.319085 0)
(0.370691 0.338713 0)
(0.339249 0.359153 0)
(0.305322 0.380203 0)
(0.268529 0.40147 0)
(0.228434 0.422422 0)
(0.184346 0.442383 0)
(0.136899 0.460297 0)
(0.0823939 0.474864 0)
(0.032466 0.483386 0)
(3 -4.1973e-10 0)
(3 -9.19817e-10 0)
(3 -2.90119e-09 0)
(3 -5.78028e-09 0)
(3 -1.31866e-08 0)
(3 -2.50292e-08 0)
(3 -3.82925e-08 0)
(3 -7.59461e-08 0)
(3 6.34242e-08 0)
(3.00001 -3.73568e-08 0)
(3.00001 1.92335e-06 0)
(3.00003 4.00519e-06 0)
(3.00005 2.22594e-05 0)
(3.00007 5.00566e-05 0)
(3.00014 0.000139605 0)
(2.99923 0.000341537 0)
(2.99777 -0.000272129 0)
(2.99389 -0.00251981 0)
(2.98975 -0.000644294 0)
(2.96147 -0.000266713 0)
(2.94347 -0.00191062 0)
(2.70372 -0.001564 0)
(2.0172 0.0104842 0)
(1.14776 0.0278157 0)
(0.49862 0.0621108 0)
(0.597352 0.0917598 0)
(0.692585 0.114578 0)
(0.708958 0.130835 0)
(0.688847 0.145807 0)
(0.659187 0.160575 0)
(0.631657 0.175732 0)
(0.610497 0.190785 0)
(0.591782 0.205773 0)
(0.572632 0.220936 0)
(0.552424 0.236487 0)
(0.531308 0.252557 0)
(0.50944 0.269316 0)
(0.486696 0.286875 0)
(0.462837 0.305379 0)
(0.437728 0.324954 0)
(0.411152 0.345706 0)
(0.382873 0.367695 0)
(0.352529 0.390926 0)
(0.319585 0.415262 0)
(0.283466 0.44037 0)
(0.243509 0.465714 0)
(0.198734 0.490507 0)
(0.149402 0.513412 0)
(0.0912587 0.532612 0)
(0.0361796 0.544218 0)
(3 -5.6322e-10 0)
(3 -1.11427e-09 0)
(3 -4.06154e-09 0)
(3 -7.47721e-09 0)
(3 -2.23173e-08 0)
(3 -4.10611e-08 0)
(3 -1.0469e-07 0)
(3 -1.96984e-07 0)
(3 -4.13061e-07 0)
(3.00001 -8.29832e-07 0)
(3.00001 -8.36459e-07 0)
(3.00003 -2.00615e-06 0)
(3.00006 2.92041e-06 0)
(3.00012 6.40419e-06 0)
(3.00026 5.56067e-05 0)
(2.99881 0.000181618 0)
(2.99571 -0.000640965 0)
(2.99391 -0.00263675 0)
(2.9912 -0.00147089 0)
(2.95857 -0.00664608 0)
(2.94138 -0.000650742 0)
(2.70532 0.00690127 0)
(2.0173 0.0268428 0)
(1.13735 0.0549814 0)
(0.478981 0.0816515 0)
(0.589884 0.107091 0)
(0.687974 0.125966 0)
(0.705238 0.141773 0)
(0.68767 0.157495 0)
(0.66045 0.173892 0)
(0.634754 0.190224 0)
(0.614893 0.20605 0)
(0.597425 0.221823 0)
(0.579493 0.237935 0)
(0.560412 0.25453 0)
(0.540374 0.271743 0)
(0.519564 0.289708 0)
(0.497919 0.308584 0)
(0.475234 0.328586 0)
(0.451363 0.349905 0)
(0.426099 0.372736 0)
(0.399192 0.397242 0)
(0.370274 0.423504 0)
(0.338715 0.451596 0)
(0.303761 0.481241 0)
(0.264481 0.512035 0)
(0.219374 0.543341 0)
(0.167993 0.573568 0)
(0.105145 0.600283 0)
(0.0423916 0.617511 0)
(3 -5.31687e-10 0)
(3 -9.67846e-10 0)
(3 -4.34968e-09 0)
(3 -7.32436e-09 0)
(3 -2.68119e-08 0)
(3 -4.51766e-08 0)
(3 -1.51141e-07 0)
(3 -2.55623e-07 0)
(3 -7.8969e-07 0)
(3.00001 -1.26938e-06 0)
(3.00001 -3.64483e-06 0)
(3.00003 -5.80894e-06 0)
(3.00005 -1.41964e-05 0)
(3.00013 -2.96318e-05 0)
(3.00032 -4.56868e-05 0)
(2.99852 -4.15861e-05 0)
(2.99487 -0.000244546 0)
(2.99302 -0.000610582 0)
(2.98548 0.000200214 0)
(2.96243 -0.0029664 0)
(2.95819 0.00973356 0)
(2.71166 0.0256007 0)
(2.01704 0.0362783 0)
(1.13714 0.0773402 0)
(0.471792 0.0958948 0)
(0.588353 0.119476 0)
(0.686127 0.134869 0)
(0.705418 0.151111 0)
(0.690728 0.167804 0)
(0.665971 0.186155 0)
(0.641467 0.203809 0)
(0.622578 0.220717 0)
(0.606294 0.237592 0)
(0.58954 0.25485 0)
(0.571559 0.272641 0)
(0.552606 0.291083 0)
(0.532927 0.310323 0)
(0.512519 0.330572 0)
(0.49122 0.352074 0)
(0.468891 0.375111 0)
(0.44534 0.400009 0)
(0.420276 0.427133 0)
(0.393389 0.456534 0)
(0.363982 0.488641 0)
(0.331074 0.523711 0)
(0.293627 0.561465 0)
(0.249433 0.601475 0)
(0.196823 0.642539 0)
(0.128443 0.682107 0)
(0.053795 0.711491 0)
(3 -2.2092e-10 0)
(3 -5.89752e-10 0)
(3 -2.50571e-09 0)
(3 -5.2344e-09 0)
(3 -1.91809e-08 0)
(3 -3.67272e-08 0)
(3 -1.37366e-07 0)
(3 -2.51566e-07 0)
(3 -9.07222e-07 0)
(3 -1.52165e-06 0)
(3.00001 -5.43712e-06 0)
(3.00002 -9.8443e-06 0)
(3.00003 -2.90111e-05 0)
(3.00008 -5.76101e-05 0)
(3.00025 -0.000127278 0)
(2.9986 -0.000237434 0)
(2.99511 0.000222584 0)
(2.99447 0.0009012 0)
(2.9883 0.00300867 0)
(2.96924 0.00629541 0)
(2.97051 0.0136275 0)
(2.71488 0.0276346 0)
(2.04636 0.0339348 0)
(1.17607 0.088459 0)
(0.474087 0.109183 0)
(0.589488 0.133544 0)
(0.685051 0.144889 0)
(0.708468 0.160667 0)
(0.697712 0.177935 0)
(0.675506 0.197921 0)
(0.651505 0.217047 0)
(0.633273 0.235355 0)
(0.617955 0.253515 0)
(0.602266 0.272006 0)
(0.585356 0.291024 0)
(0.567531 0.310684 0)
(0.549128 0.331178 0)
(0.530198 0.352747 0)
(0.5106 0.375712 0)
(0.490249 0.400434 0)
(0.469039 0.427281 0)
(0.44648 0.456712 0)
(0.422386 0.48948 0)
(0.396552 0.526069 0)
(0.367614 0.567171 0)
(0.334022 0.613291 0)
(0.29333 0.66486 0)
(0.242652 0.722054 0)
(0.170654 0.784058 0)
(0.0776749 0.843236 0)
(3 -6.78689e-12 0)
(3 -5.7099e-11 0)
(3 -1.71099e-10 0)
(3 -1.16897e-09 0)
(3 -4.2981e-09 0)
(3 -1.48317e-08 0)
(3 -5.04293e-08 0)
(3 -1.51569e-07 0)
(3 -5.13335e-07 0)
(3 -1.28235e-06 0)
(3 -4.23682e-06 0)
(3.00001 -1.14075e-05 0)
(3 -3.08447e-05 0)
(3.00002 -7.29104e-05 0)
(3.00012 -0.000157119 0)
(2.99891 -0.000484895 0)
(2.99615 0.000425554 0)
(2.99613 0.00153539 0)
(2.99131 0.00300505 0)
(2.97448 0.00584475 0)
(2.9796 0.0108287 0)
(2.72349 0.0211719 0)
(2.09521 0.0341237 0)
(1.23174 0.0956289 0)
(0.481464 0.124202 0)
(0.591295 0.149168 0)
(0.683616 0.156281 0)
(0.713742 0.171004 0)
(0.70731 0.189045 0)
(0.687503 0.209356 0)
(0.66352 0.229776 0)
(0.645452 0.249442 0)
(0.630812 0.268904 0)
(0.616126 0.288644 0)
(0.600354 0.308855 0)
(0.583837 0.329669 0)
(0.566998 0.351318 0)
(0.54996 0.374074 0)
(0.532636 0.398364 0)
(0.514856 0.424386 0)
(0.496513 0.452833 0)
(0.477778 0.484645 0)
(0.458355 0.520766 0)
(0.437615 0.561832 0)
(0.414863 0.608908 0)
(0.389033 0.663947 0)
(0.357796 0.729588 0)
(0.31757 0.810348 0)
(0.254124 0.915561 0)
(0.134882 1.0744 0)
(3 1.54831e-10 0)
(3 5.17686e-10 0)
(3 1.37865e-09 0)
(3 3.17875e-09 0)
(3 7.25494e-09 0)
(3 1.61794e-08 0)
(3 3.34806e-08 0)
(3 6.53124e-08 0)
(3 1.05061e-07 0)
(3 8.61242e-08 0)
(2.99999 -1.13242e-07 0)
(2.99999 -1.61842e-06 0)
(2.99995 -7.00971e-06 0)
(2.99992 -7.37153e-06 0)
(2.9997 -6.10608e-05 0)
(2.99935 -0.000211922 0)
(2.99771 0.000432636 0)
(2.9977 0.00147866 0)
(2.99364 0.0024802 0)
(2.97929 0.0045043 0)
(2.98792 0.00849276 0)
(2.73615 0.0148915 0)
(2.16987 0.0349284 0)
(1.31469 0.0917108 0)
(0.504469 0.143549 0)
(0.598338 0.165181 0)
(0.683868 0.172004 0)
(0.723538 0.186446 0)
(0.720607 0.20581 0)
(0.701427 0.225992 0)
(0.676732 0.247287 0)
(0.657497 0.268401 0)
(0.642875 0.289334 0)
(0.629223 0.310299 0)
(0.615257 0.331496 0)
(0.601286 0.353202 0)
(0.587732 0.375739 0)
(0.574741 0.399368 0)
(0.56185 0.424482 0)
(0.549196 0.451749 0)
(0.537635 0.482048 0)
(0.526757 0.516269 0)
(0.516025 0.555177 0)
(0.505805 0.600101 0)
(0.496872 0.652889 0)
(0.490435 0.716339 0)
(0.489165 0.794783 0)
(0.501051 0.895171 0)
(0.554863 1.02767 0)
(0.625604 1.21594 0)
(3 1.08774e-10 0)
(3 2.62614e-10 0)
(3 1.12679e-09 0)
(3 2.5294e-09 0)
(3 8.21974e-09 0)
(3 1.9303e-08 0)
(3 5.2012e-08 0)
(3 1.36565e-07 0)
(3 3.24983e-07 0)
(3 8.96226e-07 0)
(3 1.98539e-06 0)
(3 6.07358e-06 0)
(3 1.08789e-05 0)
(2.99994 3.83109e-05 0)
(2.99986 6.62773e-05 0)
(2.99965 0.000212601 0)
(2.99868 0.00043896 0)
(2.99925 0.00141972 0)
(2.99589 0.0021607 0)
(2.98394 0.00387048 0)
(2.99416 0.00716843 0)
(2.75558 0.010969 0)
(2.25062 0.0346757 0)
(1.42009 0.0825288 0)
(0.555159 0.160127 0)
(0.603975 0.17707 0)
(0.683376 0.188745 0)
(0.729295 0.206245 0)
(0.727005 0.227755 0)
(0.705357 0.248802 0)
(0.679223 0.27031 0)
(0.658876 0.291664 0)
(0.644303 0.312421 0)
(0.6321 0.332722 0)
(0.620874 0.353068 0)
(0.610687 0.37403 0)
(0.60158 0.395871 0)
(0.593516 0.41912 0)
(0.586881 0.44448 0)
(0.581918 0.472611 0)
(0.578382 0.503867 0)
(0.576276 0.538701 0)
(0.57613 0.578276 0)
(0.579046 0.623971 0)
(0.586887 0.677579 0)
(0.602942 0.741243 0)
(0.633005 0.817863 0)
(0.685772 0.91059 0)
(0.790718 1.0187 0)
(0.93238 1.12987 0)
(3 -1.92456e-10 0)
(3 -4.4885e-10 0)
(3 -1.33234e-09 0)
(3 -2.41322e-09 0)
(3 -5.92599e-09 0)
(3 -1.05166e-08 0)
(3 -1.92833e-08 0)
(3 -3.04718e-08 0)
(3 -3.52784e-08 0)
(3 5.48986e-09 0)
(3 -3.02028e-08 0)
(3 3.54087e-07 0)
(3.00001 1.46883e-06 0)
(3.00001 -2.50176e-06 0)
(2.99999 1.93505e-05 0)
(2.99997 0.000195893 0)
(2.99973 0.000584167 0)
(3.00056 0.00139929 0)
(2.9977 0.00217558 0)
(2.98788 0.00388338 0)
(2.9992 0.00705787 0)
(2.77484 0.0102696 0)
(2.32817 0.0338159 0)
(1.53673 0.0817387 0)
(0.613045 0.170679 0)
(0.603359 0.189999 0)
(0.679493 0.209124 0)
(0.727126 0.231911 0)
(0.722909 0.255885 0)
(0.698777 0.277656 0)
(0.672791 0.298172 0)
(0.653599 0.317538 0)
(0.64078 0.335672 0)
(0.631223 0.353197 0)
(0.623601 0.370945 0)
(0.617417 0.389492 0)
(0.612883 0.409484 0)
(0.610889 0.431761 0)
(0.611227 0.456715 0)
(0.613348 0.484382 0)
(0.617491 0.515034 0)
(0.624374 0.549261 0)
(0.634858 0.587824 0)
(0.650211 0.631534 0)
(0.672688 0.681261 0)
(0.705575 0.737917 0)
(0.754156 0.801533 0)
(0.82339 0.87135 0)
(0.929162 0.941829 0)
(1.05563 0.993737 0)
(3 -2.28774e-10 0)
(3 -4.34357e-10 0)
(3 -1.84579e-09 0)
(3 -3.40505e-09 0)
(3 -1.08479e-08 0)
(3 -2.02683e-08 0)
(3 -5.82081e-08 0)
(3 -1.01582e-07 0)
(3 -2.91344e-07 0)
(3 -5.6752e-07 0)
(3 -1.29745e-06 0)
(3 -2.4011e-06 0)
(2.99999 -3.29646e-06 0)
(2.99997 -6.82378e-06 0)
(3.00019 1.73945e-05 0)
(3.00059 6.52786e-05 0)
(3.00069 0.000296783 0)
(3.0019 0.000586037 0)
(2.99998 0.00162285 0)
(2.99234 0.00346215 0)
(3.00455 0.00683722 0)
(2.79465 0.0103185 0)
(2.41292 0.0328223 0)
(1.66565 0.0820403 0)
(0.657331 0.188647 0)
(0.584684 0.220497 0)
(0.658472 0.245943 0)
(0.710603 0.268945 0)
(0.71015 0.289772 0)
(0.690215 0.307641 0)
(0.669565 0.324084 0)
(0.654835 0.339322 0)
(0.645578 0.353478 0)
(0.63938 0.367415 0)
(0.634822 0.381849 0)
(0.632015 0.397467 0)
(0.631908 0.415327 0)
(0.634523 0.435861 0)
(0.639337 0.458895 0)
(0.646605 0.484576 0)
(0.656999 0.513234 0)
(0.671166 0.545194 0)
(0.689856 0.580685 0)
(0.714164 0.619944 0)
(0.746039 0.663016 0)
(0.787614 0.709721 0)
(0.842252 0.758693 0)
(0.912076 0.807353 0)
(1.00634 0.851961 0)
(1.11145 0.878404 0)
(3 -6.61714e-11 0)
(3 -1.137e-10 0)
(3 -5.55123e-10 0)
(3 -9.16146e-10 0)
(3 -4.34112e-09 0)
(3 -7.39173e-09 0)
(3 -3.20519e-08 0)
(3 -5.61656e-08 0)
(3 -1.97497e-07 0)
(3 -3.36773e-07 0)
(3 -1.00688e-06 0)
(3 -1.22079e-06 0)
(3 -4.92716e-06 0)
(3.00005 -5.04972e-06 0)
(3.00011 -1.03219e-05 0)
(3.00043 -0.000160805 0)
(3.00059 -0.000449336 0)
(3.00275 -0.000761342 0)
(3.00252 -0.00144584 0)
(2.99686 -0.000834479 0)
(3.0101 0.00278604 0)
(2.81412 0.00308133 0)
(2.49408 0.0248996 0)
(1.7949 0.0992889 0)
(0.69906 0.21608 0)
(0.564431 0.248539 0)
(0.639079 0.269894 0)
(0.699535 0.28804 0)
(0.708493 0.305777 0)
(0.698104 0.321514 0)
(0.685888 0.336692 0)
(0.67687 0.350206 0)
(0.671496 0.362445 0)
(0.668106 0.374348 0)
(0.665822 0.38651 0)
(0.665503 0.399953 0)
(0.667735 0.415698 0)
(0.672135 0.433794 0)
(0.678682 0.454181 0)
(0.688102 0.477037 0)
(0.70118 0.502502 0)
(0.718595 0.530626 0)
(0.741099 0.561381 0)
(0.7697 0.59466 0)
(0.805825 0.630115 0)
(0.850541 0.666886 0)
(0.905408 0.703705 0)
(0.972011 0.738149 0)
(1.05323 0.768191 0)
(1.13961 0.785115 0)
(3 1.24398e-10 0)
(3 1.78619e-10 0)
(3 7.45408e-10 0)
(3 1.21596e-09 0)
(3 3.38493e-09 0)
(3 6.17032e-09 0)
(3 1.16172e-08 0)
(3 1.78166e-08 0)
(3 3.01234e-08 0)
(3 9.99159e-08 0)
(3 -2.19025e-07 0)
(2.99999 -6.74036e-07 0)
(2.99999 -4.99091e-06 0)
(2.99996 -8.32287e-06 0)
(2.99993 -6.67874e-05 0)
(2.99986 -0.000131059 0)
(2.99969 -0.000577066 0)
(3.0002 -0.00100463 0)
(3.00001 -0.00414769 0)
(2.99959 -0.00490665 0)
(3.01048 -0.00853434 0)
(2.84135 -0.0290149 0)
(2.65541 0.0906754 0)
(2.00648 0.0747826 0)
(0.716546 0.379385 0)
(0.531643 0.351852 0)
(0.62274 0.323771 0)
(0.706322 0.309323 0)
(0.733525 0.3139 0)
(0.735504 0.326284 0)
(0.731049 0.340464 0)
(0.725251 0.354119 0)
(0.721685 0.36664 0)
(0.719296 0.37842 0)
(0.717732 0.390035 0)
(0.71849 0.402443 0)
(0.721658 0.416367 0)
(0.726276 0.431894 0)
(0.732662 0.449194 0)
(0.741865 0.468497 0)
(0.754725 0.489886 0)
(0.771935 0.513329 0)
(0.79422 0.538692 0)
(0.822418 0.565674 0)
(0.85741 0.593727 0)
(0.899875 0.621866 0)
(0.951059 0.649103 0)
(1.01207 0.673579 0)
(1.08299 0.693202 0)
(1.15548 0.704873 0)
(3 9.87843e-11 0)
(3 1.30184e-10 0)
(3 6.15804e-10 0)
(3 7.78073e-10 0)
(3 4.12317e-09 0)
(3 5.48202e-09 0)
(3 2.4987e-08 0)
(3 3.73743e-08 0)
(3 1.51178e-07 0)
(3 2.20717e-07 0)
(3 8.36204e-07 0)
(2.99999 1.27741e-06 0)
(2.99999 3.97165e-06 0)
(2.99994 6.93247e-06 0)
(2.99991 2.05744e-05 0)
(2.99958 4.12061e-05 0)
(2.99914 6.58877e-05 0)
(2.9968 0.000134927 0)
(2.99601 -0.000597129 0)
(2.9895 -3.23949e-05 0)
(2.97089 -0.00218232 0)
(2.96878 -0.0146758 0)
(2.68175 0.101534 0)
(1.93137 0.0398475 0)
(1.1057 0.34677 0)
(0.612103 0.326916 0)
(0.677934 0.31218 0)
(0.760564 0.298193 0)
(0.795997 0.305296 0)
(0.794244 0.322258 0)
(0.782843 0.339139 0)
(0.773084 0.354967 0)
(0.767837 0.36893 0)
(0.765986 0.381465 0)
(0.766569 0.393243 0)
(0.770004 0.405115 0)
(0.775357 0.417665 0)
(0.781621 0.431143 0)
(0.789293 0.445841 0)
(0.799249 0.461924 0)