/*--------------------------------*- C++ -*----------------------------------*\
| =========                 |                                                 |
| \\      /  F ield         | OpenFOAM: The Open Source CFD Toolbox           |
|  \\    /   O peration     | Version:  2412                                  |
|   \\  /    A nd           | Website:  www.openfoam.com                      |
|    \\/     M anipulation  |                                                 |
\*---------------------------------------------------------------------------*/
FoamFile
{
    version     2.0;
    format      ascii;
    arch        "LSB;label=32;scalar=64";
    class       volScalarField;
    location    "24.5";
    object      Ma;
}
// * * * * * * * * * * * * * * * * * * * * * * * * * * * * * * * * * * * * * //

dimensions      [0 0 0 0 0 0 0];

internalField   nonuniform List<scalar> 
7000
(
2.25599
0.994192
0.300539
0.338438
0.401062
0.442389
0.450596
0.446127
0.439772
0.434862
0.432017
0.429745
0.427145
0.424058
0.420587
0.416811
0.412745
0.408366
0.403656
0.398595
0.393174
0.387376
0.38119
0.374598
0.367585
0.360132
0.352223
0.343837
0.334956
0.325558
0.315625
0.305133
0.294063
0.282394
0.270108
0.257185
0.243611
0.229373
0.214465
0.198883
0.182633
0.165727
0.14819
0.130054
0.111369
0.0921928
0.072591
0.0528471
0.0319231
0.0155244
2.25605
0.994254
0.300337
0.338273
0.400908
0.442241
0.450449
0.445982
0.439634
0.434731
0.43189
0.429621
0.427025
0.423942
0.420475
0.416705
0.412644
0.408272
0.403567
0.398513
0.393099
0.38731
0.381133
0.37455
0.367548
0.360107
0.35221
0.343838
0.334972
0.325591
0.315676
0.305204
0.294157
0.282512
0.270252
0.257358
0.243816
0.229614
0.214746
0.199209
0.18301
0.166165
0.148702
0.13066
0.112103
0.0931175
0.0738193
0.0546559
0.0351574
0.0220573
2.25618
0.994451
0.300469
0.338308
0.400937
0.442274
0.450483
0.446022
0.439691
0.4348
0.431972
0.429708
0.427123
0.424045
0.420593
0.41683
0.412785
0.408422
0.403735
0.398693
0.3933
0.387525
0.381372
0.374809
0.367834
0.360417
0.352554
0.344213
0.335387
0.326044
0.316177
0.305753
0.294763
0.283179
0.270989
0.258172
0.244718
0.230614
0.215858
0.200451
0.184404
0.167741
0.1505
0.132745
0.114565
0.0961169
0.077634
0.0598399
0.043041
0.0335723
2.25635
0.994757
0.30074
0.338386
0.401019
0.442374
0.450586
0.446139
0.439822
0.434958
0.432141
0.429896
0.427318
0.424263
0.420821
0.417085
0.413052
0.408718
0.404047
0.399039
0.393665
0.387931
0.381801
0.375285
0.368342
0.36098
0.353156
0.34488
0.336103
0.326838
0.317034
0.306703
0.295794
0.284321
0.272235
0.259553
0.246233
0.232296
0.217717
0.202523
0.186719
0.170347
0.153462
0.136148
0.118555
0.100896
0.0835507
0.0674576
0.0533029
0.0461805
2.2566
0.995187
0.30109
0.338455
0.401104
0.442495
0.450715
0.44629
0.439984
0.435162
0.432356
0.430143
0.427575
0.424554
0.421126
0.417428
0.413415
0.409123
0.404477
0.399515
0.394175
0.388492
0.382407
0.375949
0.369063
0.361768
0.354016
0.345817
0.337133
0.327959
0.318269
0.308046
0.297279
0.285938
0.274028
0.26151
0.248409
0.234683
0.220379
0.205465
0.190016
0.174038
0.15764
0.140921
0.124073
0.107409
0.091372
0.0770294
0.0651085
0.0594944
2.25693
0.99576
0.301533
0.338526
0.4012
0.44264
0.450884
0.44646
0.440214
0.435397
0.432651
0.430436
0.427925
0.424904
0.42154
0.417848
0.413905
0.409623
0.405055
0.400111
0.394857
0.389202
0.383215
0.376797
0.370021
0.362783
0.355157
0.347037
0.338495
0.329427
0.319899
0.309818
0.299237
0.288081
0.276389
0.264111
0.251269
0.237852
0.22387
0.20936
0.194332
0.178894
0.163088
0.147117
0.131166
0.115612
0.100984
0.0882975
0.0781879
0.0736198
2.25735
0.996486
0.302076
0.338602
0.401307
0.442818
0.451089
0.446692
0.440475
0.435709
0.43299
0.430821
0.428333
0.425363
0.422028
0.418396
0.414485
0.410273
0.405743
0.400882
0.395674
0.390118
0.384187
0.377888
0.371181
0.364085
0.356546
0.348595
0.340164
0.331297
0.321912
0.312068
0.301674
0.290796
0.279346
0.267395
0.254872
0.241845
0.228281
0.214246
0.199772
0.184939
0.169887
0.154751
0.139834
0.125479
0.112235
0.101078
0.0924446
0.0886251
2.25786
0.997378
0.302728
0.338683
0.401427
0.443028
0.451336
0.446973
0.440794
0.436084
0.433405
0.431283
0.428835
0.425918
0.42263
0.419056
0.415203
0.411058
0.406598
0.401813
0.396691
0.391223
0.385398
0.379203
0.372627
0.365653
0.358276
0.350469
0.342238
0.333544
0.324406
0.314772
0.304682
0.294065
0.282986
0.271367
0.25929
0.246692
0.233665
0.220192
0.206375
0.192283
0.178049
0.163896
0.150053
0.136958
0.125074
0.115263
0.107843
0.104623
2.25848
0.998447
0.303498
0.338771
0.401562
0.443274
0.451632
0.447302
0.441184
0.436524
0.433905
0.431829
0.42944
0.426574
0.423353
0.419841
0.416065
0.411992
0.40762
0.402924
0.397905
0.392545
0.386842
0.380779
0.374349
0.367537
0.360334
0.352728
0.344705
0.336259
0.32737
0.318044
0.30825
0.298016
0.287296
0.27615
0.264519
0.252502
0.240041
0.227275
0.214188
0.200956
0.18767
0.174546
0.161896
0.150028
0.139452
0.130889
0.124492
0.121715
2.2592
0.999707
0.304395
0.338868
0.401716
0.443563
0.45198
0.447703
0.441636
0.437056
0.434485
0.432483
0.430144
0.427358
0.424198
0.420776
0.417071
0.413101
0.408817
0.404238
0.399328
0.394106
0.388537
0.382637
0.376371
0.369755
0.362754
0.355382
0.347608
0.339443
0.330862
0.321875
0.312463
0.302636
0.292392
0.281737
0.270696
0.259275
0.247544
0.235512
0.223321
0.211
0.198785
0.186793
0.175337
0.164784
0.155439
0.14799
0.14249
0.140145
2.26004
1.00117
0.305428
0.338977
0.401892
0.443895
0.452392
0.448159
0.442185
0.437663
0.43518
0.433232
0.430983
0.428259
0.425199
0.421851
0.41826
0.414379
0.410224
0.405756
0.400995
0.39591
0.390517
0.384785
0.378729
0.37232
0.365569
0.358453
0.350979
0.343131
0.334911
0.326313
0.317338
0.307992
0.298277
0.288215
0.277816
0.267127
0.256172
0.245038
0.23378
0.222545
0.211438
0.200703
0.190517
0.181222
0.173164
0.166807
0.162134
0.160098
2.261
1.00284
0.306606
0.3391
0.402093
0.444282
0.452867
0.448711
0.442807
0.438391
0.435969
0.434121
0.431937
0.429323
0.426339
0.423114
0.419613
0.415873
0.411828
0.407522
0.402898
0.398002
0.392778
0.38727
0.381422
0.375279
0.368787
0.361988
0.354833
0.347365
0.33954
0.331401
0.322914
0.31412
0.305007
0.295613
0.285956
0.276072
0.266027
0.255858
0.245697
0.235598
0.225771
0.216327
0.207539
0.199607
0.192763
0.187489
0.18363
0.182023
2.26208
1.00474
0.307935
0.339243
0.402322
0.444723
0.453421
0.449337
0.44355
0.439219
0.436901
0.43513
0.433055
0.430529
0.427668
0.424544
0.421184
0.417563
0.413682
0.409519
0.405088
0.400368
0.395372
0.390079
0.384505
0.378625
0.37246
0.365985
0.359224
0.352154
0.344804
0.337153
0.32924
0.321048
0.31263
0.303975
0.295157
0.28618
0.27714
0.268076
0.259096
0.250315
0.24183
0.233864
0.226514
0.220065
0.214645
0.210544
0.207568
0.206265
2.26329
1.00686
0.309419
0.339397
0.402594
0.445219
0.454055
0.450067
0.444399
0.440183
0.437962
0.436298
0.434324
0.431918
0.429172
0.426185
0.422956
0.419495
0.415769
0.411796
0.407551
0.403057
0.398286
0.393266
0.387963
0.382412
0.376578
0.370499
0.364143
0.35755
0.350698
0.343624
0.336322
0.328828
0.321159
0.313352
0.305448
0.297498
0.289564
0.28173
0.274077
0.266729
0.259804
0.253421
0.247779
0.242928
0.239022
0.236288
0.234366
0.233712
2.26462
1.0092
0.311058
0.339557
0.40292
0.445778
0.454784
0.45091
0.445376
0.441292
0.439176
0.437631
0.435769
0.433495
0.430878
0.428039
0.424961
0.421669
0.418124
0.414351
0.410325
0.406066
0.401562
0.396822
0.391846
0.38663
0.381194
0.375519
0.369647
0.363545
0.357279
0.350807
0.344214
0.337461
0.330649
0.323754
0.316884
0.310054
0.303363
0.296884
0.290716
0.284968
0.279764
0.275236
0.271478
0.268667
0.266694
0.265722
0.26519
0.265156
2.26609
1.01177
0.312862
0.339753
0.403284
0.446424
0.455628
0.451881
0.446525
0.442562
0.440582
0.439145
0.437428
0.435276
0.432821
0.430121
0.427229
0.424103
0.420774
0.4172
0.41343
0.409415
0.405215
0.400774
0.396158
0.391311
0.386304
0.381084
0.375723
0.370184
0.364529
0.35875
0.352893
0.346993
0.341074
0.335222
0.329447
0.32388
0.318543
0.313584
0.309074
0.305152
0.301925
0.299521
0.29808
0.297581
0.298078
0.299506
0.301151
0.302676
2.26767
1.01457
0.314823
0.339982
0.403704
0.447177
0.45661
0.453015
0.447861
0.444032
0.442193
0.440876
0.439309
0.437296
0.435009
0.43247
0.429767
0.426833
0.423724
0.420385
0.416873
0.413145
0.40925
0.40516
0.400909
0.396489
0.391921
0.387219
0.382391
0.377478
0.372477
0.367451
0.362402
0.357408
0.352491
0.34773
0.343198
0.338957
0.335149
0.331829
0.329178
0.327313
0.326391
0.326516
0.327916
0.330656
0.334522
0.339627
0.344727
0.348725
2.26935
1.01756
0.316926
0.340247
0.404192
0.448062
0.45776
0.45436
0.449406
0.445755
0.444035
0.442874
0.441437
0.4396
0.43746
0.435121
0.43259
0.429888
0.426988
0.423922
0.420666
0.417263
0.413683
0.409977
0.406114
0.40215
0.39806
0.393901
0.389663
0.385397
0.381121
0.376877
0.372718
0.368677
0.364848
0.361268
0.358063
0.355307
0.353121
0.351686
0.351061
0.351508
0.3532
0.35641
0.361329
0.368069
0.3769
0.387633
0.399369
0.409972
2.27112
1.02071
0.31915
0.340563
0.404772
0.449107
0.459117
0.455937
0.451215
0.447739
0.446151
0.445139
0.443853
0.442188
0.440225
0.438079
0.435757
0.433278
0.43063
0.427828
0.424877
0.421788
0.418578
0.415248
0.411832
0.408321
0.404769
0.401161
0.397569
0.393978
0.390477
0.387063
0.383835
0.380822
0.378121
0.375819
0.373997
0.372844
0.372423
0.372924
0.374588
0.377705
0.382628
0.389495
0.398922
0.411251
0.426947
0.447107
0.470989
0.498597
2.27294
1.02396
0.32143
0.340942
0.405481
0.450368
0.460762
0.457825
0.45339
0.450058
0.448617
0.447722
0.446608
0.445089
0.443325
0.44135
0.439257
0.436992
0.434616
0.432081
0.429453
0.426694
0.423868
0.420945
0.417985
0.414972
0.411962
0.408962
0.406016
0.403165
0.400443
0.39793
0.39565
0.393732
0.392204
0.391243
0.390883
0.391313
0.392698
0.395384
0.39959
0.405686
0.413892
0.425053
0.43962
0.459158
0.485082
0.520595
0.571928
0.664905
2.27502
1.02769
0.323962
0.341215
0.406281
0.451967
0.462915
0.460351
0.456264
0.45316
0.451878
0.451204
0.450305
0.449063
0.447544
0.445883
0.444077
0.442178
0.440149
0.438047
0.43584
0.433595
0.431277
0.428963
0.426618
0.424329
0.422064
0.419923
0.417883
0.416054
0.414436
0.413143
0.412215
0.411773
0.411915
0.412687
0.41425
0.417016
0.421206
0.426897
0.434589
0.444559
0.457831
0.474817
0.497604
0.527611
0.569594
0.631148
0.729825
0.881479
2.27723
1.03166
0.326973
0.342166
0.408011
0.454836
0.466504
0.464319
0.460552
0.457505
0.456266
0.455683
0.454944
0.453879
0.452579
0.451144
0.44962
0.448017
0.446349
0.444622
0.442862
0.441077
0.439304
0.437547
0.435856
0.434236
0.432754
0.431414
0.430306
0.429439
0.428931
0.4288
0.429165
0.430047
0.431684
0.434272
0.437985
0.442903
0.449468
0.457793
0.468592
0.482305
0.499812
0.522623
0.551793
0.591356
0.643913
0.718035
0.82898
0.967136
2.27851
1.03398
0.328846
0.343226
0.410174
0.458582
0.471229
0.469542
0.466102
0.463077
0.461872
0.461407
0.460834
0.459948
0.458837
0.457609
0.456319
0.454982
0.453613
0.452223
0.450838
0.449475
0.448165
0.44693
0.445808
0.444827
0.444035
0.443474
0.443204
0.443293
0.443751
0.444654
0.44624
0.448645
0.451867
0.456155
0.461589
0.468579
0.477195
0.488162
0.501495
0.518493
0.539211
0.565769
0.599043
0.641712
0.69737
0.767753
0.864168
0.967479
2.27967
1.03609
0.332159
0.346924
0.415038
0.464996
0.478239
0.476423
0.472633
0.46926
0.467981
0.467621
0.46721
0.466499
0.465594
0.464596
0.463591
0.462565
0.461553
0.460541
0.459578
0.458659
0.457835
0.457112
0.456547
0.456158
0.456012
0.456126
0.456543
0.457353
0.458726
0.460708
0.463358
0.466847
0.47124
0.476842
0.48368
0.492269
0.502618
0.515405
0.530886
0.549718
0.572838
0.6007
0.635324
0.677095
0.728926
0.790945
0.868868
0.949909
2.27611
1.0297
0.334298
0.356824
0.42746
0.479821
0.493322
0.490523
0.485521
0.481273
0.479615
0.47906
0.478488
0.477619
0.476559
0.475466
0.474403
0.473379
0.472403
0.471492
0.470666
0.469957
0.469378
0.46898
0.468784
0.468823
0.469094
0.469763
0.470842
0.472445
0.47454
0.477328
0.480776
0.485172
0.490482
0.497077
0.504977
0.514557
0.526084
0.539791
0.556356
0.575911
0.599481
0.627364
0.660591
0.700052
0.746334
0.800701
0.864205
0.928783
2.28204
1.02255
0.35875
0.382359
0.448478
0.498371
0.510282
0.50653
0.500787
0.496404
0.494703
0.494014
0.493315
0.492366
0.4913
0.490224
0.489192
0.488195
0.487258
0.486378
0.485601
0.484928
0.484415
0.484032
0.483902
0.484058
0.484604
0.485469
0.48686
0.488707
0.491258
0.494404
0.498488
0.503353
0.509464
0.51659
0.525358
0.535462
0.547709
0.561824
0.578646
0.598174
0.621059
0.647786
0.678646
0.714589
0.75556
0.802432
0.855625
0.909183
1.87634
0.772019
0.273272
0.344118
0.417752
0.441224
0.44113
0.437149
0.433506
0.433411
0.435586
0.438474
0.441475
0.444518
0.447657
0.450905
0.454223
0.457566
0.460904
0.46422
0.467495
0.470674
0.473817
0.476958
0.48015
0.483331
0.486622
0.489943
0.493566
0.497375
0.501678
0.506368
0.511803
0.5179
0.525023
0.533158
0.542609
0.553546
0.566086
0.580725
0.597302
0.61669
0.638459
0.663785
0.692062
0.724535
0.760522
0.800995
0.845802
0.890545
1.8689
0.771409
0.282175
0.355349
0.428333
0.44779
0.443318
0.435957
0.4303
0.428405
0.428317
0.42872
0.429321
0.430225
0.431573
0.433354
0.435612
0.438219
0.441296
0.444721
0.448606
0.452673
0.45715
0.461795
0.466828
0.471982
0.477521
0.483249
0.489342
0.495666
0.502399
0.50947
0.517031
0.525167
0.533965
0.543712
0.554314
0.566335
0.579528
0.594598
0.611246
0.630225
0.651266
0.675023
0.701361
0.730669
0.762981
0.798104
0.836506
0.874181
1.86794
0.770096
0.284308
0.365062
0.443618
0.463692
0.457506
0.44813
0.441124
0.438392
0.437493
0.436895
0.436307
0.435905
0.435818
0.436088
0.436718
0.437722
0.439254
0.441238
0.443726
0.446643
0.450162
0.454164
0.458797
0.46394
0.469668
0.475919
0.482711
0.490081
0.497957
0.506545
0.515634
0.525586
0.536007
0.54745
0.559508
0.57278
0.586948
0.602623
0.61955
0.638282
0.658699
0.681198
0.705733
0.732541
0.761583
0.792784
0.826397
0.858925
1.86943
0.773377
0.290102
0.367277
0.443688
0.464289
0.459067
0.450547
0.443969
0.441605
0.44113
0.440952
0.440735
0.440624
0.440709
0.441015
0.441603
0.442511
0.443699
0.445182
0.446985
0.44922
0.45186
0.455071
0.458757
0.463137
0.468049
0.47377
0.480043
0.48724
0.494984
0.503744
0.51305
0.523421
0.534432
0.546565
0.559475
0.573574
0.588571
0.604826
0.622188
0.640927
0.661012
0.682661
0.705843
0.73069
0.757137
0.785232
0.81502
0.843669
1.87254
0.780059
0.297785
0.361236
0.429066
0.450304
0.448018
0.441952
0.436343
0.434469
0.434506
0.435037
0.435624
0.436338
0.437231
0.438403
0.439863
0.441548
0.443418
0.445525
0.447869
0.450532
0.453491
0.456861
0.460597
0.464875
0.46959
0.475
0.480926
0.487698
0.495077
0.5034
0.512437
0.522482
0.533351
0.545263
0.558087
0.572004
0.586942
0.603043
0.620269
0.638753
0.658397
0.67934
0.70146
0.724934
0.749542
0.775266
0.802281
0.828118
1.88112
0.786639
0.300035
0.349025
0.412197
0.44124
0.44421
0.439523
0.434371
0.432089
0.431844
0.432367
0.433086
0.434006
0.435102
0.436435
0.438031
0.439887
0.442
0.444397
0.447071
0.450078
0.453388
0.457088
0.461125
0.465643
0.470549
0.476049
0.48201
0.488683
0.495929
0.503986
0.512752
0.522409
0.532895
0.544361
0.556737
0.570156
0.58455
0.600041
0.616555
0.634203
0.652902
0.672752
0.693652
0.715636
0.738559
0.762383
0.7872
0.81085
2.26309
1.10602
0.4072
0.399182
0.459365
0.508059
0.51935
0.514458
0.507535
0.501487
0.497971
0.4955
0.493388
0.49137
0.489343
0.487371
0.485647
0.484158
0.48301
0.482163
0.481735
0.481686
0.482141
0.483074
0.484555
0.48662
0.489304
0.492665
0.496705
0.501515
0.507073
0.513487
0.52073
0.528923
0.538018
0.548145
0.559233
0.571401
0.584575
0.598859
0.614149
0.630544
0.647919
0.666328
0.685683
0.705972
0.727097
0.748977
0.771688
0.793296
2.27251
1.1279
0.391676
0.377129
0.449994
0.510709
0.529107
0.528224
0.524002
0.520198
0.518756
0.518381
0.518365
0.518326
0.517911
0.517283
0.516611
0.515982
0.515414
0.514939
0.514573
0.514378
0.514377
0.51465
0.515233
0.516204
0.5176
0.519532
0.521996
0.525148
0.528934
0.533549
0.538907
0.545192
0.552331
0.560462
0.569556
0.57971
0.590908
0.60318
0.616552
0.630974
0.646471
0.662949
0.680377
0.698689
0.71779
0.737586
0.758143
0.777708
2.29743
1.17663
0.434256
0.383995
0.447092
0.503383
0.52186
0.522888
0.521063
0.519878
0.520297
0.521529
0.523323
0.525125
0.526533
0.527733
0.528856
0.530004
0.531153
0.532333
0.53352
0.534764
0.536057
0.53746
0.538974
0.540671
0.542569
0.544741
0.547234
0.550113
0.553446
0.557284
0.561725
0.566799
0.572627
0.579216
0.586688
0.595027
0.604332
0.614578
0.625811
0.638001
0.651176
0.665321
0.680408
0.696408
0.713221
0.730694
0.748916
0.766299
1.90075
0.805032
0.305812
0.316891
0.374007
0.414892
0.429173
0.432999
0.435822
0.439473
0.444405
0.450151
0.456589
0.463084
0.469261
0.475258
0.481224
0.487186
0.493131
0.499016
0.504839
0.510577
0.516251
0.521838
0.527375
0.532837
0.538293
0.543713
0.549191
0.554715
0.560359
0.566167
0.572203
0.578535
0.585213
0.592339
0.599937
0.608128
0.616901
0.626391
0.636553
0.647527
0.659223
0.671746
0.684982
0.698949
0.713582
0.728907
0.744921
0.760236
2.30594
1.19376
0.449599
0.38664
0.440665
0.492236
0.509236
0.509297
0.506151
0.503673
0.502416
0.502231
0.502686
0.503082
0.503406
0.50391
0.504736
0.506012
0.507708
0.509866
0.512439
0.51548
0.518943
0.522869
0.527183
0.531941
0.537026
0.542529
0.548289
0.554425
0.56081
0.567551
0.57453
0.581869
0.589461
0.597444
0.605734
0.614461
0.623566
0.633164
0.643222
0.653824
0.664953
0.676644
0.688903
0.701716
0.715088
0.72893
0.743332
0.757051
2.31118
1.20374
0.4329
0.369733
0.438374
0.500631
0.522084
0.523496
0.521277
0.519806
0.519934
0.521065
0.522795
0.524299
0.525324
0.526172
0.527006
0.527955
0.52903
0.530319
0.531827
0.533642
0.535749
0.538234
0.541082
0.544358
0.548053
0.552207
0.55682
0.561903
0.567459
0.573473
0.579953
0.586872
0.594265
0.602069
0.610339
0.618997
0.628123
0.637623
0.6476
0.657945
0.668781
0.679984
0.691675
0.703729
0.716241
0.729074
0.742355
0.754958
2.3139
1.20956
0.437076
0.371775
0.441501
0.505354
0.527729
0.52941
0.527246
0.525898
0.526371
0.527887
0.530158
0.532351
0.53407
0.535599
0.537126
0.538758
0.54049
0.542352
0.54434
0.546487
0.548808
0.551337
0.554105
0.557138
0.56048
0.564142
0.568177
0.572586
0.577426
0.582682
0.588412
0.594586
0.601255
0.608381
0.616007
0.624089
0.632658
0.641676
0.651154
0.66107
0.671411
0.682166
0.693299
0.70482
0.71666
0.728836
0.741339
0.753229
2.31689
1.21729
0.463446
0.387831
0.447098
0.506225
0.528784
0.532014
0.531136
0.530765
0.531658
0.533586
0.536125
0.538423
0.540449
0.542353
0.544311
0.546352
0.54853
0.550811
0.553242
0.555793
0.558518
0.56139
0.564468
0.567727
0.571229
0.574956
0.578969
0.583254
0.587871
0.592817
0.598137
0.603835
0.609939
0.616457
0.623402
0.630793
0.638622
0.646912
0.655629
0.664804
0.674387
0.684405
0.694792
0.705568
0.716661
0.728069
0.739812
0.750989
1.90563
0.813586
0.324714
0.323678
0.37648
0.414373
0.42726
0.430302
0.432593
0.435933
0.440704
0.446615
0.453341
0.460159
0.466868
0.473529
0.480262
0.487057
0.493921
0.5008
0.507697
0.514576
0.521452
0.528301
0.535145
0.541974
0.548812
0.555659
0.562537
0.569458
0.576439
0.583511
0.590685
0.598003
0.605471
0.613141
0.621008
0.629129
0.637492
0.646141
0.655065
0.664291
0.673804
0.683628
0.693738
0.704144
0.714819
0.725755
0.737001
0.747676
2.31199
1.2086
0.464964
0.403501
0.466205
0.527389
0.549315
0.550242
0.546098
0.542266
0.54006
0.538687
0.538093
0.537697
0.536963
0.536241
0.535676
0.535523
0.535711
0.536399
0.537513
0.539126
0.541207
0.543796
0.546855
0.550412
0.554426
0.558921
0.563842
0.56921
0.574972
0.581132
0.58764
0.594507
0.601691
0.609201
0.617005
0.625108
0.633487
0.642153
0.651089
0.660303
0.669784
0.679531
0.689527
0.699762
0.710224
0.720887
0.731815
0.742178
2.29404
1.16959
0.460067
0.42269
0.485799
0.546194
0.566079
0.566118
0.562397
0.559161
0.558405
0.558808
0.559894
0.561158
0.56203
0.562669
0.563261
0.563919
0.564654
0.565478
0.566399
0.567463
0.568715
0.570199
0.571948
0.574006
0.57639
0.579133
0.582251
0.585766
0.589681
0.594019
0.598783
0.603982
0.609612
0.61567
0.622148
0.629037
0.636324
0.643992
0.652026
0.660404
0.669108
0.67812
0.687437
0.697023
0.706879
0.716965
0.727335
0.737188
1.88783
0.805073
0.340778
0.355365
0.406343
0.443122
0.452857
0.452685
0.45175
0.452602
0.455915
0.460539
0.466079
0.472144
0.478233
0.484354
0.490571
0.496891
0.503267
0.509654
0.516016
0.522342
0.528618
0.534848
0.541024
0.547158
0.553258
0.559349
0.565451
0.571595
0.577806
0.584105
0.590525
0.597086
0.603815
0.610729
0.617852
0.625193
0.632771
0.640588
0.648663
0.656989
0.665581
0.674418
0.683498
0.692812
0.702344
0.712084
0.722071
0.731565
1.87402
0.796328
0.339523
0.356661
0.398325
0.426967
0.434882
0.434835
0.433828
0.433316
0.434048
0.435682
0.438239
0.441447
0.444939
0.448771
0.453027
0.457746
0.462906
0.468488
0.474453
0.480775
0.487412
0.494341
0.501516
0.508913
0.516491
0.52423
0.532094
0.540071
0.548134
0.556294
0.564524
0.572844
0.581232
0.589718
0.598284
0.606962
0.615747
0.624644
0.633651
0.642787
0.652051
0.661458
0.671002
0.680695
0.690532
0.700506
0.710658
0.720269
1.88891
0.806047
0.345021
0.373648
0.430941
0.466894
0.473622
0.469569
0.464487
0.461385
0.460433
0.460404
0.460996
0.461961
0.463
0.464173
0.465606
0.467367
0.469493
0.471995
0.474898
0.478209
0.481959
0.486141
0.490772
0.495838
0.501347
0.507269
0.513606
0.520322
0.527418
0.534848
0.542611
0.550663
0.558995
0.567563
0.576364
0.585356
0.59453
0.603877
0.613391
0.623048
0.632847
0.642764
0.652803
0.662942
0.673189
0.68352
0.694004
0.703898
2.34072
1.12428
0.469029
0.447566
0.513132
0.574872
0.595489
0.594879
0.589581
0.584278
0.581267
0.579358
0.577793
0.576422
0.574869
0.573135
0.571363
0.56965
0.568041
0.566563
0.56524
0.564108
0.563195
0.562546
0.562191
0.562181
0.562532
0.563305
0.564491
0.56613
0.568251
0.570862
0.573987
0.577607
0.58175
0.586384
0.591527
0.597142
0.603239
0.60977
0.616736
0.624092
0.631821
0.639915
0.648328
0.657047
0.666031
0.675268
0.684765
0.693823
1.88937
0.807238
0.346158
0.363472
0.415822
0.456082
0.468553
0.469558
0.469009
0.468987
0.471275
0.474792
0.478999
0.483734
0.488557
0.493369
0.498209
0.503137
0.508112
0.513123
0.518113
0.52309
0.528014
0.532913
0.537755
0.542578
0.547357
0.552135
0.556913
0.56172
0.566564
0.571479
0.576464
0.581572
0.586799
0.592201
0.597765
0.603547
0.609528
0.615763
0.622225
0.628962
0.635948
0.643193
0.650686
0.658438
0.666429
0.674658
0.683141
0.691246
1.8891
0.807385
0.34747
0.364539
0.416095
0.454586
0.465035
0.463971
0.461096
0.458536
0.45807
0.458911
0.460497
0.462704
0.465124
0.467713
0.470582
0.47381
0.477403
0.481346
0.485612
0.490183
0.495039
0.500161
0.505527
0.511112
0.516896
0.522856
0.528972
0.535243
0.541646
0.54818
0.554831
0.561592
0.568457
0.575422
0.582489
0.589658
0.596935
0.604319
0.61182
0.619433
0.627172
0.635032
0.643028
0.651152
0.659417
0.667808
0.676374
0.684508
2.34274
1.12797
0.472712
0.449631
0.516386
0.580624
0.603072
0.603174
0.598094
0.593025
0.590243
0.588688
0.587561
0.58671
0.585707
0.584542
0.583317
0.582193
0.581156
0.580298
0.57956
0.579049
0.578705
0.578645
0.578803
0.579285
0.580049
0.581137
0.582565
0.584339
0.58647
0.588954
0.591794
0.594987
0.598533
0.602429
0.606671
0.611249
0.616156
0.621382
0.626914
0.632744
0.638855
0.64524
0.65188
0.658771
0.665892
0.673235
0.680805
0.688046
1.88982
0.80878
0.353429
0.381412
0.439686
0.479634
0.489591
0.48791
0.484865
0.48348
0.484906
0.487581
0.49093
0.494764
0.498664
0.502614
0.506676
0.510904
0.515267
0.519749
0.524311
0.528944
0.533626
0.538357
0.543127
0.547931
0.552771
0.557649
0.562573
0.567547
0.57258
0.577687
0.582867
0.588143
0.593514
0.599001
0.6046
0.610331
0.61619
0.622192
0.628342
0.634647
0.641112
0.647737
0.654526
0.66148
0.668599
0.675872
0.683327
0.690425
1.87526
0.799751
0.351156
0.378102
0.427535
0.459446
0.467094
0.465964
0.464283
0.463569
0.464096
0.465295
0.467195
0.46948
0.471831
0.474313
0.47702
0.480004
0.483271
0.486821
0.490642
0.494728
0.499071
0.503663
0.508493
0.513551
0.518823
0.524297
0.529961
0.5358
0.541803
0.547952
0.554254
0.560686
0.567255
0.573941
0.580756
0.587682
0.594731
0.601886
0.609157
0.616527
0.624008
0.631587
0.639277
0.647061
0.654955
0.662943
0.671075
0.678775
1.87423
0.799385
0.35168
0.37535
0.422433
0.4541
0.462314
0.461852
0.460735
0.460115
0.460385
0.46121
0.462693
0.464529
0.466377
0.468279
0.470335
0.472591
0.475064
0.477754
0.480671
0.483818
0.487205
0.490833
0.494709
0.498831
0.503203
0.507821
0.512688
0.517796
0.523148
0.528734
0.534553
0.540593
0.54685
0.55331
0.55997
0.566812
0.573839
0.581035
0.588399
0.59592
0.603597
0.611414
0.619365
0.627441
0.635648
0.643978
0.652464
0.660521
1.88906
0.809114
0.354855
0.362659
0.413295
0.452093
0.463035
0.462621
0.460833
0.459586
0.459622
0.460433
0.461973
0.463875
0.465703
0.46751
0.469428
0.47152
0.473805
0.476279
0.478946
0.481804
0.48486
0.488116
0.491576
0.495241
0.499117
0.503203
0.507505
0.51202
0.516754
0.521705
0.526876
0.532263
0.537868
0.543687
0.549719
0.555961
0.56241
0.56906
0.575906
0.58294
0.590156
0.59755
0.605122
0.612864
0.620767
0.62882
0.637044
0.644867
2.31232
1.20465
0.485415
0.431473
0.49257
0.556799
0.582787
0.58628
0.583615
0.580883
0.579595
0.579281
0.57977
0.5806
0.581138
0.581429
0.581662
0.581944
0.582321
0.582789
0.583355
0.584018
0.584795
0.585691
0.586721
0.587889
0.589213
0.590694
0.59235
0.59418
0.596204
0.598419
0.600844
0.603476
0.60633
0.609405
0.612713
0.616251
0.620031
0.624045
0.628307
0.632805
0.63755
0.642531
0.647757
0.653211
0.658895
0.664788
0.670919
0.676813
2.32253
1.22875
0.466096
0.405365
0.481439
0.557498
0.588663
0.593341
0.590708
0.587845
0.586857
0.587311
0.588601
0.590416
0.592098
0.593495
0.594826
0.596239
0.597792
0.599472
0.601275
0.603187
0.605215
0.607355
0.609617
0.611994
0.614498
0.61712
0.619872
0.622747
0.625757
0.628896
0.632175
0.635589
0.639149
0.64285
0.646704
0.650705
0.654864
0.659177
0.663653
0.668287
0.673091
0.678058
0.683196
0.688496
0.693963
0.699584
0.705382
0.710921
2.31272
1.20617
0.486663
0.432536
0.49435
0.559806
0.586867
0.591017
0.588965
0.586853
0.586283
0.58694
0.588449
0.590438
0.592237
0.593831
0.595404
0.597087
0.598916
0.600891
0.603
0.605244
0.607622
0.610139
0.612795
0.615597
0.618539
0.62163
0.624864
0.628248
0.631776
0.635457
0.639283
0.643262
0.647386
0.651665
0.65609
0.660669
0.665394
0.670273
0.675297
0.680475
0.685796
0.691271
0.696887
0.702654
0.708558
0.714609
0.720817
0.726755
1.88895
0.80918
0.35606
0.364304
0.416385
0.457004
0.469103
0.46912
0.467534
0.46652
0.467164
0.468791
0.471273
0.474229
0.477163
0.480129
0.483237
0.486566
0.490109
0.49387
0.497824
0.501979
0.506314
0.51084
0.515539
0.520421
0.525465
0.530682
0.536053
0.541587
0.547266
0.553099
0.559068
0.565185
0.571428
0.577811
0.584313
0.590949
0.597697
0.604573
0.611556
0.618661
0.625867
0.633189
0.640605
0.648134
0.655754
0.663489
0.671351
0.678838
1.87422
0.800022
0.355295
0.380473
0.428585
0.460131
0.467651
0.466484
0.464743
0.463861
0.464078
0.46493
0.466472
0.468353
0.470185
0.472036
0.474001
0.476139
0.478451
0.480945
0.48361
0.48646
0.489487
0.492707
0.49611
0.499711
0.5035
0.50749
0.511671
0.516054
0.520628
0.525405
0.530371
0.535538
0.540892
0.546443
0.552176
0.558101
0.564203
0.57049
0.576946
0.58358
0.590376
0.597339
0.604455
0.611729
0.619146
0.626712
0.634438
0.6418
1.87704
0.803104
0.359367
0.39514
0.451553
0.484555
0.490477
0.486945
0.482761
0.480814
0.480803
0.481599
0.48301
0.484675
0.486273
0.487895
0.489639
0.491551
0.493626
0.495864
0.498256
0.50081
0.503522
0.506401
0.509444
0.512658
0.51604
0.519598
0.523325
0.527232
0.531311
0.535571
0.540005
0.544621
0.549412
0.554384
0.559531
0.564858
0.570358
0.576036
0.581884
0.587907
0.594095
0.600453
0.606971
0.613652
0.620485
0.627472
0.634617
0.641428
1.19154
1.04884
0.497539
0.19055
0.0108353
0.108728
0.160239
0.208583
0.230177
0.234538
0.222842
0.211376
0.201053
0.191518
0.179482
0.165028
0.147696
0.127763
0.105941
0.082798
0.0589756
0.0352624
0.0158711
0.0232573
0.0469791
0.071279
0.0954203
0.119125
0.142442
0.165344
0.187843
0.209917
0.231551
0.252691
0.272699
0.2918
0.311337
0.331709
0.35167
0.370835
0.389345
0.407339
0.424855
0.441905
0.458475
0.474568
0.490171
0.505288
0.519905
0.534023
0.547625
0.56071
0.573254
0.585252
0.596675
0.607512
0.617728
0.627308
0.636211
0.644419
0.651888
0.658596
0.664501
0.669585
0.673811
0.677174
0.679656
0.681279
0.682052
0.682225
0.682048
0.681488
0.680154
0.677649
0.67427
0.670662
0.666984
0.663265
0.659577
0.655998
0.652631
0.649547
0.646816
0.644472
0.642546
0.641038
0.63995
0.639254
0.638927
0.638902
0.639061
0.639399
0.640035
0.641126
0.642511
0.644026
0.645573
0.647243
0.648883
0.653658
1.12191
1.03599
0.806123
0.549206
0.50222
0.431253
0.38134
0.340596
0.310319
0.291761
0.260402
0.230132
0.210559
0.208813
0.21595
0.226502
0.238961
0.252875
0.268004
0.283859
0.300236
0.316706
0.333029
0.349201
0.365932
0.382914
0.400075
0.417173
0.434268
0.451197
0.468048
0.484675
0.50117
0.517402
0.533058
0.547972
0.562969
0.578687
0.594549
0.609771
0.624488
0.638857
0.652935
0.666708
0.680161
0.693275
0.706042
0.718452
0.730497
0.742164
0.753444
0.76432
0.77478
0.784803
0.794371
0.803461
0.812048
0.820108
0.82761
0.834527
0.840827
0.846479
0.851453
0.855721
0.859258
0.862048
0.864082
0.865361
0.865918
0.865929
0.865633
0.864967
0.863615
0.86123
0.858012
0.854536
0.850984
0.847417
0.843899
0.840506
0.837325
0.834425
0.83187
0.829692
0.827916
0.826543
0.82557
0.82497
0.82474
0.824767
0.824943
0.825277
0.825843
0.826809
0.828017
0.829357
0.830676
0.83209
0.833281
0.837081
1.07463
1.07547
1.00805
0.899616
0.831156
0.780876
0.744957
0.714864
0.690047
0.671955
0.65685
0.642514
0.632515
0.627382
0.625862
0.626117
0.62762
0.630025
0.633406
0.637671
0.642785
0.648555
0.654916
0.661747
0.669302
0.67746
0.686228
0.695381
0.704952
0.714754
0.724866
0.735113
0.745603
0.756148
0.766533
0.776475
0.786549
0.797329
0.808695
0.819788
0.830596
0.841212
0.851729
0.862123
0.872399
0.882506
0.892448
0.902181
0.911715
0.921007
0.930064
0.938842
0.947347
0.955529
0.963393
0.970886
0.978008
0.984705
0.990973
0.996757
1.00205
1.0068
1.01099
1.01458
1.01755
1.01988
1.02156
1.02257
1.02292
1.0228
1.02245
1.02176
1.02044
1.01824
1.01528
1.01203
1.00868
1.00534
1.00206
0.998918
0.995986
0.993335