/*--------------------------------*- C++ -*----------------------------------*\
| =========                 |                                                 |
| \\      /  F ield         | OpenFOAM: The Open Source CFD Toolbox           |
|  \\    /   O peration     | Version:  2412                                  |
|   \\  /    A nd           | Website:  www.openfoam.com                      |
|    \\/     M anipulation  |                                                 |
\*---------------------------------------------------------------------------*/
FoamFile
{
    version     2.0;
    format      ascii;
    arch        "LSB;label=32;scalar=64";
    class       volScalarField;
    location    "24.5";
    object      p;
}
// * * * * * * * * * * * * * * * * * * * * * * * * * * * * * * * * * * * * * //

dimensions      [1 -1 -2 0 0 0 0];

internalField   nonuniform List<scalar> 
7000
(
1.63884
3.75681
11.4557
11.5282
11.0977
10.6882
10.5695
10.5841
10.6251
10.6648
10.6866
10.7004
10.7149
10.7326
10.753
10.7752
10.799
10.8245
10.8517
10.8807
10.9115
10.9442
10.9787
11.0151
11.0533
11.0933
11.1352
11.1788
11.2242
11.2713
11.3199
11.37
11.4215
11.474
11.5276
11.5818
11.6364
11.691
11.7452
11.7986
11.8506
11.9006
11.9481
11.9923
12.0325
12.0681
12.0984
12.1229
12.1406
12.1535
1.63914
3.75552
11.4552
11.5276
11.0973
10.6879
10.5692
10.5837
10.6247
10.6644
10.6862
10.6999
10.7144
10.7321
10.7525
10.7746
10.7984
10.8238
10.851
10.88
10.9108
10.9434
10.9779
11.0143
11.0524
11.0925
11.1343
11.1779
11.2233
11.2703
11.3189
11.3689
11.4203
11.4729
11.5264
11.5806
11.6352
11.6898
11.7441
11.7975
11.8495
11.8996
11.9472
11.9915
12.0318
12.0675
12.098
12.1226
12.1403
12.1533
1.63903
3.75459
11.4534
11.5267
11.0966
10.6871
10.5684
10.583
10.6239
10.6635
10.6852
10.6989
10.7133
10.731
10.7513
10.7734
10.7971
10.8225
10.8496
10.8785
10.9092
10.9418
10.9761
11.0124
11.0505
11.0904
11.1321
11.1756
11.2208
11.2677
11.3161
11.3661
11.4173
11.4697
11.5231
11.5771
11.6316
11.6861
11.7402
11.7935
11.8455
11.8955
11.943
11.9873
12.0277
12.0634
12.0939
12.1185
12.1361
12.149
1.63891
3.7533
11.4501
11.5257
11.0956
10.686
10.5673
10.5818
10.6226
10.6621
10.6836
10.6973
10.7116
10.7292
10.7494
10.7714
10.7951
10.8203
10.8473
10.8761
10.9067
10.9391
10.9733
11.0094
11.0473
11.087
11.1286
11.1719
11.2169
11.2635
11.3118
11.3615
11.4125
11.4646
11.5177
11.5715
11.6258
11.68
11.7339
11.7871
11.8389
11.8888
11.9362
11.9804
12.0207
12.0564
12.0868
12.1114
12.1289
12.1418
1.63873
3.75143
11.4453
11.5243
11.0943
10.6844
10.5656
10.5801
10.6208
10.66
10.6815
10.695
10.7092
10.7267
10.7468
10.7687
10.7921
10.8172
10.844
10.8726
10.9031
10.9353
10.9693
11.0052
11.0428
11.0823
11.1236
11.1666
11.2113
11.2576
11.3055
11.3548
11.4055
11.4573
11.51
11.5635
11.6173
11.6712
11.7248
11.7777
11.8292
11.8789
11.9261
11.9702
12.0104
12.0461
12.0765
12.1012
12.1185
12.1315
1.63851
3.74891
11.439
11.5225
11.0927
10.6823
10.5633
10.5777
10.6183
10.6574
10.6786
10.6919
10.7061
10.7234
10.7433
10.765
10.7882
10.8131
10.8397
10.8681
10.8983
10.9302
10.964
10.9995
11.0369
11.076
11.1169
11.1595
11.2038
11.2497
11.2972
11.346
11.3962
11.4475
11.4997
11.5527
11.606
11.6594
11.7126
11.765
11.8161
11.8655
11.9124
11.9563
11.9964
12.032
12.0624
12.0871
12.1044
12.1175
1.63825
3.74567
11.4311
11.5202
11.0906
10.6797
10.5604
10.5748
10.6151
10.6539
10.6749
10.6881
10.702
10.7191
10.7388
10.7603
10.7833
10.808
10.8343
10.8624
10.8922
10.9239
10.9572
10.9924
11.0293
11.068
11.1085
11.1506
11.1943
11.2397
11.2865
11.3348
11.3843
11.435
11.4865
11.5388
11.5915
11.6442
11.6967
11.7486
11.7992
11.8481
11.8946
11.9382
11.9781
12.0135
12.0439
12.0686
12.0859
12.0992
1.63793
3.74168
11.4214
11.5175
11.0881
10.6765
10.5568
10.5711
10.6112
10.6497
10.6705
10.6834
10.6971
10.7139
10.7333
10.7545
10.7773
10.8016
10.8276
10.8553
10.8848
10.916
10.9489
10.9836
11.02
11.0582
11.098
11.1395
11.1826
11.2273
11.2734
11.3209
11.3696
11.4194
11.4702
11.5215
11.5734
11.6253
11.677
11.728
11.7779
11.8261
11.8721
11.9152
11.9547
11.99
12.0202
12.0449
12.0623
12.0758
1.63756
3.73687
11.4099
11.5142
11.0851
10.6726
10.5525
10.5666
10.6065
10.6447
10.6651
10.6777
10.6911
10.7077
10.7268
10.7476
10.77
10.7939
10.8195
10.8468
10.8758
10.9065
10.9389
10.973
11.0088
11.0463
11.0854
11.1262
11.1685
11.2123
11.2575
11.3041
11.3518
11.4006
11.4502
11.5006
11.5513
11.6021
11.6527
11.7027
11.7516
11.7989
11.8442
11.8866
11.9257
11.9606
11.9906
12.0153
12.0327
12.0465
1.63713
3.7312
11.3963
11.5103
11.0816
10.6681
10.5474
10.5613
10.6008
10.6386
10.6587
10.671
10.684
10.7002
10.7189
10.7394
10.7613
10.7848
10.8099
10.8367
10.8652
10.8953
10.927
10.9605
10.9955
11.0322
11.0705
11.1104
11.1517
11.1945
11.2386
11.284
11.3306
11.3781
11.4265
11.4754
11.5248
11.5742
11.6235
11.6721
11.7198
11.7659
11.81
11.8515
11.8898
11.9242
11.9539
11.9785
11.9959
12.0101
1.63664
3.72462
11.3806
11.5058
11.0775
10.6628
10.5414
10.5551
10.5942
10.6315
10.6512
10.663
10.6757
10.6915
10.7098
10.7297
10.7512
10.7742
10.7987
10.8249
10.8527
10.8821
10.9131
10.9458
10.98
11.0157
11.053
11.0918
11.132
11.1736
11.2164
11.2605
11.3056
11.3516
11.3984
11.4457
11.4934
11.5411
11.5887
11.6356
11.6815
11.7261
11.7687
11.8089
11.8461
11.8795
11.9086
11.9329
11.9503
11.9649
1.63609
3.71708
11.3626
11.5007
11.0728
10.6568
10.5344
10.5479
10.5865
10.6233
10.6424
10.6539
10.6661
10.6814
10.6991
10.7186
10.7395
10.7618
10.7857
10.8112
10.8383
10.8669
10.8971
10.9288
10.962
10.9967
11.0328
11.0704
11.1092
11.1494
11.1907
11.2331
11.2765
11.3208
11.3656
11.411
11.4566
11.5022
11.5476
11.5923
11.636
11.6784
11.719
11.7573
11.7928
11.8249
11.853
11.8768
11.8939
11.9089
1.63547
3.70855
11.3422
11.4948
11.0674
10.6499
10.5264
10.5396
10.5775
10.6138
10.6324
10.6433
10.655
10.6697
10.6869
10.7058
10.726
10.7477
10.7709
10.7956
10.8218
10.8495
10.8787
10.9093
10.9414
10.9748
11.0096
11.0457
11.0831
11.1216
11.1611
11.2017
11.2431
11.2852
11.3278
11.3707
11.4138
11.4568
11.4994
11.5414
11.5823
11.6218
11.6596
11.6952
11.7282
11.7582
11.7845
11.8072
11.8237
11.8394
1.6348
3.69899
11.3195
11.4881
11.0612
10.6422
10.5174
10.5302
10.5673
10.6029
10.6209
10.6312
10.6423
10.6564
10.673
10.6911
10.7107
10.7316
10.7539
10.7777
10.803
10.8297
10.8577
10.8872
10.9179
10.95
10.9833
11.0177
11.0533
11.0899
11.1275
11.1658
11.2048
11.2444
11.2843
11.3244
11.3645
11.4043
11.4435
11.4819
11.5191
11.5548
11.5887
11.6205
11.6499
11.6765
11.7
11.7206
11.7358
11.7518
1.63407
3.68836
11.2945
11.4805
11.0543
10.6335
10.5071
10.5194
10.5557
10.5905
10.6078
10.6175
10.628
10.6414
10.6572
10.6746
10.6933
10.7134
10.7348
10.7576
10.7818
10.8073
10.8341
10.8622
10.8915
10.922
10.9535
10.9862
11.0197
11.0541
11.0893
11.1252
11.1615
11.1981
11.2349
11.2716
11.308
11.3438
11.3789
11.4128
11.4452
11.4759
11.5045
11.5309
11.5547
11.5759
11.5944
11.6112
11.6239
11.6401
1.63328
3.67675
11.2671
11.4721
11.0466
10.6238
10.4956
10.5073
10.5425
10.5764
10.593
10.602
10.6117
10.6244
10.6394
10.656
10.6738
10.6929
10.7133
10.735
10.758
10.7823
10.8077
10.8343
10.8619
10.8906
10.9202
10.9507
10.982
11.014
11.0465
11.0795
11.1127
11.1459
11.179
11.2117
11.2437
11.2748
11.3047
11.3329
11.3592
11.3833
11.4047
11.4233
11.4389
11.4517
11.4622
11.4717
11.4789
11.4938
1.63243
3.6642
11.2373
11.463
11.0382
10.6131
10.4826
10.4936
10.5275
10.5605
10.5763
10.5846
10.5935
10.6053
10.6195
10.6351
10.652
10.6701
10.6894
10.7099
10.7316
10.7544
10.7783
10.8031
10.829
10.8557
10.8832
10.9113
10.9401
10.9693
10.9988
11.0285
11.0581
11.0874
11.1162
11.1442
11.1711
11.1965
11.2201
11.2414
11.2599
11.2752
11.2868
11.2945
11.2976
11.297
11.2935
11.2892
11.2852
11.2959
1.63153
3.65083
11.2054
11.4532
11.0291
10.6011
10.468
10.4782
10.5106
10.5425
10.5575
10.565
10.573
10.584
10.5972
10.6119
10.6277
10.6446
10.6627
10.6819
10.7022
10.7234
10.7456
10.7687
10.7925
10.817
10.8421
10.8677
10.8937
10.9198
10.946
10.9719
10.9975
11.0224
11.0463
11.0689
11.0898
11.1084
11.1244
11.1371
11.1459
11.1497
11.1481
11.1412
11.1262
11.1043
11.0765
11.0457
11.0155
11.0118
1.63059
3.6368
11.172
11.4427
11.0192
10.5879
10.4516
10.4609
10.4916
10.5223
10.5365
10.5432
10.5503
10.5603
10.5726
10.5862
10.6009
10.6166
10.6334
10.6512
10.6699
10.6894
10.7098
10.7308
10.7525
10.7746
10.7971
10.8199
10.8427
10.8655
10.8879
10.9098
10.9308
10.9507
10.9691
10.9855
10.9995
11.0103
11.0173
11.0193
11.0165
11.0069
10.9875
10.9584
10.9177
10.8634
10.7941
10.7122
10.6216
10.5662
1.62964
3.6224
11.1378
11.4316
11.0084
10.573
10.4329
10.4411
10.4696
10.4992
10.5126
10.5185
10.5248
10.5338
10.545
10.5575
10.5711
10.5856
10.601
10.6172
10.6343
10.652
10.6704
10.6892
10.7085
10.7281
10.7478
10.7674
10.7869
10.8059
10.8243
10.8416
10.8577
10.8721
10.8842
10.8937
10.8999
10.9014
10.8986
10.8896
10.8711
10.8429
10.8021
10.7457
10.6689
10.5658
10.4279
10.2469
10.0131
9.75873
1.62883
3.6041
11.0971
11.4184
10.9947
10.5537
10.4081
10.4147
10.4405
10.4687
10.4813
10.4862
10.4914
10.4992
10.509
10.5202
10.5323
10.5451
10.5587
10.573
10.588
10.6034
10.6193
10.6354
10.6517
10.668
10.6841
10.6998
10.715
10.7293
10.7424
10.7541
10.7638
10.7711
10.7752
10.7752
10.7723
10.7635
10.7454
10.7186
10.6809
10.6288
10.5581
10.4619
10.331
10.1486
9.88558
9.48037
8.78202
7.2598
1.62803
3.58461
11.054
11.4011
10.9756
10.5254
10.3718
10.3765
10.399
10.4265
10.4389
10.4434
10.4476
10.4542
10.4628
10.4725
10.483
10.4941
10.5057
10.5178
10.5302
10.543
10.5558
10.5687
10.5814
10.5937
10.6055
10.6166
10.6266
10.6353
10.6422
10.647
10.6489
10.6479
10.6437
10.6337
10.6167
10.5923
10.5586
10.5129
10.4524
10.3721
10.2656
10.1234
9.93028
9.66261
9.27877
8.70983
7.86754
6.48127
1.62758
3.57334
11.0291
11.3895
10.9601
10.4971
10.3327
10.3349
10.3537
10.3809
10.3934
10.3972
10.4002
10.4055
10.4127
10.421
10.4298
10.439
10.4485
10.4583
10.4682
10.4781
10.4879
10.4974
10.5064
10.5147
10.5222
10.5284
10.5331
10.5359
10.5361
10.5346
10.5298
10.5196
10.5042
10.4828
10.4538
10.4157
10.3661
10.302
10.2196
10.1137
9.97642
9.79774
9.56239
9.24919
8.82893
8.2614
7.52955
6.55659
1.62694
3.56413
11.0058
11.3682
10.9321
10.4516
10.2777
10.2799
10.3003
10.3309
10.3449
10.3484
10.3506
10.3549
10.3611
10.3681
10.3754
10.3828
10.3903
10.3977
10.4051
10.4121
10.4188
10.4249
10.4302
10.4345
10.4376
10.4389
10.4385
10.4364
10.4312
10.4216
10.4082
10.39
10.3657
10.3345
10.2946
10.2442
10.1807
10.1013
10.0019
9.87735
9.72087
9.52367
9.27459
8.95983
8.56478
8.07371
7.49337
6.76433
1.62767
3.5985
11.0673
11.3655
10.9046
10.386
10.2007
10.206
10.2342
10.2721
10.2885
10.2921
10.2938
10.2974
10.303
10.3092
10.3153
10.3212
10.3269
10.3323
10.3374
10.3419
10.3458
10.3488
10.3508
10.3512
10.3506
10.3483
10.3431
10.3349
10.3235
10.3083
10.2884
10.2632
10.2313
10.1916
10.1426
10.0823
10.0084
9.91809
9.80785
9.67329
9.50909
9.30895
9.06557
8.77121
8.41864
8.00068
7.51975
6.96874
1.58995
3.70896
11.0721
11.2743
10.8238
10.3045
10.1317
10.1417
10.1783
10.2182
10.2346
10.2384
10.2404
10.2441
10.2489
10.2538
10.2583
10.2624
10.266
10.2691
10.2715
10.2733
10.2741
10.2739
10.2727
10.2699
10.2646
10.2574
10.2475
10.2346
10.2182
10.1975
10.172
10.1406
10.1023
10.0558
9.99981
9.93239
9.85158
9.75486
9.63936
9.50164
9.33784
9.14363
8.91458
8.64622
8.33521
7.9789
7.57927
7.13162
1.55513
4.81616
11.2232
10.9533
10.3122
10.0553
10.0509
10.0775
10.1249
10.1514
10.1611
10.1653
10.1695
10.1746
10.1797
10.1843
10.1881
10.1913
10.1937
10.1953
10.1958
10.1956
10.1946
10.1921
10.1877
10.1817
10.174
10.1638
10.1508
10.1343
10.1138
10.0888
10.0586
10.0223
9.97909
9.9277
9.86691
9.79511
9.71054
9.61115
9.49466
9.35851
9.19994
9.01609
8.80422
8.56191
8.28771
7.9816
7.64492
7.27045
1.55602
4.82314
11.173
10.8842
10.2396
10.0003
10.0104
10.0529
10.1014
10.1231
10.1291
10.1316
10.1347
10.1379
10.1405
10.1421
10.1428
10.1427
10.142
10.1402
10.1371
10.1332
10.1282
10.1219
10.114
10.1041
10.0919
10.0771
10.0596
10.0388
10.0144
9.98581
9.95208
9.91221
9.86526
9.81039
9.74638
9.67198
9.58581
9.48622
9.37146
9.23965
9.08887
8.91716
8.72292
8.50473
8.26187
7.99385
7.70697
7.39094
1.56618
4.84225
11.2356
10.9041
10.1833
9.92282
9.93793
9.99267
10.05
10.0744
10.0808
10.0835
10.0869
10.0902
10.0926
10.0935
10.0934
10.0925
10.0901
10.0859
10.0808
10.0744
10.0668
10.0574
10.0462
10.033
10.0174
9.9993
9.97833
9.95407
9.92586
9.89306
9.85512
9.81162
9.76183
9.70472
9.63935
9.56429
9.47834
9.38025
9.26886
9.14267
9.00052
8.84108
8.66338
8.46672
8.25143
8.01731
7.76821
7.49779
1.5565
4.82044
11.1597
10.8523
10.1593
9.89804
9.91012
9.9594
10.0156
10.0398
10.0454
10.0469
10.0489
10.0508
10.0515
10.051
10.0495
10.046
10.0412
10.0353
10.0282
10.0198
10.0097
9.99782
9.984
9.968
9.94956
9.92846
9.90433
9.87685
9.84546
9.80977
9.7693
9.72333
9.67124
9.61209
9.54519
9.46973
9.38489
9.28958
9.18289
9.06356
8.93058
8.78315
8.62097
8.44398
8.25237
8.04555
7.82715
7.59242
1.52732
4.76282
10.9522
10.7277
10.1507
9.90263
9.90356
9.93298
9.98164
10.0049
10.0106
10.0114
10.012
10.0123
10.0118
10.0101
10.0065
10.0014
9.99515
9.98775
9.97893
9.96854
9.95639
9.94239
9.92628
9.90799
9.88716
9.86365
9.83702
9.80705
9.77333
9.73543
9.69288
9.64512
9.59164
9.53178
9.46489
9.39026
9.30717
9.2148
9.11232
8.99921
8.87493
8.73903
8.591
8.43054
8.25777
8.07481
7.88211
7.67613
1.51125
4.71732
10.869
10.7327
10.2339
9.94121
9.88946
9.9078
9.94724
9.97133
9.97805
9.97778
9.9766
9.97429
9.9714
9.96757
9.96248
9.95612
9.94846
9.93948
9.92899
9.91691
9.90303
9.88729
9.86944
9.84937
9.82673
9.80141
9.773
9.74128
9.70591
9.66649
9.62271
9.57403
9.51999
9.46007
9.3938
9.32061
9.23993
9.15112
9.05365
8.94704
8.8309
8.7049
8.56891
8.42303
8.26758
8.10326
7.93129
7.7487
1.66809
3.29274
10.5074
11.013
10.597
10.0772
9.88911
9.89307
9.91834
9.95139
9.9621
9.96094
9.95698
9.95062
9.94478
9.93885
9.93193
9.92368
9.91403
9.90295
9.89039
9.87618
9.86016
9.84235
9.82247
9.80033
9.77565
9.74832
9.71799
9.68446
9.64742
9.60652
9.5614
9.5117
9.45702
9.39701
9.33134
9.25955
9.1812
9.09587
9.00307
8.90248
8.79386
8.67695
8.55176
8.41842
8.27724
8.1287
7.97398
7.8106
1.67601
3.16914
10.4416
11.1647
10.7159
10.1121
9.86733
9.85449
9.87224
9.90441
9.91485
9.91298
9.90697
9.89762
9.88998
9.88345
9.8765
9.86829
9.85863
9.84748
9.8348
9.82045
9.80429
9.78615
9.76588
9.7433
9.71813
9.69026
9.65936
9.6253
9.58774
9.5465
9.50131
9.45189
9.398
9.33922
9.27514
9.20541
9.12975
9.04772
8.95911
8.86375
8.7616
8.6528
8.53717
8.41478
8.28585
8.15079
8.01061
7.86317
1.64117
3.05463
9.9128
11.0086
10.6486
10.1097
9.8866
9.86575
9.87672
9.89504
9.8967
9.89275
9.88259
9.86923
9.85805
9.84835
9.83855
9.82779
9.81582
9.80258
9.78801
9.77198
9.7543
9.73481
9.71334
9.6897
9.6637
9.63509
9.60362
9.5691
9.53134
9.49012
9.44518
9.39627
9.3431
9.28537
9.22282
9.15518
9.08222
9.00383
8.91989
8.8302
8.73455
8.63279
8.52484
8.41106
8.29228
8.1688
8.04112
7.90726
1.43605
4.54909
10.3367
10.5122
10.2197
9.9251
9.81712
9.8145
9.82278
9.83328
9.8332
9.82966
9.82061
9.80864
9.79839
9.78926
9.77977
9.76915
9.75725
9.74405
9.7295
9.71344
9.69572
9.67617
9.65465
9.63097
9.60499
9.57644
9.54516
9.51104
9.47385
9.43332
9.38926
9.34146
9.28969
9.23371
9.17333
9.10834
9.03859
8.96393
8.88425
8.79942
8.70938
8.61415
8.51412
8.40937
8.29981
8.18565
8.0679
7.94512
1.63351
3.00316
9.72772
10.8964
10.5815
10.0813
9.86182
9.82756
9.83291
9.83939
9.83663
9.82748
9.8108
9.79499
9.78139
9.76883
9.756
9.74216
9.72713
9.71104
9.69385
9.67537
9.65539
9.63378
9.61034
9.58497
9.55748
9.52783
9.49586
9.46124
9.42378
9.38328
9.33957
9.2925
9.24186
9.18742
9.12899
9.06642
8.99958
8.92832
8.85258
8.77231
8.68752
8.59825
8.50464
8.40682
8.30492
8.19935
8.09069
7.97771
1.64238
2.93505
9.72912
11.0213
10.64
10.049
9.79181
9.75831
9.76846
9.78411
9.78302
9.77588
9.75992
9.74283
9.72899
9.71686
9.7046
9.69151
9.67739
9.66201
9.64525
9.62704
9.60729
9.58587
9.56268
9.53754
9.51032
9.48087
9.44906
9.41469
9.37764
9.33777
9.29489
9.24879
9.19932
9.14638
9.08985
9.02961
8.96554
8.89757
8.82563
8.74967
8.66969
8.58574
8.49791
8.40633
8.31121
8.21301
8.11214
8.00736
1.64069
2.91574
9.67462
10.9998
10.6149
10.0089
9.74235
9.70725
9.71839
9.73672
9.73621
9.72997
9.71499
9.69739
9.68327
9.6712
9.65911
9.64605
9.63178
9.61623
9.59934
9.58105
9.56124
9.5398
9.51661
9.49153
9.46444
9.43519
9.40368
9.36977
9.33331
9.29418
9.25223
9.20732
9.15931
9.1081
9.05361
8.99575
8.93444
8.86963
8.80124
8.72925
8.65369
8.5746
8.4921
8.40635
8.3174
8.2256
8.13142
8.03371
1.62632
2.92429
9.50653
10.8593
10.5493
9.99834
9.74275
9.69488
9.69959
9.70787
9.70556
9.69701
9.67979
9.66307
9.64875
9.63565
9.62244
9.60839
9.59327
9.57703
9.55957
9.5408
9.5206
9.49885
9.47543
9.45021
9.42309
9.39394
9.36265
9.3291
9.29314
9.25467
9.21356
9.16974
9.12313
9.07364
9.02115
8.96557
8.90684
8.84494
8.77982
8.71148
8.63993
8.56523
8.48748
8.4068
8.32343
8.23745
8.14919
8.05759
1.39429
4.48173
10.0357
10.3045
10.0238
9.73623
9.62837
9.61923
9.62463
9.63121
9.63014
9.62491
9.61358
9.60087
9.58942
9.57856
9.5672
9.55475
9.54102
9.52596
9.50955
9.49172
9.47239
9.45147
9.42888
9.4045
9.37821
9.34993
9.31958
9.28706
9.25226
9.21509
9.17544
9.13325
9.08842
9.04089
8.99057
8.93737
8.8813
8.82231
8.76042
8.69564
8.62796
8.55742
8.48406
8.40798
8.32939
8.24834
8.16521
8.07902
1.63154
2.94798
9.5938
10.8426
10.4985
9.90973
9.63625
9.5939
9.6042
9.62464
9.62622
9.62156
9.60916
9.59183
9.57691
9.56378
9.55056
9.5363
9.52074
9.50384
9.48571
9.46619
9.4453
9.42303
9.39933
9.37406
9.34707
9.31827
9.28753
9.25476
9.21996
9.18307
9.14403
9.10273
9.05909
9.01301
8.96444
8.91332
8.85958
8.80317
8.74406
8.68225
8.61778
8.55071
8.48113
8.40915
8.33489
8.25842
8.17997
8.09863
1.64179
3.07743
9.86661
10.7746
10.3921
9.7802
9.51831
9.49816
9.51548
9.54828
9.55774
9.55508
9.54671
9.53248
9.51999
9.50911
9.49804
9.48574
9.47198
9.45685
9.4405
9.42286
9.40373
9.38299
9.36052
9.33631
9.31036
9.2826
9.25299
9.22148
9.18801
9.15248
9.11481
9.07494
9.03279
8.98833
8.9415
8.89226
8.84059
8.78648
8.72992
8.67098
8.60964
8.54588
8.47978
8.41142
8.34088
8.26828
8.19383
8.11666
1.40443
4.54563
10.1044
10.1595
9.8537
9.54633
9.44678
9.45208
9.47146
9.49144
9.49717
9.49565
9.49061
9.48115
9.47181
9.46274
9.45297
9.44187
9.42929
9.41526
9.39981
9.38289
9.36443
9.34434
9.32261
9.29919
9.27407
9.24719
9.21848
9.1879
9.15543
9.12103
9.08463
9.04617
9.0056
8.96287
8.91794
8.87078
8.82137
8.7697
8.71574
8.65949
8.60101
8.54036
8.47757
8.4127
8.34581
8.27695
8.20628
8.13302
1.38838
4.55536
10.0008
10.0256
9.78379
9.55156
9.46917
9.46653
9.4727
9.48211
9.4838
9.48172
9.47577
9.46573
9.45542
9.44501
9.4338
9.42141
9.40772
9.39275
9.37648
9.3589
9.33995
9.31956
9.29768
9.27426
9.24925
9.22261
9.1943
9.16428
9.13244
9.09874
9.06312
9.02554
8.98595
8.94433
8.90062
8.85477
8.80688
8.75701
8.70512
8.65114
8.59506
8.53694
8.47678
8.41461
8.35053
8.28465
8.21712
8.14719
1.42152
4.5688
10.2126
10.1825
9.79847
9.46308
9.36992
9.38188
9.41309
9.43756
9.44447
9.4431
9.43849
9.42988
9.42092
9.41181
9.40185
9.39056
9.37781
9.36361
9.34797
9.33087
9.31229
9.29224
9.27069
9.2476
9.22294
9.19668
9.16881
9.13927
9.10802
9.07501
9.04019
9.00356
8.96511
8.92482
8.88269
8.83872
8.7928
8.74486
8.69492
8.64303
8.58922
8.53351
8.4759
8.41645
8.35521
8.29223
8.22762
8.16055
1.53228
3.35221
9.88894
10.7069
10.3191
9.67689
9.39304
9.36722
9.38486
9.42073
9.43488
9.43385
9.42919
9.41941
9.40895
9.39895
9.3885
9.37686
9.36377
9.34925
9.33334
9.31607
9.29741
9.2773
9.25571
9.2326
9.20787
9.18151
9.15365
9.12415
9.09299
9.06011
9.02557
8.98933
8.95138
8.91169
8.87027
8.82707
8.78209
8.73531
8.68674
8.63644
8.58428
8.53032
8.47465
8.41733
8.35839
8.29788
8.23592
8.17179
1.39675
4.53413
10.0663
10.0952
9.79216
9.46709
9.3451
9.34354
9.35495
9.37641
9.38523
9.38454
9.38102
9.37335
9.3644
9.35564
9.34645
9.33609
9.32429
9.31104
9.29637
9.2803
9.2628
9.24383
9.22335
9.20134
9.17777
9.15263
9.12595
9.09771
9.06788
9.03647
9.00344
8.96871
8.93226
8.89407
8.85416
8.81252
8.76913
8.724
8.67712
8.62848
8.57821
8.52632
8.47282
8.41771
8.36105
8.30289
8.24337
8.18193
1.39414
4.53124
10.0488
10.0823
9.77558
9.44771
9.32751
9.32781
9.34038
9.36314
9.37252
9.37164
9.36758
9.35899
9.34932
9.33983
9.32987
9.31876
9.30625
9.29236
9.27716
9.26065
9.24284
9.22368
9.20316
9.18125
9.15796
9.13327
9.10706
9.0793
9.04995
9.019
8.98648
8.95239
8.91674
8.8795
8.84065
8.80016
8.75804
8.71429
8.6689
8.6219
8.57331
8.52314
8.47142
8.41815
8.36339
8.30717
8.24958
8.19013
1.53046
3.34021
9.84949
10.6878
10.3015
9.63709
9.33329
9.29757
9.31412
9.34892
9.36412
9.36323
9.35866
9.34881
9.33799
9.32803
9.31797
9.30692
9.2945
9.28072
9.26561
9.2492
9.23147
9.21238
9.1919
9.16995
9.14669
9.12197
9.09577
9.06807
9.03886
9.00813
8.9759
8.9422
8.90698
8.87024
8.83196
8.79215
8.7508
8.70791
8.66349
8.61755
8.5701
8.52116
8.47076
8.41893
8.36568
8.31109
8.25524
8.19773
1.40814
4.54767
10.1186
10.0923
9.70684
9.35399
9.24383
9.25309
9.28237
9.31134
9.32094
9.32002
9.31612
9.30806
9.29941
9.29093
9.28189
9.27168
9.26011
9.24718
9.23296
9.21745
9.20064
9.1825
9.16301
9.14214
9.1199
9.09626
9.07119
9.04467
9.01668
8.98726
8.95639
8.92404
8.8902
8.85487
8.81802
8.77968
8.73986
8.69852
8.65565
8.61126
8.56536
8.518
8.46919
8.41895
8.36729
8.3143
8.26008
8.20422
1.3931
4.55546
10.0077
9.9819
9.66884
9.38848
9.30001
9.30302
9.3152
9.326
9.32654
9.32405
9.31744
9.30734
9.29731
9.28739
9.27687
9.26533
9.25263
9.23876
9.22372
9.20753
9.19017
9.1716
9.1518
9.13075
9.10842
9.08479
9.05984
9.03357
9.00597
8.97697
8.94655
8.91469
8.88138
8.84661
8.81037
8.77267
8.73351
8.69291
8.65089
8.60746
8.56259
8.51631
8.46863
8.41956
8.36915
8.31739
8.26433
8.2095
1.38513
4.54774
9.95903
9.94764
9.65896
9.38723
9.29496
9.29428
9.30044
9.30815
9.3082
9.30595
9.29979
9.28989
9.27995
9.27015
9.2598
9.2485
9.23611
9.22263
9.20804
9.19232
9.17542
9.15731
9.13797
9.11739
9.09553
9.07239
9.04793
9.02215
8.99503
8.96653
8.93665
8.90538
8.87272
8.83866
8.80322
8.76637
8.7281
8.68841
8.6473
8.60478
8.56084
8.51552
8.46884
8.42087
8.37157
8.32088
8.26887
8.21506
1.37722
4.50926
9.91949
10.0316
9.73125
9.40337
9.28213
9.27811
9.28671
9.29906
9.30116
9.29881
9.29212
9.28106
9.27035
9.26021
9.24973
9.23832
9.22579
9.21215
9.1974
9.18152
9.1645
9.14632
9.12695
9.10637
9.08456
9.06151
9.0372
9.0116
8.98471
8.95651
8.92698
8.89612
8.8639
8.83034
8.79541
8.75911
8.72144
8.6824
8.64199
8.60022
8.55713
8.51272
8.46697
8.41985
8.37142
8.32171
8.27078
8.21825
1.62613
2.96906
9.52187
10.6176
10.2731
9.64742
9.33798
9.27217
9.27974
9.29794
9.30538
9.30312
9.29558
9.2812
9.26801
9.25669
9.24582
9.23428
9.22164
9.20786
9.193
9.17706
9.16003
9.14187
9.12256
9.10206
9.08035
9.05741
9.03323
9.00779
8.98107
8.95305
8.92372
8.89308
8.8611
8.82779
8.79314
8.75715
8.71981
8.68112
8.64111
8.59976
8.5571
8.51313
8.46786
8.42133
8.37357
8.32467
8.27467
8.22329
1.63546
2.85381
9.48426
10.8212
10.4148
9.67674
9.30963
9.23169
9.24224
9.26821
9.28285
9.28164
9.2755
9.26211
9.24799
9.23641
9.22598
9.21506
9.20298
9.18967
9.17524
9.15972
9.14312
9.12541
9.10656
9.08653
9.06531
9.04289
9.01923
8.99433
8.96818
8.94075
8.91203
8.88202
8.8507
8.81806
8.7841
8.74883
8.71222
8.67429
8.63504
8.59448
8.5526
8.50941
8.46493
8.41919
8.37224
8.32411
8.27489
8.22432
1.62645
2.96231
9.50639
10.6081
10.2637
9.63133
9.31381
9.24619
9.25457
9.27518
9.28534
9.28346
9.27641
9.26199
9.24813
9.23642
9.22546
9.21396
9.20139
9.1877
9.17295
9.15719
9.14039
9.12252
9.10355
9.08346
9.06222
9.0398
9.01619
8.99138
8.96533
8.93805
8.90951
8.87969
8.8486
8.81622
8.78254
8.74755
8.71127
8.67367
8.63478
8.59458
8.5531
8.51033
8.46629
8.421
8.37447
8.32673
8.27785
8.22741
1.37419
4.50588
9.90007
10.0119
9.70744
9.36535
9.23667
9.23222
9.24174
9.25629
9.25942
9.2572
9.25069
9.23971
9.22911
9.21917
9.20898
9.19792
9.1858
9.17262
9.15841
9.14316
9.12688
9.10952
9.09106
9.07148
9.05075
9.02886
9.00579
8.98151
8.95602
8.9293
8.90132
8.87208
8.84157
8.80978
8.7767
8.74232
8.70664
8.66966
8.63138
8.59179
8.5509
8.50872
8.46527
8.42056
8.37459
8.32736
8.27886
8.22861
1.37996
4.54111
9.92456
9.90709
9.60724
9.33018
9.24229
9.24459
9.2553
9.26527
9.26551
9.26292
9.25596
9.24513
9.23452
9.22424
9.21354
9.20195
9.18935
9.17575
9.16117
9.14558
9.12897
9.11131
9.09258
9.07275
9.05179
9.0297
9.00644
8.98201
8.95638
8.92954
8.90148
8.87217
8.84162
8.8098
8.77672
8.74236
8.70672
8.6698
8.6316
8.59212
8.55136
8.50933
8.46605
8.42152
8.37577
8.3288
8.28062
8.23092
1.40415
4.56238
10.055
9.98758
9.59224
9.27619
9.19338
9.20499
9.23471
9.25512
9.25767
9.25502
9.24799
9.23761
9.22766
9.21797
9.2077
9.19643
9.1841
9.17074
9.15638
9.14101
9.1246
9.10714
9.08861
9.06897
9.04821
9.02631
9.00325
8.97901
8.95358
8.92694
8.89907
8.86996
8.8396
8.80798
8.7751
8.74093
8.70549
8.66876
8.63076
8.59147
8.5509
8.50907
8.46598
8.42165
8.37609
8.32934
8.28144
8.23216
3.04426
2.45908
3.0046
4.18113
4.12716
4.11025
4.04936
4.01168
3.99879
4.00156
4.02922
4.07288
4.11
4.1407
4.17467
4.21738
4.26903
4.32711
4.38875
4.45164
4.51405
4.57478
4.63331
4.69024
4.7412
4.78653
4.82619
4.86059
4.8897
4.91372
4.93268
4.94675
4.95606
4.96082
4.96123
4.9596
4.95427
4.94298
4.92755
4.90979
4.88978
4.86745
4.84295
4.81651
4.78843
4.75896
4.72836
4.69688
4.66474
4.63216
4.59938
4.56658
4.53399
4.5018
4.4702
4.43941
4.40962
4.38103
4.35383
4.32822
4.30439
4.28254
4.26284
4.24546
4.23055
4.21824
4.20862
4.20171
4.19751
4.19605
4.19627
4.19737
4.20041
4.20714
4.21889
4.23194
4.24531
4.25888
4.27247
4.28581
4.29853
4.31032
4.32093
4.33016
4.33791
4.34414
4.34883
4.35204
4.35386
4.35447
4.35439
4.35402
4.35297
4.35066
4.34671
4.34234
4.33782
4.33313
4.32809
4.32366
4.09677
3.55492
3.75753
4.23569
4.15283
4.09612
4.03678
3.99634
3.9847
3.99694
4.03813
4.08862
4.12041
4.1423
4.17132
4.21224
4.26352
4.32154
4.38306
4.44585
4.50817
4.56904
4.62786
4.68452
4.73555
4.78089
4.82067
4.8552
4.88445
4.9086
4.92766
4.94185
4.95123
4.95601
4.95624
4.95506
4.95079
4.9408
4.92383
4.90545
4.8856
4.86361
4.83935
4.81308
4.78512
4.75576
4.72528
4.6939
4.66187
4.6294
4.59671
4.564
4.53148
4.49936
4.46782
4.43709
4.40734
4.37879
4.35162
4.32604
4.30224
4.2804
4.26072
4.24337
4.22849
4.21622
4.20666
4.19986
4.19588
4.19492
4.19521
4.19638
4.19942
4.20604
4.21788
4.23123
4.24496
4.25881
4.27261
4.2861
4.29897
4.31088
4.32158
4.33087
4.33866
4.34488
4.34955
4.35272
4.3545
4.35501
4.35492
4.35453
4.3535
4.35123
4.34717
4.34267
4.33808
4.33346
4.32866
4.32585
5.22627
4.4653
4.23724
4.26899
4.2497
4.19714
4.11497
4.06192
4.04189
4.04438
4.05693
4.08626
4.12153
4.15295
4.18603
4.22667
4.27564
4.3312
4.39058
4.45151
4.51226
4.57171
4.629
4.68352
4.73369
4.77853
4.81789
4.85195
4.88077
4.90451
4.92321
4.93704
4.94606
4.95042
4.95035
4.94926
4.94561
4.93699
4.91971
4.90035
4.87989
4.85779
4.83365
4.80754
4.7797
4.75045
4.72007
4.6888
4.65689
4.62454
4.59196
4.55936
4.52695
4.49493
4.4635
4.43285
4.4032
4.37472
4.34764
4.32213
4.2984
4.27664
4.25704
4.23976
4.22499
4.21285
4.20345
4.19693
4.19339
4.19308
4.19343
4.19472
4.19792
4.20471
4.21649
4.2301
4.24434
4.25872
4.27297
4.28683
4.29997
4.3121
4.32296
4.33236
4.34019
4.34642
4.35104
4.35411
4.35578
4.35609
4.35597
4.35552
4.3544
4.352
4.34785
4.3432
4.3385
4.33395
4.32935
4.32828
5.82973
5.09671
4.66431
4.46768
4.42887
4.36297
4.27062
4.19019
4.13836
4.1181
4.12042
4.13154
4.15779
4.19478
4.22828
4.26314
4.30401
4.35176
4.40483
4.46091
4.51795
4.57448
4.62925
4.68155
4.72997
4.77371
4.81229
4.84559
4.87371
4.89684
4.91499
4.92829
4.93685
4.94064
4.94046
4.93934
4.93597
4.92819
4.9123
4.89221
4.87087
4.84833
4.82418
4.79827
4.7707
4.74172
4.7116
4.68059
4.64892
4.61682
4.58449
4.55213
4.51996
4.48816
4.45694
4.4265
4.39705
4.36877
4.34188
4.31656
4.29301
4.27143
4.25201
4.23493
4.22035
4.20845
4.19935
4.19326
4.19039
4.19047
4.19101
4.19259
4.19619
4.2036
4.21512
4.22878
4.2435
4.25855
4.27343
4.28779
4.30131
4.3137
4.32473
4.33424
4.34211
4.34832
4.35286
4.35584
4.35734
4.35737
4.35721
4.35665
4.35534
4.35261
4.34845
4.34375
4.33895
4.33444
4.33008
4.33016
6.23271
5.59776
5.12334
4.8342
4.68539
4.57243
4.46098
4.35943
4.28194
4.23447
4.21472
4.21568
4.22202
4.23851
4.27102
4.30379
4.34006
4.38136
4.42751
4.47726
4.52908
4.58137
4.63271
4.68194
4.72804
4.77004
4.80736
4.8395
4.86664
4.88893
4.90629
4.91886
4.92676
4.92978
4.92952
4.92828
4.92492
4.91748
4.90243
4.88268
4.8609
4.8378
4.81335
4.78745
4.76008
4.73139
4.70159
4.67089
4.63954
4.60774
4.57572
4.54366
4.51178
4.48028
4.44936
4.41922
4.39005
4.36207
4.33547
4.31043
4.28718
4.26589
4.24677
4.22998
4.21574
4.20419
4.19556
4.18997
4.18788
4.18805
4.18883
4.1908
4.19502
4.20329
4.21456
4.22812
4.24312
4.2587
4.27418
4.28905
4.30295
4.3156
4.32679
4.33636
4.34424
4.3504
4.35485
4.35771
4.3589
4.35885
4.35855
4.35779
4.35612
4.353
4.34889
4.34421
4.33935
4.33486
4.33087
4.33117
6.53975
6.00471
5.55014
5.20643
4.97347
4.80706
4.66995
4.55066
4.45257
4.38048
4.33523
4.31338
4.31332
4.31651
4.32721
4.35038
4.38275
4.41874
4.45752
4.49944
4.54409
4.59035
4.63675
4.68201
4.725
4.76468
4.80024
4.83115
4.85723
4.87858
4.89501
4.90682
4.91406
4.91629
4.91596
4.9146
4.91115
4.90375
4.88914
4.87022
4.84857
4.82514
4.80037
4.77436
4.74714
4.71876
4.68934
4.65906
4.62813
4.59675
4.56513
4.53349
4.50202
4.47094
4.44043
4.41072
4.38199
4.35443
4.32826
4.30367
4.28085
4.26001
4.24133
4.22498
4.21123
4.20022
4.19215
4.1871
4.18582
4.18609
4.18708
4.18948
4.1945
4.20334
4.21474
4.22826
4.24331
4.25913
4.27496
4.2902
4.30439
4.31724
4.32853
4.33814
4.34599
4.35209
4.35647
4.35917
4.36003
4.35992
4.35951
4.35852
4.35644
4.35311
4.34894
4.34426
4.3394
4.33495
4.33125
4.33165
6.78396
6.33348
5.91594
5.55689
5.27633
5.0646
4.89685
4.75686
4.63976
4.54628
4.47763
4.43293
4.40948
4.40376
4.4054
4.41212
4.42793
4.45639
4.48819
4.52344
4.56145
4.6013
4.64199
4.68253
4.7218
4.75866
4.79214
4.82154
4.84645
4.86677
4.88244
4.89348
4.89999
4.90144
4.90104
4.89956
4.89595
4.88831
4.87417
4.85593
4.83466
4.81126
4.78635
4.76027
4.73314
4.70504
4.67601
4.6462
4.61575
4.58486
4.55374
4.5226
4.49164
4.46107
4.4311
4.40192
4.37373
4.34673
4.32113
4.29711
4.27487
4.25462
4.23654
4.22086
4.2077
4.19728
4.18981
4.18538
4.1849
4.18526
4.18646
4.18929
4.19513
4.20449
4.21612
4.22961
4.24453
4.26026
4.27612
4.29143
4.30572
4.31864
4.32996
4.33956
4.34738
4.35342
4.35767