/*--------------------------------*- C++ -*----------------------------------*\
| =========                 |                                                 |
| \\      /  F ield         | OpenFOAM: The Open Source CFD Toolbox           |
|  \\    /   O peration     | Version:  2412                                  |
|   \\  /    A nd           | Website:  www.openfoam.com                      |
|    \\/     M anipulation  |                                                 |
\*---------------------------------------------------------------------------*/
FoamFile
{
    version     2.0;
    format      ascii;
    arch        "LSB;label=32;scalar=64";
    class       volVectorField;
    location    "24.5";
    object      U;
}
// * * * * * * * * * * * * * * * * * * * * * * * * * * * * * * * * * * * * * //

dimensions      [0 1 -1 0 0 0 0];

internalField   nonuniform List<vector> 
7000
(
(2.59106 -7.24852e-05 0)
(1.62052 0.000178367 0)
(0.495642 0.000208976 0)
(0.552994 0.000350759 0)
(0.654684 0.000446555 0)
(0.719882 0.000524596 0)
(0.732763 0.000592439 0)
(0.72587 0.000662734 0)
(0.715808 0.000741196 0)
(0.70811 0.000831612 0)
(0.703643 0.000930255 0)
(0.700075 0.00103346 0)
(0.695989 0.00114043 0)
(0.691134 0.00125209 0)
(0.68567 0.00136948 0)
(0.679723 0.00149317 0)
(0.67331 0.00162345 0)
(0.6664 0.00176065 0)
(0.658955 0.00190519 0)
(0.65095 0.00205763 0)
(0.642362 0.00221857 0)
(0.633168 0.00238869 0)
(0.623343 0.00256868 0)
(0.61286 0.00275933 0)
(0.601689 0.00296144 0)
(0.589801 0.0031759 0)
(0.577162 0.00340361 0)
(0.56374 0.00364554 0)
(0.5495 0.00390265 0)
(0.534405 0.00417592 0)
(0.518418 0.00446633 0)
(0.501502 0.00477477 0)
(0.483618 0.0051021 0)
(0.464728 0.00544895 0)
(0.444798 0.00581593 0)
(0.423793 0.00620311 0)
(0.401684 0.00661055 0)
(0.378446 0.00703742 0)
(0.354062 0.00748278 0)
(0.328525 0.00794445 0)
(0.301838 0.00842006 0)
(0.27402 0.00890551 0)
(0.245106 0.00939685 0)
(0.21515 0.00988772 0)
(0.184223 0.0103736 0)
(0.152419 0.0108475 0)
(0.119821 0.0113135 0)
(0.0868494 0.0117555 0)
(0.0514912 0.0123442 0)
(0.0221145 0.0131963 0)
(2.59118 -4.80874e-05 0)
(1.62068 0.000347462 0)
(0.49533 0.000828094 0)
(0.552733 0.00113976 0)
(0.654446 0.00137489 0)
(0.719656 0.00159692 0)
(0.732539 0.00180493 0)
(0.72565 0.00202024 0)
(0.715596 0.00225775 0)
(0.707908 0.00252753 0)
(0.703447 0.00282032 0)
(0.699883 0.00312657 0)
(0.695801 0.00344408 0)
(0.69095 0.00377513 0)
(0.685491 0.00412237 0)
(0.67955 0.00448716 0)
(0.673144 0.00487025 0)
(0.666239 0.00527231 0)
(0.658801 0.00569445 0)
(0.650802 0.00613791 0)
(0.642221 0.00660422 0)
(0.633035 0.00709486 0)
(0.623218 0.00761156 0)
(0.612743 0.00815595 0)
(0.601581 0.00872996 0)
(0.589701 0.00933529 0)
(0.577072 0.00997396 0)
(0.56366 0.0106476 0)
(0.549429 0.0113581 0)
(0.534344 0.0121066 0)
(0.518366 0.0128949 0)
(0.501458 0.0137232 0)
(0.483581 0.0145924 0)
(0.464698 0.0155013 0)
(0.444771 0.0164492 0)
(0.423766 0.0174326 0)
(0.401653 0.0184482 0)
(0.378407 0.0194891 0)
(0.354007 0.0205482 0)
(0.328446 0.021614 0)
(0.301726 0.0226742 0)
(0.273862 0.0237121 0)
(0.244887 0.0247099 0)
(0.214852 0.0256467 0)
(0.183828 0.0265018 0)
(0.151907 0.0272555 0)
(0.119163 0.0279056 0)
(0.0860642 0.028426 0)
(0.0505455 0.0290767 0)
(0.0211886 0.0298265 0)
(2.59131 4.76373e-05 0)
(1.62098 0.00039238 0)
(0.495537 0.00160502 0)
(0.552786 0.00198058 0)
(0.654487 0.00230478 0)
(0.719699 0.00267041 0)
(0.732581 0.00303984 0)
(0.725704 0.00341868 0)
(0.715671 0.00382879 0)
(0.708004 0.0042867 0)
(0.703557 0.00478139 0)
(0.700003 0.00530002 0)
(0.69593 0.00583967 0)
(0.691091 0.0064032 0)
(0.685645 0.0069946 0)
(0.679717 0.00761585 0)
(0.673325 0.0082686 0)
(0.666435 0.00895392 0)
(0.659012 0.00967405 0)
(0.651031 0.0104309 0)
(0.642468 0.0112274 0)
(0.6333 0.0120659 0)
(0.623504 0.0129497 0)
(0.61305 0.0138815 0)
(0.601911 0.014865 0)
(0.590056 0.0159029 0)
(0.577453 0.0169992 0)
(0.564068 0.0181565 0)
(0.549865 0.0193786 0)
(0.534809 0.0206677 0)
(0.518861 0.022027 0)
(0.501983 0.0234573 0)
(0.484136 0.0249605 0)
(0.465281 0.0265352 0)
(0.445381 0.0281804 0)
(0.424399 0.0298914 0)
(0.402304 0.0316621 0)
(0.379068 0.033483 0)
(0.35467 0.0353405 0)
(0.329099 0.0372185 0)
(0.302353 0.0390936 0)
(0.274446 0.0409412 0)
(0.245406 0.0427287 0)
(0.215283 0.044424 0)
(0.184144 0.0459904 0)
(0.152084 0.0473928 0)
(0.11917 0.0486188 0)
(0.0859279 0.0496291 0)
(0.0502699 0.0506814 0)
(0.020749 0.0516741 0)
(2.59148 5.41194e-05 0)
(1.62142 0.000535872 0)
(0.495964 0.00235106 0)
(0.552909 0.00281442 0)
(0.654609 0.0032371 0)
(0.719841 0.00375712 0)
(0.732729 0.00430344 0)
(0.725866 0.00485938 0)
(0.715863 0.00545211 0)
(0.708227 0.00610436 0)
(0.703803 0.00680586 0)
(0.700266 0.00754275 0)
(0.696211 0.00831123 0)
(0.691391 0.00911439 0)
(0.685967 0.00995683 0)
(0.680062 0.0108414 0)
(0.673694 0.0117703 0)
(0.666829 0.0127456 0)
(0.659433 0.0137699 0)
(0.65148 0.0148466 0)
(0.642948 0.0159792 0)
(0.633813 0.0171717 0)
(0.624051 0.0184281 0)
(0.613635 0.019753 0)
(0.602536 0.0211509 0)
(0.590723 0.0226267 0)
(0.578164 0.0241849 0)
(0.564826 0.0258306 0)
(0.550672 0.0275681 0)
(0.535667 0.0294021 0)
(0.519772 0.0313355 0)
(0.502947 0.033372 0)
(0.485154 0.035512 0)
(0.466351 0.0377568 0)
(0.446501 0.0401024 0)
(0.425565 0.0425459 0)
(0.40351 0.0450764 0)
(0.380304 0.0476839 0)
(0.355925 0.0503478 0)
(0.330357 0.0530474 0)
(0.303594 0.0557506 0)
(0.275647 0.0584211 0)
(0.246539 0.0610168 0)
(0.216316 0.0634863 0)
(0.185044 0.0657854 0)
(0.152817 0.0678578 0)
(0.119701 0.0696749 0)
(0.0862757 0.0711831 0)
(0.0504193 0.0726082 0)
(0.0206051 0.0737641 0)
(2.59174 6.77542e-05 0)
(1.62206 0.000716419 0)
(0.496515 0.00310382 0)
(0.553019 0.00367978 0)
(0.654737 0.00421151 0)
(0.720013 0.00488561 0)
(0.732915 0.005609 0)
(0.72607 0.00634911 0)
(0.716103 0.00713322 0)
(0.708509 0.007986 0)
(0.704118 0.00889957 0)
(0.700607 0.00986106 0)
(0.696578 0.0108657 0)
(0.691788 0.0119169 0)
(0.686395 0.0130192 0)
(0.680525 0.0141767 0)
(0.674192 0.0153917 0)
(0.667365 0.0166677 0)
(0.660009 0.0180075 0)
(0.652099 0.0194162 0)
(0.643612 0.0208976 0)
(0.634526 0.0224579 0)
(0.624817 0.0241014 0)
(0.614456 0.0258351 0)
(0.603416 0.0276638 0)
(0.591667 0.0295951 0)
(0.579175 0.031634 0)
(0.565907 0.0337882 0)
(0.551827 0.0360624 0)
(0.536899 0.0384636 0)
(0.521083 0.0409955 0)
(0.504339 0.0436631 0)
(0.486627 0.0464675 0)
(0.467904 0.0494099 0)
(0.448132 0.0524867 0)
(0.427268 0.0556926 0)
(0.405276 0.0590165 0)
(0.382123 0.0624422 0)
(0.35778 0.0659482 0)
(0.332226 0.0695025 0)
(0.305452 0.0730705 0)
(0.277461 0.0765988 0)
(0.248272 0.0800359 0)
(0.217926 0.0833117 0)
(0.186485 0.0863599 0)
(0.15405 0.089115 0)
(0.120672 0.0915182 0)
(0.086996 0.0934923 0)
(0.0508511 0.0952298 0)
(0.020623 0.0964783 0)
(2.59207 8.00439e-05 0)
(1.6229 0.000900535 0)
(0.497214 0.00385568 0)
(0.553134 0.00455775 0)
(0.65488 0.00520477 0)
(0.720223 0.00603327 0)
(0.733152 0.00693923 0)
(0.726332 0.00786854 0)
(0.71641 0.00885267 0)
(0.708865 0.00991484 0)
(0.704516 0.0110489 0)
(0.701042 0.0122427 0)
(0.697048 0.013492 0)
(0.692296 0.0147999 0)
(0.686946 0.0161712 0)
(0.68112 0.0176106 0)
(0.674835 0.0191212 0)
(0.668057 0.0207072 0)
(0.660754 0.0223726 0)
(0.6529 0.0241232 0)
(0.644474 0.0259645 0)
(0.635453 0.027903 0)
(0.625813 0.0299457 0)
(0.615527 0.0320998 0)
(0.604566 0.0343729 0)
(0.592901 0.0367729 0)
(0.580498 0.0393082 0)
(0.567325 0.0419862 0)
(0.553346 0.0448156 0)
(0.538522 0.0478028 0)
(0.522814 0.0509553 0)
(0.506182 0.0542772 0)
(0.488582 0.0577727 0)
(0.469971 0.0614418 0)
(0.450307 0.0652827 0)
(0.429546 0.0692876 0)
(0.407647 0.0734455 0)
(0.384572 0.0777355 0)
(0.360286 0.0821328 0)
(0.334764 0.0865977 0)
(0.307986 0.0910855 0)
(0.279951 0.0955366 0)
(0.250667 0.0998798 0)
(0.220172 0.104033 0)
(0.188521 0.107901 0)
(0.155814 0.111394 0)
(0.122103 0.114432 0)
(0.0880672 0.116902 0)
(0.0515119 0.118952 0)
(0.0207744 0.120272 0)
(2.59251 9.27095e-05 0)
(1.62397 0.00108682 0)
(0.498071 0.00461532 0)
(0.553255 0.00545129 0)
(0.655038 0.00622005 0)
(0.720475 0.00720669 0)
(0.733442 0.0083027 0)
(0.726655 0.00942579 0)
(0.716787 0.0106167 0)
(0.709302 0.0118967 0)
(0.705005 0.0132593 0)
(0.701577 0.0146932 0)
(0.69763 0.016195 0)
(0.692927 0.0177677 0)
(0.68763 0.0194168 0)
(0.68186 0.0211468 0)
(0.675633 0.0229623 0)
(0.668919 0.0248676 0)
(0.661683 0.0268686 0)
(0.6539 0.0289712 0)
(0.64555 0.031183 0)
(0.636611 0.0335112 0)
(0.627059 0.0359646 0)
(0.616867 0.0385516 0)
(0.606007 0.041282 0)
(0.594449 0.0441649 0)
(0.582161 0.0472109 0)
(0.569109 0.0504293 0)
(0.555257 0.0538304 0)
(0.540568 0.057423 0)
(0.524999 0.0612157 0)
(0.50851 0.0652154 0)
(0.491057 0.0694269 0)
(0.472594 0.0738521 0)
(0.453074 0.0784891 0)
(0.432451 0.0833307 0)
(0.410679 0.0883639 0)
(0.387713 0.0935666 0)
(0.363512 0.0989087 0)
(0.338041 0.104345 0)
(0.311275 0.109822 0)
(0.283197 0.115266 0)
(0.253811 0.120594 0)
(0.223137 0.125703 0)
(0.191232 0.130476 0)
(0.158187 0.134794 0)
(0.124045 0.138537 0)
(0.0895423 0.141559 0)
(0.0524189 0.143968 0)
(0.0210218 0.145392 0)
(2.59304 0.000105491 0)
(1.62529 0.00127363 0)
(0.499098 0.00538077 0)
(0.553384 0.00635437 0)
(0.655214 0.00724848 0)
(0.720771 0.00839747 0)
(0.733793 0.0096861 0)
(0.727047 0.0110102 0)
(0.717244 0.0124162 0)
(0.70983 0.0139221 0)
(0.705595 0.0155209 0)
(0.702224 0.0172026 0)
(0.698334 0.0189648 0)
(0.693692 0.0208109 0)
(0.68846 0.0227463 0)
(0.682759 0.0247762 0)
(0.676605 0.0269056 0)
(0.669968 0.02914 0)
(0.662814 0.0314861 0)
(0.655119 0.0339511 0)
(0.646863 0.0365437 0)
(0.638025 0.0392727 0)
(0.628581 0.0421482 0)
(0.618505 0.0451807 0)
(0.607769 0.0483811 0)
(0.596344 0.0517612 0)
(0.584197 0.0553327 0)
(0.571295 0.0591078 0)
(0.557602 0.0630982 0)
(0.543078 0.0673155 0)
(0.527684 0.0717699 0)
(0.511374 0.0764705 0)
(0.494105 0.0814244 0)
(0.475827 0.0866346 0)
(0.456491 0.0921017 0)
(0.436046 0.0978179 0)
(0.41444 0.103771 0)
(0.39162 0.109937 0)
(0.367539 0.116283 0)
(0.342149 0.12276 0)
(0.315412 0.129304 0)
(0.287301 0.135831 0)
(0.257804 0.142237 0)
(0.226929 0.148405 0)
(0.194717 0.154185 0)
(0.161264 0.159425 0)
(0.126584 0.163976 0)
(0.0914603 0.167636 0)
(0.0536159 0.170464 0)
(0.0214115 0.172026 0)
(2.59367 0.00011834 0)
(1.62688 0.00146005 0)
(0.50031 0.00614937 0)
(0.553526 0.00726295 0)
(0.655413 0.00828561 0)
(0.721118 0.00960115 0)
(0.734211 0.0110881 0)
(0.727517 0.0126186 0)
(0.717794 0.014247 0)
(0.71046 0.0159866 0)
(0.706299 0.0178296 0)
(0.702996 0.0197673 0)
(0.699176 0.0217982 0)
(0.694607 0.0239261 0)
(0.689453 0.0261564 0)
(0.683835 0.0284947 0)
(0.677768 0.0309469 0)
(0.671223 0.0335193 0)
(0.664167 0.0362195 0)
(0.656578 0.0390562 0)
(0.648435 0.0420393 0)
(0.639719 0.0451792 0)
(0.630405 0.0484875 0)
(0.620469 0.0519764 0)
(0.609883 0.0556591 0)
(0.598618 0.0595489 0)
(0.586643 0.0636602 0)
(0.573923 0.068007 0)
(0.560422 0.0726039 0)
(0.546101 0.0774644 0)
(0.530918 0.0826021 0)
(0.514829 0.0880276 0)
(0.497786 0.0937516 0)
(0.479738 0.0997785 0)
(0.460631 0.106112 0)
(0.44041 0.112745 0)
(0.419015 0.119667 0)
(0.396387 0.126853 0)
(0.372466 0.134268 0)
(0.347194 0.141862 0)
(0.320517 0.14956 0)
(0.292388 0.157273 0)
(0.262782 0.164874 0)
(0.231682 0.172224 0)
(0.199115 0.179149 0)
(0.165163 0.185447 0)
(0.129834 0.190924 0)
(0.0939376 0.195331 0)
(0.0551452 0.198669 0)
(0.0219193 0.200423 0)
(2.59442 0.000131117 0)
(1.62875 0.00164483 0)
(0.501723 0.00691602 0)
(0.553682 0.00817099 0)
(0.655638 0.00932439 0)
(0.721524 0.01081 0)
(0.734706 0.0124992 0)
(0.728076 0.0142421 0)
(0.718446 0.0161004 0)
(0.711206 0.018082 0)
(0.707131 0.0201777 0)
(0.703909 0.0223797 0)
(0.700171 0.0246877 0)
(0.695689 0.0271056 0)
(0.690627 0.0296393 0)
(0.685105 0.0322946 0)
(0.679141 0.035078 0)
(0.672704 0.0379969 0)
(0.665765 0.04106 0)
(0.6583 0.0442773 0)
(0.650291 0.0476599 0)
(0.641718 0.05122 0)
(0.632559 0.0549708 0)
(0.622788 0.0589264 0)
(0.61238 0.0631019 0)
(0.601306 0.0675131 0)
(0.589534 0.0721766 0)
(0.577031 0.077109 0)
(0.56376 0.0823277 0)
(0.549683 0.087849 0)
(0.534755 0.0936898 0)
(0.518933 0.099864 0)
(0.502165 0.106385 0)
(0.484398 0.113261 0)
(0.465574 0.120498 0)
(0.445631 0.128093 0)
(0.424504 0.136036 0)
(0.402122 0.144306 0)
(0.378416 0.152866 0)
(0.353307 0.161665 0)
(0.326731 0.170622 0)
(0.298613 0.179639 0)
(0.268905 0.188576 0)
(0.237571 0.197264 0)
(0.204599 0.205498 0)
(0.170063 0.213036 0)
(0.133931 0.219622 0)
(0.0970632 0.224932 0)
(0.0571063 0.228893 0)
(0.0226248 0.230899 0)
(2.5953 0.000143695 0)
(1.63091 0.00182621 0)
(0.503349 0.00767336 0)
(0.553858 0.00907104 0)
(0.655894 0.0103575 0)
(0.721995 0.0120154 0)
(0.735287 0.013912 0)
(0.728737 0.0158721 0)
(0.719217 0.0179672 0)
(0.712084 0.0201993 0)
(0.708106 0.0225565 0)
(0.704978 0.0250316 0)
(0.701337 0.0276251 0)
(0.696956 0.0303415 0)
(0.692 0.0331868 0)
(0.686591 0.0361672 0)
(0.680745 0.03929 0)
(0.674435 0.0425633 0)
(0.667631 0.0459973 0)
(0.66031 0.0496032 0)
(0.652457 0.0533935 0)
(0.644051 0.057382 0)
(0.635072 0.0615839 0)
(0.625495 0.0660152 0)
(0.615295 0.0706933 0)
(0.604443 0.0756362 0)
(0.59291 0.0808632 0)
(0.580663 0.0863938 0)
(0.567664 0.0922484 0)
(0.553875 0.0984468 0)
(0.539251 0.105009 0)
(0.523747 0.111954 0)
(0.50731 0.119297 0)
(0.489884 0.127054 0)
(0.471405 0.135231 0)
(0.451807 0.143834 0)
(0.431015 0.152854 0)
(0.408949 0.162277 0)
(0.385524 0.172065 0)
(0.360647 0.182169 0)
(0.334227 0.192507 0)
(0.30617 0.202971 0)
(0.276385 0.213412 0)
(0.244813 0.223634 0)
(0.2114 0.233399 0)
(0.176186 0.242401 0)
(0.139116 0.25032 0)
(0.101045 0.25675 0)
(0.0595847 0.26152 0)
(0.0235145 0.263876 0)
(2.59629 0.000155778 0)
(1.63339 0.00200214 0)
(0.505204 0.0084103 0)
(0.554059 0.00995398 0)
(0.656187 0.0113766 0)
(0.722542 0.0132058 0)
(0.735966 0.0153132 0)
(0.72951 0.0174958 0)
(0.720121 0.019836 0)
(0.713111 0.022328 0)
(0.709244 0.024956 0)
(0.706224 0.027713 0)
(0.702693 0.0306005 0)
(0.698429 0.0336237 0)
(0.693595 0.0367886 0)
(0.688315 0.0401019 0)
(0.682605 0.0435714 0)
(0.676439 0.0472065 0)
(0.669789 0.0510184 0)
(0.662635 0.0550197 0)
(0.65496 0.0592246 0)
(0.646747 0.0636486 0)
(0.637975 0.0683087 0)
(0.628622 0.0732231 0)
(0.618662 0.0784116 0)
(0.60807 0.0838948 0)
(0.596815 0.0896947 0)
(0.584864 0.0958341 0)
(0.572183 0.102337 0)
(0.558731 0.109226 0)
(0.544466 0.116527 0)
(0.529338 0.124262 0)
(0.513295 0.132453 0)
(0.496277 0.141119 0)
(0.478217 0.150276 0)
(0.459041 0.159932 0)
(0.438668 0.170088 0)
(0.417003 0.180735 0)
(0.393949 0.191842 0)
(0.369391 0.203363 0)
(0.343211 0.215221 0)
(0.315285 0.2273 0)
(0.285485 0.239448 0)
(0.253696 0.251443 0)
(0.219822 0.263012 0)
(0.183838 0.273802 0)
(0.145636 0.283386 0)
(0.106104 0.291242 0)
(0.0627946 0.297062 0)
(0.0247286 0.299902 0)
(2.59742 0.000165185 0)
(1.6362 0.0021721 0)
(0.507298 0.00910925 0)
(0.554292 0.0108072 0)
(0.656523 0.0123737 0)
(0.723169 0.0143651 0)
(0.736755 0.0166883 0)
(0.730416 0.0190997 0)
(0.721179 0.0216938 0)
(0.714308 0.0244558 0)
(0.710566 0.0273646 0)
(0.707668 0.0304128 0)
(0.704263 0.033603 0)
(0.700131 0.0369411 0)
(0.695435 0.0404334 0)
(0.690299 0.0440867 0)
(0.684743 0.0479098 0)
(0.678742 0.051913 0)
(0.672267 0.0561089 0)
(0.665302 0.0605115 0)
(0.657831 0.0651366 0)
(0.649837 0.0700015 0)
(0.641302 0.0751253 0)
(0.632204 0.0805284 0)
(0.62252 0.0862329 0)
(0.612225 0.0922626 0)
(0.601289 0.0986421 0)
(0.589682 0.105398 0)
(0.577368 0.112558 0)
(0.564309 0.12015 0)
(0.550461 0.128202 0)
(0.535776 0.136745 0)
(0.520199 0.145805 0)
(0.503667 0.155409 0)
(0.486111 0.165579 0)
(0.46745 0.176335 0)
(0.447595 0.187685 0)
(0.42644 0.19963 0)
(0.403869 0.212152 0)
(0.379749 0.225212 0)
(0.353927 0.238746 0)
(0.326245 0.25264 0)
(0.296521 0.266739 0)
(0.264582 0.28081 0)
(0.230262 0.294536 0)
(0.193462 0.307504 0)
(0.153971 0.319194 0)
(0.112634 0.328926 0)
(0.0669414 0.336194 0)
(0.0262951 0.339742 0)
(2.59868 0.000170507 0)
(1.63934 0.00233394 0)
(0.50963 0.00975639 0)
(0.554566 0.0116126 0)
(0.656902 0.0133284 0)
(0.723878 0.0154726 0)
(0.737665 0.0180219 0)
(0.731463 0.0206686 0)
(0.722406 0.0235253 0)
(0.715693 0.0265682 0)
(0.712091 0.0297682 0)
(0.709329 0.0331172 0)
(0.706066 0.0366189 0)
(0.702081 0.0402798 0)
(0.69754 0.0441064 0)
(0.692568 0.0481062 0)
(0.687184 0.0522884 0)
(0.681367 0.0566648 0)
(0.67509 0.061249 0)
(0.668338 0.0660569 0)
(0.661096 0.0711056 0)
(0.65335 0.0764148 0)
(0.645083 0.0820053 0)
(0.636275 0.0879003 0)
(0.626905 0.0941241 0)
(0.616948 0.100704 0)
(0.606377 0.107667 0)
(0.595162 0.115044 0)
(0.583271 0.122867 0)
(0.570664 0.131169 0)
(0.557301 0.139983 0)
(0.543131 0.149346 0)
(0.5281 0.159292 0)
(0.512145 0.169858 0)
(0.495192 0.181074 0)
(0.477156 0.192971 0)
(0.45794 0.205571 0)
(0.437428 0.218889 0)
(0.415485 0.232925 0)
(0.391957 0.247656 0)
(0.36666 0.263035 0)
(0.339387 0.278965 0)
(0.309902 0.295301 0)
(0.277944 0.311812 0)
(0.24325 0.328162 0)
(0.205598 0.343872 0)
(0.164651 0.358296 0)
(0.121175 0.370556 0)
(0.0725089 0.379859 0)
(0.0284949 0.38447 0)
(2.60008 0.000178109 0)
(1.64281 0.0024766 0)
(0.512198 0.0103559 0)
(0.554884 0.0123515 0)
(0.657328 0.0141997 0)
(0.724677 0.0165122 0)
(0.738714 0.0192863 0)
(0.732674 0.0221786 0)
(0.723826 0.0253146 0)
(0.717291 0.0286512 0)
(0.713843 0.0321532 0)
(0.711232 0.0358129 0)
(0.708125 0.0396353 0)
(0.704304 0.0436275 0)
(0.699935 0.0477959 0)
(0.695143 0.0521485 0)
(0.689952 0.0566953 0)
(0.684339 0.0614494 0)
(0.678283 0.0664255 0)
(0.671768 0.0716414 0)
(0.664783 0.0771156 0)
(0.657316 0.0828702 0)
(0.64935 0.0889278 0)
(0.640868 0.0953145 0)
(0.631851 0.102057 0)
(0.622276 0.109186 0)
(0.612119 0.116732 0)
(0.601351 0.12473 0)
(0.589941 0.133216 0)
(0.577853 0.142229 0)
(0.565046 0.151809 0)
(0.551474 0.161999 0)
(0.537081 0.172843 0)
(0.521804 0.184384 0)
(0.505569 0.19667 0)
(0.488288 0.209743 0)
(0.469856 0.223643 0)
(0.45015 0.238404 0)
(0.42902 0.254051 0)
(0.406287 0.270587 0)
(0.381736 0.287993 0)
(0.355111 0.306209 0)
(0.326111 0.325112 0)
(0.29438 0.344498 0)
(0.259517 0.364033 0)
(0.22113 0.383206 0)
(0.17864 0.401245 0)
(0.132608 0.417051 0)
(0.0800914 0.42939 0)
(0.031527 0.435738 0)
(2.6016 0.000187961 0)
(1.64662 0.00259401 0)
(0.51503 0.0108871 0)
(0.555252 0.0129952 0)
(0.657826 0.0149558 0)
(0.725609 0.0174542 0)
(0.739935 0.020458 0)
(0.734096 0.0236079 0)
(0.72549 0.0270399 0)
(0.719148 0.0306844 0)
(0.715867 0.0344998 0)
(0.713421 0.0384794 0)
(0.710485 0.0426296 0)
(0.706844 0.0469588 0)
(0.702663 0.0514732 0)
(0.698068 0.0561815 0)
(0.693086 0.0610948 0)
(0.687698 0.0662274 0)
(0.681884 0.0715958 0)
(0.675631 0.0772192 0)
(0.668931 0.0831183 0)
(0.661771 0.0893169 0)
(0.65414 0.0958401 0)
(0.646021 0.102716 0)
(0.637398 0.109975 0)
(0.628251 0.11765 0)
(0.618558 0.125775 0)
(0.608293 0.134391 0)
(0.597428 0.143537 0)
(0.585929 0.153258 0)
(0.573759 0.163601 0)
(0.560873 0.174617 0)
(0.547219 0.18636 0)
(0.532736 0.198886 0)
(0.51735 0.212255 0)
(0.500973 0.226527 0)
(0.483498 0.241764 0)
(0.464796 0.258025 0)
(0.444707 0.275366 0)
(0.423033 0.293832 0)
(0.399531 0.313446 0)
(0.373895 0.334206 0)
(0.34575 0.356046 0)
(0.314634 0.378815 0)
(0.279978 0.402278 0)
(0.241126 0.425898 0)
(0.197196 0.448789 0)
(0.148339 0.469681 0)
(0.0910095 0.486698 0)
(0.0361562 0.496107 0)
(2.60325 0.000194238 0)
(1.65076 0.00268382 0)
(0.518111 0.0112993 0)
(0.555672 0.0135035 0)
(0.658411 0.0155703 0)
(0.726703 0.0182551 0)
(0.741366 0.0215121 0)
(0.735769 0.0249359 0)
(0.72744 0.0286811 0)
(0.721308 0.0326545 0)
(0.718205 0.0368034 0)
(0.715934 0.0411197 0)
(0.713183 0.0456121 0)
(0.709735 0.0502893 0)
(0.705756 0.0551588 0)
(0.701375 0.0602294 0)
(0.696621 0.0655132 0)
(0.691478 0.0710257 0)
(0.685929 0.0767852 0)
(0.679964 0.0828126 0)
(0.673575 0.0891311 0)
(0.666754 0.0957661 0)
(0.659492 0.102746 0)
(0.651775 0.110101 0)
(0.643588 0.117864 0)
(0.634917 0.126072 0)
(0.62574 0.134764 0)
(0.616037 0.143982 0)
(0.605783 0.153773 0)
(0.594949 0.164188 0)
(0.5835 0.17528 0)
(0.571397 0.18711 0)
(0.558592 0.199741 0)
(0.545029 0.213243 0)
(0.530638 0.227693 0)
(0.515335 0.24317 0)
(0.499017 0.259761 0)
(0.481554 0.277559 0)
(0.462784 0.296658 0)
(0.4425 0.317157 0)
(0.420441 0.339129 0)
(0.396263 0.362688 0)
(0.369516 0.387859 0)
(0.339674 0.41452 0)
(0.305953 0.442715 0)
(0.267304 0.472031 0)
(0.222422 0.501633 0)
(0.170703 0.530076 0)
(0.107365 0.554885 0)
(0.0434831 0.570065 0)
(2.60501 0.000196883 0)
(1.65517 0.00273486 0)
(0.52142 0.0115426 0)
(0.556156 0.0138279 0)
(0.659107 0.0159957 0)
(0.728001 0.0188688 0)
(0.74306 0.0223974 0)
(0.737745 0.0261131 0)
(0.729737 0.0301891 0)
(0.723836 0.0345046 0)
(0.72092 0.0389941 0)
(0.718834 0.0436496 0)
(0.716278 0.0484838 0)
(0.713036 0.0535079 0)
(0.709273 0.0587309 0)
(0.705119 0.0641621 0)
(0.700608 0.0698149 0)
(0.695727 0.0757059 0)
(0.690462 0.0818555 0)
(0.684807 0.0882857 0)
(0.678756 0.0950217 0)
(0.672304 0.102091 0)
(0.665443 0.109523 0)
(0.658165 0.11735 0)
(0.650458 0.12561 0)
(0.642309 0.134341 0)
(0.633703 0.143586 0)
(0.624623 0.153393 0)
(0.615049 0.163811 0)
(0.604956 0.174899 0)
(0.594318 0.186718 0)
(0.5831 0.199337 0)
(0.571262 0.212831 0)
(0.558756 0.227284 0)
(0.545522 0.24279 0)
(0.531484 0.259451 0)
(0.516549 0.277384 0)
(0.500599 0.296718 0)
(0.483482 0.317589 0)
(0.464984 0.340205 0)
(0.444875 0.364632 0)
(0.422806 0.391071 0)
(0.398169 0.419903 0)
(0.370515 0.451185 0)
(0.338953 0.485052 0)
(0.301909 0.521514 0)
(0.257457 0.560239 0)
(0.203861 0.600012 0)
(0.133822 0.638294 0)
(0.0565605 0.666335 0)
(2.60685 0.000195361 0)
(1.65982 0.00273581 0)
(0.52492 0.0115434 0)
(0.556731 0.0138941 0)
(0.659949 0.0161701 0)
(0.729549 0.0192592 0)
(0.745074 0.0231089 0)
(0.740085 0.0271761 0)
(0.732433 0.0316492 0)
(0.726769 0.0363604 0)
(0.72404 0.0412309 0)
(0.722142 0.0462565 0)
(0.71979 0.0514553 0)
(0.716766 0.0568422 0)
(0.713233 0.0624256 0)
(0.709323 0.0682167 0)
(0.705073 0.0742306 0)
(0.700476 0.0804869 0)
(0.69552 0.0870083 0)
(0.6902 0.0938198 0)
(0.684515 0.100949 0)
(0.678463 0.108425 0)
(0.67204 0.116282 0)
(0.665239 0.124555 0)
(0.658053 0.133282 0)
(0.650474 0.142506 0)
(0.642492 0.152273 0)
(0.634095 0.162635 0)
(0.625269 0.173648 0)
(0.615996 0.185373 0)
(0.606258 0.197881 0)
(0.596029 0.211249 0)
(0.58528 0.225562 0)
(0.573975 0.240919 0)
(0.562066 0.257434 0)
(0.549496 0.275229 0)
(0.536193 0.294438 0)
(0.522051 0.315285 0)
(0.506995 0.337854 0)
(0.490749 0.362398 0)
(0.47306 0.389345 0)
(0.453922 0.418923 0)
(0.432711 0.451615 0)
(0.408626 0.487922 0)
(0.380858 0.528294 0)
(0.347861 0.573459 0)
(0.306992 0.624239 0)
(0.255016 0.680967 0)
(0.180394 0.74301 0)
(0.0832311 0.803168 0)
(2.60873 0.000141798 0)
(1.66459 0.00273056 0)
(0.528515 0.0112103 0)
(0.557419 0.0135557 0)
(0.660995 0.0159252 0)
(0.731446 0.0192129 0)
(0.74754 0.0233857 0)
(0.742944 0.0278078 0)
(0.735691 0.0326816 0)
(0.73026 0.0377819 0)
(0.727704 0.0430207 0)
(0.725987 0.0484061 0)
(0.723837 0.0539667 0)
(0.72103 0.0597195 0)
(0.717725 0.065673 0)
(0.71406 0.0718373 0)
(0.710077 0.0782277 0)
(0.705772 0.0848649 0)
(0.701138 0.0917724 0)
(0.696173 0.0989767 0)
(0.690878 0.106506 0)
(0.685255 0.114393 0)
(0.679301 0.12267 0)
(0.673016 0.131376 0)
(0.666396 0.140552 0)
(0.659437 0.150243 0)
(0.652134 0.1605 0)
(0.644482 0.171376 0)
(0.636475 0.182933 0)
(0.628103 0.195238 0)
(0.619356 0.208369 0)
(0.610222 0.222411 0)
(0.600686 0.237461 0)
(0.590728 0.253626 0)
(0.580322 0.271046 0)
(0.569414 0.289901 0)
(0.558028 0.310212 0)
(0.545995 0.332256 0)
(0.533209 0.35642 0)
(0.519847 0.382908 0)
(0.50563 0.41224 0)
(0.490261 0.444853 0)
(0.473487 0.481236 0)
(0.454816 0.522375 0)
(0.433603 0.569444 0)
(0.408678 0.624263 0)
(0.377649 0.689729 0)
(0.336608 0.770914 0)
(0.270945 0.878171 0)
(0.14644 1.0434 0)
(2.6111 8.12641e-05 0)
(1.67037 0.00260041 0)
(0.532268 0.0103853 0)
(0.557938 0.0128207 0)
(0.662137 0.015435 0)
(0.733802 0.0191875 0)
(0.750723 0.023985 0)
(0.746679 0.0290441 0)
(0.739961 0.0345614 0)
(0.734822 0.040229 0)
(0.732498 0.0459577 0)
(0.731051 0.0517831 0)
(0.729216 0.0577558 0)
(0.72675 0.0639025 0)
(0.723806 0.070238 0)
(0.720525 0.0767766 0)
(0.716957 0.083539 0)
(0.713105 0.0905509 0)
(0.708967 0.0978406 0)
(0.704544 0.105438 0)
(0.699841 0.113376 0)
(0.694865 0.121686 0)
(0.68962 0.130407 0)
(0.684111 0.139578 0)
(0.67834 0.149242 0)
(0.672312 0.159446 0)
(0.666031 0.170242 0)
(0.659502 0.181688 0)
(0.652729 0.193848 0)
(0.64572 0.206794 0)
(0.63848 0.220607 0)
(0.631015 0.235377 0)
(0.62333 0.251232 0)
(0.615451 0.268255 0)
(0.60744 0.28654 0)
(0.59907 0.306335 0)
(0.590391 0.327869 0)
(0.581881 0.351324 0)
(0.573396 0.377129 0)
(0.564715 0.405646 0)
(0.555957 0.437224 0)
(0.547209 0.472571 0)
(0.538661 0.512525 0)
(0.530539 0.558372 0)
(0.523384 0.611895 0)
(0.518374 0.675859 0)
(0.518229 0.754725 0)
(0.531153 0.855923 0)
(0.587125 0.990634 0)
(0.657199 1.18531 0)
(2.61362 5.93599e-05 0)
(1.67651 0.00194252 0)
(0.53679 0.00776436 0)
(0.559572 0.00992488 0)
(0.66478 0.0125061 0)
(0.738192 0.016681 0)
(0.756191 0.0222115 0)
(0.752748 0.0280513 0)
(0.746491 0.0343823 0)
(0.741421 0.0407705 0)
(0.739113 0.0471474 0)
(0.737768 0.0535889 0)
(0.736113 0.0601601 0)
(0.73387 0.0668875 0)
(0.73118 0.0737818 0)
(0.728188 0.080858 0)
(0.724955 0.0881394 0)
(0.721489 0.0956545 0)
(0.717791 0.103434 0)
(0.713865 0.111509 0)
(0.70972 0.119913 0)
(0.705364 0.128683 0)
(0.700808 0.137857 0)
(0.696061 0.147478 0)
(0.691131 0.15759 0)
(0.686032 0.168245 0)
(0.680776 0.179495 0)
(0.675379 0.191402 0)
(0.669857 0.204032 0)
(0.664232 0.217463 0)
(0.658522 0.2318 0)
(0.652793 0.24706 0)
(0.647023 0.263361 0)
(0.641138 0.280919 0)
(0.635376 0.299864 0)
(0.62995 0.320332 0)
(0.624751 0.342667 0)
(0.619848 0.367068 0)
(0.615469 0.393724 0)
(0.61177 0.423089 0)
(0.609026 0.455684 0)
(0.607713 0.492163 0)
(0.608497 0.53344 0)
(0.612473 0.580667 0)
(0.621464 0.635506 0)
(0.638789 0.700117 0)
(0.670456 0.777414 0)
(0.725475 0.870832 0)
(0.836625 0.980399 0)
(0.984479 1.09496 0)
(2.61507 7.01964e-05 0)
(1.68007 0.00130463 0)
(0.539647 0.00545816 0)
(0.56132 0.00790977 0)
(0.668131 0.0111025 0)
(0.743956 0.0164651 0)
(0.763401 0.0232627 0)
(0.760689 0.0301971 0)
(0.754902 0.0372578 0)
(0.749825 0.0440636 0)
(0.747528 0.050738 0)
(0.746318 0.057458 0)
(0.744868 0.0643039 0)
(0.74285 0.071296 0)
(0.740396 0.0784408 0)
(0.737666 0.0857614 0)
(0.734734 0.0932913 0)
(0.731614 0.101065 0)
(0.728309 0.109116 0)
(0.724827 0.117478 0)
(0.721182 0.126184 0)
(0.717389 0.135271 0)
(0.713462 0.144775 0)
(0.709417 0.154736 0)
(0.705273 0.165199 0)
(0.701048 0.176211 0)
(0.696767 0.187822 0)
(0.692453 0.2001 0)
(0.688142 0.213099 0)
(0.683907 0.226846 0)
(0.679653 0.241458 0)
(0.675415 0.257077 0)
(0.671527 0.273766 0)
(0.668028 0.291687 0)
(0.664833 0.311037 0)
(0.662102 0.331897 0)
(0.660006 0.35444 0)
(0.658723 0.37893 0)
(0.658533 0.405659 0)
(0.659803 0.43497 0)
(0.663 0.467319 0)
(0.66887 0.503226 0)
(0.678477 0.543349 0)
(0.693301 0.588454 0)
(0.715729 0.639398 0)
(0.749213 0.697022 0)
(0.799343 0.761599 0)
(0.871718 0.832174 0)
(0.984645 0.90379 0)
(1.12029 0.956618 0)
(2.61628 3.70765e-05 0)
(1.68314 -0.00152821 0)
(0.545009 -0.00484944 0)
(0.56729 -0.00305226 0)
(0.6759 0.000995581 0)
(0.754091 0.00905011 0)
(0.774413 0.0185842 0)
(0.771477 0.0278682 0)
(0.765093 0.0364542 0)
(0.759425 0.0442551 0)
(0.756949 0.0517468 0)
(0.755824 0.0592248 0)
(0.754542 0.0667668 0)
(0.752709 0.0743923 0)
(0.750467 0.0820965 0)
(0.748005 0.0899153 0)
(0.745404 0.0978942 0)
(0.742673 0.106074 0)
(0.739811 0.114494 0)
(0.736825 0.123189 0)
(0.733727 0.1322 0)
(0.730536 0.141565 0)
(0.727268 0.151325 0)
(0.723946 0.16152 0)
(0.720592 0.172197 0)
(0.717234 0.183416 0)
(0.713918 0.195197 0)
(0.710665 0.207584 0)
(0.707434 0.22068 0)
(0.70435 0.23456 0)
(0.701627 0.249278 0)
(0.699231 0.264998 0)
(0.697175 0.28181 0)
(0.695628 0.299731 0)
(0.694693 0.318914 0)
(0.694532 0.339515 0)
(0.695365 0.361706 0)
(0.697449 0.385682 0)
(0.701139 0.411673 0)
(0.706866 0.43993 0)
(0.715237 0.470738 0)
(0.727063 0.504424 0)
(0.743479 0.54127 0)
(0.76598 0.581556 0)
(0.796621 0.625361 0)
(0.838093 0.672408 0)
(0.89403 0.721638 0)
(0.967127 0.770464 0)
(1.06831 0.814667 0)
(1.18132 0.840222 0)
(2.61196 0.00228856 0)
(1.67311 -0.00676381 0)
(0.549538 -0.0137853 0)
(0.583065 -0.00801601 0)
(0.696127 -0.000387848 0)
(0.777885 0.00988831 0)
(0.798488 0.0200819 0)
(0.794065 0.0297281 0)
(0.785733 0.0382406 0)
(0.77869 0.0461003 0)
(0.775576 0.0537803 0)
(0.774096 0.061437 0)
(0.772512 0.0691048 0)
(0.770373 0.0768155 0)
(0.767839 0.084622 0)
(0.765151 0.092577 0)
(0.762391 0.100725 0)
(0.759565 0.109103 0)
(0.756671 0.117746 0)
(0.753722 0.126685 0)
(0.750734 0.135953 0)
(0.747729 0.145584 0)
(0.744726 0.15561 0)
(0.741753 0.166064 0)
(0.738863 0.176958 0)
(0.736035 0.188348 0)
(0.733269 0.200317 0)
(0.730726 0.212881 0)
(0.728501 0.226107 0)
(0.726577 0.240102 0)
(0.725016 0.254898 0)
(0.723925 0.270519 0)
(0.723389 0.287078 0)
(0.723557 0.304667 0)
(0.724589 0.32339 0)
(0.726668 0.34338 0)
(0.730043 0.364754 0)
(0.734994 0.387667 0)
(0.741896 0.412249 0)
(0.751217 0.438653 0)
(0.763552 0.467007 0)
(0.779676 0.497416 0)
(0.800561 0.529899 0)
(0.82746 0.564341 0)
(0.861894 0.600396 0)
(0.905695 0.637304 0)
(0.961149 0.67373 0)
(1.02986 0.707339 0)
(1.11622 0.735205 0)
(1.20904 0.748953 0)
(2.60369 0.0079042 0)
(1.64292 -0.0735113 0)
(0.584843 -0.0725459 0)
(0.623928 -0.0457586 0)
(0.731375 -0.00575979 0)
(0.808994 0.0165311 0)
(0.826991 0.0266307 0)
(0.82103 0.035288 0)
(0.811514 0.0426514 0)
(0.804155 0.0507654 0)
(0.800782 0.0592946 0)
(0.798923 0.067726 0)
(0.796942 0.0759358 0)
(0.794501 0.0840042 0)
(0.791777 0.092068 0)
(0.788946 0.100206 0)
(0.786067 0.108466 0)
(0.783139 0.11689 0)
(0.780162 0.12552 0)
(0.777149 0.134404 0)
(0.774121 0.143588 0)
(0.771103 0.153099 0)
(0.768119 0.162952 0)
(0.765161 0.173202 0)
(0.762306 0.183913 0)
(0.759697 0.195095 0)
(0.757319 0.206803 0)
(0.755172 0.219097 0)
(0.753374 0.231996 0)
(0.752002 0.245556 0)
(0.751128 0.259848 0)
(0.750864 0.274937 0)
(0.751337 0.290884 0)
(0.752702 0.307769 0)
(0.755134 0.325651 0)
(0.75883 0.344618 0)
(0.764042 0.364738 0)
(0.77107 0.386092 0)
(0.780263 0.408749 0)