/*--------------------------------*- C++ -*----------------------------------*\
| =========                 |                                                 |
| \\      /  F ield         | OpenFOAM: The Open Source CFD Toolbox           |
|  \\    /   O peration     | Version:  2412                                  |
|   \\  /    A nd           | Website:  www.openfoam.com                      |
|    \\/     M anipulation  |                                                 |
\*---------------------------------------------------------------------------*/
FoamFile
{
    version     2.0;
    format      ascii;
    arch        "LSB;label=32;scalar=64";
    class       volScalarField;
    location    "21";
    object      Ma;
}
// * * * * * * * * * * * * * * * * * * * * * * * * * * * * * * * * * * * * * //

dimensions      [0 0 0 0 0 0 0];

internalField   nonuniform List<scalar> 
7000
(
2.25604
0.994277
0.300596
0.33844
0.401066
0.442399
0.450608
0.446138
0.439784
0.434874
0.432028
0.429756
0.427157
0.424069
0.420598
0.416822
0.412756
0.408377
0.403666
0.398606
0.393184
0.387386
0.3812
0.374608
0.367595
0.360141
0.352232
0.343845
0.334964
0.325566
0.315632
0.30514
0.29407
0.2824
0.270114
0.25719
0.243616
0.229378
0.214469
0.198887
0.182637
0.16573
0.148193
0.130057
0.111371
0.0921947
0.0725924
0.0528484
0.0319241
0.0155248
2.2561
0.994338
0.300393
0.338275
0.400911
0.442251
0.45046
0.445994
0.439645
0.434742
0.431901
0.429632
0.427036
0.423953
0.420486
0.416716
0.412655
0.408282
0.403578
0.398524
0.393109
0.38732
0.381142
0.37456
0.367557
0.360116
0.352219
0.343846
0.33498
0.325599
0.315683
0.305211
0.294163
0.282518
0.270257
0.257363
0.243821
0.229619
0.21475
0.199212
0.183014
0.166168
0.148704
0.130663
0.112105
0.0931193
0.0738207
0.0546571
0.0351583
0.0220578
2.25622
0.994535
0.300526
0.33831
0.400941
0.442284
0.450494
0.446034
0.439703
0.434811
0.431983
0.429719
0.427134
0.424056
0.420604
0.416841
0.412796
0.408433
0.403745
0.398704
0.39331
0.387535
0.381382
0.374818
0.367844
0.360426
0.352563
0.344221
0.335395
0.326052
0.316184
0.30576
0.29477
0.283185
0.270995
0.258177
0.244723
0.230619
0.215862
0.200455
0.184407
0.167745
0.150503
0.132747
0.114567
0.0961186
0.0776354
0.0598412
0.0430419
0.033573
2.2564
0.994841
0.300797
0.338387
0.401022
0.442383
0.450597
0.446151
0.439833
0.43497
0.432152
0.429907
0.42733
0.424274
0.420832
0.417096
0.413063
0.408729
0.404057
0.39905
0.393675
0.38794
0.381811
0.375294
0.368351
0.360989
0.353164
0.344888
0.336111
0.326846
0.317041
0.30671
0.2958
0.284327
0.272241
0.259558
0.246238
0.232301
0.217722
0.202527
0.186723
0.17035
0.153465
0.136151
0.118557
0.100898
0.0835521
0.0674589
0.053304
0.0461814
2.25665
0.995272
0.301146
0.338456
0.401107
0.442504
0.450727
0.446301
0.439996
0.435173
0.432367
0.430155
0.427586
0.424565
0.421137
0.417439
0.413426
0.409133
0.404487
0.399526
0.394185
0.388502
0.382417
0.375959
0.369072
0.361777
0.354025
0.345826
0.337141
0.327966
0.318276
0.308053
0.297286
0.285944
0.274034
0.261516
0.248414
0.234687
0.220383
0.205469
0.19002
0.174041
0.157642
0.140924
0.124075
0.107411
0.0913735
0.0770308
0.0651096
0.0594955
2.25698
0.995844
0.30159
0.338528
0.401203
0.44265
0.450896
0.446472
0.440225
0.435409
0.432662
0.430447
0.427936
0.424915
0.421551
0.417859
0.413916
0.409634
0.405065
0.400121
0.394867
0.389212
0.383224
0.376807
0.37003
0.362792
0.355166
0.347045
0.338503
0.329435
0.319907
0.309825
0.299244
0.288087
0.276395
0.264116
0.251275
0.237857
0.223874
0.209364
0.194336
0.178897
0.163091
0.147119
0.131168
0.115614
0.100986
0.088299
0.0781893
0.0736211
2.25739
0.99657
0.302133
0.338604
0.40131
0.442827
0.4511
0.446704
0.440487
0.43572
0.433002
0.430832
0.428345
0.425375
0.422039
0.418406
0.414496
0.410284
0.405754
0.400892
0.395685
0.390128
0.384197
0.377897
0.371191
0.364094
0.356555
0.348604
0.340172
0.331305
0.32192
0.312075
0.30168
0.290802
0.279352
0.267401
0.254878
0.24185
0.228285
0.21425
0.199776
0.184942
0.169891
0.154754
0.139836
0.125481
0.112236
0.10108
0.0924462
0.0886267
2.25791
0.997462
0.302785
0.338685
0.40143
0.443038
0.451347
0.446985
0.440806
0.436095
0.433416
0.431295
0.428846
0.425929
0.422641
0.419068
0.415214
0.411069
0.406608
0.401824
0.396701
0.391234
0.385408
0.379212
0.372636
0.365662
0.358284
0.350477
0.342246
0.333552
0.324414
0.31478
0.304688
0.294072
0.282992
0.271373
0.259295
0.246697
0.23367
0.220196
0.206379
0.192286
0.178052
0.163899
0.150056
0.13696
0.125076
0.115265
0.107845
0.104624
2.25852
0.998532
0.303555
0.338773
0.401566
0.443284
0.451644
0.447314
0.441196
0.436536
0.433916
0.431841
0.429451
0.426585
0.423364
0.419853
0.416076
0.412003
0.407631
0.402934
0.397915
0.392555
0.386852
0.380789
0.374359
0.367546
0.360343
0.352737
0.344713
0.336267
0.327378
0.318051
0.308257
0.298022
0.287302
0.276156
0.264524
0.252507
0.240046
0.22728
0.214192
0.20096
0.187674
0.174549
0.161898
0.15003
0.139454
0.130891
0.124494
0.121717
2.25925
0.999791
0.304451
0.33887
0.40172
0.443572
0.451992
0.447715
0.441648
0.437068
0.434496
0.432494
0.430155
0.427369
0.424209
0.420787
0.417083
0.413112
0.408828
0.404249
0.399339
0.394117
0.388547
0.382647
0.376381
0.369764
0.362763
0.35539
0.347616
0.339451
0.33087
0.321882
0.31247
0.302643
0.292398
0.281743
0.270701
0.25928
0.247549
0.235517
0.223325
0.211004
0.198789
0.186797
0.17534
0.164786
0.155441
0.147993
0.142492
0.140147
2.26009
1.00125
0.305484
0.338979
0.401896
0.443905
0.452403
0.448171
0.442197
0.437674
0.435192
0.433243
0.430994
0.42827
0.425211
0.421862
0.418271
0.41439
0.410235
0.405766
0.401006
0.39592
0.390527
0.384795
0.378739
0.37233
0.365579
0.358462
0.350988
0.343139
0.334919
0.32632
0.317346
0.307999
0.298284
0.288221
0.277822
0.267132
0.256177
0.245043
0.233784
0.222549
0.211442
0.200707
0.190521
0.181225
0.173167
0.166809
0.162137
0.160101
2.26105
1.00293
0.306662
0.339103
0.402097
0.444292
0.452879
0.448723
0.442819
0.438403
0.435981
0.434133
0.431948
0.429334
0.42635
0.423125
0.419625
0.415884
0.411839
0.407533
0.402909
0.398012
0.392788
0.38728
0.381432
0.375289
0.368796
0.361997
0.354842
0.347374
0.339548
0.331408
0.322921
0.314127
0.305014
0.29562
0.285962
0.276078
0.266032
0.255863
0.245701
0.235602
0.225775
0.216331
0.207542
0.199611
0.192766
0.187492
0.183633
0.182026
2.26213
1.00482
0.307992
0.339245
0.402326
0.444732
0.453432
0.449349
0.443562
0.439231
0.436913
0.435142
0.433067
0.43054
0.42768
0.424556
0.421195
0.417574
0.413693
0.40953
0.405099
0.400378
0.395383
0.390089
0.384515
0.378635
0.37247
0.365994
0.359233
0.352162
0.344812
0.337161
0.329248
0.321055
0.312637
0.303982
0.295164
0.286186
0.277146
0.268081
0.259101
0.25032
0.241834
0.233868
0.226518
0.220068
0.214648
0.210547
0.207571
0.206268
2.26334
1.00694
0.309475
0.339399
0.402599
0.445228
0.454067
0.450079
0.444411
0.440195
0.437973
0.43631
0.434336
0.431929
0.429183
0.426196
0.422967
0.419506
0.41578
0.411807
0.407561
0.403068
0.398296
0.393276
0.387973
0.382422
0.376588
0.370508
0.364152
0.357559
0.350706
0.343632
0.33633
0.328836
0.321167
0.313359
0.305455
0.297504
0.28957
0.281736
0.274082
0.266734
0.259809
0.253426
0.247784
0.242933
0.239026
0.236291
0.234369
0.233716
2.26467
1.00928
0.311114
0.339559
0.402925
0.445787
0.454795
0.450922
0.445388
0.441304
0.439187
0.437643
0.435781
0.433507
0.430889
0.42805
0.424973
0.421681
0.418136
0.414362
0.410336
0.406077
0.401573
0.396833
0.391856
0.38664
0.381203
0.375529
0.369656
0.363554
0.357288
0.350815
0.344222
0.337469
0.330656
0.323762
0.316891
0.31006
0.30337
0.29689
0.290722
0.284974
0.279769
0.27524
0.271483
0.268671
0.266698
0.265726
0.265194
0.26516
2.26613
1.01185
0.312918
0.339756
0.403289
0.446433
0.45564
0.451893
0.446537
0.442575
0.440594
0.439157
0.43744
0.435288
0.432833
0.430133
0.427241
0.424114
0.420786
0.417211
0.413441
0.409426
0.405226
0.400785
0.396168
0.391321
0.386313
0.381094
0.375732
0.370193
0.364538
0.358759
0.352902
0.347001
0.341082
0.335229
0.329454
0.323886
0.318549
0.31359
0.30908
0.305158
0.301931
0.299527
0.298085
0.297586
0.298082
0.299511
0.301156
0.302681
2.26771
1.01465
0.314879
0.339985
0.403709
0.447186
0.456622
0.453027
0.447873
0.444045
0.442205
0.440888
0.439321
0.437308
0.435021
0.432482
0.429779
0.426845
0.423736
0.420397
0.416884
0.413157
0.409261
0.405171
0.40092
0.3965
0.391931
0.387229
0.382401
0.377487
0.372486
0.36746
0.362411
0.357416
0.352499
0.347738
0.343206
0.338964
0.335156
0.331836
0.329184
0.327319
0.326397
0.326521
0.327922
0.330662
0.334527
0.339633
0.344732
0.348731
2.2694
1.01764
0.316982
0.34025
0.404198
0.448072
0.457772
0.454373
0.449418
0.445767
0.444048
0.442886
0.441449
0.439613
0.437472
0.435133
0.432602
0.4299
0.427
0.423934
0.420677
0.417274
0.413694
0.409988
0.406125
0.40216
0.398071
0.393911
0.389673
0.385407
0.38113
0.376886
0.372727
0.368685
0.364857
0.361276
0.358071
0.355315
0.353129
0.351693
0.351068
0.351515
0.353207
0.356417
0.361335
0.368075
0.376907
0.387639
0.399375
0.409979
2.27116
1.02079
0.319205
0.340566
0.404778
0.449117
0.45913
0.45595
0.451228
0.447752
0.446164
0.445151
0.443866
0.442201
0.440238
0.438092
0.435769
0.433291
0.430642
0.42784
0.424889
0.4218
0.41859
0.415259
0.411843
0.408332
0.404781
0.401172
0.39758
0.393988
0.390487
0.387073
0.383844
0.380831
0.37813
0.375827
0.374006
0.372852
0.37243
0.372931
0.374595
0.377713
0.382635
0.389502
0.39893
0.411258
0.426954
0.447114
0.470997
0.498605
2.27299
1.02404
0.321485
0.340946
0.405488
0.450379
0.460775
0.457838
0.453403
0.450071
0.44863
0.447735
0.446621
0.445102
0.443337
0.441363
0.43927
0.437005
0.434628
0.432093
0.429465
0.426706
0.42388
0.420957
0.417996
0.414984
0.411973
0.408972
0.406027
0.403176
0.400453
0.39794
0.39566
0.393741
0.392214
0.391252
0.390892
0.391322
0.392706
0.395393
0.399598
0.405695
0.4139
0.425061
0.439628
0.459166
0.485091
0.520604
0.571937
0.664916
2.27506
1.02777
0.324011
0.341215
0.406284
0.451974
0.462924
0.46036
0.456273
0.453169
0.451887
0.451214
0.450315
0.449073
0.447555
0.445893
0.444087
0.442189
0.440159
0.438058
0.43585
0.433605
0.431287
0.428974
0.426628
0.424339
0.422075
0.419933
0.417894
0.416065
0.414446
0.413153
0.412225
0.411783
0.411925
0.412697
0.414259
0.417025
0.421215
0.426906
0.434598
0.444569
0.45784
0.474826
0.497613
0.527621
0.569604
0.63116
0.72984
0.881499
2.27727
1.03174
0.327021
0.342167
0.408015
0.454843
0.466513
0.464329
0.460561
0.457515
0.456275
0.455692
0.454953
0.453888
0.452589
0.451154
0.449629
0.448027
0.446358
0.444631
0.442871
0.441087
0.439313
0.437557
0.435866
0.434246
0.432764
0.431424
0.430316
0.429449
0.428941
0.42881
0.429174
0.430057
0.431693
0.434282
0.437995
0.442913
0.449478
0.457803
0.468602
0.482316
0.499822
0.522634
0.551804
0.591368
0.643926
0.71805
0.828999
0.967167
2.27855
1.03405
0.328893
0.343226
0.410178
0.458589
0.471239
0.469552
0.466112
0.463087
0.461882
0.461417
0.460844
0.459957
0.458846
0.457618
0.456328
0.454991
0.453622
0.452232
0.450847
0.449484
0.448174
0.446939
0.445816
0.444836
0.444044
0.443483
0.443213
0.443301
0.44376
0.444663
0.446249
0.448654
0.451876
0.456164
0.461599
0.46859
0.477205
0.488173
0.501506
0.518505
0.539223
0.565781
0.599058
0.641727
0.697388
0.767774
0.864192
0.967516
2.27971
1.03617
0.332207
0.346925
0.415043
0.465004
0.478249
0.476434
0.472644
0.469271
0.467992
0.467631
0.467221
0.46651
0.465604
0.464606
0.463601
0.462575
0.461563
0.460551
0.459588
0.458668
0.457845
0.457122
0.456557
0.456167
0.456022
0.456135
0.456552
0.457362
0.458736
0.460717
0.463367
0.466856
0.471249
0.476851
0.48369
0.492279
0.502629
0.515416
0.530898
0.549729
0.572851
0.600714
0.635337
0.677114
0.728943
0.790973
0.868894
0.949952
2.27615
1.02977
0.334351
0.356831
0.427468
0.479834
0.493337
0.49054
0.485538
0.48129
0.479632
0.479077
0.478504
0.477634
0.476574
0.475481
0.474417
0.473393
0.472416
0.471505
0.470679
0.469969
0.46939
0.468991
0.468795
0.468834
0.469105
0.469773
0.470852
0.472455
0.47455
0.477338
0.480786
0.485182
0.490493
0.497087
0.504988
0.514567
0.526096
0.539803
0.556367
0.575925
0.599493
0.627381
0.660605
0.700072
0.746353
0.800727
0.864234
0.92882
2.28208
1.02262
0.358805
0.382371
0.44849
0.498386
0.5103
0.50655
0.500808
0.496425
0.494723
0.494034
0.493334
0.492385
0.491319
0.490242
0.48921
0.488213
0.487275
0.486395
0.485618
0.484944
0.48443
0.484047
0.483917
0.484071
0.484617
0.485482
0.486873
0.488719
0.491271
0.494415
0.4985
0.503364
0.509475
0.516601
0.52537
0.535474
0.547721
0.561839
0.578657
0.598191
0.621072
0.647805
0.678662
0.71461
0.755581
0.802459
0.855655
0.909219
1.87635
0.772049
0.273319
0.344123
0.41774
0.441223
0.441137
0.437157
0.433514
0.433419
0.435594
0.438482
0.441483
0.444527
0.447666
0.450915
0.454234
0.457577
0.460916
0.464232
0.467507
0.470687
0.47383
0.476971
0.480164
0.483345
0.486636
0.489956
0.493579
0.497388
0.50169
0.506381
0.511815
0.517914
0.525035
0.533172
0.542621
0.553561
0.566098
0.580741
0.597315
0.616706
0.638474
0.663804
0.692082
0.724557
0.760546
0.801022
0.845833
0.89058
1.86891
0.771436
0.282219
0.355357
0.428324
0.447788
0.443323
0.435966
0.430307
0.428411
0.428322
0.428725
0.429326
0.43023
0.431578
0.43336
0.435618
0.438225
0.441303
0.444729
0.448614
0.452682
0.45716
0.461805
0.466838
0.471993
0.477532
0.483262
0.489353
0.495679
0.502411
0.509484
0.517043
0.525181
0.533977
0.543727
0.554327
0.56635
0.579541
0.594614
0.611261
0.630242
0.651283
0.675042
0.701381
0.730691
0.763005
0.798132
0.836537
0.874216
1.86795
0.770123
0.284352
0.365072
0.443612
0.463693
0.457514
0.448142
0.441134
0.4384
0.4375
0.436902
0.436314
0.435911
0.435824
0.436094
0.436724
0.437727
0.43926
0.441244
0.443732
0.446649
0.450167
0.454173
0.458804
0.46395
0.469675
0.47593
0.48272
0.490093
0.497967
0.506558
0.515645
0.5256
0.536019
0.547464
0.559521
0.572795
0.586962
0.602639
0.619565
0.638299
0.658716
0.681218
0.705754
0.732564
0.761607
0.792812
0.826428
0.858959
1.86944
0.773403
0.290145
0.367287
0.443683
0.464289
0.459074
0.450558
0.443979
0.441613
0.441138
0.440959
0.440742
0.440631
0.440716
0.441021
0.441609
0.442517
0.443705
0.445187
0.446991
0.449226
0.451866
0.455078
0.458763
0.463144
0.468056
0.473777
0.480051
0.487249
0.494994
0.503755
0.51306
0.523433
0.534443
0.546579
0.559488
0.573589
0.588585
0.604841
0.622204
0.640944
0.66103
0.68268
0.705864
0.730713
0.757162
0.785258
0.815049
0.843701
1.87255
0.780081
0.297825
0.361244
0.429057
0.4503
0.448022
0.441959
0.436349
0.434473
0.43451
0.43504
0.435628
0.436342
0.437235
0.438406
0.439867
0.441551
0.443422
0.445529
0.447874
0.450537
0.453495
0.456865
0.460602
0.46488
0.469596
0.475005
0.480932
0.487705
0.495084
0.503408
0.512446
0.522492
0.533361
0.545274
0.558099
0.572017
0.586956
0.603058
0.620284
0.63877
0.658415
0.679359
0.701481
0.724955
0.749566
0.775291
0.802309
0.828148
1.88113
0.786662
0.300076
0.349031
0.412185
0.441236
0.444212
0.439527
0.434375
0.432092
0.431847
0.432369
0.433088
0.434007
0.435104
0.436437
0.438033
0.439889
0.442002
0.444399
0.447074
0.450081
0.453391
0.457091
0.461129
0.465646
0.470553
0.476054
0.482015
0.488689
0.495934
0.503992
0.512759
0.522417
0.532904
0.544371
0.556748
0.570168
0.584563
0.600054
0.61657
0.634219
0.652919
0.672771
0.693672
0.715658
0.738582
0.762408
0.787227
0.810878
2.26313
1.1061
0.407259
0.3992
0.459377
0.508076
0.519369
0.514479
0.507556
0.501506
0.497989
0.495517
0.493404
0.491385
0.489357
0.487385
0.485659
0.48417
0.483021
0.482174
0.481745
0.481695
0.482149
0.483082
0.484562
0.486627
0.489311
0.492672
0.496712
0.501522
0.50708
0.513494
0.520738
0.528931
0.538026
0.548153
0.559242
0.571412
0.584586
0.598871
0.614162
0.630558
0.647935
0.666345
0.685701
0.705992
0.727119
0.749
0.771714
0.793323
2.27255
1.12799
0.391735
0.377142
0.450006
0.510726
0.529128
0.528247
0.524025
0.520222
0.518779
0.518403
0.518387
0.518347
0.517932
0.517303
0.51663
0.516
0.515432
0.514957
0.514589
0.514394
0.514392
0.514663
0.515246
0.516216
0.517612
0.519544
0.522007
0.525158
0.528945
0.533559
0.538918
0.545202
0.552342
0.560472
0.569568
0.579722
0.59092
0.603193
0.616566
0.630988
0.646486
0.662965
0.680395
0.698708
0.71781
0.737607
0.758166
0.777733
2.29747
1.17671
0.434315
0.384008
0.447102
0.503397
0.521878
0.522907
0.521082
0.519898
0.520317
0.521549
0.523343
0.525145
0.526553
0.527753
0.528877
0.530024
0.531173
0.532353
0.533539
0.534783
0.536076
0.537478
0.538992
0.540688
0.542586
0.544757
0.547249
0.550127
0.55346
0.557298
0.561738
0.566812
0.572639
0.579229
0.586701
0.59504
0.604346
0.614593
0.625826
0.638017
0.651192
0.665339
0.680426
0.696427
0.713242
0.730716
0.74894
0.766324
1.90076
0.805048
0.305841
0.316888
0.374002
0.414888
0.429171
0.432999
0.435823
0.439476
0.444408
0.450156
0.456595
0.463091
0.46927
0.475268
0.481234
0.487198
0.493143
0.499029
0.504853
0.510592
0.516266
0.521854
0.527391
0.532854
0.53831
0.54373
0.549207
0.554732
0.560375
0.566183
0.572219
0.57855
0.585229
0.592354
0.599952
0.608143
0.616916
0.626406
0.636569
0.647543
0.659239
0.671763
0.685001
0.698968
0.713602
0.728928
0.744944
0.76026
2.30598
1.19385
0.449659
0.386655
0.440674
0.492248
0.509251
0.509312
0.506166
0.503689
0.502431
0.502246
0.502701
0.503096
0.50342
0.503924
0.504749
0.506025
0.507721
0.509879
0.512453
0.515494
0.518957
0.522883
0.527197
0.531956
0.537041
0.542544
0.548305
0.554442
0.560827
0.567568
0.574547
0.581887
0.589479
0.597462
0.605752
0.614479
0.623584
0.633182
0.64324
0.653842
0.664972
0.676662
0.688923
0.701736
0.715109
0.728952
0.743355
0.757075
2.31122
1.20382
0.432958
0.369743
0.438383
0.500645
0.522102
0.523515
0.521296
0.519825
0.519953
0.521084
0.522814
0.524318
0.525343
0.52619
0.527024
0.527972
0.529047
0.530335
0.531844
0.533658
0.535766
0.53825
0.541098
0.544374
0.548068
0.552223
0.556836
0.56192
0.567476
0.57349
0.57997
0.58689
0.594282
0.602087
0.610357
0.619015
0.628142
0.637643
0.64762
0.657965
0.668801
0.680004
0.691695
0.703749
0.716262
0.729095
0.742378
0.75498
2.31394
1.20965
0.437133
0.371784
0.44151
0.505368
0.527748
0.52943
0.527266
0.525919
0.526391
0.527907
0.530178
0.532371
0.53409
0.535619
0.537146
0.538778
0.540509
0.542371
0.544359
0.546505
0.548826
0.551355
0.554123
0.557156
0.560497
0.56416
0.568195
0.572604
0.577444
0.5827
0.588431
0.594604
0.601274
0.608399
0.616026
0.624108
0.632678
0.641696
0.651175
0.661091
0.671432
0.682188
0.693322
0.704843
0.716684
0.72886
0.741364
0.753254
2.31693
1.21737
0.463506
0.387846
0.447109
0.506238
0.528801
0.532033
0.531155
0.530785
0.531677
0.533606
0.536144
0.538443
0.540469
0.542373
0.544331
0.546372
0.54855
0.550831
0.553262
0.555812
0.558538
0.56141
0.564487
0.567746
0.571249
0.574975
0.578988
0.583273
0.58789
0.592836
0.598156
0.603854
0.609959
0.616476
0.623422
0.630813
0.638643
0.646932
0.65565
0.664826
0.674409
0.684427
0.694815
0.705592
0.716685
0.728093
0.739838
0.751015
1.90563
0.813597
0.324739
0.323677
0.376477
0.41437
0.427257
0.430301
0.432592
0.435933
0.440705
0.446616
0.453344
0.460163
0.466873
0.473534
0.480269
0.487065
0.493931
0.50081
0.507709
0.514588
0.521465
0.528315
0.53516
0.541989
0.548828
0.555675
0.562554
0.569475
0.576457
0.583529
0.590704
0.598022
0.60549
0.61316
0.621028
0.629149
0.637513
0.646161
0.655086
0.664313
0.673826
0.683651
0.693761
0.704167
0.714843
0.72578
0.737026
0.747702
2.31203
1.20868
0.465022
0.403519
0.466219
0.527407
0.549338
0.550266
0.546122
0.54229
0.540083
0.53871
0.538115
0.537718
0.536984
0.536262
0.535696
0.535542
0.53573
0.536417
0.53753
0.539143
0.541224
0.543812
0.546872
0.550429
0.554443
0.558938
0.563859
0.569228
0.57499
0.58115
0.587659
0.594526
0.601711
0.609221
0.617025
0.625128
0.633508
0.642174
0.651111
0.660325
0.669806
0.679553
0.68955
0.699786
0.710248
0.720912
0.73184
0.742204
2.29407
1.16965
0.460121
0.422713
0.485817
0.546215
0.566104
0.566144
0.562423
0.559187
0.55843
0.558833
0.559919
0.561183
0.562055
0.562693
0.563284
0.563942
0.564677
0.5655
0.566421
0.567484
0.568736
0.57022
0.571968
0.574026
0.576409
0.579152
0.58227
0.585785
0.5897
0.594038
0.598802
0.604001
0.609631
0.615689
0.622168
0.629057
0.636344
0.644013
0.652047
0.660426
0.66913
0.678144
0.68746
0.697047
0.706903
0.71699
0.727361
0.737214
1.88784
0.805081
0.340805
0.355371
0.406345
0.443124
0.452859
0.452687
0.451752
0.452604
0.455918
0.460542
0.466083
0.472148
0.478239
0.484361
0.490579
0.4969
0.503277
0.509665
0.516028
0.522354
0.528632
0.534862
0.541039
0.547173
0.553274
0.559366
0.565467
0.571612
0.577823
0.584123
0.590543
0.597104
0.603834
0.610748
0.617871
0.625213
0.632791
0.640608
0.648684
0.657011
0.665603
0.67444
0.683521
0.692835
0.702368
0.712108
0.722096
0.73159
1.87402
0.796331
0.339545
0.356667
0.398324
0.426963
0.434878
0.434832
0.433825
0.433313
0.434045
0.435679
0.438236
0.441444
0.444935
0.448768
0.453024
0.457743
0.462905
0.468488
0.474453
0.480776
0.487415
0.494344
0.50152
0.508919
0.516498
0.524238
0.532103
0.540081
0.548145
0.556307
0.564537
0.572858
0.581246
0.589733
0.5983
0.606979
0.615764
0.624662
0.63367
0.642806
0.652071
0.661478
0.671023
0.680717
0.690553
0.700528
0.710681
0.720293
1.88891
0.806056
0.34505
0.373659
0.430944
0.4669
0.47363
0.469577
0.464494
0.46139
0.460438
0.460408
0.460999
0.461964
0.463003
0.464175
0.465607
0.467368
0.469493
0.471996
0.474898
0.478209
0.481959
0.486141
0.490773
0.495839
0.501349
0.507272
0.51361
0.520326
0.527423
0.534854
0.542618
0.550671
0.559004
0.567573
0.576375
0.585368
0.594543
0.603891
0.613406
0.623064
0.632864
0.642781
0.652821
0.662961
0.673209
0.683541
0.694026
0.70392
2.34075
1.12434
0.46908
0.447592
0.513155
0.574899
0.595519
0.594911
0.589613
0.584309
0.581298
0.579388
0.577822
0.57645
0.574896
0.573162
0.571389
0.569675
0.568065
0.566586
0.565262
0.564129
0.563214
0.562564
0.562208
0.562198
0.562548
0.56332
0.564506
0.566144
0.568264
0.570874
0.573999
0.577619
0.581761
0.586396
0.591539
0.597154
0.603251
0.609783
0.61675
0.624106
0.631835
0.63993
0.648344
0.657064
0.666049
0.675286
0.684784
0.693842
1.88937
0.807245
0.346184
0.36348
0.415826
0.456087
0.468559
0.469564
0.469015
0.468994
0.471281
0.474799
0.479006
0.483741
0.488565
0.493377
0.498218
0.503147
0.508123
0.513135
0.518125
0.523102
0.528027
0.532926
0.537768
0.542592
0.547371
0.552149
0.556927
0.561734
0.566578
0.571494
0.576478
0.581586
0.586813
0.592215
0.597779
0.603561
0.609542
0.615778
0.62224
0.628977
0.635963
0.643208
0.650701
0.658454
0.666446
0.674675
0.683158
0.691264
1.8891
0.807393
0.347495
0.364547
0.416099
0.45459
0.465039
0.463975
0.4611
0.458541
0.458074
0.458915
0.4605
0.462707
0.465126
0.467716
0.470584
0.473813
0.477406
0.481349
0.485616
0.490187
0.495044
0.500166
0.505533
0.511118
0.516903
0.522863
0.52898
0.535252
0.541656
0.548189
0.554841
0.561602
0.568468
0.575434
0.582501
0.589671
0.596948
0.604333
0.611834
0.619448
0.627187
0.635047
0.643044
0.651168
0.659433
0.667825
0.676391
0.684526
2.34277
1.12803
0.472761
0.449657
0.516409
0.580651
0.603103
0.603206
0.598127
0.593057
0.590274
0.588719
0.587591
0.586739
0.585736
0.584571
0.583345
0.58222
0.581182
0.580324
0.579584
0.579073
0.578728
0.578668
0.578825
0.579306
0.580069
0.581157
0.582584
0.584358
0.586488
0.588972
0.591811
0.595004
0.598549
0.602446
0.606687
0.611265
0.616172
0.621398
0.62693
0.63276
0.638871
0.645257
0.651897
0.658789
0.665909
0.673253
0.680823
0.688064
1.88982
0.808786
0.353456
0.381424
0.439691
0.479641
0.489601
0.48792
0.484875
0.483489
0.484915
0.48759
0.490938
0.494773
0.498673
0.502624
0.506687
0.510915
0.515278
0.519761
0.524323
0.528957
0.53364
0.538371
0.543141
0.547945
0.552786
0.557664
0.562589
0.567563
0.572596
0.577703
0.582883
0.58816
0.593531
0.599018
0.604617
0.610348
0.616208
0.62221
0.628359
0.634665
0.641129
0.647755
0.654544
0.661499
0.668618
0.675891
0.683346
0.690445
1.87525
0.799753
0.351178
0.378112
0.427536
0.459448
0.467098
0.465969
0.464287
0.463573
0.464099
0.465298
0.467197
0.469482
0.471833
0.474315
0.477022
0.480006
0.483273
0.486823
0.490645
0.494731
0.499074
0.503666
0.508497
0.513556
0.518828
0.524303
0.529967
0.535807
0.541811
0.547961
0.554263
0.560695
0.567266
0.573952
0.580768
0.587694
0.594744
0.601899
0.609171
0.616541
0.624023
0.631603
0.639293
0.647078
0.654972
0.662961
0.671093
0.678794
1.87423
0.799384
0.3517
0.375358
0.422433
0.454101
0.462316
0.461854
0.460737
0.460117
0.460387
0.461211
0.462694
0.464529
0.466377
0.468278
0.470335
0.47259
0.475063
0.477753
0.480669
0.483816
0.487204
0.490832
0.494708
0.49883
0.503203
0.507821
0.512688
0.517797
0.523149
0.528736
0.534556
0.540596
0.546853
0.553314
0.559975
0.566818
0.573845
0.581042
0.588406
0.595928
0.603606
0.611424
0.619376
0.627452
0.63566
0.643991
0.652477
0.660536
1.88906
0.809122
0.354883
0.362668
0.413301
0.452099
0.463041
0.462628
0.460839
0.459592
0.459628
0.460438
0.461977
0.463879
0.465707
0.467513
0.469431
0.471522
0.473807
0.476281
0.478948
0.481806
0.484862
0.488117
0.491577
0.495242
0.499118
0.503204
0.507505
0.512021
0.516755
0.521706
0.526877
0.532264
0.53787
0.543689
0.549722
0.555964
0.562414
0.569064
0.57591
0.582945
0.590162
0.597557
0.605129
0.612872
0.620775
0.628829
0.637054
0.644877
2.31234
1.20471
0.485462
0.431493
0.492588
0.55682
0.582812
0.586307
0.583643
0.580911
0.579623
0.579307
0.579796
0.580626
0.581164
0.581454
0.581687
0.581969
0.582345
0.582812
0.583378
0.584041
0.584818
0.585712
0.586742
0.58791
0.589234
0.590714
0.592369
0.5942
0.596222
0.598437
0.600861
0.603493
0.606347
0.609421
0.61273
0.616267
0.620047
0.624061
0.628323
0.63282
0.637566
0.642546
0.647772
0.653226
0.658911
0.664804
0.670936
0.67683
2.32256
1.22882
0.466143
0.405381
0.481455
0.557519
0.588689
0.59337
0.590737
0.587874
0.586886
0.587339
0.588629
0.590443
0.592126
0.593523
0.594854
0.596267
0.59782
0.5995
0.601303
0.603214
0.605242
0.607382
0.609644
0.612021
0.614524
0.617146
0.619898
0.622773
0.625783
0.628921
0.632201
0.635614
0.639174
0.642875
0.646729
0.65073
0.654889
0.659201
0.663677
0.668311
0.673115
0.678082
0.683221
0.68852
0.693987
0.699608
0.705407
0.710946
2.31274
1.20621
0.486701
0.432557
0.494363
0.559824
0.586888
0.591039
0.588988
0.586876
0.586306
0.586963
0.588471
0.590461
0.592259
0.593853
0.595427
0.59711
0.598938
0.600913
0.603022
0.605267
0.607644
0.610162
0.612818
0.615619
0.618562
0.621653
0.624887
0.628271
0.631799
0.63548
0.639306
0.643285
0.64741
0.651689
0.656114
0.660693
0.665418
0.670297
0.675321
0.680499
0.685821
0.691296
0.696912
0.702679
0.708584
0.714635
0.720843
0.726781
1.88896
0.809182
0.356084
0.364314
0.416391
0.457009
0.469108
0.469125
0.467539
0.466525
0.467169
0.468795
0.471277
0.474233
0.477167
0.480133
0.483241
0.486569
0.490113
0.493874
0.497829
0.501983
0.506319
0.510846
0.515545
0.520427
0.525471
0.530689
0.53606
0.541595
0.547274
0.553109
0.559078
0.565195
0.571439
0.577822
0.584325
0.590962
0.597711
0.604587
0.611571
0.618676
0.625883
0.633205
0.640622
0.648151
0.655773
0.663507
0.67137
0.678858
1.87421
0.800019
0.355312
0.380481
0.428588
0.460133
0.467654
0.466487
0.464745
0.463863
0.46408
0.464931
0.466472
0.468353
0.470185
0.472036
0.474
0.476138
0.47845
0.480943
0.483608
0.486458
0.489485
0.492705
0.496108
0.499709
0.503498
0.507488
0.511669
0.516052
0.520627
0.525404
0.530371
0.535538
0.540892
0.546443
0.552177
0.558103
0.564205
0.570492
0.57695
0.583584
0.59038
0.597344
0.60446
0.611735
0.619153
0.62672
0.634446
0.641809
1.87704
0.803108
0.359391
0.395154
0.451561
0.484565
0.490488
0.486956
0.482772
0.480824
0.480813
0.481608
0.483019
0.484683
0.486281
0.487902
0.489646
0.491558
0.493633
0.49587
0.498262
0.500816
0.503527
0.506407
0.509449
0.512664
0.516045
0.519603
0.52333
0.527237
0.531316
0.535576
0.54001
0.544626
0.549417
0.554389
0.559536
0.564864
0.570364
0.576042
0.58189
0.587913
0.594102
0.60046
0.606978
0.61366
0.620494
0.62748
0.634626
0.641438
1.1916
1.04906
0.497716
0.190589
0.0105906
0.108689
0.160068
0.208434
0.230054
0.234442
0.222787
0.211342
0.201031
0.191495
0.179459
0.165004
0.147672
0.12774
0.105918
0.0827775
0.0589542
0.0352459
0.015857
0.0232735
0.0470206
0.0713066
0.0954685
0.119169
0.142497
0.1654
0.187909
0.209985
0.231628
0.252771
0.272788
0.291892
0.311436
0.331811
0.351782
0.370951
0.389472
0.407471
0.424997
0.442052
0.458634
0.474734
0.490351
0.505477
0.520108
0.534237
0.547855
0.560952
0.573516
0.585529
0.596973
0.607828
0.618069
0.62767
0.636603
0.644836
0.652338
0.659077
0.66502
0.670138
0.674405
0.677805
0.680331
0.681993
0.682808
0.683004
0.682846
0.682319
0.68104
0.678591
0.675247
0.671667
0.668017
0.664321
0.660656
0.657095
0.653747
0.650677
0.647963
0.645632
0.643723
0.642228
0.64116
0.64048
0.640179
0.640173
0.640353
0.640712
0.641372
0.642486
0.643895
0.645429
0.646993
0.648675
0.650321
0.655095
1.12198
1.03613
0.806306
0.549364
0.502425
0.431367
0.381376
0.340598
0.310284
0.291724
0.260425
0.230197
0.210631
0.208898
0.216032
0.226589
0.239051
0.252974
0.268108
0.283973
0.300355
0.316836
0.333166
0.349348
0.366087
0.383079
0.400248
0.417354
0.434457
0.451394
0.468253
0.484887
0.501391
0.517628
0.533293
0.548212
0.563217
0.578939
0.594811
0.610039
0.624766
0.639141
0.65323
0.667009
0.680474
0.693595
0.706376
0.718794
0.730853
0.74253
0.753826
0.764714
0.775192
0.785229
0.794818
0.803924
0.812536
0.820614
0.828144
0.835084
0.841415
0.847093
0.852102
0.856401
0.859977
0.862799
0.864874
0.866188
0.866784
0.866819
0.866543
0.865907
0.864605
0.862277
0.859098
0.855655
0.852128
0.848588
0.845092
0.841722
0.838558
0.835678
0.833138
0.830978
0.829218
0.827864
0.826909
0.82633
0.826122
0.82617
0.826365
0.826721
0.827309
0.828299
0.829528
0.830888
0.832224
0.83365
0.834847
0.838649
1.07468
1.07558
1.00816
0.899797
0.831256
0.781037
0.7451
0.715002
0.690181
0.672095
0.657027
0.642713
0.632713
0.627597
0.626084
0.626354
0.627877
0.630304
0.633701
0.637985
0.643111
0.648896
0.655263
0.662104
0.669661
0.677826
0.686595
0.695752
0.705321
0.715125
0.725233
0.735483
0.745969
0.756515
0.766897
0.77684
0.78691
0.797691
0.809054
0.82015
0.830957
0.841576
0.852093
0.862491
0.872769
0.882881
0.892826
0.902566
0.912105
0.921405
0.930469
0.939258
0.947771
0.955967
0.963841
0.97135
0.978487
0.985202
0.991488
0.997294
1.00261
1.00738
1.0116
1.01521
1.01822
1.02058
1.02229
1.02333
1.02372
1.02362
1.02328
1.02262
1.02135
1.0192
1.01627
1.01306
1.00974
1.00642
1.00316
1.00004