/*--------------------------------*- C++ -*----------------------------------*\
| =========                 |                                                 |
| \\      /  F ield         | OpenFOAM: The Open Source CFD Toolbox           |
|  \\    /   O peration     | Version:  2412                                  |
|   \\  /    A nd           | Website:  www.openfoam.com                      |
|    \\/     M anipulation  |                                                 |
\*---------------------------------------------------------------------------*/
FoamFile
{
    version     2.0;
    format      ascii;
    arch        "LSB;label=32;scalar=64";
    class       volScalarField;
    location    "21";
    object      p;
}
// * * * * * * * * * * * * * * * * * * * * * * * * * * * * * * * * * * * * * //

dimensions      [1 -1 -2 0 0 0 0];

internalField   nonuniform List<scalar> 
7000
(
1.63881
3.75643
11.4548
11.528
11.0975
10.688
10.5692
10.5838
10.6248
10.6645
10.6864
10.7001
10.7146
10.7323
10.7527
10.7749
10.7987
10.8242
10.8514
10.8804
10.9112
10.9439
10.9784
11.0148
11.053
11.0931
11.1349
11.1786
11.224
11.271
11.3197
11.3698
11.4212
11.4738
11.5273
11.5815
11.6361
11.6907
11.745
11.7983
11.8503
11.9004
11.9478
11.992
12.0323
12.0679
12.0982
12.1227
12.1403
12.1532
1.63912
3.75514
11.4543
11.5274
11.097
10.6876
10.5689
10.5835
10.6244
10.6641
10.6859
10.6996
10.7141
10.7318
10.7522
10.7744
10.7981
10.8236
10.8507
10.8797
10.9105
10.9432
10.9776
11.014
11.0522
11.0922
11.134
11.1776
11.223
11.27
11.3186
11.3687
11.4201
11.4726
11.5261
11.5803
11.6349
11.6896
11.7438
11.7972
11.8493
11.8994
11.9469
11.9912
12.0316
12.0673
12.0977
12.1223
12.14
12.153
1.63901
3.7542
11.4525
11.5265
11.0963
10.6869
10.5682
10.5827
10.6236
10.6632
10.6849
10.6986
10.7131
10.7307
10.751
10.7731
10.7968
10.8222
10.8493
10.8782
10.9089
10.9415
10.9759
11.0121
11.0502
11.0901
11.1318
11.1753
11.2205
11.2674
11.3159
11.3658
11.4171
11.4695
11.5228
11.5769
11.6313
11.6858
11.74
11.7933
11.8452
11.8953
11.9428
11.9871
12.0274
12.0632
12.0936
12.1182
12.1358
12.1488
1.63888
3.75292
11.4491
11.5254
11.0954
10.6857
10.567
10.5815
10.6223
10.6618
10.6834
10.697
10.7114
10.7289
10.7491
10.7712
10.7948
10.82
10.847
10.8758
10.9064
10.9388
10.973
11.0091
11.047
11.0868
11.1283
11.1716
11.2166
11.2633
11.3115
11.3612
11.4122
11.4644
11.5175
11.5713
11.6255
11.6798
11.7337
11.7868
11.8386
11.8885
11.9359
11.9801
12.0204
12.0561
12.0866
12.1112
12.1286
12.1415
1.6387
3.75104
11.4444
11.524
11.0941
10.6841
10.5653
10.5798
10.6205
10.6597
10.6812
10.6947
10.709
10.7264
10.7465
10.7684
10.7918
10.8169
10.8438
10.8724
10.9028
10.935
10.969
11.0049
11.0426
11.082
11.1233
11.1663
11.211
11.2573
11.3052
11.3546
11.4052
11.457
11.5098
11.5632
11.6171
11.671
11.7246
11.7774
11.829
11.8787
11.9259
11.97
12.0102
12.0459
12.0763
12.1009
12.1183
12.1313
1.63849
3.74852
11.4381
11.5222
11.0925
10.682
10.563
10.5774
10.618
10.6571
10.6783
10.6917
10.7058
10.7231
10.743
10.7647
10.788
10.8129
10.8395
10.8678
10.898
10.93
10.9637
10.9993
11.0366
11.0757
11.1166
11.1592
11.2035
11.2495
11.2969
11.3458
11.3959
11.4472
11.4995
11.5524
11.6057
11.6592
11.7123
11.7647
11.8159
11.8652
11.9122
11.9561
11.9962
12.0318
12.0622
12.0868
12.1042
12.1173
1.63822
3.74529
11.4302
11.52
11.0904
10.6794
10.5601
10.5745
10.6148
10.6537
10.6747
10.6878
10.7018
10.7189
10.7385
10.76
10.7831
10.8077
10.834
10.8621
10.892
10.9236
10.957
10.9921
11.0291
11.0678
11.1082
11.1503
11.1941
11.2394
11.2863
11.3345
11.3841
11.4347
11.4863
11.5385
11.5912
11.644
11.6965
11.7483
11.7989
11.8478
11.8944
11.9379
11.9778
12.0133
12.0436
12.0683
12.0857
12.099
1.6379
3.7413
11.4205
11.5172
11.0879
10.6762
10.5565
10.5708
10.6109
10.6495
10.6702
10.6831
10.6968
10.7137
10.7331
10.7543
10.777
10.8013
10.8273
10.855
10.8845
10.9157
10.9487
10.9834
11.0198
11.0579
11.0978
11.1393
11.1824
11.227
11.2731
11.3206
11.3694
11.4192
11.4699
11.5213
11.5731
11.625
11.6767
11.7277
11.7776
11.8258
11.8718
11.9149
11.9545
11.9897
12.02
12.0447
12.0621
12.0756
1.63753
3.73649
11.409
11.5139
11.0849
10.6724
10.5522
10.5663
10.6062
10.6444
10.6648
10.6774
10.6908
10.7074
10.7265
10.7473
10.7697
10.7936
10.8192
10.8465
10.8755
10.9062
10.9386
10.9728
11.0086
11.046
11.0852
11.1259
11.1682
11.212
11.2573
11.3038
11.3515
11.4003
11.45
11.5003
11.551
11.6019
11.6525
11.7024
11.7513
11.7987
11.8439
11.8864
11.9254
11.9603
11.9903
12.015
12.0324
12.0463
1.63711
3.73082
11.3954
11.5101
11.0814
10.6678
10.5471
10.561
10.6005
10.6383
10.6584
10.6707
10.6837
10.6999
10.7186
10.7391
10.7611
10.7845
10.8097
10.8364
10.8649
10.895
10.9268
10.9602
10.9953
11.032
11.0702
11.1101
11.1514
11.1942
11.2384
11.2838
11.3303
11.3778
11.4262
11.4752
11.5245
11.574
11.6232
11.6719
11.7195
11.7656
11.8098
11.8513
11.8896
11.9239
11.9536
11.9782
11.9956
12.0098
1.63662
3.72424
11.3797
11.5056
11.0773
10.6626
10.5411
10.5548
10.5939
10.6313
10.6509
10.6628
10.6754
10.6912
10.7095
10.7295
10.7509
10.7739
10.7984
10.8246
10.8524
10.8818
10.9129
10.9455
10.9797
11.0155
11.0528
11.0915
11.1318
11.1733
11.2162
11.2602
11.3053
11.3514
11.3981
11.4455
11.4932
11.5409
11.5884
11.6353
11.6813
11.7258
11.7684
11.8086
11.8458
11.8793
11.9083
11.9327
11.95
11.9647
1.63606
3.7167
11.3617
11.5004
11.0726
10.6565
10.5341
10.5476
10.5862
10.623
10.6422
10.6536
10.6658
10.6811
10.6988
10.7183
10.7392
10.7616
10.7855
10.8109
10.838
10.8666
10.8968
10.9285
10.9617
10.9964
11.0325
11.0701
11.109
11.1491
11.1904
11.2329
11.2763
11.3205
11.3654
11.4107
11.4564
11.502
11.5473
11.592
11.6358
11.6782
11.7188
11.7571
11.7926
11.8247
11.8528
11.8766
11.8936
11.9087
1.63545
3.70817
11.3413
11.4945
11.0672
10.6496
10.5261
10.5393
10.5773
10.6135
10.6321
10.643
10.6547
10.6694
10.6866
10.7055
10.7257
10.7474
10.7706
10.7953
10.8215
10.8492
10.8784
10.909
10.9411
10.9746
11.0094
11.0455
11.0828
11.1213
11.1609
11.2014
11.2428
11.2849
11.3275
11.3705
11.4136
11.4566
11.4992
11.5411
11.582
11.6216
11.6593
11.695
11.728
11.7579
11.7842
11.8069
11.8235
11.8391
1.63477
3.69861
11.3187
11.4878
11.061
10.6419
10.5171
10.5299
10.5671
10.6026
10.6206
10.631
10.642
10.6562
10.6727
10.6909
10.7104
10.7313
10.7536
10.7775
10.8027
10.8294
10.8575
10.8869
10.9177
10.9497
10.983
11.0175
11.053
11.0896
11.1272
11.1655
11.2046
11.2441
11.2841
11.3242
11.3642
11.404
11.4432
11.4816
11.5188
11.5546
11.5885
11.6203
11.6496
11.6762
11.6997
11.7203
11.7356
11.7515
1.63405
3.68798
11.2937
11.4802
11.0541
10.6333
10.5068
10.5192
10.5554
10.5902
10.6076
10.6172
10.6277
10.6411
10.6569
10.6743
10.693
10.7131
10.7345
10.7573
10.7815
10.807
10.8339
10.8619
10.8912
10.9217
10.9533
10.9859
11.0195
11.0539
11.0891
11.1249
11.1612
11.1978
11.2346
11.2713
11.3077
11.3436
11.3786
11.4125
11.4449
11.4757
11.5043
11.5306
11.5544
11.5756
11.5942
11.6109
11.6237
11.6399
1.63326
3.67638
11.2662
11.4718
11.0464
10.6236
10.4953
10.507
10.5422
10.5761
10.5927
10.6017
10.6114
10.6241
10.6391
10.6557
10.6735
10.6926
10.713
10.7348
10.7578
10.782
10.8074
10.834
10.8616
10.8903
10.92
10.9505
10.9818
11.0138
11.0463
11.0792
11.1124
11.1456
11.1787
11.2114
11.2435
11.2746
11.3044
11.3327
11.359
11.383
11.4044
11.423
11.4387
11.4515
11.462
11.4714
11.4786
11.4935
1.6324
3.66383
11.2364
11.4627
11.038
10.6128
10.4823
10.4933
10.5272
10.5602
10.5761
10.5843
10.5932
10.6051
10.6192
10.6349
10.6517
10.6698
10.6891
10.7096
10.7313
10.7541
10.778
10.8029
10.8287
10.8554
10.8829
10.9111
10.9398
10.969
10.9986
11.0282
11.0578
11.0871
11.116
11.144
11.1709
11.1963
11.2198
11.2411
11.2596
11.2749
11.2866
11.2942
11.2974
11.2967
11.2933
11.2889
11.2849
11.2956
1.6315
3.65046
11.2046
11.4529
11.0288
10.6009
10.4677
10.4779
10.5103
10.5422
10.5572
10.5647
10.5728
10.5837
10.5969
10.6116
10.6274
10.6444
10.6624
10.6816
10.7019
10.7232
10.7453
10.7684
10.7922
10.8168
10.8419
10.8675
10.8934
10.9195
10.9457
10.9717
10.9972
11.0221
11.046
11.0686
11.0895
11.1082
11.1242
11.1368
11.1456
11.1495
11.1479
11.1409
11.126
11.1041
11.0762
11.0455
11.0152
11.0115
1.63056
3.63644
11.1711
11.4424
11.0189
10.5876
10.4513
10.4606
10.4913
10.522
10.5362
10.5429
10.5501
10.5601
10.5723
10.5859
10.6006
10.6163
10.6331
10.6509
10.6696
10.6891
10.7095
10.7305
10.7522
10.7743
10.7968
10.8196
10.8424
10.8652
10.8876
10.9095
10.9306
10.9505
10.9688
10.9853
10.9992
11.01
11.0171
11.019
11.0162
11.0067
10.9873
10.9582
10.9174
10.8631
10.7939
10.7119
10.6214
10.566
1.62961
3.62204
11.137
11.4313
11.0081
10.5728
10.4326
10.4408
10.4693
10.4989
10.5123
10.5182
10.5245
10.5335
10.5447
10.5573
10.5708
10.5853
10.6007
10.6169
10.634
10.6517
10.6701
10.689
10.7082
10.7278
10.7475
10.7672
10.7866
10.8056
10.824
10.8414
10.8574
10.8718
10.884
10.8934
10.8996
10.9011
10.8983
10.8894
10.8708
10.8426
10.8018
10.7455
10.6687
10.5656
10.4276
10.2467
10.0129
9.75846
1.62882
3.60373
11.0963
11.4181
10.9945
10.5534
10.4078
10.4144
10.4402
10.4684
10.481
10.486
10.4911
10.4989
10.5088
10.5199
10.532
10.5448
10.5584
10.5728
10.5877
10.6031
10.619
10.6351
10.6514
10.6677
10.6838
10.6995
10.7147
10.729
10.7422
10.7538
10.7635
10.7708
10.775
10.7749
10.772
10.7632
10.7451
10.7184
10.6806
10.6285
10.5578
10.4616
10.3307
10.1483
9.88531
9.4801
8.78175
7.25952
1.62802
3.58424
11.0532
11.4009
10.9753
10.5252
10.3715
10.3762
10.3987
10.4262
10.4386
10.4431
10.4473
10.4539
10.4625
10.4722
10.4827
10.4938
10.5054
10.5175
10.5299
10.5427
10.5555
10.5684
10.5811
10.5934
10.6053
10.6163
10.6263
10.635
10.6419
10.6468
10.6486
10.6476
10.6434
10.6335
10.6165
10.592
10.5583
10.5126
10.4521
10.3718
10.2654
10.1231
9.93001
9.66233
9.27849
8.70954
7.86723
6.48091
1.62756
3.57298
11.0283
11.3893
10.9599
10.4968
10.3324
10.3346
10.3534
10.3806
10.3931
10.3969
10.4
10.4052
10.4124
10.4207
10.4295
10.4387
10.4482
10.458
10.4679
10.4778
10.4876
10.4971
10.5061
10.5145
10.5219
10.5281
10.5328
10.5357
10.5359
10.5344
10.5295
10.5193
10.5039
10.4825
10.4536
10.4154
10.3658
10.3017
10.2193
10.1135
9.97614
9.79746
9.56211
9.2489
8.82864
8.26108
7.52921
6.55621
1.62693
3.56377
11.005
11.3679
10.9318
10.4514
10.2774
10.2796
10.3
10.3306
10.3446
10.3481
10.3503
10.3546
10.3608
10.3678
10.3751
10.3825
10.39
10.3974
10.4048
10.4119
10.4185
10.4246
10.4299
10.4342
10.4373
10.4386
10.4382
10.4361
10.4309
10.4214
10.408
10.3897
10.3654
10.3342
10.2943
10.2439
10.1805
10.101
10.0016
9.87707
9.72058
9.52338
9.2743
8.95953
8.56446
8.07337
7.493
6.76392
1.62764
3.59816
11.0665
11.3652
10.9044
10.3857
10.2005
10.2057
10.2339
10.2718
10.2882
10.2918
10.2935
10.2971
10.3027
10.3089
10.315
10.3209
10.3266
10.332
10.3371
10.3416
10.3455
10.3486
10.3505
10.351
10.3503
10.348
10.3428
10.3346
10.3232
10.308
10.2881
10.2629
10.231
10.1914
10.1423
10.082
10.0081
9.91781
9.80756
9.673
9.5088
9.30865
9.06526
8.7709
8.41831
8.00033
7.51938
6.96832
1.58992
3.70865
11.0713
11.2741
10.8236
10.3043
10.1314
10.1414
10.178
10.2179
10.2343
10.2381
10.2401
10.2438
10.2486
10.2535
10.258
10.2621
10.2657
10.2688
10.2712
10.273
10.2738
10.2736
10.2725
10.2696
10.2643
10.2571
10.2473
10.2343
10.2179
10.1973
10.1717
10.1403
10.102
10.0555
9.99953
9.93211
9.85129
9.75458
9.63907
9.50135
9.33754
9.14333
8.91426
8.64589
8.33487
7.97854
7.57888
7.13121
1.55504
4.81596
11.2225
10.9529
10.312
10.055
10.0506
10.0772
10.1246
10.1511
10.1608
10.165
10.1692
10.1743
10.1794
10.184
10.1878
10.191
10.1934
10.195
10.1955
10.1953
10.1943
10.1918
10.1874
10.1814
10.1737
10.1636
10.1505
10.134
10.1135
10.0885
10.0583
10.022
9.97881
9.92742
9.86662
9.79482
9.71025
9.61086
9.49437
9.35821
9.19964
9.01578
8.8039
8.56158
8.28737
7.98124
7.64454
7.27004
1.55594
4.82295
11.1724
10.8838
10.2394
10
10.0102
10.0526
10.1011
10.1228
10.1288
10.1313
10.1344
10.1376
10.1402
10.1418
10.1425
10.1424
10.1417
10.1399
10.1368
10.1329
10.1279
10.1217
10.1137
10.1038
10.0916
10.0769
10.0593
10.0385
10.0141
9.98553
9.9518
9.91193
9.86497
9.8101
9.74609
9.67169
9.58552
9.48592
9.37117
9.23935
9.08856
8.91684
8.7226
8.50439
8.26153
7.99349
7.70659
7.39053
1.56609
4.84207
11.2349
10.9037
10.1831
9.92258
9.93766
9.99235
10.0497
10.0741
10.0805
10.0832
10.0866
10.0899
10.0923
10.0933
10.0931
10.0922
10.0898
10.0856
10.0805
10.0742
10.0665
10.0571
10.0459
10.0327
10.0171
9.99902
9.97804
9.95378
9.92557
9.89278
9.85483
9.81133
9.76155
9.70443
9.63906
9.56399
9.47805
9.37996
9.26855
9.14236
9.00021
8.84076
8.66305
8.46639
8.25109
8.01695
7.76783
7.49739
1.55641
4.82026
11.1591
10.8519
10.1591
9.8978
9.90984
9.95908
10.0153
10.0395
10.0451
10.0466
10.0486
10.0505
10.0512
10.0507
10.0492
10.0457
10.0409
10.035
10.0279
10.0195
10.0094
9.99754
9.98371
9.96772
9.94927
9.92818
9.90404
9.87656
9.84518
9.80949
9.76901
9.72304
9.67095
9.6118
9.5449
9.46943
9.38459
9.28928
9.18259
9.06325
8.93027
8.78283
8.62064
8.44365
8.25203
8.04519
7.82677
7.59203
1.52723
4.76266
10.9515
10.7273
10.1505
9.90238
9.90329
9.93266
9.98132
10.0046
10.0103
10.0111
10.0117
10.012
10.0115
10.0098
10.0062
10.0011
9.99486
9.98746
9.97864
9.96825
9.9561
9.9421
9.92599
9.9077
9.88687
9.86336
9.83674
9.80676
9.77304
9.73514
9.6926
9.64483
9.59135
9.53149
9.4646
9.38996
9.30687
9.2145
9.11202
8.9989
8.87462
8.73871
8.59068
8.43021
8.25742
8.07446
7.88174
7.67574
1.51116
4.71715
10.8683
10.7323
10.2337
9.94098
9.88917
9.9075
9.94693
9.97103
9.97776
9.97748
9.97631
9.974
9.97111
9.96728
9.96219
9.95583
9.94818
9.9392
9.92871
9.91662
9.90274
9.88701
9.86916
9.84909
9.82645
9.80112
9.77272
9.741
9.70563
9.66621
9.62242
9.57375
9.5197
9.45978
9.39351
9.32031
9.23963
9.15082
9.05335
8.94674
8.83059
8.70458
8.56858
8.42269
8.26724
8.10291
7.93093
7.74833
1.66805
3.29248
10.5066
11.0127
10.5968
10.077
9.88883
9.89279
9.91804
9.9511
9.96181
9.96065
9.95669
9.95033
9.94449
9.93856
9.93165
9.9234
9.91375
9.90267
9.89011
9.8759
9.85988
9.84207
9.82218
9.80005
9.77537
9.74804
9.71771
9.68418
9.64714
9.60624
9.56112
9.51141
9.45673
9.39673
9.33105
9.25926
9.1809
9.09557
9.00277
8.90218
8.79355
8.67664
8.55144
8.41809
8.2769
8.12835
7.97362
7.81023
1.67597
3.16886
10.4408
11.1644
10.7157
10.1119
9.86706
9.8542
9.87195
9.90412
9.91456
9.91269
9.90668
9.89733
9.8897
9.88316
9.87622
9.86801
9.85834
9.8472
9.83451
9.82017
9.80401
9.78586
9.7656
9.74302
9.71785
9.68998
9.65908
9.62501
9.58745
9.54621
9.50102
9.45161
9.39771
9.33893
9.27485
9.20512
9.12946
9.04743
8.95881
8.86344
8.76129
8.65248
8.53684
8.41445
8.28551
8.15045
8.01026
7.8628
1.64115
3.05434
9.91197
11.0084
10.6484
10.1095
9.88633
9.86546
9.87643
9.89475
9.89641
9.89246
9.88231
9.86894
9.85777
9.84807
9.83827
9.82751
9.81553
9.8023
9.78773
9.7717
9.75402
9.73453
9.71306
9.68942
9.66342
9.63481
9.60334
9.56882
9.53106
9.48984
9.4449
9.39598
9.34281
9.28508
9.22253
9.15489
9.08192
9.00353
8.91959
8.82989
8.73424
8.63248
8.52452
8.41073
8.29194
8.16846
8.04077
7.90691
1.43596
4.54895
10.336
10.5119
10.2194
9.92481
9.81683
9.81421
9.82249
9.83299
9.83291
9.82937
9.82032
9.80836
9.7981
9.78897
9.77948
9.76887
9.75696
9.74376
9.72921
9.71316
9.69544
9.67588
9.65437
9.63069
9.60471
9.57616
9.54487
9.51076
9.47357
9.43304
9.38898
9.34117
9.2894
9.23342
9.17304
9.10805
9.03829
8.96363
8.88395
8.79912
8.70908
8.61384
8.5138
8.40905
8.29948
8.18532
8.06756
7.94477
1.63349
3.00288
9.7269
10.8961
10.5813
10.0811
9.86156
9.82728
9.83263
9.83911
9.83635
9.8272
9.81052
9.79471
9.78111
9.76854
9.75572
9.74188
9.72685
9.71076
9.69357
9.67508
9.65511
9.6335
9.61006
9.58469
9.5572
9.52755
9.49558
9.46096
9.4235
9.38299
9.33928
9.29221
9.24157
9.18713
9.1287
9.06613
8.99928
8.92803
8.85228
8.77201
8.68722
8.59794
8.50433
8.4065
8.3046
8.19902
8.09036
7.97737
1.64235
2.93476
9.72829
11.0211
10.6398
10.0488
9.79154
9.75802
9.76818
9.78382
9.78274
9.7756
9.75964
9.74254
9.7287
9.71657
9.70432
9.69123
9.67711
9.66173
9.64496
9.62675
9.607
9.58559
9.5624
9.53726
9.51004
9.48059
9.44878
9.41441
9.37736
9.33749
9.29461
9.2485
9.19903
9.1461
9.08956
9.02932
8.96525
8.89727
8.82533
8.74937
8.66938
8.58543
8.4976
8.40602
8.31089
8.21268
8.11181
8.00702
1.64066
2.91546
9.6738
10.9995
10.6147
10.0087
9.74208
9.70696
9.7181
9.73643
9.73593
9.72968
9.71471
9.69711
9.68298
9.67092
9.65883
9.64576
9.63149
9.61594
9.59906
9.58076
9.56096
9.53952
9.51633
9.49125
9.46416
9.43491
9.4034
9.36949
9.33303
9.2939
9.25195
9.20703
9.15903
9.10781
9.05332
8.99546
8.93415
8.86933
8.80094
8.72895
8.65338
8.57429
8.49179
8.40603
8.31708
8.22528
8.13109
8.03338
1.62629
2.92402
9.50573
10.859
10.5491
9.9981
9.74249
9.69459
9.6993
9.70758
9.70527
9.69672
9.6795
9.66278
9.64846
9.63537
9.62215
9.6081
9.59299
9.57674
9.55929
9.54052
9.52032
9.49857
9.47515
9.44993
9.42281
9.39366
9.36237
9.32882
9.29286
9.25439
9.21328
9.16946
9.12285
9.07335
9.02086
8.96528
8.90655
8.84465
8.77953
8.71118
8.63963
8.56493
8.48718
8.40649
8.32312
8.23713
8.14886
8.05727
1.3942
4.48162
10.0352
10.3042
10.0235
9.73594
9.62807
9.61893
9.62433
9.63091
9.62984
9.62462
9.61329
9.60058
9.58912
9.57827
9.56691
9.55446
9.54074
9.52568
9.50927
9.49144
9.47211
9.45119
9.4286
9.40421
9.37793
9.34965
9.3193
9.28678
9.25198
9.21481
9.17516
9.13297
9.08814
9.04061
8.99028
8.93708
8.88101
8.82202
8.76013
8.69534
8.62767
8.55712
8.48376
8.40767
8.32907
8.24803
8.16489
8.0787
1.63152
2.94772
9.59303
10.8423
10.4983
9.90949
9.63598
9.59361
9.60391
9.62435
9.62593
9.62127
9.60887
9.59155
9.57662
9.5635
9.55028
9.53602
9.52045
9.50355
9.48543
9.46591
9.44502
9.42275
9.39905
9.37378
9.34679
9.31799
9.28725
9.25448
9.21967
9.18279
9.14375
9.10245
9.05881
9.01273
8.96416
8.91303
8.8593
8.80288
8.74377
8.68196
8.61749
8.55042
8.48083
8.40885
8.33458
8.25811
8.17966
8.09832
1.64176
3.07722
9.86593
10.7743
10.3918
9.77994
9.51802
9.49785
9.51517
9.54798
9.55744
9.55478
9.54642
9.53218
9.5197
9.50882
9.49775
9.48545
9.4717
9.45657
9.44021
9.42258
9.40345
9.3827
9.36023
9.33603
9.31008
9.28232
9.25271
9.2212
9.18773
9.1522
9.11453
9.07466
9.03251
8.98805
8.94121
8.89198
8.84031
8.78619
8.72963
8.67068
8.60935
8.54559
8.47949
8.41112
8.34057
8.26797
8.19352
8.11635
1.40435
4.54553
10.1039
10.1591
9.85337
9.54602
9.44647
9.45177
9.47115
9.49113
9.49686
9.49535
9.49031
9.48085
9.47151
9.46245
9.45268
9.44158
9.429
9.41497
9.39952
9.38261
9.36414
9.34406
9.32232
9.29891
9.27379
9.24691
9.2182
9.18762
9.15515
9.12075
9.08435
9.04589
9.00532
8.96259
8.91766
8.8705
8.82109
8.76941
8.71545
8.6592
8.60072
8.54007
8.47728
8.41241
8.34551
8.27664
8.20598
8.13272
1.3883
4.55526
10.0002
10.0252
9.78345
9.55125
9.46887
9.46623
9.47239
9.48181
9.48349
9.48142
9.47547
9.46544
9.45513
9.44472
9.43351
9.42112
9.40744
9.39246
9.3762
9.35862
9.33967
9.31928
9.2974
9.27398
9.24897
9.22233
9.19403
9.164
9.13217
9.09847
9.06285
9.02526
8.98567
8.94405
8.90034
8.85449
8.8066
8.75673
8.70483
8.65085
8.59478
8.53665
8.47649
8.41432
8.35024
8.28435
8.21682
8.14688
1.42145
4.5687
10.2122
10.1821
9.79818
9.46278
9.3696
9.38156
9.41277
9.43725
9.44417
9.4428
9.43819
9.42959
9.42063
9.41152
9.40155
9.39027
9.37752
9.36332
9.34769
9.33058
9.31201
9.29196
9.27041
9.24732
9.22266
9.1964
9.16853
9.139
9.10775
9.07474
9.03991
9.00328
8.96483
8.92454
8.88241
8.83844
8.79252
8.74457
8.69463
8.64275
8.58894
8.53322
8.47561
8.41616
8.35491
8.29194
8.22732
8.16026
1.53226
3.35202
9.88834
10.7066
10.3189
9.67664
9.39274
9.36691
9.38455
9.42042
9.43458
9.43355
9.4289
9.41912
9.40866
9.39866
9.38822
9.37657
9.36349
9.34897
9.33306
9.31579
9.29713
9.27703
9.25543
9.23232
9.20759
9.18124
9.15337
9.12388
9.09271
9.05984
9.02529
8.98906
8.9511
8.91142
8.86999
8.8268
8.78181
8.73503
8.68646
8.63616
8.584
8.53004
8.47436
8.41704
8.3581
8.29759
8.23562
8.17149
1.39667
4.53403
10.0658
10.0949
9.79184
9.46678
9.34479
9.34323
9.35464
9.3761
9.38492
9.38423
9.38072
9.37306
9.3641
9.35535
9.34616
9.3358
9.324
9.31075
9.29609
9.28002
9.26252
9.24355
9.22308
9.20107
9.17749
9.15235
9.12568
9.09743
9.0676
9.0362
9.00316
8.96843
8.93198
8.8938
8.85389
8.81224
8.76885
8.72372
8.67684
8.6282
8.57793
8.52604
8.47253
8.41743
8.36076
8.3026
8.24308
8.18164
1.39406
4.53114
10.0483
10.0819
9.77526
9.44741
9.3272
9.3275
9.34008
9.36283
9.37222
9.37134
9.36728
9.35869
9.34903
9.33954
9.32958
9.31847
9.30597
9.29208
9.27688
9.26037
9.24256
9.2234
9.20288
9.18097
9.15768
9.13299
9.10679
9.07902
9.04968
9.01873
8.9862
8.95212
8.91646
8.87923
8.84037
8.79989
8.75777
8.71401
8.66863
8.62162
8.57303
8.52286
8.47113
8.41787
8.36311
8.30689
8.24929
8.18984
1.53043
3.34003
9.84892
10.6875
10.3013
9.63684
9.333
9.29726
9.31381
9.34861
9.36382
9.36293
9.35836
9.34851
9.3377
9.32774
9.31769
9.30664
9.29421
9.28044
9.26533
9.24892
9.23119
9.2121
9.19163
9.16968
9.14641
9.1217
9.0955
9.0678
9.03859
9.00786
8.97563
8.94192
8.90671
8.86996
8.83169
8.79188
8.75053
8.70764
8.66321
8.61727
8.56982
8.52089
8.47048
8.41865
8.3654
8.3108
8.25496
8.19744
1.40808
4.54758
10.1182
10.0919
9.70655
9.35369
9.24351
9.25277
9.28205
9.31103
9.32063
9.31971
9.31582
9.30777
9.29912
9.29064
9.2816
9.27139
9.25982
9.2469
9.23268
9.21716
9.20035
9.18222
9.16273
9.14186
9.11962
9.09599
9.07092
9.0444
9.0164
8.98699
8.95612
8.92377
8.88993
8.85459
8.81775
8.77941
8.73959
8.69825
8.65537
8.61098
8.56509
8.51772
8.46891
8.41867
8.36701
8.31402
8.2598
8.20393
1.39302
4.55538
10.0073
9.98149
9.66854
9.38819
9.2997
9.30272
9.31489
9.3257
9.32624
9.32374
9.31714
9.30705
9.29702
9.2871
9.27658
9.26504
9.25234
9.23847
9.22344
9.20725
9.18989
9.17132
9.15153
9.13047
9.10814
9.08451
9.05957
9.0333
9.00569
8.9767
8.94628
8.91442
8.88111
8.84634
8.8101
8.7724
8.73324
8.69264
8.65062
8.60719
8.56232
8.51604
8.46836
8.41928
8.36888
8.31712
8.26405
8.20922
1.38506
4.54766
9.95858
9.94724
9.65865
9.38693
9.29466
9.29398
9.30013
9.30784
9.3079
9.30564
9.29949
9.28959
9.27966
9.26986
9.25951
9.24821
9.23582
9.22234
9.20776
9.19204
9.17514
9.15703
9.1377
9.11711
9.09526
9.07211
9.04766
9.02188
8.99475
8.96626
8.93638
8.90511
8.87245
8.83839
8.80295
8.7661
8.72783
8.68814
8.64703
8.60451
8.56057
8.51524
8.46857
8.4206
8.37129
8.32061
8.26859
8.21478
1.37715
4.50916
9.91901
10.0312
9.73094
9.40307
9.28183
9.2778
9.2864
9.29876
9.30086
9.29851
9.29182
9.28077
9.27006
9.25992
9.24944
9.23803
9.22551
9.21187
9.19711
9.18124
9.16423
9.14604
9.12667
9.1061
9.08429
9.06124
9.03693
9.01133
8.98444
8.95624
8.92671
8.89585
8.86364
8.83007
8.79514
8.75884
8.72117
8.68213
8.64172
8.59996
8.55686
8.51245
8.4667
8.41958
8.37115
8.32144
8.27051
8.21797
1.62612
2.96887
9.52129
10.6173
10.2729
9.64718
9.3377
9.27187
9.27943
9.29764
9.30508
9.30282
9.29528
9.28091
9.26772
9.2564
9.24554
9.234
9.22136
9.20758
9.19272
9.17678
9.15975
9.14159
9.12228
9.10178
9.08008
9.05714
9.03296
9.00752
8.9808
8.95278
8.92346
8.89281
8.86083
8.82752
8.79287
8.75688
8.71954
8.68086
8.64084
8.59949
8.55683
8.51286
8.46759
8.42105
8.3733
8.3244
8.2744
8.22301
1.63544
2.8536
9.48362
10.821
10.4147
9.67651
9.30936
9.23138
9.24194
9.2679
9.28255
9.28134
9.2752
9.26182
9.2477
9.23612
9.22569
9.21477
9.20269
9.18939
9.17495
9.15944
9.14285
9.12514
9.10628
9.08626
9.06504
9.04261
9.01896
8.99406
8.96791
8.94048
8.91176
8.88175
8.85043
8.81779
8.78384
8.74856
8.71195
8.67402
8.63477
8.59421
8.55233
8.50914
8.46466
8.41892
8.37197
8.32384
8.27462
8.22405
1.62648
2.962
9.50593
10.6079
10.2634
9.63108
9.31352
9.24588
9.25426
9.27487
9.28504
9.28316
9.27611
9.2617
9.24784
9.23613
9.22517
9.21368
9.20111
9.18742
9.17267
9.15691
9.14011
9.12224
9.10328
9.08318
9.06194
9.03953
9.01592
8.99111
8.96506
8.93778
8.90924
8.87942
8.84833
8.81595
8.78227
8.74729
8.711
8.67341
8.63451
8.59432
8.55283
8.51006
8.46602
8.42073
8.3742
8.32646
8.27757
8.22714
1.37412
4.5058
9.89961
10.0116
9.70713
9.36504
9.23636
9.23192
9.24144
9.25599
9.25912
9.25689
9.25039
9.23942
9.22882
9.21888
9.20869
9.19764
9.18552
9.17234
9.15812
9.14288
9.1266
9.10924
9.09078
9.0712
9.05048
9.02859
9.00552
8.98124
8.95575
8.92903
8.90105
8.87182
8.84131
8.80952
8.77643
8.74206
8.70638
8.6694
8.63111
8.59152
8.55063
8.50846
8.46501
8.42029
8.37432
8.32709
8.27859
8.22834
1.3799
4.54105
9.92414
9.9067
9.60692
9.32987
9.24199
9.24429
9.25499
9.26496
9.2652
9.26261
9.25567
9.24483
9.23422
9.22395
9.21325
9.20166
9.18906
9.17547
9.16089
9.1453
9.1287
9.11104
9.0923
9.07247
9.05152
9.02942
9.00617
8.98174
8.95611
8.92927
8.90121
8.8719
8.84135
8.80954
8.77645
8.74209
8.70646
8.66954
8.63133
8.59185
8.55109
8.50906
8.46578
8.42126
8.3755
8.32853
8.28035
8.23065
1.40409
4.5623
10.0546
9.9872
9.59194
9.27589
9.19307
9.20468
9.2344
9.25481
9.25737
9.25472
9.2477
9.23732
9.22737
9.21768
9.20742
9.19615
9.18381
9.17046
9.1561
9.14073
9.12432
9.10687
9.08833
9.06869
9.04794
9.02604
9.00298
8.97874
8.95331
8.92667
8.8988
8.86969
8.83934
8.80772
8.77483
8.74067
8.70522
8.6685
8.63049
8.5912
8.55063
8.5088
8.46571
8.42138
8.37583
8.32907
8.28117
8.23189
3.04394
2.45847
3.0035
4.18035
4.12641
4.10974
4.04891
4.01123
3.99832
4.00105
4.02864
4.07222
4.1093
4.14001
4.17399
4.21671
4.26837
4.32644
4.38808
4.45098
4.5134
4.57414
4.6327
4.68964
4.74061
4.78597
4.82564
4.86007
4.88919
4.91323
4.93219
4.94628
4.95559
4.96037
4.96077
4.95915
4.95382
4.94253
4.92709
4.90931
4.88929
4.86695
4.84243
4.81598
4.78787
4.75838
4.72776
4.69625
4.66407
4.63147
4.59864
4.56581
4.53317
4.50093
4.46928
4.43843
4.40858
4.37992
4.35264
4.32695
4.30304
4.2811
4.2613
4.24382
4.22881
4.2164
4.20666
4.19965
4.19533
4.19375
4.19395
4.19498
4.1979
4.2044
4.21604
4.22901
4.24232
4.25583
4.26938
4.28268
4.29538
4.30715
4.31775
4.32697
4.33471
4.34092
4.3456
4.34879
4.35059
4.35118
4.3511
4.35072
4.34966
4.34733
4.34336
4.33897
4.33445
4.32975
4.32473
4.32034
4.09635
3.55418
3.7567
4.23483
4.15216
4.09556
4.0363
3.99592
3.98424
3.99643
4.03751
4.08791
4.11968
4.14162
4.17066
4.21158
4.26286
4.32087
4.38239
4.44519
4.50752
4.5684
4.62723
4.68391
4.73496
4.78032
4.82012
4.85467
4.88393
4.9081
4.92718
4.94137
4.95076
4.95555
4.95578
4.9546
4.95034
4.94034
4.92337
4.90498
4.88512
4.86311
4.83884
4.81255
4.78457
4.75519
4.72467
4.69327
4.66121
4.6287
4.59597
4.56322
4.53066
4.49849
4.4669
4.43611
4.4063
4.37768
4.35044
4.32478
4.30089
4.27897
4.25919
4.24173
4.22675
4.21438
4.20471
4.19779
4.19369
4.19261
4.19288
4.19399
4.19693
4.20332
4.21502
4.22829
4.24196
4.25575
4.26951
4.28297
4.29581
4.30771
4.31839
4.32768
4.33546
4.34167
4.34633
4.34947
4.35123
4.35173
4.35163
4.35124
4.35019
4.3479
4.34382
4.33929
4.33469
4.33007
4.32529
4.32252
5.22579
4.46472
4.23643
4.2682
4.24897
4.1965
4.11449
4.06151
4.04143
4.04389
4.05636
4.08557
4.12085
4.15226
4.18536
4.22602
4.27499
4.33055
4.38993
4.45086
4.51162
4.57108
4.62839
4.68292
4.73312
4.77798
4.81735
4.85143
4.88026
4.90401
4.92273
4.93656
4.94559
4.94996
4.94988
4.9488
4.94515
4.93653
4.91925
4.89987
4.8794
4.85728
4.83313
4.807
4.77914
4.74987
4.71946
4.68817
4.65622
4.62383
4.59122
4.55859
4.52613
4.49406
4.46258
4.43188
4.40216
4.37362
4.34646
4.32087
4.29706
4.27521
4.25551
4.23814
4.22325
4.21101
4.2015
4.19486
4.19119
4.19077
4.19111
4.19235
4.19543
4.20201
4.21364
4.22716
4.24133
4.25566
4.26987
4.28369
4.29681
4.30893
4.31978
4.32917
4.337
4.34321
4.34781
4.35086
4.35253
4.35281
4.35269
4.35223
4.35109
4.34866
4.34448
4.33981
4.33509
4.33053
4.32594
4.32491
5.82923
5.09615
4.66357
4.46698
4.42819
4.3624
4.27018
4.18981
4.13795
4.1176
4.1199
4.13095
4.1571
4.19409
4.22762
4.2625
4.30337
4.35111
4.40417
4.46025
4.5173
4.57384
4.62862
4.68094
4.72937
4.77313
4.81172
4.84504
4.87318
4.89632
4.91449
4.9278
4.93636
4.94016
4.93999
4.93886
4.93549
4.92771
4.91183
4.89173
4.87038
4.84782
4.82366
4.79773
4.77014
4.74114
4.71099
4.67995
4.64826
4.61613
4.58376
4.55136
4.51914
4.4873
4.45603
4.42554
4.39602
4.36768
4.34071
4.31532
4.29169
4.27002
4.2505
4.23331
4.21864
4.20662
4.1974
4.19118
4.18816
4.18821
4.18871
4.19022
4.1937
4.20088
4.21228
4.22585
4.24049
4.25548
4.27032
4.28464
4.29814
4.31052
4.32154
4.33104
4.33891
4.3451
4.34963
4.3526
4.35409
4.35409
4.35392
4.35336
4.35202
4.34924
4.34505
4.34034
4.33551
4.33099
4.32663
4.32672
6.23223
5.59724
5.12271
4.83354
4.68474
4.57185
4.46049
4.359
4.28151
4.234
4.21419
4.21513
4.22143
4.23784
4.27035
4.30313
4.33941
4.38071
4.42685
4.4766
4.52842
4.58072
4.63207
4.68132
4.72744
4.76946
4.80679
4.83895
4.86611
4.88841
4.90578
4.91836
4.92628
4.92931
4.92905
4.9278
4.92444
4.917
4.90195
4.8822
4.86041
4.8373
4.81284
4.78691
4.75953
4.73082
4.70098
4.67026
4.63888
4.60705
4.57499
4.54289
4.51097
4.47942
4.44845
4.41826
4.38904
4.36099
4.33431
4.30921
4.28587
4.26449
4.24527
4.22839
4.21404
4.20238
4.19363
4.18791
4.18565
4.18581
4.18654
4.18844
4.19252
4.20063
4.21176
4.22521
4.24011
4.25563
4.27106
4.2859
4.29978
4.31241
4.32359
4.33316
4.34104
4.34718
4.35163
4.35447
4.35564
4.35558
4.35527
4.35448
4.35277
4.34962
4.34547
4.34076
4.33588
4.33136
4.32737
4.32767
6.53929
6.0042
5.54959
5.20583
4.97286
4.80648
4.66943
4.55021
4.45214
4.38004
4.33475
4.31286
4.31271
4.3159
4.32658
4.34974
4.38209
4.41808
4.45686
4.49877
4.54342
4.58969
4.6361
4.68138
4.72437
4.76407
4.79965
4.83058
4.85668
4.87804
4.89449
4.90631
4.91356
4.9158
4.91547
4.91411
4.91067
4.90326
4.88866
4.86974
4.84808
4.82464
4.79985
4.77383
4.74658
4.71818
4.68874
4.65843
4.62747
4.59606
4.56441
4.53272
4.50122
4.47009
4.43954
4.40977
4.38098
4.35336
4.32712
4.30245
4.27956
4.25863
4.23986
4.2234
4.20954
4.19842
4.19023
4.18505
4.18361
4.18386
4.18482
4.18715
4.19202
4.20071
4.21197
4.22537
4.24032
4.25606
4.27184
4.28704
4.30122
4.31405
4.32533
4.33493
4.34278
4.34888
4.35325
4.35593
4.35675
4.35664
4.35621
4.35519
4.35307
4.3497
4.34549
4.34077
4.33588
4.3314
4.32768
4.32809
6.78351
6.33299
5.91541
5.55633
5.27576
5.06404
4.89633
4.75639
4.63931
4.54584
4.47717
4.43243
4.40896
4.40316
4.40479
4.41149
4.42727
4.45572
4.48751
4.52276
4.56077
4.60063
4.64133
4.68188
4.72116
4.75804
4.79154
4.82095
4.84589
4.86623
4.8819
4.89296
4.89948
4.90094
4.90054
4.89907
4.89545
4.88782
4.87368
4.85544
4.83417
4.81076
4.78583
4.75974
4.73259
4.70446
4.67542
4.64557
4.6151
4.58418
4.55302
4.52184
4.49084
4.46023
4.43021
4.40098
4.37273
4.34567
4.32
4.2959
4.27359
4.25326
4.23508
4.21931
4.20604
4.1955
4.1879
4.18333
4.18272
4.18306
4.18423
4.18697
4.19265
4.20188
4.21339
4.22676
4.24157
4.25723
4.27301
4.28828
4.30255
4.31545
4.32676
4.33636
4.34417
4.3502
4.35444
4.35697
4.35747
4.35732
4.35681