/*--------------------------------*- C++ -*----------------------------------*\
| =========                 |                                                 |
| \\      /  F ield         | OpenFOAM: The Open Source CFD Toolbox           |
|  \\    /   O peration     | Version:  2412                                  |
|   \\  /    A nd           | Website:  www.openfoam.com                      |
|    \\/     M anipulation  |                                                 |
\*---------------------------------------------------------------------------*/
FoamFile
{
    version     2.0;
    format      ascii;
    arch        "LSB;label=32;scalar=64";
    class       surfaceScalarField;
    location    "21";
    object      phi;
}
// * * * * * * * * * * * * * * * * * * * * * * * * * * * * * * * * * * * * * //

dimensions      [1 0 -1 0 0 0 0];

oriented        oriented;

internalField   nonuniform List<scalar> 
13790
(
0.00292374
-1.97137e-07
0.00274462
9.30876e-07
0.002804
3.25338e-06
0.00280526
5.58877e-06
0.00279923
6.47568e-06
0.00279209
7.16749e-06
0.00278413
7.96016e-06
0.00277522
8.9102e-06
0.00276523
9.99786e-06
0.00275398
1.12423e-05
0.00274141
1.25743e-05
0.00272745
1.39556e-05
0.00271207
1.53883e-05
0.00269518
1.68895e-05
0.00267671
1.84717e-05
0.00265656
2.01407e-05
0.00263466
2.18998e-05
0.00261091
2.37533e-05
0.0025852
2.57073e-05
0.00255743
2.77694e-05
0.00252749
2.99476e-05
0.00249523
3.22506e-05
0.00246055
3.46877e-05
0.00242328
3.72687e-05
0.00238327
4.0004e-05
0.00234037
4.29044e-05
0.00229439
4.59809e-05
0.00224514
4.92444e-05
0.00219244
5.27058e-05
0.00213606
5.63748e-05
0.0020758
6.02608e-05
0.00201143
6.43702e-05
0.00194272
6.87083e-05
0.00186945
7.32749e-05
0.00179138
7.80682e-05
0.0017083
8.30759e-05
0.00162002
8.82839e-05
0.00152635
9.36616e-05
0.00142718
9.91764e-05
0.00132241
0.000104772
0.00121201
0.000110391
0.00109607
0.000115946
0.000974712
0.000121356
0.000848212
0.000126499
0.000716919
0.000131293
0.000581311
0.000135608
0.000441837
0.000139474
0.000299163
0.000142674
0.000152278
0.000146884
0.000152277
0.00303217
2.04204e-08
0.00284629
8.42464e-07
0.00290648
8.61628e-06
0.0029078
1.12906e-05
0.00290193
1.28132e-05
0.00289475
1.43802e-05
0.00288656
1.61532e-05
0.00287731
1.81557e-05
0.00286692
2.03954e-05
0.00285525
2.29112e-05
0.00284222
2.56034e-05
0.00282777
2.84085e-05
0.00281183
3.13272e-05
0.00279433
3.43875e-05
0.00277519
3.76109e-05
0.00275432
4.10103e-05
0.00273163
4.45919e-05
0.00270702
4.83666e-05
0.00268038
5.23455e-05
0.0026516
5.65451e-05
0.00262057
6.09803e-05
0.00258715
6.56704e-05
0.0025512
7.06328e-05
0.00251258
7.58892e-05
0.00247113
8.14591e-05
0.00242667
8.73663e-05
0.00237901
9.36317e-05
0.00232798
0.000100279
0.00227336
0.000107329
0.00221493
0.000114804
0.00215247
0.000122721
0.00208574
0.000131095
0.00201451
0.000139937
0.00193854
0.000149246
0.00185758
0.000159022
0.00177142
0.000169236
0.00167984
0.000179867
0.00158266
0.000190846
0.00147972
0.000202115
0.00137093
0.000213555
0.00125627
0.000225056
0.00113578
0.000236433
0.00100961
0.000247528
0.000878012
0.000258097
0.00074136
0.000267945
0.000600113
0.000276855
0.000454843
0.000284743
0.000306089
0.000291428
0.0001542
0.000298772
0.000306477
0.00314487
9.21425e-08
0.00295181
1.21233e-06
0.00301443
1.38892e-05
0.00301571
1.72783e-05
0.00300971
1.92985e-05
0.0030024
2.17262e-05
0.00299398
2.45762e-05
0.00298443
2.77075e-05
0.00297367
3.11604e-05
0.00296158
3.49936e-05
0.0029481
3.90855e-05
0.00293315
4.33561e-05
0.00291667
4.78158e-05
0.00289856
5.24901e-05
0.00287876
5.74177e-05
0.00285716
6.26055e-05
0.00283367
6.8078e-05
0.0028082
7.38371e-05
0.00278063
7.99166e-05
0.00275085
8.63233e-05
0.00271873
9.31e-05
0.00268415
0.000100254
0.00264695
0.000107837
0.00260698
0.000115854
0.00256407
0.000124365
0.00251806
0.000133376
0.00246874
0.000142951
0.00241593
0.000153092
0.00235939
0.000163869
0.00229892
0.000175276
0.00223426
0.000187382
0.00216519
0.000200166
0.00209143
0.000213693
0.00201276
0.000227916
0.0019289
0.000242878
0.00183964
0.000258503
0.00174472
0.000274785
0.00164396
0.000291606
0.00153719
0.000308884
0.00142429
0.000326449
0.00130525
0.000344102
0.00118005
0.000361633
0.00104889
0.000378681
0.000911945
0.000395045
0.000769667
0.000410223
0.000622493
0.000424028
0.000471054
0.000436183
0.000316166
0.000446316
0.000158593
0.000456344
0.000465069
0.0032618
1.16175e-07
0.00306156
1.66976e-06
0.00312674
1.90915e-05
0.00312807
2.34704e-05
0.00312189
2.59912e-05
0.00311441
2.92435e-05
0.00310578
3.32072e-05
0.00309595
3.7542e-05
0.00308483
4.22783e-05
0.00307235
4.7477e-05
0.00305843
5.30042e-05
0.00304299
5.87899e-05
0.00302597
6.4838e-05
0.00300727
7.11893e-05
0.00298682
7.78743e-05
0.0029645
8.49198e-05
0.00294024
9.23388e-05
0.00291392
0.000100159
0.00288544
0.000108399
0.00285466
0.000117099
0.00282148
0.000126281
0.00278574
0.000135997
0.0027473
0.000146268
0.002706
0.000157159
0.00266168
0.000168686
0.00261413
0.000180928
0.00256318
0.000193895
0.00250859
0.000207679
0.00245019
0.000222274
0.00238768
0.000237787
0.00232088
0.000254184
0.00224946
0.000271585
0.00217324
0.000289913
0.00209186
0.000309293
0.00200515
0.000329582
0.00191276
0.000350899
0.00181453
0.000373009
0.00171014
0.000395995
0.00159952
0.000419511
0.00148242
0.00044355
0.00135884
0.000467673
0.0012288
0.000491674
0.00109236
0.000515119
0.000949928
0.00053748
0.000801616
0.000558536
0.000648239
0.000577405
0.000490306
0.000594116
0.00032867
0.000607951
0.00016476
0.000620253
0.000629829
0.00338304
1.39597e-07
0.00317539
2.15914e-06
0.00324315
2.43205e-05
0.0032446
2.97944e-05
0.00323828
3.28578e-05
0.00323062
3.69405e-05
0.00322181
4.20182e-05
0.0032117
4.76475e-05
0.00320026
5.37273e-05
0.0031874
6.03358e-05
0.00317307
6.73374e-05
0.00315717
7.46885e-05
0.00313963
8.23736e-05
0.00312036
9.04617e-05
0.00309927
9.89591e-05
0.00307627
0.000107927
0.00305125
0.000117352
0.00302411
0.000127302
0.00299474
0.000137768
0.002963
0.000148836
0.00292879
0.000160498
0.00289193
0.000172855
0.00285229
0.000185902
0.0028097
0.000199749
0.00276399
0.000214396
0.00271496
0.000229958
0.00266241
0.000246443
0.00260613
0.000263962
0.00254587
0.000282531
0.00248141
0.000302245
0.00241247
0.000323131
0.00233881
0.000345245
0.00226009
0.000368626
0.00217612
0.00039326
0.00208651
0.000419196
0.00199111
0.000446304
0.00188947
0.000474645
0.00178156
0.000503902
0.00166692
0.000534152
0.00154565
0.000564817
0.00141736
0.000595964
0.00128231
0.000626727
0.0011404
0.000657032
0.000991917
0.000685958
0.000837464
0.000712988
0.000677147
0.000737722
0.000512231
0.000759032
0.000343477
0.000776704
0.000172035
0.000791694
0.000801864
0.0035088
1.63314e-07
0.00329346
2.65492e-06
0.0033639
2.95936e-05
0.00336552
3.62213e-05
0.00335906
3.98849e-05
0.00335124
4.48001e-05
0.0033422
5.10698e-05
0.00333189
5.79537e-05
0.00332017
6.54458e-05
0.00330698
7.35248e-05
0.00329225
8.20734e-05
0.00327591
9.10201e-05
0.00325787
0.000100414
0.00323806
0.000110272
0.00321636
0.000120666
0.0031927
0.000131588
0.00316694
0.000143111
0.00313902
0.000155221
0.00310877
0.000168016
0.00307613
0.00018148
0.00304089
0.000195737
0.00300298
0.000210764
0.00296216
0.000226714
0.00291836
0.000243551
0.0028713
0.000261459
0.00282087
0.000280383
0.00276677
0.000300542
0.00270888
0.000321855
0.00264684
0.000344567
0.00258052
0.000368572
0.00250952
0.000394125
0.00243368
0.000421091
0.00235259
0.000449707
0.00226605
0.000479809
0.00217367
0.00051157
0.00207518
0.000544797
0.00197029
0.000579528
0.00185865
0.000615542
0.00174017
0.000652637
0.00161439
0.00069059
0.00148155
0.000728811
0.00134108
0.000767188
0.00119357
0.000804544
0.00103875
0.000840775
0.000877304
0.000874439
0.000709977
0.000905048
0.000537036
0.000931973
0.000360124
0.000953616
0.000180623
0.000971194
0.000982487
0.00363924
1.87372e-07
0.00341591
3.15249e-06
0.00348917
3.49058e-05
0.00349097
4.27257e-05
0.00348444
4.70228e-05
0.00347648
5.27995e-05
0.00346729
6.0269e-05
0.00345676
6.84833e-05
0.00344478
7.74206e-05
0.00343128
8.70325e-05
0.00341619
9.71641e-05
0.00339943
0.000107775
0.00338093
0.000118912
0.00336059
0.000130617
0.00333832
0.000142939
0.003314
0.000155904
0.00328756
0.000169553
0.00325885
0.000183924
0.0032278
0.000199068
0.00319424
0.000215044
0.00315807
0.000231909
0.00311909
0.000249741
0.00307721
0.000268597
0.00303217
0.000288582
0.00298389
0.000309744
0.00293205
0.000332219
0.00287656
0.000356032
0.00281705
0.000381364
0.00275342
0.000408195
0.00268524
0.000436753
0.00261241
0.000466959
0.00253442
0.000499081
0.00245117
0.000532954
0.00236211
0.000568866
0.00226713
0.000606551
0.00216567
0.000646253
0.00205759
0.000687611
0.0019424
0.000730729
0.0018199
0.000775137
0.00168982
0.000820676
0.00155184
0.000866783
0.00140622
0.000912816
0.00125242
0.000958341
0.00109119
0.001002
0.000922296
0.00104334
0.000746702
0.00108064
0.000565541
0.00111313
0.000379441
0.00113971
0.000190151
0.00116048
0.00117264
0.00377454
2.11581e-07
0.00354291
3.64916e-06
0.00361911
4.02403e-05
0.00362115
4.92786e-05
0.00361459
5.42324e-05
0.00360653
6.08999e-05
0.00359721
6.9587e-05
0.00358651
7.91824e-05
0.00357432
8.96183e-05
0.00356054
0.000100808
0.00354513
0.000112576
0.003528
0.000124901
0.00350908
0.000137836
0.00348826
0.000151439
0.00346545
0.00016575
0.00344054
0.000180807
0.00341345
0.00019665
0.00338404
0.000213327
0.00335221
0.000230898
0.00331783
0.000249428
0.00328074
0.000268991
0.00324082
0.000289665
0.00319788
0.000311537
0.00315176
0.000334698
0.00310225
0.000359252
0.00304918
0.00038529
0.00299228
0.000412939
0.00293136
0.00044228
0.00286609
0.000473466
0.0027963
0.000506546
0.00272155
0.000541704
0.00264171
0.000578922
0.00255623
0.000618433
0.002465
0.00066009
0.00236738
0.000704173
0.00226328
0.000750352
0.00215201
0.000798886
0.00203348
0.000849253
0.00190706
0.00090156
0.00177263
0.000955105
0.00162979
0.00100963
0.00147828
0.00106432
0.00131843
0.0011182
0.00114975
0.00117067
0.00097323
0.00121986
0.000788855
0.00126502
0.000597624
0.00130436
0.000401354
0.00133598
0.000201559
0.00136028
0.0013742
0.00391488
2.35807e-07
0.00367461
4.14165e-06
0.00375393
4.5567e-05
0.00375625
5.58418e-05
0.00374969
6.14757e-05
0.00374158
6.90539e-05
0.00373216
7.90082e-05
0.00372136
8.99878e-05
0.003709
0.000101975
0.00369501
0.000114801
0.00367932
0.000128263
0.00366187
0.000142352
0.00364257
0.000157141
0.00362131
0.000172692
0.00359801
0.00018905
0.00357257
0.000206251
0.00354488
0.000224343
0.00351482
0.000243381
0.00348229
0.000263434
0.00344714
0.000284575
0.00340924
0.00030689
0.00336843
0.000330469
0.00332456
0.000355412
0.00327743
0.000381824
0.00322686
0.000409819
0.00317264
0.000439519
0.00311453
0.000471044
0.00305228
0.000504532
0.00298564
0.0005401
0.00291429
0.000577898
0.00283797
0.000618022
0.00275626
0.000660634
0.00266893
0.000705762
0.00257542
0.000753595
0.00247558
0.000804011
0.00236869
0.000857242
0.00225467
0.000912905
0.00213267
0.000971258
0.00200268
0.00103154
0.00186383
0.00109396
0.00171615
0.0011573
0.00155903
0.00122144
0.00139232
0.00128491
0.00121645
0.00134655
0.00103081
0.00140549
0.000836922
0.00145891
0.000635286
0.001506
0.000427026
0.00154424
0.000214246
0.00157306
0.00158844
0.00406045
2.59699e-07
0.00381121
4.62596e-06
0.00389382
5.0839e-05
0.00389648
6.23643e-05
0.00388999
6.8692e-05
0.00388188
7.721e-05
0.00387246
8.84265e-05
0.00386158
0.000100873
0.00384911
0.000114449
0.00383495
0.000128958
0.00381905
0.000144162
0.00380133
0.000160074
0.0037817
0.000176767
0.00376007
0.000194323
0.00373635
0.000212774
0.00371042
0.000232175
0.0036822
0.000252563
0.00365157
0.000274017
0.00361841
0.000296595
0.00358258
0.000320403
0.00354395
0.000345515
0.00350237
0.000372055
0.00345767
0.000400113
0.00340965
0.000429835
0.00335815
0.000461325
0.00330292
0.000494747
0.00324375
0.000530216
0.00318037
0.000567913
0.00311251
0.000607958
0.00303987
0.000650539
0.00296212
0.000695772
0.00287891
0.000743837
0.00278985
0.000794826
0.00269456
0.00084888
0.00259253
0.000906044
0.00248342
0.000966353
0.00236653
0.00102979
0.00224164
0.00109615
0.00210784
0.00116535
0.00196508
0.00123672
0.00181227
0.00131011
0.0016496
0.00138411
0.00147609
0.00145841
0.00129191
0.00153073
0.00109757
0.00159983
0.00089241
0.00166407
0.000678315
0.0017201
0.000456721
0.00176584
0.000229856
0.00179992
0.0018183
0.00421145
2.8303e-07
0.00395287
5.09612e-06
0.00403899
5.5994e-05
0.00404205
6.87818e-05
0.00403568
7.58372e-05
0.00402765
8.52954e-05
0.00401824
9.78394e-05
0.00400739
0.000111716
0.0039949
0.000126938
0.00398067
0.000143197
0.00396461
0.000160213
0.00394669
0.000177994
0.00392681
0.000196651
0.00390488
0.000216253
0.0038808
0.000236858
0.00385447
0.000258496
0.0038258
0.000281236
0.00379468
0.000305138
0.00376098
0.000330298
0.00372458
0.0003568
0.00368533
0.000384763
0.0036431
0.00041429
0.00359769
0.000445518
0.00354895
0.000478576
0.00349666
0.000513616
0.00344061
0.000550791
0.00338057
0.000590264
0.00331626
0.000632213
0.00324742
0.000676804
0.00317372
0.000724234
0.00309483
0.00077466
0.00301038
0.000828289
0.00291997
0.000885243
0.00282313
0.000945718
0.00271941
0.00100976
0.00260825
0.00107752
0.00248915
0.00114889
0.00236139
0.0012239
0.00222451
0.00130222
0.00207761
0.00138362
0.00192037
0.00146735
0.00175169
0.00155279
0.00157159
0.00163851
0.00137894
0.00172338
0.00117402
0.00180475
0.000957734
0.00188035
0.000729836
0.00194799
0.000492305
0.00200337
0.00024751
0.00204471
0.00206581
0.00436808
3.04063e-07
0.0040998
5.54685e-06
0.00418966
6.09328e-05
0.00419322
7.50164e-05
0.00418705
8.28332e-05
0.00417918
9.32173e-05
0.00416996
0.00010707
0.00415919
0.000122483
0.00414673
0.000139395
0.00413248
0.000157454
0.00411636
0.000176325
0.00409831
0.000196044
0.00407826
0.000216704
0.0040561
0.000238418
0.00403175
0.000261204
0.0040051
0.000285141
0.00397609
0.000310252
0.00394457
0.00033666
0.00391045
0.000364412
0.00387359
0.000393665
0.00383387
0.000424481
0.00379111
0.000457049
0.00374518
0.000491445
0.00369586
0.000527893
0.003643
0.000566478
0.00358633
0.00060746
0.00352566
0.000650937
0.00346067
0.000697195
0.00339114
0.000746343
0.00331668
0.00079869
0.00323699
0.000854346
0.00315165
0.000913628
0.00306026
0.000976638
0.00296231
0.00104366
0.0028573
0.00111478
0.00274466
0.00119016
0.00262368
0.00126987
0.00249378
0.0013538
0.00235402
0.00144199
0.00220382
0.00153381
0.00204199
0.00162918
0.00186808
0.0017267
0.00168079
0.0018258
0.00147993
0.00192424
0.00126437
0.0020203
0.00103402
0.0021107
0.000790448
0.00219157
0.000534731
0.00225908
0.000270105
0.00230934
0.00233591
0.00453055
3.17417e-07
0.00425218
5.98216e-06
0.00434609
6.55077e-05
0.00435022
8.09946e-05
0.0043443
8.96379e-05
0.00433675
0.000100825
0.00432774
0.000116077
0.0043172
0.00013302
0.00430492
0.000151684
0.00429076
0.000171615
0.00427466
0.000192423
0.00425658
0.000214122
0.00423643
0.000236851
0.00421415
0.000260706
0.00418961
0.000285736
0.00416277
0.000311986
0.00413349
0.000339526
0.00410171
0.000368441
0.00406729
0.000398837
0.00403012
0.000430827
0.00399006
0.000464546
0.00394698
0.000500131
0.00390068
0.000537742
0.00385103
0.000577543
0.00379778
0.000619722
0.00374078
0.000664467
0.00367972
0.000711996
0.0036144
0.000762516
0.00354446
0.000816279
0.00346965
0.0008735
0.00338953
0.000934465
0.00330378
0.000999378
0.00321186
0.00106856
0.00311336
0.00114216
0.00300761
0.00122053
0.00289407
0.00130369
0.00277194
0.001392
0.00264046
0.00148527
0.00249873
0.00158373
0.00234564
0.0016869
0.00218032
0.0017945
0.00200114
0.00190588
0.00180748
0.00201946
0.00159749
0.00213423
0.00137095
0.00224685
0.00112699
0.00235466
0.0008652
0.00245336
0.000587464
0.00253682
0.000296633
0.00260017
0.00263254
0.0046991
3.27042e-07
0.0044102
6.38578e-06
0.00450837
6.96876e-05
0.00451324
8.65554e-05
0.00450779
9.60217e-05
0.00450068
0.000108007
0.00449208
0.000124687
0.00448186
0.000143229
0.00446984
0.000163706
0.00445587
0.000185593
0.0044399
0.00020839
0.00442188
0.000232139
0.00440176
0.000256976
0.00437943
0.000283031
0.00435484
0.000310324
0.00432789
0.000338939
0.00429851
0.000368909
0.00426657
0.000400372
0.00423202
0.000433396
0.00419468
0.000468159
0.00415448
0.000504747
0.00411123
0.000543377
0.00406482
0.000584153
0.00401503
0.000627332
0.00396172
0.000673039
0.00390462
0.000721566
0.00384354
0.000773071
0.00377819
0.000827871
0.0037083
0.000886166
0.00363352
0.000948281
0.0035535
0.00101448
0.00346782
0.00108506
0.00337602
0.00116036
0.00327755
0.00124062
0.00317182
0.00132625
0.00305813
0.00141739
0.00293569
0.00151444
0.00280354
0.00161742
0.00266072
0.00172655
0.00250588
0.00184173
0.00233777
0.00196261
0.00215487
0.00208878
0.00195515
0.00221918
0.00173735
0.00235202
0.00149874
0.00248546
0.00123861
0.00261479
0.000956593
0.00273537
0.000653277
0.00284013
0.000332523
0.00292092
0.00296506
0.00487393
3.4649e-07
0.00457409
6.70875e-06
0.00467665
7.35488e-05
0.00468249
9.14391e-05
0.00467793
0.000101614
0.00467136
0.000114652
0.00466331
0.00013273
0.00465359
0.000152948
0.00464193
0.000175371
0.00462826
0.000199266
0.00461253
0.000224119
0.00459469
0.000249974
0.00457469
0.000276978
0.00455246
0.000305266
0.00452792
0.000334865
0.004501
0.000365852
0.00447163
0.000398281
0.00443972
0.000432278
0.00440517
0.000467949
0.00436788
0.000505445
0.00432771
0.000544916
0.00428457
0.000586524
0.00423824
0.000630476
0.00418864
0.000676935
0.0041355
0.00072618
0.0040787
0.000778364
0.00401792
0.000833854
0.00395301
0.00089278
0.00388356
0.000955616
0.00380938
0.00102246
0.00372997
0.00109389
0.00364506
0.00116997
0.00355402
0.0012514
0.00345644
0.00133821
0.00335158
0.00143111
0.00323876
0.00153021
0.0031171
0.0016361
0.00298553
0.00174899
0.0028429
0.00186917
0.00268774
0.00199689
0.00251833
0.00213202
0.00233275
0.00227436
0.0021288
0.00242313
0.00190366
0.00257717
0.00165515
0.00273397
0.00137939
0.00289055
0.00107443
0.00304033
0.000739554
0.00317501
0.000377701
0.00328278
0.00334276
0.00505529
3.61138e-07
0.00474407
6.97085e-06
0.00485156
7.66986e-05
0.00485854
9.54989e-05
0.00485493
0.000106343
0.0048492
0.00012046
0.00484188
0.000140051
0.00483282
0.000162013
0.00482172
0.000186471
0.00480851
0.000212478
0.00479313
0.000239494
0.0047756
0.000267508
0.00475583
0.000296744
0.00473381
0.000327285
0.00470944
0.000359234
0.00468271
0.000392586
0.00465349
0.000427498
0.00462177
0.000463997
0.0045874
0.000502315
0.00455036
0.000542493
0.00451045
0.000584821
0.00446763
0.000629344
0.00442169
0.000676412
0.00437255
0.000726083
0.00431996
0.000778765
0.00426379
0.000834537
0.00420378
0.000893859
0.0041397
0.000956855
0.0040713
0.00102401
0.00399821
0.00109555
0.00392017
0.00117193
0.00383663
0.00125352
0.00374729
0.00134073
0.00365139
0.00143411
0.00354853
0.00153396
0.00343769
0.00164106
0.00331819
0.0017556
0.00318875
0.00187843
0.00304813
0.00200979
0.00289471
0.00215032
0.00272642
0.00230032
0.00254076
0.00246001
0.00233473
0.00262916
0.00210496
0.00280694
0.00184635
0.00299258
0.00155517
0.00318172
0.00122623
0.00336928
0.000855751
0.00354549
0.000444113
0.00369441
0.00378688
0.00524338
3.69327e-07
0.0049204
7.14407e-06
0.00503329
7.88404e-05
0.00504174
9.8407e-05
0.00503938
0.000109923
0.00503477
0.000125153
0.00502841
0.000146417
0.00502019
0.000170228
0.00500983
0.000196831
0.0049972
0.000225106
0.00498232
0.000254382
0.00496518
0.000284639
0.00494578
0.000316144
0.00492409
0.000348979
0.00490005
0.000383274
0.00487362
0.000419019
0.00484475
0.000456367
0.00481337
0.000495377
0.00477942
0.00053626
0.0047428
0.000579114
0.00470344
0.000624178
0.00466119
0.000671596
0.00461598
0.000721622
0.0045676
0.000774465
0.00451597
0.000830387
0.00446083
0.000889679
0.00440209
0.000952604
0.00433939
0.00101955
0.00427261
0.00109079
0.00420134
0.00116682
0.00412535
0.00124792
0.00404416
0.00133471
0.00395736
0.00142752
0.00386443
0.00152703
0.00376465
0.00163375
0.0036574
0.0017483
0.00354152
0.00187149
0.00341615
0.00200379
0.00327961
0.00214633
0.00313028
0.00229964
0.00296607
0.00246452
0.00278389
0.00264219
0.00258004
0.00283301
0.00235068
0.00303629
0.00208923
0.00325403
0.00178648
0.00348448
0.00143337
0.00372239
0.00101965
0.00395921
0.000538153
0.0041759
0.00432503
0.00543846
3.70321e-07
0.0051033
7.19744e-06
0.00522215
7.96058e-05
0.00523252
9.97102e-05
0.00523185
0.000111912
0.00522874
0.000128363
0.0052237
0.000151463
0.00521655
0.000177367
0.00520707
0.000206317
0.00519515
0.000237027
0.00518087
0.000268656
0.00516426
0.00030125
0.00514536
0.000335048
0.0051241
0.000370238
0.00510051
0.000406861
0.00507452
0.00044501
0.00504614
0.000484743
0.00501528
0.000526238
0.00498194
0.000569603
0.00494598
0.000615069
0.0049074
0.000662765
0.00486602
0.000712967
0.00482182
0.00076583
0.0047746
0.000821678
0.00472428
0.000880707
0.00467068
0.00094328
0.00461362
0.00100966
0.00455293
0.00108024
0.00448834
0.00115539
0.00441966
0.0012355
0.00434648
0.0013211
0.0042686
0.00141258
0.00418545
0.00151067
0.0040967
0.00161578
0.00400162
0.00172883
0.00389956
0.00185036
0.00378967
0.00198137
0.00367062
0.00212285
0.00354143
0.00227552
0.00339943
0.00244165
0.0032435
0.00262045
0.00307142
0.00281427
0.00287665
0.00302779
0.00265179
0.00326115
0.00239138
0.00351444
0.0020859
0.00378996
0.00171799
0.0040903
0.00126609
0.00441111
0.000701243
0.00474075
0.00502627
0.00564081
3.50259e-07
0.00529303
7.10301e-06
0.00541859
7.84331e-05
0.0054315
9.87983e-05
0.00543307
0.000111774
0.00543188
0.000129665
0.00542844
0.000154894
0.00542264
0.000183166
0.00541415
0.000214809
0.00540305
0.000248128
0.00538947
0.000282234
0.00537352
0.000317204
0.00535521
0.000353354
0.00533456
0.000390885
0.00531156
0.000429861
0.00528623
0.000470343
0.00525852
0.000512455
0.00522844
0.000556316
0.00519591
0.000602131
0.00516094
0.000650045
0.00512339
0.000700313
0.00508326
0.00075309
0.0050404
0.000808694
0.00499479
0.000867291
0.00494621
0.00092928
0.00489466
0.000994836
0.00483987
0.00106445
0.00478179
0.00113832
0.00472013
0.00121704
0.00465476
0.00130087
0.00458538
0.00139048
0.00451169
0.00148627
0.00443342
0.00158895
0.00435001
0.00169919
0.00426117
0.00181767
0.004166
0.00194553
0.00406417
0.0020832
0.00395409
0.00223292
0.00383572
0.00239388
0.00370882
0.00256855
0.00356681
0.00276247
0.00340583
0.00297524
0.0032258
0.00320782
0.00302106
0.00346589
0.0027811
0.00375439
0.00249012
0.00408094
0.00212835
0.00445207
0.00165432
0.00488514
0.000999286
0.00539578
0.00602556
0.00585083
2.00128e-07
0.00548956
7.1508e-06
0.005623
7.44826e-05
0.0056395
9.45873e-05
0.00564402
0.000108812
0.00564542
0.000128384
0.00564401
0.0001563
0.00563974
0.000187437
0.0056324
0.000222153
0.00562216
0.000258359
0.00560932
0.000295083
0.00559402
0.000332495
0.00557633
0.000371045
0.00555632
0.000410902
0.00553397
0.00045221
0.00550934
0.000494973
0.00548242
0.000539373
0.00545323
0.000585505
0.00542173
0.000633627
0.00538791
0.000683866
0.00535172
0.000736506
0.0053131
0.000791708
0.005272
0.000849788
0.00522834
0.000910955
0.00518206
0.000975554
0.00513303
0.00104387
0.0050812
0.00111627
0.00502637
0.00119315
0.00496853
0.00127488
0.00490736
0.00136204
0.00484286
0.00145498
0.00477463
0.0015545
0.00470261
0.00166097
0.00462633
0.00177546
0.00454553
0.00189847
0.00445932
0.00203174
0.0043686
0.00217392
0.00427378
0.00232775
0.00416939
0.00249827
0.00405336
0.00268459
0.00392866
0.00288717
0.00379287
0.00311102
0.00364122
0.00335948
0.00346867
0.00363843
0.00326849
0.00395457
0.00302851
0.00432092
0.0027215
0.00475907
0.00229836
0.00530828
0.0016458
0.00604834
0.00767135
0.00846014
1.38294e-07
0.00793534
6.22962e-06
0.00813427
6.48002e-05
0.00816374
8.30575e-05
0.00817639
9.84669e-05
0.00818337
0.000121576
0.0081856
0.00015407
0.00818291
0.000190111
0.00817531
0.000229761
0.00816332
0.000270355
0.00814755
0.000310846
0.00812834
0.000351704
0.00810588
0.000393505
0.00808022
0.000436565
0.0080515
0.00048093
0.00801975
0.000526721
0.0079851
0.000574026
0.00794751
0.000623093
0.00790708
0.000674059
0.00786373
0.000727216
0.00781753
0.000782705
0.00776838
0.000840856
0.00771634
0.000901828
0.00766129
0.000966004
0.00760327
0.00103357
0.00754217
0.00110497
0.007478
0.00118044
0.00741067
0.00126048
0.00734014
0.00134542
0.00726637
0.00143581
0.00718923
0.00153212
0.00710876
0.00163496
0.00702461
0.00174511
0.00693732
0.00186276
0.00684746
0.00198832
0.00675542
0.00212378
0.00665654
0.0022728
0.00655061
0.00243367
0.00644175
0.00260713
0.00633065
0.00279569
0.00621376
0.00300405
0.00609258
0.00323219
0.00596539
0.00348667
0.00583396
0.00376987
0.00570036
0.00408817
0.00557206
0.00444922
0.00548237
0.00484876
0.00550622
0.00528443
0.00591272
0.00564185
0.00547757
0.0081065
0.00846194
1.06609e-07
0.00793477
3.86425e-06
0.00814842
4.23426e-05
0.0081887
6.09042e-05
0.00821066
7.88368e-05
0.00822463
0.000107778
0.00823093
0.000147775
0.0082305
0.00019053
0.00822382
0.000236451
0.00821268
0.000281487
0.00819811
0.000325422
0.0081804
0.000369408
0.00815967
0.000414233
0.00813609
0.000460151
0.00810979
0.000507232
0.00808094
0.00055557
0.00804961
0.000605353
0.00801591
0.000656796
0.00797983
0.000710134
0.00794147
0.000765577
0.00790079
0.00082338
0.0078579
0.000883755
0.00781272
0.000947003
0.00776538
0.00101334
0.00771581
0.00108314
0.00766417
0.00115662
0.00761036
0.00123424
0.0075546
0.00131625
0.00749681
0.00140321
0.00743721
0.00149541
0.00737562
0.00159371
0.00731322
0.00169736
0.00725067
0.00180766
0.00718641
0.00192702
0.00711891
0.00205582
0.00704926
0.00219343
0.00698157
0.00234048
0.00691583
0.00249942
0.00685175
0.0026712
0.00679013
0.00285731
0.00673542
0.00305876
0.00668812
0.0032795
0.00665833
0.00351646
0.00664929
0.00377892
0.00668179
0.00405567
0.0067786
0.0043524
0.00698565
0.00464171
0.00738557
0.00488451
0.00800255
0.00502486
0.00467582
0.0088043
0.00846267
1.52895e-07
0.00793445
7.47216e-07
0.00816343
5.49801e-06
0.00822209
2.04546e-05
0.00825921
4.40707e-05
0.00828285
8.43113e-05
0.00829421
0.000136415
0.00829475
0.000189988
0.00828896
0.000242244
0.00827927
0.00029118
0.00826633
0.000338358
0.00825024
0.0003855
0.00823118
0.000433294
0.00820942
0.000481912
0.00818521
0.000531433
0.00815879
0.000581995
0.00813025
0.000633887
0.00809972
0.000687325
0.00806727
0.000742583
0.008033
0.000799846
0.00799698
0.000859402
0.0079593
0.000921436
0.00792004
0.000986258
0.00787932
0.00105407
0.00783725
0.0011252
0.00779397
0.0011999
0.00774966
0.00127855
0.00770443
0.00136148
0.00765873
0.0014489
0.00761341
0.00154073
0.00756915
0.00163797
0.00752365
0.00174285
0.00747697
0.00185434
0.00743184
0.00197215
0.00739034
0.00209732
0.00735197
0.0022318
0.00731772
0.00237473
0.00728822
0.00252893
0.00726696
0.00269245
0.00725477
0.0028695
0.00725683
0.00305669
0.0072779
0.00325842
0.00732464
0.00346971
0.00741264
0.00369092
0.00755114
0.00391717
0.0077706
0.00413294
0.00808357
0.00432874
0.00850995
0.00445812
0.00902993
0.00450488
0.00424756
0.00945819
0.00846127
1.29788e-06
0.00794072
-9.84694e-06
0.00821696
-7.85104e-05
0.00830512
-4.95108e-05
0.00835091
6.48189e-07
0.00837143
6.39748e-05
0.00837574
0.000132102
0.00837149
0.000194233
0.00836379
0.000249944
0.0083544
0.000300576
0.00834245
0.000350305
0.0083276
0.000400347
0.0083102
0.000450691
0.00829057
0.000501545
0.00826911
0.000552892
0.00824595
0.000605153
0.00822116
0.000658682
0.0081948
0.000713681
0.00816696
0.000770427
0.0081377
0.000829102
0.00810711
0.000889998
0.00807525
0.000953288
0.00804226
0.00101925
0.00800826
0.00108807
0.00797344
0.00116002
0.00793791
0.00123543
0.00790233
0.00131414
0.0078673
0.0013965
0.00783266
0.00148354
0.00779723
0.00157616
0.0077618
0.00167341
0.0077292
0.00177546
0.00770024
0.00188329
0.00767459
0.0019978
0.00765356
0.00211835
0.0076385
0.00224686
0.00763119
0.00238203
0.0076339
0.00252621
0.00764838
0.00267797
0.00767956
0.00283832
0.00772901
0.00300724
0.0078056
0.00318183
0.00791196
0.00336335
0.0080601
0.00354278
0.0082581
0.00371917
0.00851397
0.00387707
0.00883826
0.00400444
0.00921583
0.00408055
0.00966976
0.00405096
0.0039282
0.00998912
0.00845144
9.92948e-06
0.00798012
-6.57276e-05
0.00836223
-0.000271068
0.00854392
-0.000213068
0.00858696
-4.00918e-05
0.00857785
7.32575e-05
0.00856117
0.000148788
0.00854541
0.000209981
0.00853279
0.000262568
0.00851978
0.00031359
0.00850367
0.00036641
0.00848467
0.000419346
0.00846358
0.000471782
0.00844125
0.00052388
0.00841759
0.000576543
0.00839272
0.000630023
0.0083668
0.000684603
0.00833996
0.000740522
0.00831234
0.000798043
0.00828406
0.00085738
0.00825526
0.000918799
0.00822603
0.000982519
0.00819653
0.00104875
0.00816702
0.00111758
0.00813804
0.001189
0.00810998
0.00126349
0.00808188
0.00134223
0.00805366
0.00142472
0.00802648
0.00151072
0.00800204
0.0016006
0.00798026
0.00169518
0.00796133
0.00179439
0.00794594
0.00189868
0.00793569
0.00200806
0.00793094
0.0021231
0.00793441
0.00224339
0.00794643
0.00237002
0.00797137
0.00250127
0.00800981
0.00263953
0.00806725
0.00278088
0.00814635
0.00292814
0.00825232
0.00307585
0.00839131
0.00322436
0.00856625
0.00336783
0.00878566
0.00349976
0.00904811
0.00361463
0.0093567
0.00369585
0.00970198
0.00373526
0.0100489
0.00370402
0.0035952
0.0103819
0.00851921
1.56387e-05
0.00824797
-0.000394652
0.00879259
-0.000604614
0.00889075
-0.000291177
0.00887213
-1.84926e-05
0.00880417
0.000141437
0.00877221
0.000180754
0.00875229
0.000229884
0.00874259
0.000272273
0.00872806
0.00032812
0.0087091
0.000385373
0.00868805
0.000440398
0.00866603
0.000493797
0.00864302
0.000546891
0.00861904
0.000600525
0.00859399
0.000655073
0.00856785
0.000710742
0.0085407
0.000767668
0.00851266
0.00082608
0.00848389
0.00088615
0.00845445
0.000948239
0.0084247
0.00101226
0.00839515
0.0010783
0.00836603
0.00114669
0.00833656
0.00121847
0.00830741
0.00129263
0.00828036
0.00136929
0.0082563
0.00144878
0.00823485
0.00153216
0.00821691
0.00161854
0.00820271
0.00170938
0.0081936
0.00180349
0.00818967
0.00190261
0.00819272
0.00200501
0.00820301
0.00211281
0.00822262
0.00222377
0.00825258
0.00234007
0.00829485
0.00245899
0.0083525
0.00258188
0.00842674
0.00270665
0.00852306
0.00283181
0.00864207
0.00295685
0.0087907
0.00307573
0.00896913
0.0031894
0.00918233
0.00328656
0.00942918
0.00336778
0.00970734
0.00341768
0.0100121
0.00343047
0.0103154
0.0034007
0.00330266
0.010608
0.00816078