/*--------------------------------*- C++ -*----------------------------------*\
| =========                 |                                                 |
| \\      /  F ield         | OpenFOAM: The Open Source CFD Toolbox           |
|  \\    /   O peration     | Version:  2412                                  |
|   \\  /    A nd           | Website:  www.openfoam.com                      |
|    \\/     M anipulation  |                                                 |
\*---------------------------------------------------------------------------*/
FoamFile
{
    version     2.0;
    format      ascii;
    arch        "LSB;label=32;scalar=64";
    class       volScalarField;
    location    "21";
    object      T;
}
// * * * * * * * * * * * * * * * * * * * * * * * * * * * * * * * * * * * * * //

dimensions      [0 0 0 1 0 0 0];

internalField   nonuniform List<scalar> 
7000
(
1.3191
2.65682
2.71975
2.66984
2.66466
2.64797
2.64455
2.64729
2.64934
2.65154
2.65279
2.6538
2.65494
2.65629
2.65779
2.65942
2.66115
2.663
2.66497
2.66707
2.66929
2.67164
2.6741
2.6767
2.67941
2.68224
2.68519
2.68826
2.69142
2.6947
2.69805
2.70151
2.70502
2.70861
2.71223
2.71588
2.71952
2.72315
2.72671
2.73021
2.73355
2.73677
2.73975
2.74252
2.74497
2.74713
2.74888
2.75027
2.75122
2.75176
1.31917
2.65704
2.72
2.66994
2.66479
2.64809
2.64467
2.64741
2.64946
2.65165
2.65291
2.65391
2.65505
2.6564
2.6579
2.65952
2.66125
2.6631
2.66507
2.66717
2.66938
2.67173
2.67419
2.67678
2.67948
2.68232
2.68526
2.68832
2.69148
2.69475
2.6981
2.70155
2.70506
2.70864
2.71225
2.7159
2.71952
2.72314
2.72669
2.73017
2.73351
2.7367
2.73967
2.74242
2.74487
2.74698
2.74874
2.75003
2.75096
2.75131
1.31915
2.65695
2.71989
2.66992
2.66475
2.64803
2.64461
2.64737
2.64937
2.6516
2.65281
2.65385
2.65494
2.65633
2.65778
2.65945
2.66113
2.66302
2.66494
2.66708
2.66924
2.67163
2.67404
2.67667
2.67932
2.68219
2.68508
2.68818
2.69128
2.69459
2.6979
2.70137
2.70484
2.70845
2.71203
2.71568
2.7193
2.72293
2.72648
2.72995
2.73331
2.73647
2.73949
2.74217
2.74464
2.74673
2.74848
2.74983
2.75066
2.75108
1.31912
2.65678
2.71971
2.66992
2.6647
2.64793
2.64451
2.64722
2.64929
2.65144
2.65272
2.65368
2.65485
2.65614
2.65768
2.65924
2.66101
2.6628
2.66482
2.66683
2.66911
2.67136
2.67389
2.67638
2.67916
2.68187
2.6849
2.68783
2.69109
2.6942
2.69768
2.70095
2.70459
2.70798
2.71173
2.71518
2.71895
2.7224
2.72607
2.72944
2.73284
2.73603
2.73897
2.74182
2.74409
2.74632
2.74799
2.74924
2.75026
2.75045
1.31909
2.65655
2.71948
2.66994
2.66465
2.64779
2.6444
2.64701
2.64923
2.65121
2.65263
2.65343
2.65474
2.65588
2.65754
2.65896
2.66085
2.6625
2.66462
2.66652
2.66887
2.67103
2.67361
2.67603
2.67883
2.68151
2.68451
2.68745
2.69063
2.69383
2.69715
2.70058
2.70399
2.70761
2.71105
2.71481
2.71819
2.722
2.72523
2.72895
2.73196
2.73537
2.73819
2.74098
2.74359
2.7454
2.74737
2.74863
2.74929
2.74987
1.31905
2.65626
2.71919
2.66998
2.6646
2.64767
2.64421
2.64701
2.64887
2.65118
2.65224
2.65339
2.65432
2.65583
2.6571
2.65889
2.66037
2.66241
2.6641
2.6664
2.6683
2.67087
2.67299
2.67582
2.67815
2.68124
2.68378
2.6871
2.68985
2.69338
2.69634
2.7
2.70317
2.7069
2.71025
2.71397
2.71746
2.72102
2.72462
2.72786
2.73142
2.73412
2.73745
2.7398
2.74248
2.74472
2.74607
2.74766
2.74859
2.74857
1.319
2.6559
2.71883
2.67004
2.66453
2.64747
2.64401
2.64675
2.64869
2.65089
2.65204
2.65306
2.65411
2.65546
2.65688
2.65848
2.66014
2.66195
2.66386
2.66588
2.66806
2.67029
2.67274
2.67516
2.67789
2.68049
2.6835
2.68624
2.68952
2.69239
2.69592
2.69889
2.70262
2.70569
2.70953
2.7127
2.71652
2.71977
2.72343
2.72671
2.73003
2.73333
2.7359
2.73891
2.74089
2.74326
2.74515
2.74613
2.74684
2.74759
1.31894
2.65547
2.71839
2.67011
2.66446
2.64722
2.64376
2.64643
2.64845
2.65054
2.65176
2.65268
2.65378
2.65504
2.6565
2.65803
2.65971
2.66146
2.66337
2.66536
2.6675
2.66973
2.6721
2.67457
2.67715
2.67988
2.68265
2.68563
2.68855
2.69179
2.69482
2.69829
2.70136
2.70504
2.70809
2.7119
2.71493
2.71872
2.72177
2.72534
2.7284
2.73153
2.7347
2.737
2.73972
2.74143
2.74307
2.74485
2.74569
2.74545
1.31887
2.65495
2.71787
2.67019
2.66437
2.64695
2.64345
2.64615
2.64807
2.65021
2.65134
2.65231
2.65332
2.65463
2.656
2.65757
2.65916
2.66094
2.66276
2.66477
2.66683
2.66907
2.67136
2.67381
2.67634
2.679
2.68176
2.68461
2.68759
2.6906
2.69379
2.69692
2.70032
2.70347
2.70709
2.71015
2.71391
2.7168
2.72059
2.72328
2.72687
2.72948
2.73246
2.73538
2.73714
2.73985
2.74126
2.74218
2.7429
2.74391
1.31878
2.65434
2.71726
2.67029
2.66427
2.6466
2.64309
2.64568
2.64775
2.6497
2.65096
2.65175
2.65289
2.65402
2.65551
2.65691
2.65861
2.66022
2.66215
2.66399
2.66613
2.66821
2.67057
2.67287
2.67544
2.67796
2.68073
2.68345
2.68641
2.68932
2.69244
2.69552
2.69875
2.70196
2.70524
2.70858
2.71179
2.71523
2.7182
2.7217
2.72426
2.72769
2.72983
2.73283
2.73526
2.73649
2.73874
2.74029
2.74109
2.74057
1.31869
2.65364
2.71655
2.67041
2.66415
2.64624
2.64265
2.64535
2.64716
2.6493
2.65032
2.65129
2.6522
2.6535
2.65476
2.65632
2.65779
2.65956
2.66125
2.66324
2.66516
2.66736
2.6695
2.6719
2.67426
2.67686
2.67943
2.6822
2.68497
2.68789
2.69084
2.69388
2.69698
2.70009
2.70329
2.70643
2.70969
2.71276
2.716
2.71889
2.72201
2.72455
2.72746
2.72941
2.73206
2.73434
2.73507
2.7361
2.73679
2.73818
1.31858
2.65283
2.71575
2.67054
2.66401
2.64577
2.64217
2.64471
2.64673
2.64859
2.64982
2.65051
2.65163
2.65266
2.65413
2.6554
2.65708
2.65856
2.66046
2.66214
2.66426
2.66615
2.66848
2.67057
2.6731
2.67538
2.67811
2.68057
2.68346
2.68609
2.68911
2.69189
2.695
2.69789
2.70102
2.70402
2.70707
2.71015
2.71299
2.71612
2.71862
2.72167
2.72377
2.72634
2.7279
2.7298
2.7321
2.73327
2.73395
2.73304
1.31846
2.65192
2.71483
2.6707
2.66384
2.64528
2.64159
2.64419
2.64601
2.64799
2.64902
2.64985
2.65076
2.65192
2.65317
2.65458
2.65603
2.65765
2.65929
2.66113
2.66297
2.66502
2.66705
2.6693
2.67151
2.67396
2.67633
2.67896
2.68148
2.68425
2.68689
2.6898
2.69251
2.69552
2.69825
2.70131
2.704
2.70703
2.70964
2.71246
2.71506
2.71735
2.72007
2.72173
2.72415
2.72538
2.72598
2.72686
2.72739
2.72924
1.31833
2.65092
2.71375
2.67107
2.66344
2.64472
2.64094
2.64348
2.6453
2.64718
2.64823
2.64895
2.64989
2.65093
2.65222
2.65349
2.65499
2.65645
2.65815
2.65979
2.66171
2.66353
2.66565
2.66764
2.66995
2.6721
2.67457
2.67687
2.67948
2.68192
2.68462
2.68718
2.68992
2.69258
2.6953
2.69801
2.70067
2.70331
2.7059
2.70831
2.71076
2.71287
2.71478
2.7168
2.71784
2.71999
2.72155
2.72237
2.7227
2.72108
1.3182
2.64984
2.71248
2.67179
2.66274
2.64409
2.64021
2.64264
2.6445
2.64624
2.64733
2.64792
2.64889
2.64981
2.65111
2.65228
2.65375
2.65513
2.65677
2.65836
2.66017
2.66196
2.66391
2.66592
2.66799
2.67019
2.67235
2.67475
2.67696
2.67954
2.68177
2.68448
2.6867
2.68947
2.69169
2.69439
2.69661
2.69909
2.70131
2.70348
2.70556
2.7075
2.70924
2.71057
2.71192
2.71183
2.71223
2.71239
2.71295
2.71467
1.31804
2.64863
2.71112
2.67236
2.66209
2.64338
2.63935
2.64184
2.64346
2.64531
2.64618
2.6469
2.64763
2.64869
2.64972
2.65104
2.65224
2.65376
2.65512
2.65685
2.65835
2.66027
2.66191
2.66401
2.66577
2.66802
2.66991
2.67226
2.67428
2.67667
2.67882
2.68116
2.68344
2.68564
2.68803
2.69002
2.6924
2.69416
2.69629
2.69787
2.69949
2.70078
2.702
2.70302
2.70355
2.7049
2.70453
2.7045
2.70319
2.70082
1.31788
2.64729
2.70967
2.67292
2.66141
2.64259
2.63838
2.64092
2.6423
2.64424
2.64491
2.64571
2.64626
2.64738
2.64824
2.64959
2.65064
2.65215
2.65338
2.65504
2.65646
2.65823
2.65984
2.6617
2.66349
2.66541
2.66736
2.6693
2.67139
2.67332
2.67549
2.6774
2.67956
2.68145
2.68346
2.68534
2.68705
2.68891
2.69019
2.69179
2.69274
2.69352
2.69383
2.69392
2.69326
2.69144
2.69075
2.68859
2.68793
2.68783
1.3177
2.64584
2.70811
2.67349
2.66067
2.64167
2.63733
2.6397
2.64118
2.64285
2.64367
2.6442
2.64491
2.64573
2.64677
2.6478
2.64903
2.6502
2.65161
2.6529
2.65449
2.6559
2.65763
2.65915
2.66099
2.6626
2.66451
2.66621
2.66811
2.66989
2.67172
2.67355
2.67522
2.67702
2.67846
2.68008
2.68128
2.68245
2.6835
2.68387
2.68467
2.68459
2.68422
2.68325
2.68205
2.6804
2.67611
2.67253
2.6667
2.66069
1.3175
2.6443
2.70647
2.67407
2.65986
2.64065
2.63614
2.63838
2.63984
2.64136
2.6422
2.6426
2.6433
2.64401
2.645
2.64594
2.64707
2.64818
2.64943
2.65071
2.65206
2.65348
2.6549
2.65646
2.65792
2.65959
2.66105
2.6628
2.66424
2.66601
2.6674
2.66908
2.67041
2.67187
2.67312
2.67415
2.67524
2.6756
2.67623
2.67607
2.67521
2.67445
2.67203
2.66992
2.66526
2.65991
2.65475
2.645
2.63536
2.62272
1.3173
2.6427
2.70478
2.67464
2.65892
2.63954
2.63475
2.63706
2.63817
2.63985
2.64042
2.64099
2.64141
2.64229
2.64297
2.64408
2.64492
2.64616
2.64712
2.64847
2.64954
2.65098
2.65215
2.65363
2.65488
2.65635
2.65766
2.65906
2.66039
2.66165
2.66297
2.66399
2.66521
2.66593
2.66693
2.66723
2.66789
2.66777
2.66742
2.66656
2.66548
2.66281
2.66059
2.65529
2.65064
2.64066
2.62784
2.61093
2.58206
2.51102
1.31729
2.64179
2.70037
2.67515
2.65752
2.63779
2.63268
2.63478
2.63591
2.6373
2.63801
2.63828
2.63883
2.63936
2.64022
2.64093
2.64195
2.64276
2.6439
2.64479
2.64603
2.64698
2.64829
2.64926
2.6506
2.65156
2.65288
2.65377
2.65499
2.65577
2.65679
2.65739
2.65804
2.65834
2.65856
2.65824
2.65764
2.65675
2.65485
2.65281
2.64869
2.64511
2.63747
2.63139
2.61842
2.6062
2.58346
2.54734
2.48958
2.36401
1.31727
2.64081
2.69565
2.67533
2.65561
2.63542
2.62981
2.63188
2.63275
2.63419
2.6348
2.6351
2.63549
2.63603
2.63668
2.6374
2.63816
2.63898
2.6398
2.64069
2.64155
2.6425
2.64335
2.64432
2.64512
2.64606
2.64675
2.64761
2.64812
2.64884
2.64907
2.64957
2.64953
2.64935
2.64887
2.6483
2.64677
2.6455
2.64239
2.63996
2.63487
2.62893
2.62128
2.60786
2.5949
2.56851
2.54178
2.49171
2.4172
2.31796
1.31724
2.64015
2.69319
2.67517
2.65403
2.63313
2.62689
2.62873
2.6295
2.63093
2.63151
2.63174
2.63204
2.63248
2.63304
2.63366
2.63431
2.63501
2.63572
2.63647
2.6372
2.63797
2.63868
2.63942
2.64006
2.6407
2.64121
2.64164
2.6419
2.64206
2.6419
2.64151
2.64097
2.63978
2.63854
2.6362
2.63411
2.63019
2.62708
2.62078
2.61615
2.60614
2.59866
2.58344
2.56676
2.54291
2.5065
2.464
2.39206
2.31847
1.31712
2.639
2.69238
2.67398
2.65209
2.63033
2.62363
2.62557
2.62641
2.62793
2.62845
2.62852
2.62862
2.62888
2.62913
2.62958
2.62989
2.63038
2.63072
2.63124
2.63162
2.63215
2.63254
2.63306
2.63344
2.6339
2.63421
2.63461
2.63472
2.63479
2.63468
2.63434
2.63375
2.63247
2.6312
2.62841
2.62608
2.62117
2.61679
2.60952
2.60132
2.59131
2.57733
2.56327
2.54111
2.51827
2.48442
2.44396
2.3909
2.32892
1.31688
2.64018
2.70393
2.67062
2.65208
2.6287
2.62149
2.62422
2.62518
2.62703
2.62751
2.62745
2.62742
2.62745
2.62753
2.62764
2.6277
2.62773
2.62772
2.62767
2.6276
2.62743
2.62727
2.62693
2.62665
2.62618
2.62581
2.625
2.62452
2.62342
2.62277
2.62131
2.62044
2.61841
2.61711
2.61429
2.61176
2.60793
2.60277
2.59714
2.58812
2.57877
2.5647
2.54878
2.52839
2.50255
2.47341
2.43468
2.39199
2.34479
1.30178
2.58657
2.69849
2.67707
2.65965
2.63613
2.62923
2.63213
2.63319
2.63472
2.63458
2.63415
2.63347
2.63293
2.63235
2.63181
2.63118
2.63062
2.62996
2.62941
2.62873
2.62821
2.62748
2.62699
2.6261
2.62556
2.62432
2.6234
2.62155
2.62023
2.61757
2.61576
2.61224
2.61
2.60552
2.60274
2.59705
2.59352
2.58641
2.58087
2.57195
2.56262
2.55065
2.53533
2.51799
2.4946
2.46886
2.43588
2.39826
2.35808
1.72051
2.46895
2.72872
2.70688
2.68433
2.67403
2.67456
2.6761
2.6775
2.67778
2.67659
2.67513
2.6735
2.67172
2.66975
2.66755
2.66514
2.66253
2.65971
2.65674
2.65353
2.65028
2.64673
2.64327
2.63929
2.63537
2.63094
2.62784
2.62399
2.62143
2.61777
2.61506
2.61078
2.60711
2.60191
2.59685
2.59073
2.58373
2.57681
2.5674
2.55924
2.54689
2.53637
2.5203
2.50553
2.48448
2.46324
2.43566
2.40595
2.37317
1.73241
2.46203
2.72321
2.70214
2.67739
2.66841
2.6723
2.674
2.67669
2.67751
2.67771
2.67757
2.67731
2.67701
2.67633
2.67572
2.6744
2.67344
2.67141
2.67009
2.66736
2.66564
2.66223
2.65994
2.65601
2.65339
2.64899
2.64483
2.63922
2.63379
2.62722
2.62103
2.61486
2.60884
2.60316
2.59611
2.59012
2.58134
2.57385
2.56302
2.55338
2.54028
2.52774
2.51208
2.49576
2.47692
2.45607
2.43317
2.40775
2.38168
1.72916
2.46759
2.72519
2.70244
2.67382
2.66435
2.66918
2.67162
2.67478
2.6759
2.67624
2.67638
2.67655
2.67653
2.67643
2.67618
2.67558
2.67519
2.67427
2.67355
2.67198
2.67091
2.66869
2.66695
2.66412
2.66145
2.65806
2.65439
2.65028
2.64533
2.64065
2.6341
2.62807
2.61904
2.61181
2.60168
2.59373
2.58345
2.57488
2.56365
2.55331
2.54048
2.52745
2.51224
2.49614
2.47786
2.45807
2.43629
2.41278
2.38984
1.73186
2.46088
2.72066
2.69695
2.67075
2.6611
2.66566
2.66791
2.67108
2.67233
2.67274
2.67302
2.67335
2.67366
2.67392
2.67396
2.67387
2.67362
2.67319
2.67249
2.67181
2.6705
2.66953
2.66752
2.6662
2.6635
2.6617
2.658
2.65561
2.65068
2.64759
2.64133
2.63706
2.62953
2.62341
2.61421
2.60567
2.59431
2.58348
2.57069
2.55812
2.54439
2.53047
2.51517
2.49908
2.48147
2.46331
2.44326
2.42221
2.40151
1.74104
2.44272
2.70912
2.6846
2.66702
2.65765
2.6606
2.6623
2.66539
2.66645
2.66711
2.66719
2.66741
2.66753
2.66767
2.66767
2.66761
2.66744
2.66726
2.66679
2.66644
2.66565
2.66507
2.66381
2.66287
2.66082
2.65944
2.65646
2.65452
2.65051
2.64761
2.64266
2.63856
2.63258
2.62691
2.61961
2.61218
2.60315
2.59347
2.58224
2.5701
2.55616
2.54153
2.52544
2.50912
2.49137
2.47315
2.45385
2.43383
2.41433
1.73599
2.43629
2.70577
2.67706
2.66923
2.65599
2.6561
2.6581
2.66111
2.66221
2.66328
2.66339
2.66366
2.66385
2.66402
2.66409
2.66407
2.66397
2.66381
2.66347
2.66317
2.6625
2.66199
2.66088
2.66009
2.65837
2.6572
2.65469
2.65295
2.64964
2.64693
2.64274
2.63874
2.63361
2.62843
2.62203
2.61539
2.6075
2.59921
2.58959
2.57937
2.56764
2.5551
2.54095
2.52586
2.5094
2.49215
2.47381
2.4547
2.43606
1.35698
2.46737
2.67921
2.66852
2.64651
2.62386
2.61682
2.62086
2.62283
2.62571
2.62714
2.62817
2.62897
2.62998
2.63069
2.63178
2.63244
2.63341
2.63392
2.63475
2.63507
2.6358
2.63592
2.63611
2.63612
2.63601
2.63578
2.63519
2.63462
2.63341
2.63224
2.63034
2.62835
2.62537
2.62213
2.61754
2.61251
2.60612
2.59921
2.59095
2.58225
2.57215
2.56152
2.54967
2.53694
2.52303
2.50821
2.49234
2.47554
2.45907
1.3604
2.47693
2.68633
2.6771
2.65248
2.6235
2.61387
2.6147
2.61668
2.61864
2.61946
2.61955
2.61975
2.61978
2.62004
2.62038
2.62075
2.62107
2.62141
2.62164
2.62192
2.622
2.62217
2.62208
2.62192
2.62153
2.62114
2.62026
2.61957
2.61809
2.61694
2.61473
2.6128
2.60986
2.60703
2.60349
2.59983
2.59537
2.59042
2.58477
2.57805
2.57047
2.56147
2.55156
2.54072
2.52905
2.51668
2.50347
2.48937
2.47557
1.3496
2.41262
2.66938
2.66956
2.65014
2.62375
2.61398
2.61404
2.61474
2.6153
2.61497
2.6141
2.61335
2.61231
2.61165
2.61096
2.61046
2.60981
2.60932
2.60868
2.60821
2.60757
2.60708
2.6064
2.60584
2.60506
2.60435
2.60351
2.60263
2.60154
2.60017
2.59862
2.5966
2.59444
2.59163
2.58867
2.58499
2.58112
2.57647
2.5714
2.56566
2.55957
2.55288
2.54558
2.53751
2.52815
2.51762
2.50654
2.49474
2.48338
1.74169
2.39659
2.67496
2.66129
2.65249
2.63858
2.63342
2.63367
2.63343
2.63314
2.63234
2.63111
2.62971
2.62805
2.62644
2.62485
2.62318
2.62146
2.61961
2.61775
2.61575
2.61378
2.61165
2.60958
2.6073
2.60518
2.60279
2.60069
2.59821
2.59579
2.59323
2.59059
2.58779
2.58474
2.58155
2.57792
2.57418
2.56979
2.56531
2.56002
2.55464
2.54833
2.54196
2.53463
2.52704
2.51903
2.5109
2.50188
2.49215
2.48256
1.34701
2.39558
2.66017
2.66581
2.64948
2.62419
2.61559
2.61424
2.61551
2.61577
2.6155
2.61515
2.61426
2.61334
2.61269
2.61184
2.61112
2.61006
2.60911
2.60778
2.60664
2.60527
2.60411
2.60261
2.60134
2.59948
2.59789
2.59538
2.59337
2.59065
2.5883
2.58522
2.58242
2.57886
2.57564
2.5717
2.56799
2.5636
2.55926
2.55427
2.54912
2.54334
2.53721
2.53057
2.52338
2.5158
2.50766
2.49925
2.49028
2.48167
1.34833
2.40647
2.66736
2.67127
2.65096
2.62223
2.61097
2.61078
2.61175
2.61246
2.61233
2.61164
2.61088
2.60989
2.60929
2.60855
2.60795
2.60706
2.60625
2.60512
2.60397
2.60231
2.60063
2.59847
2.5963
2.5938
2.59127
2.58848
2.58556
2.58246
2.57916
2.57577
2.5722
2.56864
2.56469
2.56077
2.55636
2.55208
2.54721
2.54251
2.53717
2.53205
2.52617
2.52047
2.51401
2.50762
2.50043
2.49315
2.48532
2.47798
1.34775
2.40213
2.66459
2.66932
2.64836
2.61894
2.60693
2.60679
2.60759
2.6085
2.60822
2.60737
2.60655
2.60544
2.60473
2.60398
2.60335
2.60255
2.60178
2.60085
2.59988
2.59873
2.59745
2.59597
2.59426
2.59235
2.59014
2.58776
2.58501
2.58213
2.57883
2.57544
2.5716
2.56773
2.56343
2.55906
2.55422
2.54926
2.54391
2.53839
2.53257
2.52655
2.5203
2.51377
2.5071
2.50011
2.49308
2.48559
2.47804
2.47066
1.34491
2.37912
2.64742
2.66154
2.64239
2.61456
2.60274
2.60131
2.60161
2.60185
2.60119
2.60042
2.59908
2.59799
2.59691
2.59604
2.59499
2.59407
2.59292
2.59189
2.59062
2.58949
2.58812
2.58688
2.58536
2.58394
2.5822
2.58049
2.57842
2.57632
2.57386
2.57126
2.56827
2.56502
2.5614
2.55748
2.55327
2.5487
2.54386
2.53857
2.53309
2.52714
2.52102
2.51443
2.5077
2.50054
2.4933
2.48579
2.47816
2.47083
1.75131
2.37308
2.64563
2.6417
2.62824
2.61415
2.60927
2.60951
2.60949
2.60938
2.6088
2.60814
2.60691
2.60577
2.60449
2.60338
2.602
2.60069
2.59911
2.59757
2.59578
2.59402
2.59203
2.59004
2.58786
2.58565
2.58326
2.5808
2.57817
2.57544
2.57264
2.56967
2.56661
2.56328
2.55985
2.55605
2.55214
2.5478
2.54326
2.5383
2.53308
2.52748
2.52169
2.51555
2.50924
2.50259
2.49572
2.48855
2.48105
2.47391
1.34701
2.38874
2.65257
2.65981
2.63926
2.60892
2.59759
2.59623
2.59785
2.59917
2.59902
2.59851
2.59793
2.59666
2.59598
2.59477
2.59403
2.59255
2.5916
2.58987
2.58833
2.58649
2.58467
2.58254
2.58046
2.57823
2.57615
2.57386
2.57171
2.56925
2.56672
2.56382
2.56086
2.55759
2.55424
2.55062
2.54687
2.54289
2.5388
2.53446
2.52995
2.52514
2.52005
2.5146
2.50885
2.5028
2.49647
2.48993
2.48309
2.47653
1.35071
2.412
2.6548
2.64884
2.6269
2.59634
2.58558
2.58584
2.58763
2.58955
2.58989
2.58965
2.58919
2.58841
2.5879
2.58738
2.58692
2.5863
2.58564
2.58484
2.58396
2.58294
2.58179
2.58047
2.57898
2.57715
2.57506
2.57266
2.57003
2.56715
2.56415
2.56096
2.55763
2.55412
2.55045
2.54659
2.54257
2.53837
2.53399
2.52945
2.52471
2.51982
2.51481
2.50969
2.50434
2.49885
2.49308
2.48713
2.48088
2.47491
1.77121
2.37215
2.63841
2.61749
2.61116
2.59586
2.59313
2.59388
2.59499
2.59627
2.59601
2.59553
2.59518
2.59451
2.59394
2.59337
2.59279
2.59211
2.59139
2.59056
2.58968
2.58868
2.5876
2.58637
2.58504
2.58353
2.58186
2.57998
2.5779
2.57549
2.57276
2.56973
2.56639
2.5628
2.55893
2.55483
2.55047
2.54593
2.54115
2.53622
2.53103
2.52567
2.52001
2.51419
2.5082
2.50207
2.49586
2.48955
2.48312
2.47699
1.79774
2.35511
2.62641
2.60582
2.60264
2.59272
2.58933
2.58955
2.5898
2.59036
2.5901
2.58948
2.58884
2.58782
2.58679
2.58566
2.58449
2.58315
2.58176
2.58022
2.57864
2.57693
2.57523
2.57345
2.57169
2.56985
2.56803
2.56612
2.5642
2.56224
2.56036
2.55833
2.55634
2.55415
2.55193
2.54943
2.54684
2.54388
2.54056
2.53688
2.53298
2.52881
2.5244
2.51969
2.51476
2.50952
2.50399
2.49816
2.49206
2.48615
1.76256
2.3816
2.65003
2.61924
2.61346
2.59931
2.59614
2.59825
2.59972
2.60055
2.60029
2.5998
2.59875
2.59755
2.59627
2.59495
2.59352
2.592
2.59036
2.58867
2.58686
2.58502
2.58292
2.58073
2.57828
2.57575
2.57298
2.57016
2.56711
2.56404
2.56075
2.5575
2.55404
2.55053
2.54682
2.5431
2.53916
2.53525
2.53136
2.52743
2.52336
2.51918
2.51481
2.51039
2.5058
2.50113
2.49626
2.49128
2.48605
2.48112
1.28617
2.49451
2.64469
2.642
2.61674
2.58402
2.57196
2.5724
2.57504
2.57743
2.57868
2.57891
2.57914
2.57911
2.57905
2.57897
2.57881
2.57851
2.57804
2.57739
2.57656
2.57552
2.57436
2.57301
2.57154
2.56984
2.56811
2.56597
2.56373
2.56134
2.55872
2.55594
2.55283
2.54964
2.54613
2.54256
2.5387
2.53478
2.5306
2.5264
2.52195
2.51749
2.51299
2.50826
2.5034
2.49832
2.49314
2.48774
2.48224
2.47697
1.77183
2.36717
2.63946
2.61689
2.6106
2.59518
2.59024
2.59115
2.59157
2.59316
2.59279
2.59222
2.59176
2.59097
2.59022
2.58937
2.5886
2.58762
2.5867
2.58554
2.58444
2.58309
2.58179
2.58022
2.57869
2.57688
2.57508
2.57298
2.57067
2.56805
2.56526
2.56218
2.5591
2.55578
2.55246
2.54885
2.54521
2.54126
2.53729
2.53296
2.52864
2.52394
2.51908
2.51401
2.50885
2.5035
2.49806
2.49244
2.48671
2.48123
1.77323
2.36537
2.63737
2.61497
2.60873
2.59344
2.58848
2.58958
2.59064
2.59173
2.59227
2.59177
2.59134
2.59054
2.58968
2.58875
2.58776
2.58662
2.58538
2.58399
2.58252
2.58092
2.57923
2.57745
2.57556
2.57359
2.5715
2.56939
2.56733
2.56517
2.56299
2.56067
2.55816
2.55545
2.55255
2.5495
2.54628
2.5429
2.53934
2.53564
2.53174
2.5277
2.52346
2.51909
2.5145
2.50979
2.50487
2.49984
2.49458
2.48949
1.28558
2.4909
2.64201
2.63933
2.61359
2.57894
2.56601
2.56551
2.56804
2.5701
2.57105
2.57099
2.57085
2.57046
2.57016
2.56969
2.56939
2.56877
2.56833
2.56743
2.56679
2.56563
2.56475
2.56331
2.56219
2.56057
2.55893
2.55716
2.55525
2.55324
2.55112
2.54891
2.54659
2.54417
2.54164
2.53897
2.53616
2.53321
2.53012
2.52684
2.52342
2.51982
2.51608
2.51216
2.5081
2.50386
2.4995
2.49494
2.49027
2.48573
1.76677
2.37282
2.64056
2.60983
2.60341
2.58744
2.58438
2.58656
2.58745
2.58957
2.58933
2.58879
2.58833
2.58749
2.58671
2.58582
2.58495
2.58391
2.58285
2.58163
2.58038
2.57898
2.57753
2.57595
2.57428
2.57252
2.57063
2.56864
2.56651
2.56427
2.56189
2.55927
2.55652
2.55355
2.55047
2.54717
2.54377
2.54017
2.53648
2.53267
2.52878
2.52476
2.52061
2.51634
2.51193
2.50741
2.50274
2.49796
2.49302
2.4883
1.79465
2.35593
2.62397
2.59587
2.59185
2.58015
2.57688
2.57807
2.57838
2.5791
2.57892
2.57851
2.57805
2.57731
2.57659
2.57584
2.57503
2.57413
2.57314
2.57205
2.57088
2.56961
2.56826
2.56681
2.56527
2.56363
2.56191
2.56009
2.55819
2.55618
2.5541
2.55204
2.54987
2.5477
2.54539
2.54307
2.54056
2.53797
2.53514
2.53219
2.52899
2.52569
2.5222
2.5186
2.51481
2.51092
2.50683
2.50265
2.49823
2.49406
1.79926
2.35069
2.61895
2.59269
2.58905
2.5778
2.57398
2.57466
2.57484
2.57523
2.57509
2.57468
2.57418
2.57342
2.57264
2.57187
2.571
2.57007
2.56902
2.5679
2.56666
2.56535
2.5639
2.56238
2.56072
2.55898
2.5571
2.55513
2.55302
2.55083
2.5485
2.54608
2.54352
2.54088
2.5381
2.53524
2.53226
2.52925
2.52614
2.52298
2.51972
2.51637
2.51288
2.50931
2.50559
2.50179
2.49784
2.49379
2.48958
2.48558
1.77981
2.35592
2.61651
2.60296
2.59359
2.57714
2.57211
2.57259
2.5732
2.57382
2.5738
2.57333
2.5728
2.57198
2.57117
2.57039
2.56954
2.56863
2.56761
2.56651
2.56531
2.56404
2.56265
2.56118
2.55959
2.5579
2.5561
2.5542
2.55218
2.55005
2.54779
2.54542
2.54291
2.5403
2.53755
2.53468
2.53167
2.52855
2.5253
2.52193
2.51844
2.51483
2.5111
2.50726
2.5033
2.49922
2.49502
2.4907
2.48626
2.48201
1.34476
2.37982
2.63796
2.63735
2.61516
2.5817
2.56749
2.56511
2.56642
2.56753
2.56748
2.56723
2.56653
2.56553
2.56463
2.56384
2.56301
2.56213
2.56113
2.56007
2.55888
2.55762
2.55624
2.55478
2.55318
2.55151
2.54969
2.54779
2.54573
2.54359
2.5413
2.53891
2.53637
2.53373
2.53093
2.52803
2.52497
2.52182
2.51849
2.51507
2.51148
2.5078
2.50394
2.5
2.49588
2.49169
2.48732
2.4829
2.4783
2.47391
1.34601
2.38742
2.65285
2.65698
2.63094
2.59244
2.57491
2.57255
2.57419
2.57547
2.57592
2.57557
2.57475
2.57374
2.57269
2.57182
2.57094
2.57003
2.569
2.56791
2.5667
2.56545
2.56407
2.56265
2.5611
2.55949
2.55776
2.55596
2.55403
2.55203
2.54989
2.54769
2.54533
2.54291
2.54033
2.53767
2.53485
2.53195
2.52889
2.52574
2.52243
2.51902
2.51545
2.51178
2.50795
2.50402
2.49993
2.49575
2.49141
2.48723
1.34511
2.3793
2.63631
2.63632
2.61341
2.58007
2.56491
2.56292
2.56427
2.56519
2.5656
2.56518
2.56447
2.56344
2.5625
2.56167
2.56087
2.55999
2.55905
2.558
2.55689
2.55569
2.55443
2.55307
2.55164
2.5501
2.5485
2.54678
2.545
2.54309
2.54111
2.539
2.53682
2.5345
2.53211
2.52958
2.52698
2.52423
2.5214
2.51842
2.51536
2.51215
2.50885
2.5054
2.50187
2.49818
2.49441
2.49047
2.48645
2.48253
1.78107
2.3542
2.61399
2.59966
2.58999
2.57211
2.56703
2.56739
2.56798
2.56902
2.56886
2.56832
2.56783
2.56695
2.56619
2.56538
2.5646
2.56367
2.56274
2.56165
2.56056
2.55931
2.55806
2.55664
2.55522
2.55363
2.55202
2.55025
2.54846
2.5465
2.54451
2.54235
2.54016
2.53779
2.53539
2.53281
2.5302
2.52739
2.52456
2.52153
2.51847
2.51521
2.51192
2.50843
2.5049
2.50117
2.4974
2.49343
2.48939
2.48545
1.80133
2.34718
2.61456
2.58734
2.5838
2.57253
2.56904
2.57012
2.57042
2.57085
2.57071
2.57019
2.56964
2.56874
2.56792
2.56703
2.56615
2.56512
2.56407
2.56288
2.56166
2.5603
2.55891
2.55736
2.55578
2.55405
2.55228
2.55034
2.54837
2.54623
2.54404
2.54169
2.53929
2.53672
2.53409
2.5313
2.52844
2.52542
2.52233
2.51908
2.51576
2.51227
2.50872
2.505
2.50121
2.49725
2.49323
2.48904
2.48477
2.48063
1.78828
2.36081
2.62697
2.59535
2.58873
2.57462
2.57214
2.57417
2.57566
2.57658
2.57655
2.57604
2.5755
2.57467
2.5739
2.57307
2.57222
2.57125
2.57023
2.56909
2.56791
2.5666
2.56524
2.56376
2.56222
2.56055
2.55882
2.55696
2.55503
2.55297
2.55084
2.54857
2.54623
2.54374
2.54118
2.53848
2.53569
2.53276
2.52974
2.52658
2.52333
2.51993
2.51644
2.51281
2.50908
2.50521
2.50125
2.49715
2.49294
2.48888
2.17219
2.34522
2.76286
2.86033
2.8637
2.82079
2.81891
2.81826
2.81102
2.8099
2.81292
2.81443
2.81577
2.81658
2.81834
2.81965
2.82169
2.82345
2.82499
2.82593
2.82634
2.82644
2.8251
2.82428
2.82127
2.81894
2.81488
2.81108
2.80613
2.8012
2.79544
2.7896
2.78315
2.77661
2.76983
2.76288
2.75576
2.74798
2.73986
2.73175
2.72359
2.7154
2.70714
2.69889
2.69063
2.68242
2.67426
2.66619
2.65821
2.65037
2.64268
2.63517
2.62785
2.62075
2.61391
2.60734
2.60108
2.59516
2.5896
2.58443
2.57969
2.57541
2.57162
2.56834
2.56561
2.56343
2.56182
2.56076
2.56027
2.56017
2.56029
2.56064
2.56151
2.56296
2.56502
2.56726
2.56948
2.57177
2.57398
2.57617
2.57818
2.58007
2.58168
2.58313
2.58426
2.58521
2.58585
2.58632
2.58651
2.58659
2.58648
2.58625
2.58591
2.5852
2.58445
2.58342
2.58257
2.58144
2.58053
2.5775
2.18035
2.26032
2.4504
2.62852
2.69705
2.73421
2.76173
2.78669
2.8011
2.81384
2.82186
2.83188
2.8375
2.8371
2.83322
2.82783
2.82034
2.81285
2.80357
2.79462
2.78438
2.7747
2.76413
2.75426
2.74334
2.73302
2.72182
2.7113
2.70004
2.68948
2.67827
2.66773
2.65664
2.64621
2.63552
2.62556
2.61528
2.60494
2.59418
2.58381
2.57363
2.5637
2.55385
2.54423
2.53472
2.52546
2.51635
2.50749
2.49882
2.49042
2.48222
2.47432
2.46666
2.45933
2.45227
2.44558
2.4392
2.43324
2.42764
2.42249
2.41776
2.41354
2.40979
2.40659
2.40391
2.40182
2.40026
2.3993
2.39885
2.39886
2.39911
2.39965
2.40075
2.40248
2.40493
2.40758
2.41031
2.41304
2.41574
2.41833
2.42077
2.42298
2.42492
2.42657
2.42792
2.42895
2.42968
2.43011
2.43027
2.43023
2.43008
2.42975
2.42937
2.42856
2.42778
2.42664
2.42578
2.42459
2.42381
2.42093
2.22678
2.21289
2.27126
2.35838
2.41098
2.46055
2.49427
2.52166
2.54287
2.55882
2.57074
2.57988
2.58665
2.5891
2.58836
2.58664
2.58269
2.57814
2.57261
2.56661
2.55989
2.55302
2.54567
2.53842
2.53062
2.52294
2.51471
2.50674
2.49831
2.49024
2.48172
2.47361
2.46507
2.45696
2.44866
2.44102
2.43311
2.42509
2.4165
2.40816
2.4
2.39204
2.38412
2.37633
2.3686
2.36103
2.35353
2.34623
2.33902
2.33203
2.32517
2.31854
2.31207
2.30587
2.29986
2.29417
2.28871
2.2836
2.27877
2.27434
2.27025
2.26661
2.26334
2.26058
2.25825
2.25645
2.25511
2.25433
2.25401
2.25409
2.25439
2.25488
2.25589
2.25747
2.25972
2.26217
2.26472
2.26725
2.26975
2.27212
2.27436
2.27635
2.27812
2.27959
2.28081
2.2817
2.28234
2.28268
2.2828
2.28274
2.2826
2.28231
2.28197
2.28123
2.28054
2.27952
2.27878
2.27776
2.27727
2.27487
2.25962
2.2203
2.21593
2.24093
2.27152
2.29403
2.30926
2.32107
2.33161
2.34086
2.34852
2.35462
2.35934
2.36294
2.36449
2.36473
2.36468
2.36457
2.36437
2.3641
2.36361
2.36296
2.36223
2.36096
2.35943
2.35764
2.35536
2.35286
2.3499
2.34679
2.34324
2.33959
2.33549
2.33134
2.327
2.32291
2.31855
2.3138
2.30838
2.30285
2.29729
2.29183
2.28624
2.2807
2.27502
2.2694
2.26369
2.25808
2.25242
2.2469
2.24136
2.236
2.23067
2.22556
2.22052
2.21574
2.21109
2.20675
2.20258
2.19878
2.19521
2.19206
2.18918
2.18679
2.18472
2.18317
2.18199
2.18135
2.18114
2.18129
2.18161
2.1821
2.1831
2.18459
2.1867
2.18898
2.19145
2.19385
2.19627
2.19849
2.20062
2.20246
2.20414
2.20548
2.20662
2.20741
2.20802
2.20829
2.20841
2.20832
2.20822
2.20798
2.20768
2.20702
2.20645
2.20554
2.20493
2.20406
2.20381
2.20174
2.27506
2.24095
2.21923
2.21174
2.21879
2.22343
2.22548
2.22609
2.22708
2.22894
2.23176
2.23406
2.23611
2.23794
2.24069
2.24298
2.2452
2.24764
2.25033
2.25317
2.25608
2.25886
2.26147
2.26372
2.26566
2.26702
2.26798
2.26846
2.26818
2.26763
2.26653
2.26508
2.26307
2.2608
2.25828
2.25583
2.25304
2.24976
2.24573
2.2414
2.23691
2.2324
2.22775
2.22306
2.21822
2.21335
2.20836
2.20339
2.19836
2.19338
2.18838
2.18349
2.17862
2.17391
2.16927
2.16484
2.16052
2.15647
2.15259
2.14903
2.14569
2.14273
2.14005
2.1378
2.13588
2.13443
2.13335
2.13284
2.13271
2.13289
2.13319
2.13374
2.13474
2.13625
2.13819
2.14037
2.14274
2.1451
2.14744
2.1496
2.15164
2.15341
2.15499
2.15627
2.15732
2.15807
2.15859
2.15883
2.1589
2.15881
2.1587
2.15844
2.15813
2.15745
2.15695
2.15605
2.15551
2.15469
2.15455
2.15255
2.29853
2.2547
2.2305
2.21063
2.20085
2.19398
2.18824
2.18215
2.17732
2.17353
2.17181
2.17132
2.17192
2.17229
2.17339
2.17562
2.17819
2.18137
2.18432
2.18795
2.19133
2.19519
2.19852
2.20204
2.2048
2.20751
2.20931
2.21094
2.21165
2.21221
2.21199
2.21133
2.21015
2.20864
2.2069
2.20516
2.20307
2.20046
2.19712
2.19342
2.18949
2.18544
2.18127
2.17702
2.17265
2.16821
2.16368
2.15909
2.15446
2.14983
2.1452
2.14062
2.13608
2.13164
2.12729
2.12309
2.11904
2.1152
2.11155
2.10816
2.10503
2.10221
2.09969
2.09755
2.09577
2.09441
2.09347
2.09305
2.09301
2.09318
2.0935
2.09409
2.09512
2.09662
2.09847
2.10055
2.10282
2.10511
2.10738
2.1095
2.11146
2.11318
2.11468
2.11591
2.11689
2.1176
2.11808
2.1183
2.11834
2.11825
2.11813
2.11784
2.11753
2.11683
2.11638
2.11549
2.11501
2.11422
2.11415
2.11221
2.32215
2.28215
2.24848
2.22367
2.20323
2.18827
2.17588
2.16539
2.15589
2.14842
2.14255
2.13906
2.13694
2.13656
2.13662
2.13719
2.13906
2.1419
2.14512
2.14852
2.15217
2.15595
2.15973
2.16344
2.16686
2.17
2.17258
2.17477
2.1763
2.17743
2.17788
2.178
2.1774
2.17649
2.17542
2.17426
2.17275
2.17069
2.16797
2.16483
2.16142
2.1578
2.15405
2.15018
2.14622
2.14215
2.138
2.13377
2.12949
2.12516
2.12084
2.11652
2.11226
2.10805
2.10395
2.09996
2.09613
2.09246
2.089
2.08577
2.0828
2.08011
2.07774
2.0757
2.07404
2.07278
2.07196
2.07163
2.07165
2.07181
2.07215
2.07279
2.07386
2.07536
2.07715
2.07916
2.08133
2.08355
2.08574
2.0878
2.0897
2.09137
2.09282
2.094
2.09495
2.09564
2.0961
2.09628
2.0963
2.09622
2.09609
2.09578