/*--------------------------------*- C++ -*----------------------------------*\
| =========                 |                                                 |
| \\      /  F ield         | OpenFOAM: The Open Source CFD Toolbox           |
|  \\    /   O peration     | Version:  2412                                  |
|   \\  /    A nd           | Website:  www.openfoam.com                      |
|    \\/     M anipulation  |                                                 |
\*---------------------------------------------------------------------------*/
FoamFile
{
    version     2.0;
    format      ascii;
    arch        "LSB;label=32;scalar=64";
    class       volVectorField;
    location    "21";
    object      U;
}
// * * * * * * * * * * * * * * * * * * * * * * * * * * * * * * * * * * * * * //

dimensions      [0 1 -1 0 0 0 0];

internalField   nonuniform List<vector> 
7000
(
(2.59111 -7.25017e-05 0)
(1.62064 0.000178381 0)
(0.495731 0.000208923 0)
(0.552998 0.000350725 0)
(0.65469 0.000446536 0)
(0.719895 0.000524582 0)
(0.73278 0.000592426 0)
(0.725887 0.000662722 0)
(0.715824 0.000741184 0)
(0.708126 0.000831604 0)
(0.703658 0.00093025 0)
(0.700091 0.00103346 0)
(0.696005 0.00114043 0)
(0.69115 0.0012521 0)
(0.685685 0.0013695 0)
(0.679738 0.00149319 0)
(0.673326 0.00162348 0)
(0.666415 0.00176068 0)
(0.65897 0.00190522 0)
(0.650965 0.00205767 0)
(0.642377 0.00221862 0)
(0.633183 0.00238874 0)
(0.623357 0.00256874 0)
(0.612874 0.00275939 0)
(0.601703 0.00296151 0)
(0.589814 0.00317597 0)
(0.577175 0.00340369 0)
(0.563752 0.00364562 0)
(0.549512 0.00390274 0)
(0.534416 0.00417602 0)
(0.518429 0.00446644 0)
(0.501512 0.00477487 0)
(0.483627 0.00510221 0)
(0.464737 0.00544907 0)
(0.444807 0.00581605 0)
(0.423801 0.00620323 0)
(0.401691 0.00661067 0)
(0.378453 0.00703754 0)
(0.354068 0.0074829 0)
(0.328531 0.00794458 0)
(0.301843 0.00842019 0)
(0.274025 0.00890564 0)
(0.245111 0.00939698 0)
(0.215153 0.00988785 0)
(0.184226 0.0103738 0)
(0.152422 0.0108476 0)
(0.119823 0.0113137 0)
(0.0868513 0.0117557 0)
(0.0514927 0.0123444 0)
(0.0221151 0.0131966 0)
(2.59123 -4.81054e-05 0)
(1.62081 0.000347452 0)
(0.495419 0.00082799 0)
(0.552737 0.00113969 0)
(0.654451 0.00137484 0)
(0.71967 0.00159689 0)
(0.732555 0.0018049 0)
(0.725666 0.00202021 0)
(0.715613 0.00225772 0)
(0.707924 0.00252751 0)
(0.703462 0.00282031 0)
(0.699898 0.00312657 0)
(0.695817 0.0034441 0)
(0.690966 0.00377517 0)
(0.685507 0.00412242 0)
(0.679566 0.00448723 0)
(0.673159 0.00487033 0)
(0.666254 0.00527241 0)
(0.658816 0.00569456 0)
(0.650817 0.00613804 0)
(0.642236 0.00660437 0)
(0.633049 0.00709502 0)
(0.623232 0.00761174 0)
(0.612757 0.00815614 0)
(0.601594 0.00873017 0)
(0.589714 0.00933551 0)
(0.577085 0.0099742 0)
(0.563672 0.0106478 0)
(0.549441 0.0113583 0)
(0.534355 0.0121069 0)
(0.518377 0.0128952 0)
(0.501468 0.0137235 0)
(0.483591 0.0145927 0)
(0.464707 0.0155016 0)
(0.444779 0.0164495 0)
(0.423774 0.0174329 0)
(0.401661 0.0184485 0)
(0.378413 0.0194895 0)
(0.354014 0.0205485 0)
(0.328452 0.0216144 0)
(0.301731 0.0226746 0)
(0.273866 0.0237124 0)
(0.244891 0.0247103 0)
(0.214855 0.0256471 0)
(0.183831 0.0265021 0)
(0.15191 0.0272558 0)
(0.119165 0.027906 0)
(0.0860658 0.0284264 0)
(0.0505468 0.0290771 0)
(0.021189 0.0298272 0)
(2.59136 4.76322e-05 0)
(1.6211 0.000392317 0)
(0.495626 0.0016049 0)
(0.552789 0.00198049 0)
(0.654493 0.00230472 0)
(0.719712 0.00267034 0)
(0.732597 0.00303977 0)
(0.72572 0.00341862 0)
(0.715687 0.00382874 0)
(0.70802 0.00428667 0)
(0.703573 0.00478137 0)
(0.700018 0.00530002 0)
(0.695946 0.0058397 0)
(0.691106 0.00640326 0)
(0.68566 0.00699468 0)
(0.679733 0.00761596 0)
(0.67334 0.00826874 0)
(0.66645 0.00895409 0)
(0.659027 0.00967424 0)
(0.651045 0.0104311 0)
(0.642482 0.0112276 0)
(0.633314 0.0120662 0)
(0.623517 0.01295 0)
(0.613064 0.0138818 0)
(0.601924 0.0148653 0)
(0.590069 0.0159033 0)
(0.577465 0.0169996 0)
(0.564079 0.0181569 0)
(0.549877 0.0193791 0)
(0.53482 0.0206682 0)
(0.518872 0.0220275 0)
(0.501993 0.0234579 0)
(0.484146 0.024961 0)
(0.46529 0.0265358 0)
(0.445389 0.028181 0)
(0.424407 0.0298919 0)
(0.402311 0.0316627 0)
(0.379074 0.0334836 0)
(0.354676 0.0353411 0)
(0.329104 0.0372191 0)
(0.302358 0.0390942 0)
(0.27445 0.0409418 0)
(0.24541 0.0427293 0)
(0.215287 0.0444246 0)
(0.184147 0.045991 0)
(0.152086 0.0473934 0)
(0.119171 0.0486195 0)
(0.0859294 0.0496297 0)
(0.0502711 0.0506822 0)
(0.0207493 0.0516751 0)
(2.59154 5.4111e-05 0)
(1.62155 0.000535784 0)
(0.496054 0.00235091 0)
(0.552912 0.0028143 0)
(0.654615 0.003237 0)
(0.719854 0.00375702 0)
(0.732745 0.00430335 0)
(0.725882 0.0048593 0)
(0.715879 0.00545204 0)
(0.708243 0.00610431 0)
(0.703819 0.00680584 0)
(0.700282 0.00754276 0)
(0.696226 0.00831127 0)
(0.691407 0.00911447 0)
(0.685982 0.00995695 0)
(0.680078 0.0108416 0)
(0.673709 0.0117705 0)
(0.666844 0.0127458 0)
(0.659448 0.0137702 0)
(0.651495 0.0148469 0)
(0.642962 0.0159796 0)
(0.633827 0.0171721 0)
(0.624065 0.0184286 0)
(0.613649 0.0197535 0)
(0.602549 0.0211514 0)
(0.590736 0.0226272 0)
(0.578176 0.0241855 0)
(0.564838 0.0258313 0)
(0.550684 0.0275688 0)
(0.535678 0.0294028 0)
(0.519782 0.0313362 0)
(0.502957 0.0333728 0)
(0.485163 0.0355128 0)
(0.46636 0.0377576 0)
(0.446509 0.0401032 0)
(0.425573 0.0425467 0)
(0.403517 0.0450772 0)
(0.380311 0.0476847 0)
(0.355931 0.0503486 0)
(0.330363 0.0530483 0)
(0.303599 0.0557514 0)
(0.275651 0.058422 0)
(0.246543 0.0610177 0)
(0.21632 0.0634872 0)
(0.185047 0.0657863 0)
(0.152819 0.0678587 0)
(0.119703 0.0696759 0)
(0.0862772 0.0711841 0)
(0.0504204 0.0726093 0)
(0.0206054 0.0737654 0)
(2.59179 6.77425e-05 0)
(1.62218 0.000716308 0)
(0.496605 0.00310363 0)
(0.553022 0.00367962 0)
(0.654743 0.00421137 0)
(0.720026 0.00488548 0)
(0.732931 0.00560888 0)
(0.726086 0.00634899 0)
(0.71612 0.00713313 0)
(0.708525 0.00798593 0)
(0.704134 0.00889953 0)
(0.700623 0.00986106 0)
(0.696594 0.0108657 0)
(0.691803 0.011917 0)
(0.686411 0.0130194 0)
(0.68054 0.0141769 0)
(0.674208 0.0153919 0)
(0.66738 0.016668 0)
(0.660024 0.0180078 0)
(0.652114 0.0194166 0)
(0.643627 0.0208981 0)
(0.634541 0.0224584 0)
(0.624831 0.024102 0)
(0.61447 0.0258357 0)
(0.60343 0.0276645 0)
(0.591679 0.0295958 0)
(0.579187 0.0316348 0)
(0.565919 0.033789 0)
(0.551839 0.0360632 0)
(0.53691 0.0384645 0)
(0.521093 0.0409965 0)
(0.504349 0.0436641 0)
(0.486636 0.0464685 0)
(0.467913 0.049411 0)
(0.44814 0.0524878 0)
(0.427276 0.0556937 0)
(0.405284 0.0590176 0)
(0.382129 0.0624433 0)
(0.357786 0.0659493 0)
(0.332232 0.0695036 0)
(0.305457 0.0730717 0)
(0.277465 0.0766 0)
(0.248276 0.080037 0)
(0.21793 0.0833128 0)
(0.186488 0.086361 0)
(0.154052 0.0891162 0)
(0.120674 0.0915194 0)
(0.0869974 0.0934935 0)
(0.0508521 0.0952312 0)
(0.0206233 0.09648 0)
(2.59212 8.00281e-05 0)
(1.62303 0.000900398 0)
(0.497304 0.00385543 0)
(0.553138 0.00455755 0)
(0.654886 0.00520459 0)
(0.720237 0.00603311 0)
(0.733168 0.00693905 0)
(0.726349 0.00786839 0)
(0.716426 0.00885254 0)
(0.708881 0.00991475 0)
(0.704532 0.0110488 0)
(0.701057 0.0122428 0)
(0.697064 0.0134921 0)
(0.692312 0.0148 0)
(0.686962 0.0161714 0)
(0.681136 0.0176109 0)
(0.67485 0.0191216 0)
(0.668072 0.0207076 0)
(0.660769 0.0223731 0)
(0.652915 0.0241237 0)
(0.644489 0.025965 0)
(0.635467 0.0279037 0)
(0.625827 0.0299464 0)
(0.61554 0.0321005 0)
(0.604579 0.0343738 0)
(0.592913 0.0367738 0)
(0.580511 0.0393091 0)
(0.567337 0.0419873 0)
(0.553357 0.0448167 0)
(0.538533 0.047804 0)
(0.522825 0.0509565 0)
(0.506192 0.0542784 0)
(0.488591 0.057774 0)
(0.46998 0.0614431 0)
(0.450316 0.0652841 0)
(0.429554 0.069289 0)
(0.407655 0.0734469 0)
(0.384579 0.077737 0)
(0.360292 0.0821343 0)
(0.33477 0.0865992 0)
(0.307991 0.0910869 0)
(0.279956 0.0955381 0)
(0.250671 0.0998812 0)
(0.220175 0.104034 0)
(0.188524 0.107902 0)
(0.155816 0.111395 0)
(0.122105 0.114433 0)
(0.0880686 0.116904 0)
(0.0515129 0.118954 0)
(0.0207747 0.120274 0)
(2.59256 9.26901e-05 0)
(1.6241 0.00108666 0)
(0.49816 0.00461501 0)
(0.553258 0.00545104 0)
(0.655044 0.00621984 0)
(0.720488 0.00720649 0)
(0.733458 0.00830252 0)
(0.726672 0.00942561 0)
(0.716803 0.0106166 0)
(0.709318 0.0118966 0)
(0.705021 0.0132593 0)
(0.701592 0.0146932 0)
(0.697645 0.0161951 0)
(0.692943 0.0177678 0)
(0.687645 0.019417 0)
(0.681876 0.0211471 0)
(0.675649 0.0229627 0)
(0.668934 0.0248681 0)
(0.661698 0.0268692 0)
(0.653915 0.0289719 0)
(0.645565 0.0311837 0)
(0.636626 0.033512 0)
(0.627073 0.0359655 0)
(0.616881 0.0385525 0)
(0.60602 0.041283 0)
(0.594462 0.044166 0)
(0.582173 0.0472121 0)
(0.569121 0.0504306 0)
(0.555269 0.0538317 0)
(0.540579 0.0574243 0)
(0.52501 0.0612172 0)
(0.508521 0.0652169 0)
(0.491066 0.0694284 0)
(0.472603 0.0738537 0)
(0.453082 0.0784907 0)
(0.432459 0.0833323 0)
(0.410686 0.0883656 0)
(0.38772 0.0935683 0)
(0.363518 0.0989104 0)
(0.338047 0.104347 0)
(0.31128 0.109824 0)
(0.283201 0.115268 0)
(0.253815 0.120595 0)
(0.22314 0.125705 0)
(0.191235 0.130478 0)
(0.158189 0.134796 0)
(0.124047 0.138538 0)
(0.0895436 0.14156 0)
(0.05242 0.14397 0)
(0.021022 0.145394 0)
(2.59309 0.000105468 0)
(1.62542 0.00127343 0)
(0.499187 0.00538039 0)
(0.553388 0.00635406 0)
(0.65522 0.00724823 0)
(0.720785 0.00839723 0)
(0.733809 0.0096859 0)
(0.727063 0.01101 0)
(0.717261 0.012416 0)
(0.709846 0.0139219 0)
(0.705611 0.0155208 0)
(0.70224 0.0172026 0)
(0.69835 0.0189649 0)
(0.693708 0.0208111 0)
(0.688476 0.0227466 0)
(0.682775 0.0247765 0)
(0.676621 0.0269061 0)
(0.669983 0.0291406 0)
(0.662829 0.0314868 0)
(0.655134 0.0339519 0)
(0.646878 0.0365445 0)
(0.63804 0.0392737 0)
(0.628595 0.0421493 0)
(0.618519 0.0451818 0)
(0.607783 0.0483823 0)
(0.596357 0.0517625 0)
(0.58421 0.0553341 0)
(0.571307 0.0591093 0)
(0.557614 0.0630997 0)
(0.543089 0.0673171 0)
(0.527694 0.0717716 0)
(0.511384 0.0764723 0)
(0.494114 0.0814263 0)
(0.475836 0.0866365 0)
(0.456499 0.0921037 0)
(0.436054 0.0978199 0)
(0.414447 0.103773 0)
(0.391627 0.109939 0)
(0.367545 0.116286 0)
(0.342155 0.122762 0)
(0.315418 0.129306 0)
(0.287306 0.135833 0)
(0.257808 0.142239 0)
(0.226933 0.148407 0)
(0.19472 0.154187 0)
(0.161266 0.159427 0)
(0.126585 0.163978 0)
(0.0914616 0.167639 0)
(0.0536169 0.170466 0)
(0.0214118 0.172029 0)
(2.59372 0.000118312 0)
(1.627 0.00145982 0)
(0.500399 0.00614889 0)
(0.55353 0.00726256 0)
(0.655418 0.0082853 0)
(0.721132 0.00960086 0)
(0.734227 0.0110877 0)
(0.727534 0.0126183 0)
(0.71781 0.0142468 0)
(0.710476 0.0159864 0)
(0.706315 0.0178295 0)
(0.703012 0.0197673 0)
(0.699192 0.0217983 0)
(0.694623 0.0239263 0)
(0.689469 0.0261567 0)
(0.68385 0.0284952 0)
(0.677784 0.0309474 0)
(0.671238 0.0335199 0)
(0.664182 0.0362202 0)
(0.656593 0.0390571 0)
(0.64845 0.0420403 0)
(0.639733 0.0451803 0)
(0.630419 0.0484887 0)
(0.620483 0.0519777 0)
(0.609897 0.0556605 0)
(0.598631 0.0595504 0)
(0.586655 0.0636618 0)
(0.573935 0.0680086 0)
(0.560433 0.0726057 0)
(0.546112 0.0774663 0)
(0.530929 0.082604 0)
(0.51484 0.0880297 0)
(0.497796 0.0937537 0)
(0.479747 0.0997807 0)
(0.460639 0.106114 0)
(0.440418 0.112747 0)
(0.419022 0.119669 0)
(0.396394 0.126855 0)
(0.372472 0.134271 0)
(0.3472 0.141865 0)
(0.320522 0.149563 0)
(0.292393 0.157276 0)
(0.262786 0.164877 0)
(0.231685 0.172226 0)
(0.199118 0.179152 0)
(0.165165 0.18545 0)
(0.129836 0.190927 0)
(0.093939 0.195334 0)
(0.0551463 0.198672 0)
(0.0219196 0.200426 0)
(2.59447 0.000131084 0)
(1.62887 0.00164456 0)
(0.501812 0.0069154 0)
(0.553687 0.00817051 0)
(0.655643 0.00932403 0)
(0.721538 0.0108097 0)
(0.734722 0.0124988 0)
(0.728093 0.0142417 0)
(0.718463 0.0161001 0)
(0.711223 0.0180818 0)
(0.707147 0.0201775 0)
(0.703925 0.0223797 0)
(0.700187 0.0246878 0)
(0.695705 0.0271059 0)
(0.690643 0.0296397 0)
(0.685121 0.0322951 0)
(0.679157 0.0350786 0)
(0.67272 0.0379976 0)
(0.66578 0.0410609 0)
(0.658315 0.0442783 0)
(0.650306 0.047661 0)
(0.641733 0.0512212 0)
(0.632573 0.0549721 0)
(0.622802 0.0589278 0)
(0.612394 0.0631035 0)
(0.601319 0.0675148 0)
(0.589546 0.0721784 0)
(0.577043 0.0771109 0)
(0.563772 0.0823297 0)
(0.549694 0.0878512 0)
(0.534766 0.093692 0)
(0.518943 0.0998663 0)
(0.502175 0.106387 0)
(0.484407 0.113264 0)
(0.465583 0.1205 0)
(0.44564 0.128095 0)
(0.424512 0.136039 0)
(0.402129 0.144309 0)
(0.378422 0.152869 0)
(0.353313 0.161668 0)
(0.326736 0.170625 0)
(0.298618 0.179642 0)
(0.268909 0.188579 0)
(0.237574 0.197267 0)
(0.204602 0.205501 0)
(0.170066 0.213039 0)
(0.133933 0.219625 0)
(0.0970645 0.224935 0)
(0.0571074 0.228896 0)
(0.022625 0.230902 0)
(2.59535 0.000143658 0)
(1.63104 0.00182588 0)
(0.503438 0.00767254 0)
(0.553862 0.00907049 0)
(0.6559 0.0103571 0)
(0.722009 0.0120151 0)
(0.735304 0.0139115 0)
(0.728754 0.0158716 0)
(0.719233 0.0179668 0)
(0.7121 0.020199 0)
(0.708122 0.0225564 0)
(0.704994 0.0250316 0)
(0.701353 0.0276252 0)
(0.696972 0.0303418 0)
(0.692016 0.0331872 0)
(0.686607 0.0361678 0)
(0.680761 0.0392906 0)
(0.674451 0.0425642 0)
(0.667646 0.0459983 0)
(0.660326 0.0496043 0)
(0.652472 0.0533947 0)
(0.644066 0.0573834 0)
(0.635086 0.0615854 0)
(0.625509 0.0660168 0)
(0.615308 0.0706951 0)
(0.604457 0.0756381 0)
(0.592923 0.0808653 0)
(0.580675 0.086396 0)
(0.567676 0.0922507 0)
(0.553886 0.0984493 0)
(0.539263 0.105012 0)
(0.523758 0.111956 0)
(0.50732 0.1193 0)
(0.489893 0.127056 0)
(0.471414 0.135234 0)
(0.451815 0.143837 0)
(0.431023 0.152857 0)
(0.408956 0.16228 0)
(0.38553 0.172068 0)
(0.360653 0.182172 0)
(0.334232 0.19251 0)
(0.306174 0.202974 0)
(0.27639 0.213415 0)
(0.244817 0.223637 0)
(0.211403 0.233403 0)
(0.176189 0.242405 0)
(0.139118 0.250323 0)
(0.101046 0.256754 0)
(0.0595858 0.261524 0)
(0.0235148 0.26388 0)
(2.59634 0.000155707 0)
(1.63352 0.00200179 0)
(0.505293 0.00840909 0)
(0.554063 0.00995337 0)
(0.656194 0.0113765 0)
(0.722556 0.0132053 0)
(0.735983 0.0153127 0)
(0.729527 0.0174952 0)
(0.720137 0.0198354 0)
(0.713127 0.0223276 0)
(0.709261 0.0249558 0)
(0.706241 0.027713 0)
(0.70271 0.0306007 0)
(0.698446 0.033624 0)
(0.693612 0.0367891 0)
(0.688331 0.0401025 0)
(0.682621 0.0435721 0)
(0.676455 0.0472074 0)
(0.669805 0.0510194 0)
(0.662651 0.0550209 0)
(0.654976 0.059226 0)
(0.646762 0.0636501 0)
(0.63799 0.0683104 0)
(0.628636 0.073225 0)
(0.618676 0.0784136 0)
(0.608083 0.0838969 0)
(0.596828 0.089697 0)
(0.584877 0.0958366 0)
(0.572195 0.102339 0)
(0.558743 0.109229 0)
(0.544477 0.11653 0)
(0.529349 0.124265 0)
(0.513306 0.132456 0)
(0.496287 0.141122 0)
(0.478226 0.150279 0)
(0.45905 0.159936 0)
(0.438676 0.170092 0)
(0.417011 0.180738 0)
(0.393956 0.191845 0)
(0.369397 0.203366 0)
(0.343217 0.215224 0)
(0.31529 0.227304 0)
(0.285489 0.239452 0)
(0.2537 0.251447 0)
(0.219826 0.263016 0)
(0.18384 0.273805 0)
(0.145638 0.28339 0)
(0.106106 0.291246 0)
(0.0627957 0.297066 0)
(0.0247289 0.299906 0)
(2.59747 0.000164953 0)
(1.63632 0.00217187 0)
(0.507387 0.00910738 0)
(0.554297 0.0108065 0)
(0.656529 0.0123739 0)
(0.723182 0.0143643 0)
(0.736771 0.0166876 0)
(0.730433 0.019099 0)
(0.721196 0.0216931 0)
(0.714324 0.0244554 0)
(0.710583 0.0273644 0)
(0.707685 0.0304128 0)
(0.70428 0.0336032 0)
(0.700147 0.0369414 0)
(0.695451 0.0404338 0)
(0.690316 0.0440873 0)
(0.68476 0.0479106 0)
(0.678758 0.051914 0)
(0.672283 0.0561101 0)
(0.665318 0.0605129 0)
(0.657846 0.0651381 0)
(0.649852 0.0700032 0)
(0.641317 0.0751271 0)
(0.632219 0.0805304 0)
(0.622535 0.0862351 0)
(0.612239 0.092265 0)
(0.601303 0.0986447 0)
(0.589695 0.105401 0)
(0.577381 0.112561 0)
(0.564321 0.120153 0)
(0.550473 0.128205 0)
(0.535787 0.136748 0)
(0.520209 0.145808 0)
(0.503677 0.155413 0)
(0.48612 0.165583 0)
(0.467459 0.176339 0)
(0.447603 0.187689 0)
(0.426448 0.199634 0)
(0.403876 0.212156 0)
(0.379755 0.225216 0)
(0.353933 0.23875 0)
(0.32625 0.252644 0)
(0.296525 0.266743 0)
(0.264586 0.280814 0)
(0.230265 0.294541 0)
(0.193464 0.307508 0)
(0.153973 0.319198 0)
(0.112635 0.32893 0)
(0.0669426 0.336199 0)
(0.0262954 0.339747 0)
(2.59873 0.00017028 0)
(1.63946 0.00233366 0)
(0.509719 0.0097545 0)
(0.554572 0.0116117 0)
(0.656907 0.0133281 0)
(0.72389 0.0154716 0)
(0.737681 0.018021 0)
(0.73148 0.0206678 0)
(0.722422 0.0235246 0)
(0.715709 0.0265678 0)
(0.712107 0.029768 0)
(0.709346 0.0331171 0)
(0.706082 0.036619 0)
(0.702097 0.0402801 0)
(0.697557 0.0441069 0)
(0.692584 0.0481069 0)
(0.6872 0.0522893 0)
(0.681383 0.0566659 0)
(0.675106 0.0612503 0)
(0.668353 0.0660584 0)
(0.661111 0.0711073 0)
(0.653365 0.0764167 0)
(0.645098 0.0820074 0)
(0.63629 0.0879025 0)
(0.626919 0.0941265 0)
(0.616961 0.100706 0)
(0.60639 0.10767 0)
(0.595175 0.115047 0)
(0.583283 0.12287 0)
(0.570676 0.131172 0)
(0.557312 0.139987 0)
(0.543142 0.14935 0)
(0.528111 0.159296 0)
(0.512155 0.169862 0)
(0.495201 0.181078 0)
(0.477165 0.192975 0)
(0.457948 0.205576 0)
(0.437436 0.218894 0)
(0.415492 0.23293 0)
(0.391964 0.247661 0)
(0.366666 0.263039 0)
(0.339392 0.27897 0)
(0.309907 0.295306 0)
(0.277948 0.311816 0)
(0.243253 0.328167 0)
(0.205601 0.343876 0)
(0.164654 0.3583 0)
(0.121176 0.37056 0)
(0.0725101 0.379864 0)
(0.0284953 0.384475 0)
(2.60013 0.000178129 0)
(1.64293 0.00247602 0)
(0.512286 0.0103548 0)
(0.554891 0.0123504 0)
(0.657334 0.0141986 0)
(0.724689 0.0165113 0)
(0.73873 0.0192852 0)
(0.73269 0.0221776 0)
(0.723842 0.0253139 0)
(0.717307 0.0286508 0)
(0.713859 0.0321529 0)
(0.711248 0.0358128 0)
(0.708141 0.0396354 0)
(0.704321 0.0436278 0)
(0.699952 0.0477964 0)
(0.69516 0.0521493 0)
(0.689968 0.0566963 0)
(0.684355 0.0614506 0)
(0.678298 0.0664269 0)
(0.671784 0.071643 0)
(0.664799 0.0771175 0)
(0.657331 0.0828723 0)
(0.649365 0.0889301 0)
(0.640883 0.0953169 0)
(0.631865 0.10206 0)
(0.62229 0.109189 0)
(0.612132 0.116735 0)
(0.601364 0.124734 0)
(0.589953 0.13322 0)
(0.577865 0.142233 0)
(0.565058 0.151813 0)
(0.551485 0.162003 0)
(0.537092 0.172847 0)
(0.521815 0.184389 0)
(0.505579 0.196675 0)
(0.488297 0.209747 0)
(0.469865 0.223648 0)
(0.450158 0.238409 0)
(0.429027 0.254056 0)
(0.406294 0.270592 0)
(0.381742 0.287999 0)
(0.355117 0.306214 0)
(0.326115 0.325118 0)
(0.294385 0.344503 0)
(0.259521 0.364039 0)
(0.221133 0.383211 0)
(0.178642 0.40125 0)
(0.13261 0.417056 0)
(0.0800927 0.429395 0)
(0.0315274 0.435744 0)
(2.60165 0.000187988 0)
(1.64675 0.00259336 0)
(0.515118 0.010886 0)
(0.555258 0.0129938 0)
(0.657832 0.0149541 0)
(0.725621 0.017453 0)
(0.739951 0.0204567 0)
(0.734113 0.0236067 0)
(0.725507 0.0270392 0)
(0.719165 0.0306839 0)
(0.715884 0.0344995 0)
(0.713438 0.0384793 0)
(0.710502 0.0426298 0)
(0.706861 0.0469592 0)
(0.70268 0.0514737 0)
(0.698085 0.0561823 0)
(0.693103 0.0610958 0)
(0.687714 0.0662287 0)
(0.6819 0.0715973 0)
(0.675647 0.0772209 0)
(0.668946 0.0831203 0)
(0.661786 0.0893191 0)
(0.654155 0.0958425 0)
(0.646036 0.102719 0)
(0.637412 0.109978 0)
(0.628265 0.117653 0)
(0.618571 0.125779 0)
(0.608306 0.134394 0)
(0.59744 0.143541 0)
(0.585942 0.153262 0)
(0.573771 0.163605 0)
(0.560885 0.174621 0)
(0.54723 0.186365 0)
(0.532747 0.198891 0)
(0.517359 0.21226 0)
(0.500982 0.226532 0)
(0.483507 0.241769 0)
(0.464804 0.258031 0)
(0.444715 0.275372 0)
(0.42304 0.293837 0)
(0.399537 0.313451 0)
(0.373901 0.334212 0)
(0.345756 0.356052 0)
(0.314639 0.378821 0)
(0.279982 0.402284 0)
(0.241129 0.425904 0)
(0.197198 0.448796 0)
(0.14834 0.469687 0)
(0.0910108 0.486704 0)
(0.0361567 0.496114 0)
(2.6033 0.000194165 0)
(1.65088 0.00268318 0)
(0.5182 0.0112975 0)
(0.555678 0.0135017 0)
(0.658418 0.0155685 0)
(0.726717 0.0182535 0)
(0.741382 0.0215107 0)
(0.735786 0.0249348 0)
(0.727458 0.0286803 0)
(0.721326 0.032654 0)
(0.718222 0.0368031 0)
(0.715951 0.0411197 0)
(0.7132 0.0456122 0)
(0.709753 0.0502897 0)
(0.705773 0.0551594 0)
(0.701392 0.0602303 0)
(0.696638 0.0655144 0)
(0.691495 0.0710271 0)
(0.685945 0.0767869 0)
(0.67998 0.0828145 0)
(0.673591 0.0891333 0)
(0.66677 0.0957685 0)
(0.659507 0.102748 0)
(0.65179 0.110103 0)
(0.643603 0.117867 0)
(0.634931 0.126075 0)
(0.625754 0.134767 0)
(0.616051 0.143986 0)
(0.605796 0.153777 0)
(0.594961 0.164192 0)
(0.583512 0.175285 0)
(0.571409 0.187114 0)
(0.558604 0.199746 0)
(0.54504 0.213248 0)
(0.530648 0.227698 0)
(0.515345 0.243175 0)
(0.499026 0.259767 0)
(0.481562 0.277565 0)
(0.462792 0.296664 0)
(0.442507 0.317163 0)
(0.420448 0.339136 0)
(0.396269 0.362695 0)
(0.369521 0.387866 0)
(0.339679 0.414526 0)
(0.305957 0.442721 0)
(0.267307 0.472038 0)
(0.222425 0.50164 0)
(0.170705 0.530083 0)
(0.107367 0.554892 0)
(0.0434837 0.570072 0)
(2.60505 0.000196811 0)
(1.6553 0.0027341 0)
(0.521507 0.0115403 0)
(0.556163 0.0138256 0)
(0.659114 0.0159936 0)
(0.728015 0.0188669 0)
(0.743077 0.0223958 0)
(0.737763 0.0261118 0)
(0.729755 0.0301881 0)
(0.723854 0.0345039 0)
(0.720938 0.0389936 0)
(0.718852 0.0436494 0)
(0.716296 0.048484 0)
(0.713054 0.0535083 0)
(0.70929 0.0587316 0)
(0.705136 0.0641631 0)
(0.700625 0.0698161 0)
(0.695744 0.0757075 0)
(0.690479 0.0818573 0)
(0.684823 0.0882878 0)
(0.678772 0.0950241 0)
(0.67232 0.102093 0)
(0.665459 0.109526 0)
(0.658181 0.117354 0)
(0.650473 0.125614 0)
(0.642324 0.134345 0)
(0.633717 0.14359 0)
(0.624637 0.153397 0)
(0.615062 0.163816 0)
(0.604969 0.174904 0)
(0.59433 0.186723 0)
(0.583112 0.199342 0)
(0.571274 0.212836 0)
(0.558767 0.22729 0)
(0.545532 0.242796 0)
(0.531494 0.259457 0)
(0.516558 0.27739 0)
(0.500608 0.296725 0)
(0.483491 0.317595 0)
(0.464992 0.340212 0)
(0.444882 0.364639 0)
(0.422813 0.391079 0)
(0.398174 0.41991 0)
(0.37052 0.451192 0)
(0.338957 0.48506 0)
(0.301912 0.521522 0)
(0.25746 0.560247 0)
(0.203863 0.60002 0)
(0.133824 0.638302 0)
(0.0565613 0.666344 0)
(2.60689 0.000195288 0)
(1.65994 0.00273492 0)
(0.525008 0.01154 0)
(0.556739 0.013891 0)
(0.659956 0.0161676 0)
(0.729563 0.0192573 0)
(0.745091 0.0231073 0)
(0.740104 0.0271748 0)
(0.732452 0.0316482 0)
(0.726787 0.0363596 0)
(0.724058 0.0412304 0)
(0.72216 0.0462563 0)
(0.719808 0.0514555 0)
(0.716784 0.0568426 0)
(0.713251 0.0624264 0)
(0.709341 0.0682177 0)
(0.705091 0.0742319 0)
(0.700493 0.0804886 0)
(0.695537 0.0870102 0)
(0.690217 0.093822 0)
(0.684532 0.100951 0)
(0.67848 0.108428 0)
(0.672056 0.116285 0)
(0.665255 0.124558 0)
(0.658069 0.133285 0)
(0.65049 0.14251 0)
(0.642507 0.152277 0)
(0.63411 0.16264 0)
(0.625283 0.173653 0)
(0.61601 0.185379 0)
(0.606271 0.197887 0)
(0.596041 0.211254 0)
(0.585292 0.225568 0)
(0.573986 0.240926 0)
(0.562077 0.25744 0)
(0.549506 0.275236 0)
(0.536203 0.294445 0)
(0.52206 0.315292 0)
(0.507004 0.337862 0)
(0.490757 0.362405 0)
(0.473067 0.389353 0)
(0.453929 0.41893 0)
(0.432717 0.451624 0)
(0.408632 0.487931 0)
(0.380863 0.528303 0)
(0.347865 0.573468 0)
(0.306996 0.624248 0)
(0.255018 0.680976 0)
(0.180396 0.74302 0)
(0.0832322 0.803179 0)
(2.60878 0.000140558 0)
(1.66471 0.00273105 0)
(0.528601 0.011205 0)
(0.557428 0.0135507 0)
(0.661004 0.0159219 0)
(0.731461 0.0192106 0)
(0.747558 0.0233838 0)
(0.742963 0.0278064 0)
(0.73571 0.0326805 0)
(0.730279 0.0377811 0)
(0.727723 0.0430203 0)
(0.726005 0.048406 0)
(0.723856 0.053967 0)
(0.721049 0.0597201 0)
(0.717744 0.065674 0)
(0.714078 0.0718385 0)
(0.710095 0.0782293 0)
(0.70579 0.0848667 0)
(0.701156 0.0917747 0)
(0.696191 0.0989792 0)
(0.690896 0.106509 0)
(0.685272 0.114396 0)
(0.679318 0.122674 0)
(0.673032 0.13138 0)
(0.666412 0.140556 0)
(0.659452 0.150248 0)
(0.652149 0.160504 0)
(0.644497 0.17138 0)
(0.636489 0.182938 0)
(0.628117 0.195244 0)
(0.61937 0.208375 0)
(0.610235 0.222417 0)
(0.600698 0.237467 0)
(0.59074 0.253632 0)
(0.580333 0.271053 0)
(0.569425 0.289909 0)
(0.558038 0.31022 0)
(0.546005 0.332264 0)
(0.533218 0.356428 0)
(0.519856 0.382916 0)
(0.505638 0.412249 0)
(0.490268 0.444862 0)
(0.473494 0.481245 0)
(0.454822 0.522384 0)
(0.433609 0.569453 0)
(0.408682 0.624273 0)
(0.377653 0.689739 0)
(0.336611 0.770925 0)
(0.270948 0.878183 0)
(0.146442 1.04341 0)
(2.61115 8.00212e-05 0)
(1.67048 0.00260092 0)
(0.532339 0.0103801 0)
(0.557938 0.0128158 0)
(0.662139 0.0154316 0)
(0.733811 0.0191849 0)
(0.750734 0.0239829 0)
(0.746691 0.0290423 0)
(0.739973 0.0345598 0)
(0.734834 0.0402278 0)
(0.73251 0.0459569 0)
(0.731063 0.0517827 0)
(0.729228 0.0577557 0)
(0.726763 0.0639029 0)
(0.723819 0.0702387 0)
(0.720538 0.0767776 0)
(0.71697 0.0835404 0)
(0.713119 0.0905526 0)
(0.708981 0.0978428 0)
(0.704558 0.105441 0)
(0.699855 0.113378 0)
(0.694879 0.12169 0)
(0.689635 0.130411 0)
(0.684125 0.139582 0)
(0.678354 0.149246 0)
(0.672326 0.159451 0)
(0.666045 0.170247 0)
(0.659516 0.181693 0)
(0.652743 0.193854 0)
(0.645733 0.2068 0)
(0.638493 0.220613 0)
(0.631028 0.235384 0)
(0.623343 0.251239 0)
(0.615463 0.268263 0)
(0.607452 0.286548 0)
(0.599082 0.306343 0)
(0.590401 0.327878 0)
(0.581891 0.351333 0)
(0.573406 0.377138 0)
(0.564724 0.405655 0)
(0.555966 0.437233 0)
(0.547217 0.472581 0)
(0.538668 0.512536 0)
(0.530546 0.558383 0)
(0.523391 0.611907 0)
(0.51838 0.675871 0)
(0.518235 0.754738 0)
(0.531159 0.855938 0)
(0.587131 0.99065 0)
(0.657208 1.18533 0)
(2.61367 5.9288e-05 0)
(1.67663 0.00194179 0)
(0.53686 0.00776159 0)
(0.559573 0.00992235 0)
(0.664783 0.0125039 0)
(0.7382 0.0166789 0)
(0.756202 0.0222095 0)
(0.75276 0.0280494 0)
(0.746503 0.0343807 0)
(0.741432 0.0407691 0)
(0.739125 0.0471463 0)
(0.737779 0.0535882 0)
(0.736124 0.0601598 0)
(0.733882 0.0668874 0)
(0.731192 0.0737821 0)
(0.7282 0.0808586 0)
(0.724966 0.0881404 0)
(0.721501 0.0956558 0)
(0.717803 0.103435 0)
(0.713877 0.111511 0)
(0.709731 0.119916 0)
(0.705376 0.128686 0)
(0.70082 0.137861 0)
(0.696072 0.147482 0)
(0.691143 0.157594 0)
(0.686044 0.168249 0)
(0.680788 0.1795 0)
(0.67539 0.191407 0)
(0.669869 0.204037 0)
(0.664243 0.217469 0)
(0.658534 0.231807 0)
(0.652804 0.247067 0)
(0.647035 0.263368 0)
(0.641149 0.280926 0)
(0.635387 0.299872 0)
(0.629961 0.320341 0)
(0.624761 0.342676 0)
(0.619858 0.367077 0)
(0.615479 0.393734 0)
(0.61178 0.423099 0)
(0.609035 0.455695 0)
(0.607722 0.492174 0)
(0.608506 0.533452 0)
(0.612482 0.580679 0)
(0.621472 0.63552 0)
(0.638797 0.700131 0)
(0.670465 0.77743 0)
(0.725485 0.870851 0)
(0.83664 0.98042 0)
(0.9845 1.09499 0)
(2.61512 7.01305e-05 0)
(1.68018 0.00130401 0)
(0.539716 0.00545612 0)
(0.561322 0.00790747 0)
(0.668135 0.0111 0)
(0.743965 0.0164624 0)
(0.763412 0.0232601 0)
(0.760701 0.0301947 0)
(0.754914 0.0372558 0)
(0.749837 0.0440621 0)
(0.74754 0.0507369 0)
(0.74633 0.0574573 0)
(0.74488 0.0643036 0)
(0.742862 0.0712961 0)
(0.740408 0.0784413 0)
(0.737678 0.0857623 0)
(0.734745 0.0932925 0)
(0.731625 0.101067 0)
(0.72832 0.109118 0)
(0.724838 0.11748 0)
(0.721193 0.126187 0)
(0.7174 0.135274 0)
(0.713472 0.144778 0)
(0.709428 0.15474 0)
(0.705283 0.165203 0)
(0.701059 0.176215 0)
(0.696777 0.187826 0)
(0.692463 0.200105 0)
(0.688152 0.213104 0)
(0.683917 0.226852 0)
(0.679663 0.241464 0)
(0.675425 0.257084 0)
(0.671537 0.273773 0)
(0.668038 0.291695 0)
(0.664843 0.311045 0)
(0.662112 0.331906 0)
(0.660017 0.354449 0)
(0.658733 0.37894 0)
(0.658543 0.40567 0)
(0.659813 0.434981 0)
(0.66301 0.467331 0)
(0.668879 0.503238 0)
(0.678487 0.543363 0)
(0.693311 0.588469 0)
(0.715738 0.639413 0)
(0.749223 0.697039 0)
(0.799355 0.761617 0)
(0.871733 0.832195 0)
(0.984666 0.903814 0)
(1.12032 0.956645 0)
(2.61633 3.80688e-05 0)
(1.68325 -0.00152968 0)
(0.545078 -0.00484903 0)
(0.567293 -0.00305214 0)
(0.675904 0.00099394 0)
(0.754101 0.00904733 0)
(0.774426 0.0185811 0)
(0.771491 0.0278652 0)
(0.765108 0.0364517 0)
(0.759439 0.0442533 0)
(0.756963 0.0517456 0)
(0.755838 0.059224 0)
(0.754555 0.0667664 0)
(0.752722 0.0743924 0)
(0.75048 0.082097 0)
(0.748018 0.0899163 0)
(0.745417 0.0978955 0)
(0.742686 0.106076 0)
(0.739823 0.114496 0)
(0.736836 0.123192 0)
(0.733739 0.132203 0)
(0.730547 0.141568 0)
(0.727279 0.151329 0)
(0.723956 0.161524 0)
(0.720603 0.172201 0)
(0.717244 0.18342 0)
(0.713928 0.195202 0)
(0.710675 0.207589 0)
(0.707443 0.220685 0)
(0.70436 0.234566 0)
(0.701636 0.249284 0)
(0.69924 0.265005 0)
(0.697184 0.281817 0)
(0.695637 0.299739 0)
(0.694702 0.318922 0)
(0.694541 0.339525 0)
(0.695375 0.361715 0)
(0.697458 0.385693 0)
(0.701149 0.411684 0)
(0.706876 0.439942 0)
(0.715248 0.470751 0)
(0.727074 0.504438 0)
(0.74349 0.541285 0)
(0.765991 0.581572 0)
(0.796633 0.625378 0)
(0.838106 0.672426 0)
(0.894046 0.721659 0)
(0.967147 0.770487 0)
(1.06834 0.814692 0)
(1.18136 0.84025 0)
(2.612 0.00228984 0)
(1.67322 -0.00676641 0)
(0.549621 -0.0137882 0)
(0.583077 -0.00801707 0)
(0.696139 -0.00038955 0)
(0.777902 0.00988554 0)
(0.79851 0.0200791 0)
(0.794089 0.0297255 0)
(0.785758 0.0382387 0)
(0.778715 0.0460992 0)
(0.775599 0.0537797 0)
(0.774119 0.0614368 0)
(0.772534 0.069105 0)
(0.770395 0.0768162 0)
(0.76786 0.084623 0)
(0.765172 0.0925784 0)
(0.762411 0.100727 0)
(0.759584 0.109106 0)
(0.75669 0.117748 0)
(0.753739 0.126687 0)
(0.750751 0.135956 0)
(0.747745 0.145587 0)
(0.744741 0.155614 0)
(0.741767 0.166068 0)
(0.738876 0.176962 0)
(0.736048 0.188353 0)
(0.733281 0.200322 0)
(0.730738 0.212887 0)
(0.728513 0.226113 0)
(0.726588 0.240108 0)
(0.725026 0.254904 0)
(0.723934 0.270526 0)
(0.723399 0.287085 0)
(0.723566 0.304675 0)
(0.724598 0.323398 0)
(0.726677 0.343389 0)
(0.730052 0.364764 0)
(0.735003 0.387677 0)
(0.741906 0.41226 0)
(0.751227 0.438665 0)
(0.763562 0.46702 0)
(0.779687 0.49743 0)
(0.800573 0.529914 0)
(0.827473 0.564357 0)
(0.861908 0.600414 0)
(0.905712 0.637324 0)
(0.961169 0.673751 0)
(1.02988 0.707362 0)
(1.11625 0.73523 0)
(1.20908 0.748978 0)
(2.60373 0.00790905 0)
(1.64302 -0.0735172 0)
(0.584928 -0.0725601 0)
(0.623949 -0.0457613 0)
(0.731391 -0.00576596 0)
(0.809016 0.0165235 0)
(0.827017 0.0266249 0)
(0.821059 0.0352845 0)
(0.811545 0.0426494 0)
(0.804184 0.0507645 0)
(0.800811 0.0592946 0)
(0.798952 0.0677268 0)
(0.79697 0.0759374 0)
(0.794528 0.0840064 0)
(0.791804 0.0920707 0)
(0.788973 0.100209 0)
(0.786093 0.10847 0)
(0.783164 0.116894 0)
(0.780186 0.125525 0)
(0.777173 0.134408 0)
(0.774143 0.143593 0)
(0.771125 0.153104 0)
(0.76814 0.162958 0)
(0.765181 0.173207 0)
(0.762325 0.183919 0)
(0.759715 0.195101 0)
(0.757336 0.20681 0)
(0.755188 0.219104 0)
(0.75339 0.232003 0)
(0.752016 0.245563 0)
(0.751141 0.259856 0)
(0.750876 0.274945 0)
(0.751349 0.290892 0)
(0.752713 0.307777 0)
(0.755145 0.32566 0)
(0.758841 0.344627 0)
(0.764052 0.364748 0)
(0.77108 0.386102 0)
(0.780274 0.408761 0)
(0.79208 0.432772 0)
(0.807028 0.458153 0)