/*--------------------------------*- C++ -*----------------------------------*\
| =========                 |                                                 |
| \\      /  F ield         | OpenFOAM: The Open Source CFD Toolbox           |
|  \\    /   O peration     | Version:  2412                                  |
|   \\  /    A nd           | Website:  www.openfoam.com                      |
|    \\/     M anipulation  |                                                 |
\*---------------------------------------------------------------------------*/
FoamFile
{
    version     2.0;
    format      ascii;
    arch        "LSB;label=32;scalar=64";
    class       volScalarField;
    location    "1";
    object      Ma;
}
// * * * * * * * * * * * * * * * * * * * * * * * * * * * * * * * * * * * * * //

dimensions      [0 0 0 0 0 0 0];

internalField   nonuniform List<scalar> 
7000
(
3.00001
3.00001
3.00001
3.00001
3.00001
3.00001
3.00001
3.00001
3.00001
3.00001
3.00001
3.00001
3.00001
3.00001
3
3.00002
2.99998
3.00011
3.00011
3.00079
2.99835
3.0079
2.95173
3.14287
2.86585
2.48862
1.67013
0.899904
0.331713
0.339858
0.375881
0.390378
0.373444
0.343513
0.311283
0.286581
0.268083
0.251579
0.233592
0.213451
0.194035
0.17516
0.157798
0.140293
0.1209
0.100975
0.0828093
0.0662463
0.0471868
0.0262211
3.00001
3.00001
3.00001
3.00001
3.00001
3.00001
3.00001
3.00001
3.00001
3.00001
3.00001
3.00001
3.00001
3.00001
3
3.00001
2.99997
3.00011
3.00012
3.00083
2.99842
3.00795
2.95215
3.14242
2.86665
2.4906
1.67425
0.903944
0.339461
0.349951
0.38663
0.400343
0.382219
0.351644
0.319067
0.293455
0.273262
0.254664
0.234597
0.212856
0.192394
0.172942
0.155322
0.137647
0.118169
0.0981686
0.0797196
0.0631239
0.0458065
0.0317598
3.00001
3.00001
3.00001
3.00001
3.00001
3.00001
3.00001
3.00001
3.00001
3.00001
3.00001
3.00001
3.00001
3.00001
3
3.00001
2.99997
3.00008
3.00011
3.00093
2.99859
3.00813
2.95263
3.14223
2.86771
2.49411
1.67943
0.908247
0.339671
0.347145
0.383998
0.398008
0.380178
0.350062
0.318124
0.293294
0.273879
0.256043
0.236644
0.215173
0.194843
0.175469
0.157867
0.140123
0.120462
0.100207
0.0815862
0.065733
0.0517951
0.0445555
3.00001
3.00001
3.00001
3.00001
3.00001
3.00001
3.00001
3.00001
3.00001
3.00001
3.00001
3.00001
3.00001
3.00001
3
3
2.99995
3.00007
3.00011
3.00107
2.9989
3.00843
2.95372
3.14211
2.86983
2.49979
1.68836
0.916667
0.343929
0.347493
0.384127
0.398253
0.380592
0.350634
0.31881
0.293872
0.274309
0.256514
0.23743
0.216568
0.19697
0.178356
0.161481
0.144368
0.125217
0.105376
0.0873
0.0728275
0.0621202
0.0587084
3.00001
3.00001
3.00001
3.00001
3.00001
3.00001
3.00001
3.00001
3.00001
3.00001
3.00001
3.00001
3.00001
3.00001
3
3
2.99994
3.00007
3.00013
3.00123
2.99929
3.00874
2.95515
3.1416
2.87255
2.50753
1.70113
0.928803
0.349763
0.347125
0.383347
0.397859
0.380451
0.350722
0.31934
0.294993
0.275885
0.258552
0.239971
0.219656
0.200698
0.182815
0.166746
0.150491
0.1322
0.113203
0.096136
0.0832577
0.0749471
0.0732532
3.00001
3.00001
3.00001
3.00001
3.00001
3.00001
3.00001
3.00001
3.00001
3.00001
3.00001
3.00001
3.00001
3.00001
3
3
2.99993
3.00008
3.00021
3.00151
2.99981
3.00917
2.95707
3.14031
2.87764
2.51994
1.7214
0.947355
0.36264
0.353286
0.38823
0.401817
0.383475
0.353587
0.322681
0.299006
0.280443
0.263499
0.245239
0.225241
0.206696
0.189355
0.173978
0.158602
0.141295
0.123347
0.10755
0.0962462
0.0895281
0.0883703
3.00001
3.00001
3.00001
3.00001
3.00001
3.00001
3.00001
3.00001
3.00001
3.00001
3.00001
3.00001
3.00001
3.00001
3
3.00001
2.99993
3.00011
3.00024
3.00176
3.00033
3.00981
2.95913
3.13972
2.88358
2.53409
1.74441
0.968929
0.376771
0.359994
0.394609
0.40795
0.389389
0.359889
0.32957
0.306271
0.287903
0.271013
0.252847
0.233008
0.214764
0.1979
0.18317
0.168664
0.152387
0.135618
0.121171
0.111262
0.105552
0.104315
3.00001
3.00001
3.00001
3.00001
3.00001
3.00001
3.00001
3.00001
3.00001
3.00001
3.00001
3.00001
3.00001
3.00001
3.00001
3.00002
2.99995
3.00017
3.00021
3.00189
3.00073
3.01007
2.96229
3.13797
2.88821
2.54895
1.77022
0.994684
0.386424
0.358989
0.3956
0.411478
0.395165
0.367623
0.338502
0.315721
0.297519
0.280583
0.262448
0.24268
0.2247
0.208328
0.194271
0.180678
0.165472
0.149919
0.13678
0.12804
0.122954
0.121296
3.00001
3.00001
3.00001
3.00001
3.00001
3.00001
3.00001
3.00001
3.00001
3.00001
3.00001
3.00001
3.00001
3.00001
3.00001
3.00001
2.99997
3.00014
3.00016
3.00197
3.00087
3.0121
2.96485
3.14216
2.89665
2.56218
1.80701
1.02994
0.400211
0.360537
0.39677
0.413982
0.399416
0.373726
0.346043
0.324231
0.306714
0.290316
0.27276
0.253548
0.236157
0.220495
0.207248
0.194672
0.180596
0.166243
0.154298
0.146493
0.141758
0.139527
3.00001
3.00001
3.00001
3.00001
3.00001
3.00001
3.00001
3.00001
3.00001
3.00001
3.00001
3.00001
3.00001
3.00001
3
3.00001
3
3.00011
3.00015
3.00131
3.00085
3.00989
2.97847
3.13907
2.89012
2.60911
1.87621
1.09184
0.423522
0.370525
0.403911
0.419916
0.405847
0.381382
0.354792
0.333937
0.317052
0.30123
0.284385
0.265908
0.249275
0.234482
0.222167
0.210716
0.197821
0.184652
0.173791
0.166765
0.162195
0.159316
3.00001
3.00001
3.00001
3.00001
3.00001
3.00001
3.00001
3.00001
3.00001
3.00001
3.00001
3.00001
3.00001
3
3
2.99999
2.99998
2.99999
2.99998
3.00054
3.00007
3.00632
2.98455
3.11352
2.896
2.67393
1.92613
1.14158
0.440533
0.373547
0.407159
0.42471
0.41281
0.39067
0.365674
0.345857
0.329498
0.314156
0.297923
0.280117
0.264266
0.250436
0.23916
0.228939
0.217299
0.205293
0.19538
0.18898
0.184582
0.181051
3.00001
3.00001
3.00001
3.00001
3.00001
3.00001
3.00001
3.00001
3.00001
3.00001
3.00001
3.00001
3.00001
3
3
2.99999
2.99997
2.99993
2.99976
2.99975
2.99912
3.00541
2.97921
3.12247
2.90263
2.67459
1.95623
1.19062
0.474965
0.382343
0.41382
0.432274
0.422667
0.403007
0.379646
0.360503
0.344378
0.329394
0.313698
0.296551
0.281484
0.268614
0.258417
0.249553
0.239233
0.228344
0.219268
0.213472
0.209125
0.205006
3.00001
3.00001
3.00001
3.00001
3.00001
3.00001
3.00001
3.00001
3.00001
3.00001
3.00001
3.00001
3.00001
3
3
2.99998
2.99997
2.99989
2.99972
2.99939
2.99831
2.99964
2.99208
3.02753
2.94572
2.76664
2.08419
1.29461
0.521778
0.397476
0.423254
0.441657
0.434377
0.417614
0.39634
0.377567
0.361613
0.347024
0.331941
0.315368
0.300954
0.289063
0.280016
0.272582
0.263647
0.253915
0.245688
0.24047
0.236483
0.231966
3.00001
3.00001
3.00001
3.00001
3.00001
3.00001
3.00001
3.00001
3.00001
3.00001
3.00001
3.00001
3.00001
3
3
2.99997
2.99996
2.9998
2.99974
2.99886
2.99827
2.99401
2.98815
2.97988
2.93021
2.84726
2.18317
1.40311
0.581144
0.416605
0.437111
0.453411
0.449456
0.435784
0.417066
0.398164
0.382005
0.367545
0.352856
0.336851
0.323128
0.31217
0.304246
0.298338
0.2909
0.282529
0.275207
0.270833
0.267216
0.262259
3.00001
3.00001
3.00001
3.00001
3.00001
3.00001
3.00001
3.00001
3.00001
3.00001
3.00001
3.00001
3.00001
3
3
2.99997
2.99996
2.9998
2.99973
2.99883
2.99825
2.99349
2.98738
2.95673
2.93842
2.77609
2.34152
1.54973
0.659789
0.439597
0.451423
0.464452
0.466818
0.457245
0.441232
0.422264
0.405609
0.390922
0.376244
0.360767
0.347813
0.337854
0.331133
0.326791
0.320937
0.314047
0.308202
0.304902
0.302357
0.297622
3.00001
3.00001
3.00001
3.00001
3.00001
3.00001
3.00001
3.00001
3.00001
3.00001
3.00001
3.00001
3.00001
3
3
2.99998
2.99997
2.99983
2.99974
2.99893
2.99853
2.99329
2.99146
2.96233
2.94866
2.75161
2.4942
1.74372
0.774256
0.484777
0.4668
0.476013
0.486032
0.481683
0.468092
0.44952
0.431739
0.416376
0.401525
0.386812
0.374898
0.366216
0.360926
0.358558
0.354663
0.349579
0.345175
0.34391
0.343032
0.338831
3.00001
3.00001
3.00001
3.00001
3.00001
3.00001
3.00001
3.00001
3.00001
3.00001
3.00001
3.00001
3.00001
3
3
2.99998
2.99998
2.99989
2.99979
2.99924
2.99879
2.99486
2.99215
2.96726
2.95209
2.80452
2.57408
1.90522
0.945539
0.560133
0.475631
0.485852
0.506439
0.508146
0.496389
0.478123
0.458629
0.442275
0.427544
0.4142
0.403912
0.396952
0.393577
0.39347
0.391926
0.389511
0.388045
0.389306
0.391811
0.390406
3.00001
3.00001
3.00001
3.00001
3.00001
3.00001
3.00001
3.00001
3.00001
3.00001
3.00001
3.00001
3.00001
3.00001
3
3
2.99997
2.99995
2.99982
2.99943
2.99898
2.99561
2.99391
2.9764
2.95112
2.85023
2.65084
2.07874
1.15096
0.656875
0.481388
0.497864
0.52718
0.534198
0.52251
0.503442
0.482383
0.466222
0.453109
0.441867
0.43389
0.429345
0.42832
0.430956
0.43279
0.43425
0.436805
0.443892
0.452018
0.456226
3.00001
3.00001
3.00001
3.00001
3.00001
3.00001
3.00001
3.00001
3.00001
3.00001
3.00001
3.00001
3.00001
3.00001
3.00001
3.00001
3.00001
3.00004
2.99995
3.00039
2.99918
2.99856
2.98906
2.99132
2.95523
2.92687
2.72628
2.25857
1.36248
0.762332
0.47711
0.499518
0.535187
0.548068
0.538286
0.520771
0.50163
0.48753
0.477201
0.469514
0.464925
0.463467
0.465138
0.471569
0.478657
0.485499
0.494623
0.509666
0.531812
0.554057
3.00001
3.00001
3.00001
3.00001
3.00001
3.00001
3.00001
3.00001
3.00001
3.00001
3.00001
3.00001
3.00001
3.00001
3.00001
3.00001
3.00001
3.00003
2.99996
3.00037
2.99915
2.99878
2.98605
2.99444
2.92399
3.11892
2.79675
2.36594
1.51237
0.832657
0.457006
0.490521
0.532289
0.554276
0.548458
0.533333
0.517225
0.506543
0.500301
0.496547
0.495686
0.498001
0.503755
0.514953
0.527819
0.541942
0.560793
0.591997
0.640607
0.723953
3.00001
3.00001
3.00001
3.00001
3.00001
3.00001
3.00001
3.00001
3.00001
3.00001
3.00001
3.00001
3.00001
3.00001
3.00001
3.00001
2.99999
2.99999
2.99991
3
2.99939
2.99925
2.99349
3.00219
2.94455
3.12821
2.85711
2.4907
1.70357
0.959746
0.483418
0.494703
0.536259
0.561894
0.560127
0.548291
0.536176
0.529954
0.528191
0.5291
0.533524
0.542012
0.553911
0.571895
0.594787
0.620665
0.656947
0.713776
0.819181
0.971694
3.00001
3.00001
3.00001
3.00001
3.00001
3.00001
3.00001
3.00001
3.00001
3.00001
3.00001
3.00001
3.00001
3.00001
3.00001
3.00001
3.00001
3.00002
3.00003
3.00014
3.00015
3.00151
3.00032
3.00961
2.96641
3.12809
2.90717
2.60738
1.90977
1.15617
0.556058
0.501432
0.538703
0.56482
0.566819
0.559617
0.552555
0.550643
0.553068
0.558475
0.568682
0.582919
0.600365
0.624078
0.656438
0.694915
0.744803
0.815985
0.939661
1.09685
3.00001
3.00001
3.00001
3.00001
3.00001
3.00001
3.00001
3.00001
3.00001
3.00001
3.00001
3.00001
3.00001
3.00001
3.00001
3.00001
3
3
2.99999
2.99998
2.9999
2.99989
2.99918
2.99987
2.99274
3.00789
2.9443
2.80151
2.1315
1.37621
0.649991
0.534443
0.556389
0.57539
0.579945
0.576039
0.573202
0.57493
0.580381
0.590421
0.605939
0.624843
0.647099
0.674667
0.711861
0.757987
0.816469
0.889026
0.998149
1.12697
3.00001
3.00001
3.00001
3.00001
3.00001
3.00001
3.00001
3.00001
3.00001
3.00001
3.00001
3.00001
3.00001
3.00001
3.00001
3
3
2.99998
2.99997
2.99988
2.99979
2.99922
2.99863
2.99517
2.99145
2.97015
2.93365
2.76667
2.42154
1.69931
0.840843
0.600149
0.58931
0.602957
0.609938
0.608911
0.608482
0.611734
0.619306
0.632549
0.650672
0.671805
0.696472
0.725861
0.763072
0.810037
0.868301
0.938331
1.03072
1.13419
3.00001
3.00001
3.00001
3.00001
3.00001
3.00001
3.00001
3.00001
3.00001
3.00001
3.00001
3.00001
3.00001
3.00001
3.00001
3
3
2.99998
2.99998
2.99987
2.99981
2.99925
2.99893
2.99583
2.9936
2.97472
2.95181
2.82404
2.64194
2.02792
1.12979
0.755493
0.65991
0.654436
0.655512
0.657046
0.656176
0.657979
0.66548
0.678819
0.696698
0.717991
0.743811
0.773631
0.80944
0.853639
0.907215
0.97144
1.05125
1.13726
3.00001
3.00001
3.00001
3.00001
3.00001
3.00001
3.00001
3.00001
3.00001
3.00001
3.00001
3.00001
3.00001
3.00001
3.00001
3.00001
3
3
2.99996
2.99995
2.99963
2.99959
2.99762
2.99675
2.98537
2.99258
2.92779
3.10849
2.81161
2.43065
1.62673
1.01026
0.723498
0.694438
0.700262
0.706711
0.709101
0.711488
0.717747
0.728511
0.744147
0.763619
0.787712
0.816759
0.850271
0.890705
0.938446
0.994829
1.06319
1.13656
3.00001
3.00001
3.00001
3.00001
3.00001
3.00001
3.00001
3.00001
3.00001
3.00001
3.00001
3.00001
3.00001
3.00001
3.00001
3.00001
3
3
2.99998
2.99997
2.99986
2.9998
2.99923
2.99876
2.99546
2.99269
2.9721
2.95475
2.85759
2.65022
2.07679
1.23102
0.838539
0.733372
0.733576
0.74552
0.757172
0.763216
0.769431
0.778525
0.791768
0.808872
0.829866
0.856325
0.886776
0.922841
0.96523
1.01524
1.07443
1.1376
3.00001
3.00001
3.00001
3.00001
3.00001
3.00001
3.00001
3.00001
3.00001
3.00001
3.00001
3.00001
3.00001
3.00001
3.00001
3.00001
3.00001
3
3
2.99996
2.99995
2.9997
2.99967
2.99802
2.99727
2.98746
2.9948
2.93664
3.10828
2.83713
2.47628
1.73046
1.11383
0.790295
0.765714
0.779745
0.796956
0.808078
0.815021
0.823075
0.834393
0.84949
0.867958
0.891382
0.918737
0.95093
0.987937
1.03173
1.08257
1.13613
3.00001
3.00001
3.00001
3.00001
3.00001
3.00001
3.00001
3.00001
3.00001
3.00001
3.00001
3.00001
3.00001
3.00001
3.00001
3.00001
3.00001
3.00001
3
3
2.99997
2.99995
2.9998
2.99969
2.99915
2.99734
2.99497
2.98339
3.00342
2.88128
2.75317
2.1374
1.44924
0.87617
0.79041
0.799772
0.817893
0.834342
0.843497
0.851865
0.863764
0.879719
0.897856
0.919615
0.944641
0.973758
1.00649
1.04463
1.08946
1.13557
3.00001
3.00001
3.00001
3.00001
3.00001
3.00001
3.00001
3.00001
3.00001
3.00001
3.00001
3.00001
3.00001
3.00001
3.00001
3.00001
3.00001
3.00001
3
3
2.99998
2.99997
2.99984
2.99978
2.99901
2.99872
2.99426
2.99152
2.96582
2.9495
2.78721
2.60305
1.99333
1.15087
0.885088
0.847906
0.854973
0.865953
0.875035
0.881971
0.892505
0.906864
0.925602
0.9462
0.969342
0.995464
1.02472
1.05822
1.0982
1.13908
3.00001
3.00001
3.00001
3.00001
3.00001
3.00001
3.00001
3.00001
3.00001
3.00001
3.00001
3.00001
3.00001
3.00001
3.00001
3.00001
3.00001
3.00001
3.00001
3
3
2.99996
2.99995
2.99963
2.99958
2.99772
2.99702
2.98918
2.99071
2.96074
2.98986
2.77766
2.44148
1.68223
1.15726
0.926541
0.897303
0.900354
0.910032
0.92044
0.930938
0.943438
0.959431
0.978862
0.999676
1.02401
1.05056
1.07869
1.11288
1.14856
3.00001
3.00001
3.00001
3.00001
3.00001
3.00001
3.00001
3.00001
3.00001
3.00001
3.00001
3.00001
3.00001
3.00001
3.00001
3.00001
3.00001
3.00001
3.00001
3.00001
3
2.99999
2.99998
2.9999
2.99991
2.99942
2.9994
2.99549
2.99649
2.97681
3.04263
2.89901
2.74693
2.15555
1.49981
1.0313
0.945827
0.932983
0.941841
0.955826
0.968216
0.978838
0.990663
1.00617
1.02515
1.04699
1.07252
1.10024
1.1315
1.16379
3.00001
3.00001
3.00001
3.00001
3.00001
3.00001
3.00001
3.00001
3.00001
3.00001
3.00001
3.00001
3.00001
3.00001
3.00001
3.00001
3.00001
3.00001
3.00001
3.00001
3
3
2.99998
2.99997
2.99986
2.99982
2.99927
2.99889
2.99583
3.00189
2.95856
3.10535
2.88385
2.62898
2.03078
1.37219
1.00361
0.968289
0.971225
0.983216
0.998629
1.01255
1.02374
1.0361
1.0511
1.06934
1.0916
1.11645
1.14583
1.17641
3.00001
3.00001
3.00001
3.00001
3.00001
3.00001
3.00001
3.00001
3.00001
3.00001
3.00001
3.00001
3.00001
3.00001
3.00001
3.00001
3.00001
3.00001
3.00001
3.00001
3.00001
3
3
2.99999
2.99997
2.99987
2.99982
2.99923
2.99895
2.99702
2.98944
2.97422
2.93288
2.77609
2.53368
1.94467
1.26165
1.04917
1.02274
1.02444
1.03168
1.04254
1.05425
1.06654
1.08135
1.09743
1.1161
1.13791
1.16293
1.19064
3.00001
3.00001
3.00001
3.00001
3.00001
3.00001
3.00001
3.00001
3.00001
3.00001
3.00001
3.00001
3.00001
3.00001
3.00001
3.00001
3.00001
3.00001
3.00001
3.00001
3.00001
3.00001
3.00001
3.00001
3.00001
3
3
2.99994
3.00012
2.99874
3.00265
2.9934
2.98397
2.91593
2.81448
2.502
1.82691
1.31218
1.10652
1.0768
1.07823
1.08503
1.09367
1.10275
1.11365
1.12687
1.14267
1.16254
1.18512
1.20895
3.00001
3.00001
3.00001
3.00001
3.00001
3.00001
3.00001
3.00001
3.00001
3.00001
3.00001
3.00001
3.00001
3.00001
3.00001
3.00001
3.00001
3.00001
3.00001
3.00001
3.00001
3.00001
3.00001
3.00001
3.00002
3.00002
3.00009
3.00004
3.00057
2.99931
2.99895
2.98549
2.98802
2.92038
3.07513
2.79827
2.43693
1.76708
1.32658
1.14061
1.11577
1.11834
1.1284
1.14122
1.15279
1.16357
1.176
1.19056
1.20905
1.22864
3.00001
3.00001
3.00001
3.00001
3.00001
3.00001
3.00001
3.00001
3.00001
3.00001
3.00001
3.00001
3.00001
3.00001
3.00001
3.00001
3.00001
3.00001
3.00001
3.00001
3.00001
3.00001
3.00001
3.00001
3.00001
3.00001
3.00001
3.00002
3.00001
3.00002
3.00011
2.99869
3.00066
2.99017
2.9773
2.89521
2.79925
2.4037
1.8078
1.36621
1.18263
1.15166
1.15187
1.16558
1.17986
1.19409
1.2071
1.22065
1.23605
1.25127
3.00001
3.00001
3.00001
3.00001
3.00001
3.00001
3.00001
3.00001
3.00001
3.00001
3.00001
3.00001
3.00001
3.00001
3.00001
3.00001
3.00001
3.00001
3.00001
3.00001
3.00001
3.00001
3.00001
3.00001
3.00001
3
3
2.99998
2.99997
2.99987
2.99974
2.99943
2.99764
2.99526
2.98311
2.99508
2.90855
2.81683
2.38192
1.88059
1.35239
1.20796
1.18724
1.19067
1.20487
1.21841
1.2341
1.24608
1.26085
1.27592
3.00001
3.00001
3.00001
3.00001
3.00001
3.00001
3.00001
3.00001
3.00001
3.00001
3.00001
3.00001
3.00001
3.00001
3.00001
3.00001
3.00001
3.00001
3.00001
3.00001
3.00001
3.00001
3.00001
3.00001
3.00001
3.00001
3.00001
3
3
2.99997
2.99996
2.99974
2.99974
2.99795
2.99921
2.99222
2.97928
2.91558
2.80284
2.47355
1.90844
1.46699
1.27384
1.23817
1.23679
1.2463
1.25846
1.27258
1.28497
1.30058
3.00001
3.00001
3.00001
3.00001
3.00001
3.00001
3.00001
3.00001
3.00001
3.00001
3.00001
3.00001
3.00001
3.00001
3.00001
3.00001
3.00001
3.00001
3.00001
3.00001
3.00001
3.00001
3.00001
3.00001
3.00001
3.00001
3.00001
3
3
2.99999
2.99998
2.99989
2.99986
2.9995
2.99886
2.99589
2.99413
2.975
2.93341
2.82493
2.46589
1.99551
1.50295
1.32497
1.28664
1.28444
1.28913
1.29979
1.31132
1.32549
3.00001
3.00001
3.00001
3.00001
3.00001
3.00001
3.00001
3.00001
3.00001
3.00001
3.00001
3.00001
3.00001
3.00001
3.00001
3.00001
3.00001
3.00001
3.00001
3.00001
3.00001
3.00001
3.00001
3.00001
3.00001
3.00001
3.00001
3.00001
3.00001
3
2.99999
2.99998
2.99985
2.99981
2.99902
2.99882
2.99414
2.99158
2.96932
2.93521
2.79774
2.56223
2.09368
1.60473
1.4014
1.34843
1.3382
1.33785
1.34199
1.35328
3.00001
3.00001
3.00001
3.00001
3.00001
3.00001
3.00001
3.00001
3.00001
3.00001
3.00001
3.00001
3.00001
3.00001
3.00001
3.00001
3.00001
3.00001
3.00001
3.00001
3.00001
3.00001
3.00001
3.00001
3.00001
3.00001
3.00001
3.00001
3.00001
3
3
3
2.99998
2.99999
2.99976
2.9994
2.99875
2.99513
2.99224
2.96974
2.95025
2.85814
2.64553
2.22052
1.75154
1.49736
1.41104
1.38564
1.38126
1.3856
3.00001
3.00001
3.00001
3.00001
3.00001
3.00001
3.00001
3.00001
3.00001
3.00001
3.00001
3.00001
3.00001
3.00001
3.00001
3.00001
3.00001
3.00001
3.00001
3.00001
3.00001
3.00001
3.00001
3.00001
3.00001
3.00001
3.00001
3.00001
3.00001
3.00001
3.00001
3
3
2.99998
2.99999
2.99988
2.9998
2.99931
2.99858
2.99521
2.98869
2.95772
2.90656
2.73782
2.37356
1.93892
1.57787
1.45397
1.42428
1.42219
3.00001
3.00001
3.00001
3.00001
3.00001
3.00001
3.00001
3.00001
3.00001
3.00001
3.00001
3.00001
3.00001
3.00001
3.00001
3.00001
3.00001
3.00001
3.00001
3.00001
3.00001
3.00001
3.00001
3.00001
3.00001
3.00001
3.00001
3.00001
3.00001
3.00001
3.00001
3.00001
3
3
2.99998
2.99996
2.99983
2.99974
2.99927
2.99787
2.9968
2.98392
2.98392
2.91978
2.83954
2.50626
2.1008
1.68882
1.5169
1.48699
3.00001
3.00001
3.00001
3.00001
3.00001
3.00001
3.00001
3.00001
3.00001
3.00001
3.00001
3.00001
3.00001
3.00001
3.00001
3.00001
3.00001
3.00001
3.00001
3.00001
3.00001
3.00001
3.00001
3.00001
3.00001
3.00001
3.00001
3.00001
3.00001
3.00001
3.00001
3.00001
3.00001
3.00001
3
2.99999
2.99995
2.99993
2.99966
2.9996
2.99801
2.99735
2.98839
2.98276
2.93518
2.87062
2.69038
2.29393
1.90952
1.65122
3.00001
3.00001
3.00001
3.00001
3.00001
3.00001
3.00001
3.00001
3.00001
3.00001
3.00001
3.00001
3.00001
3.00001
3.00001
3.00001
3.00001
3.00001
3.00001
3.00001
3.00001
3.00001
3.00001
3.00001
3.00001
3.00001
3.00001
3.00001
3.00001
3.00001
3.00001
3.00001
3.00001
3.00001
3.00001
3
3
2.99995
2.99994
2.99973
2.9996
2.99897
2.99728
2.99346
2.97923
2.96692
2.87939
2.78845
2.49783
2.08131
3.00001
3.00001
3.00001
3.00001
3.00001
3.00001
3.00001
3.00001
3.00001
3.00001
3.00001
3.00001
3.00001
3.00001
3.00001
3.00001
3.00001
3.00001
3.00001
3.00001
3.00001
3.00001
3.00001
3.00001
3.00001
3.00001
3.00001
3.00001
3.00001
3.00001
3.00001
3.00001
3.00001
3.00001
3.00001
3.00001
3
3
2.99996
2.99995
2.99974
2.99971
2.99845
2.99834
2.99165
2.99588
2.96404
2.96869
2.82319
2.63189
3.00001
3.00001
3.00001
3.00001
3.00001
3.00001
3.00001
3.00001
3.00001
3.00001
3.00001
3.00001
3.00001
3.00001
3.00001
3.00001
3.00001
3.00001
3.00001
3.00001
3.00001
3.00001
3.00001
3.00001
3.00001
3.00001
3.00001
3.00001
3.00001
3.00001
3.00001
3.00001
3.00001
3.00001
3.00001
3.00001
3.00001
3.00001
3.00001
3
3.00005
2.9999
2.99984
2.99829
2.9988
2.9917
3.01399
2.97647
2.9341
2.80946
3.00001
3.00001
3.00001
3.00001
3.00001
3.00001
3.00001
3.00001
3.00001
3.00001
3.00001
3.00001
3.00001
3.00001
3.00001
3.00001
3.00001
3.00001
3.00001
3.00001
3.00001
3.00001
3.00001
3.00001
3.00001
3.00001
3.00001
3.00001
3.00001
3.00001
3.00001
3.00001
3.00001
3.00001
3.00001
3.00001
3.00001
3.00001
3.00001
3
3.00002
2.99997
2.99996
2.99951
2.99987
2.99696
3.00694
2.99076
2.97189
2.91563
3.00001
3.00001
3.00001
3.00001
3.00001
3.00001
3.00001
3.00001
3.00001
3.00001
3.00001
3.00001
3.00001
3.00001
3.00001
3.00001
3.00001
3.00001
3.00001
3.00001
3.00001
3.00001
3.00001
3.00001
3.00001
3.00001
3.00001
3.00001
3.00001
3.00001
3.00001
3.00001
3.00001
3.00001
3.00001
3.00001
3.00001
3.00001
3.00001
3
2.99999
2.99999
2.99992
2.99992
2.99961
2.99947
2.99686
2.99722
2.98745
2.9782
3.00001
3.00001
3.00001
3.00001
3.00001
3.00001
3.00001
3.00001
3.00001
3.00001
3.00001
3.00001
3.00001
3.00001
3.00001
3.00001
3.00001
3.00001
3.00001
3.00001
3.00001
3.00001
3.00001
3.00001
3.00001
3.00001
3.00001
3.00001
3.00001
3.00001
3.00001
3.00001
3.00001
3.00001
3.00001
3.00001
3.00001
3.00001
3.00001
3.00001
3.00001
3.00002
2.99999
3.00011
2.99993
2.99977
2.99898
2.99791
2.99344
2.98337
3.00001
3.00001
3.00001
3.00001
3.00001
3.00001
3.00001
3.00001
3.00001
3.00001
3.00001
3.00001
3.00001
3.00001
3.00001
3.00001
3.00001
3.00001
3.00001
3.00001
3.00001
3.00001
3.00001
3.00001
3.00001
3.00001
3.00001
3.00001
3.00001
3.00001
3.00001
3.00001
3.00001
3.00001
3.00001
3.00001
3.00001
3.00001
3.00001
3.00001
3.00001
3.00001
3
3.00005
2.99997
2.99988
2.99964
2.99903
2.99694
2.99294
3.00001
3.00001
3.00001
3.00001
3.00001
3.00001
3.00001
3.00001
3.00001
3.00001
3.00001
3.00001
3.00001
3.00001
3.00001
3.00001
3.00001
3.00001
3.00001
3.00001
3.00001
3.00001
3.00001
3.00001
3.00001
3.00001
3.00001
3.00001
3.00001
3.00001
3.00001
3.00001
3.00001
3.00001
3.00001
3.00001
3.00001
3.00001
3.00001
3.00001
3.00001
3.00001
3.00001
3.00003
2.99999
2.99997
2.9998
2.99958
2.99856
2.99693
3.00001
3.00001
3.00001
3.00001
3.00001
3.00001
3.00001
3.00001
3.00001
3.00001
3.00001
3.00001
3.00001
3.00001
3.00001
3.00001
3.00001
3.00001
3.00001
3.00001
3.00001
3.00001
3.00001
3.00001
3.00001
3.00001
3.00001
3.00001
3.00001
3.00001
3.00001
3.00001
3.00001
3.00001
3.00001
3.00001
3.00001
3.00001
3.00001
3.00001
3.00001
3.00001
3.00001
3.00002
3
2.99999
2.99992
2.99983
2.99941
2.99867
3.00001
3.00001
3.00001
3.00001
3.00001
3.00001
3.00001
3.00001
3.00001
3.00001
3.00001
3.00001
3.00001
3.00001
3.00001
3.00001
3.00001
3.00001
3.00001
3.00001
3.00001
3.00001
3.00001
3.00001
3.00001
3.00001
3.00001
3.00001
3.00001
3.00001
3.00001
3.00001
3.00001
3.00001
3.00001
3.00001
3.00001
3.00001
3.00001
3.00001
3.00001
3.00001
3.00001
3.00001
3
3
2.99995
2.99994
2.9998
2.99961
3.00001
3.00001
3.00001
3.00001
3.00001
3.00001
3.00001
3.00001
3.00001
3.00001
3.00001
3.00001
3.00001
3.00001
3.00001
3.00001
3.00001
3.00001
3.00001
3.00001
3.00001
3.00001
3.00001
3.00001
3.00001
3.00001
3.00001
3.00001
3.00001
3.00001
3.00001
3.00001
3.00001
3.00001
3.00001
3.00001
3.00001
3.00001
3.00001
3.00001
3.00001
3.00001
3.00001
3.00001
3
3
2.99998
2.99998
2.99992
2.99983
3.00001
3.00001
3.00001
3.00001
3.00001
3.00001
3.00001
3.00001
3.00001
3.00001
3.00001
3.00001
3.00001
3.00001
3.00001
3.00001
3.00001
3.00001
3.00001
3.00001
3.00001
3.00001
3.00001
3.00001
3.00001
3.00001
3.00001
3.00001
3.00001
3.00001
3.00001
3.00001
3.00001
3.00001
3.00001
3.00001
3.00001
3.00001
3.00001
3.00001
3.00001
3.00001
3.00001
3.00001
3.00001
3.00001
3
3
2.99997
2.99993
3.00001
3.00001
3.00001
3.00001
3.00001
3.00001
3.00001
3.00001
3.00001
3.00001
3.00001
3.00001
3.00001
3.00001
3.00001
3.00001
3.00001
3.00001
3.00001
3.00001
3.00001
3.00001
3.00001
3.00001
3.00001
3.00001
3.00001
3.00001
3.00001
3.00001
3.00001
3.00001
3.00001
3.00001
3.00001
3.00001
3.00001
3.00001
3.00001
3.00001
3.00001
3.00001
3.00001
3.00001
3.00001
3.00001
3.00001
3
3
2.99997
3.00001
3.00001
3.00001
3.00001
3.00001
3.00001
3.00001
3.00001
3.00001
3.00001
3.00001
3.00001
3.00001
3.00001
3.00001
3.00001
3.00001
3.00001
3.00001
3.00001
3.00001
3.00001
3.00001
3.00001
3.00001
3.00001
3.00001
3.00001
3.00001
3.00001
3.00001
3.00001
3.00001
3.00001
3.00001
3.00001
3.00001
3.00001
3.00001
3.00001
3.00001
3.00001
3.00001
3.00001
3.00001
3.00001
3.00001
3.00001
3
2.99999
3.00001
3.00001
3.00001
3.00001
3.00001
3.00001
3.00001
3.00001
3.00001
3.00001
3.00001
3.00001
3.00001
3.00001
3.00001
3.00001
3.00001
3.00001
3.00001
3.00001
3.00001
3.00001
3.00001
3.00001
3.00001
3.00001
3.00001
3.00001
3.00001
3.00001
3.00001
3.00001
3.00001
3.00001
3.00001
3.00001
3.00001
3.00001
3.00001
3.00001
3.00001
3.00001
3.00001
3.00001
3.00001
3.00001
3.00001
3.00001
3
3
1.35879
1.52653
1.55887
1.49848
1.41601
1.3245
1.23577
1.17204
1.15086
1.15351
1.15573
1.15589
1.15298
1.1506
1.14844
1.14687
1.15029
1.15578
1.1625
1.17011
1.17903
1.18868
1.19813
1.20737
1.21619
1.22491
1.23383
1.24289
1.25199
1.26102
1.26991
1.27871
1.28747
1.29618
1.30491
1.31375
1.32271
1.33179
1.3409
1.34999
1.35899
1.36794
1.37687
1.38581
1.39477
1.40376
1.41274
1.42165
1.43044
1.43907
1.44749
1.45572
1.46371
1.47149
1.47899
1.48624
1.49314
1.4997
1.50587
1.51166
1.51705
1.52201
1.52657
1.53074
1.5346
1.53814
1.5413
1.54408
1.54649
1.54854
1.55017
1.55138
1.55225
1.55291
1.55343
1.55382
1.55424
1.5546
1.55554
1.55623
1.55832
1.55979
1.56327
1.56623
1.56972
1.5741
1.57639
1.5813
1.58381
1.58882
1.59201
1.59916
1.60517
1.61884
1.62983
1.65443
1.67158
1.70859
1.72879
1.78531
1.33349
1.43377
1.47737
1.50113
1.53086
1.57034
1.59815
1.60235
1.59124
1.56943
1.54107
1.5264
1.51927
1.52252
1.5255
1.5292
1.53285
1.53625
1.53979
1.54369
1.54822
1.55366
1.55982
1.56656
1.57358
1.58071
1.58795
1.59525
1.60254
1.60981
1.61707
1.62422
1.63108
1.63756
1.64377
1.64991
1.65613
1.66252
1.66917
1.67603
1.68297
1.69009
1.69756
1.70517
1.71268
1.72001
1.72714
1.73409
1.74087
1.74754
1.75412
1.76064
1.76709
1.77341
1.77955
1.78548
1.79119
1.79666
1.80187
1.80679
1.81142
1.81576
1.81978
1.82339
1.82658
1.82939
1.83171
1.83356
1.83502
1.83609
1.83683
1.83724
1.8374
1.83742
1.83729
1.83694
1.83627
1.83524
1.83413
1.83265
1.83121
1.8301
1.82891
1.82823
1.82789
1.82906
1.82971
1.83286
1.83421
1.83831
1.83983
1.84402
1.84558
1.85013
1.8524
1.85882
1.86316
1.87415
1.87988
1.90284
1.29891
1.39038
1.46886
1.55103
1.63845
1.7159
1.76751
1.78278
1.78364
1.7735
1.7549
1.73067
1.71743
1.70643
1.70595
1.70702
1.7084
1.7101
1.71226
1.71455
1.71753
1.72165
1.72658
1.73223
1.73894
1.7465
1.75434
1.76224
1.76995
1.77724
1.78407
1.79073
1.79696
1.80213
1.80623
1.81022
1.81437
1.8189
1.82396
1.82956
1.83561
1.84202
1.84865
1.85537
1.86209
1.86875
1.87529
1.88164
1.88773
1.89355
1.89913
1.90455
1.90985
1.91509
1.92027
1.92531
1.93028
1.93526
1.94007
1.94455
1.94871
1.95258
1.95616
1.95941
1.96233
1.96496
1.96725
1.9691
1.97052
1.97149
1.97217
1.97259
1.9726
1.9722
1.97184
1.97117
1.97025
1.96905
1.96787
1.96643
1.9648
1.96342
1.96193
1.96059
1.95933
1.9588
1.95823
1.95923
1.95935
1.96165
1.96216
1.96518
1.96594
1.96955
1.97101
1.97644
1.97962
1.98978
1.99513
2.01825
1.28423
1.37858
1.46711
1.5497
1.62988
1.69957
1.76205
1.81315
1.84996
1.86637
1.8688
1.86704
1.85676
1.84101
1.83048
1.821
1.8186
1.81746
1.8172
1.81938
1.82335
1.82785
1.83328
1.8405
1.84867
1.85708
1.86551
1.87366
1.88132
1.88827
1.89461
1.90071
1.90606
1.91006
1.91347
1.91696
1.92076
1.92503
1.92984
1.93519
1.94103
1.94724
1.95365
1.96009
1.96643
1.97255
1.97832
1.98374
1.98885
1.99373
1.99841
2.00297
2.00745
2.01184
2.01615
2.02036
2.02446
2.02843
2.03221
2.0358
2.03914
2.0422
2.04502
2.04762
2.04998
2.05206
2.05391
2.05538
2.05658
2.0574
2.05784
2.05793
2.05775
2.05705
2.05658
2.05605
2.05495
2.05383
2.05276
2.05177
2.0506
2.04955
2.04852
2.04793
2.04717
2.04739
2.04706
2.04837
2.04853
2.05096
2.0516
2.05502
2.05619
2.06091
2.06326
2.07078
2.07517
2.08773
2.0941
2.11883
1.27106
1.36411
1.45055
1.53169
1.60933
1.68064
1.74787
1.8075
1.8622
1.90168
1.92643
1.93477
1.9357
1.93345
1.92394
1.91276
1.90298
1.89481
1.89299
1.8951
1.89822
1.90321
1.91014
1.91789
1.92563
1.93332
1.94066
1.94744
1.95354
1.95924
1.9647
1.96926
1.97283
1.97641
1.98039
1.98499
1.99025
1.99622
2.00268
2.00932
2.01629
2.02347
2.03043
2.03706
2.04351
2.04961
2.05498
2.05943
2.06357
2.06753
2.07145
2.07537
2.07932
2.0833
2.08722
2.09102
2.0947
2.09813
2.10134
2.10427
2.10692
2.10927
2.11143
2.11332
2.11506
2.11651
2.11783
2.1189
2.11975
2.1203
2.12056
2.12035
2.1201
2.11978
2.11915
2.11865
2.11839
2.11772
2.11703
2.11652
2.11587
2.11542
2.11481
2.11471
2.11419
2.11457
2.11431
2.1155
2.11571
2.1181
2.11906
2.12312
2.12523
2.13183
2.13568
2.14606
2.15219
2.16779
2.17561
2.2022
1.25636
1.34528
1.4288
1.50789
1.58352
1.65423
1.72036
1.78111
1.8351
1.88356
1.92618
1.95827
1.97837
1.98563
1.98545
1.98312
1.97776
1.97068
1.96568
1.96377
1.96406
1.96722
1.97131
1.9761
1.98225
1.98941
1.99632
2.00239
2.00792
2.01297
2.01692
2.02029
2.02399
2.02832
2.03343
2.03932
2.0456
2.05233
2.05985
2.06769
2.0753
2.08244
2.08903
2.09531
2.1012
2.10628
2.11067
2.11495
2.11928
2.12374
2.12835
2.13304
2.13775
2.14232
2.14668
2.15075
2.15445
2.15779
2.16084
2.16361
2.1661
2.16838
2.17052
2.17244
2.1741
2.17558
2.17685
2.17775
2.17839
2.17882
2.179
2.17876
2.17854
2.17844
2.17832
2.17804
2.1779
2.17803
2.17777
2.17759
2.1773
2.17714
2.17665
2.17632
2.17571
2.17548
2.17502
2.17545
2.17563
2.17766
2.17893
2.18341
2.18628
2.19421
2.19915
2.21131
2.21867
2.23597
2.24445
2.27161
1.24319
1.32643
1.40571
1.48198
1.55494
1.62443
1.68959
1.75101
1.80704
1.85923
1.90568
1.94629
1.97929
2.00237
2.01564
2.02435
2.02634
2.02798
2.02717
2.02494
2.02318
2.02187
2.02292
2.02613
2.02967
2.03356
2.03811
2.04286
2.04673
2.04998
2.05346
2.05747
2.06215
2.06759
2.07346
2.07981
2.08716
2.09521
2.10318
2.11078
2.11781
2.12424
2.13036
2.13607
2.14103
2.14564
2.15036
2.15524
2.1603
2.1655