/*--------------------------------*- C++ -*----------------------------------*\
| =========                 |                                                 |
| \\      /  F ield         | OpenFOAM: The Open Source CFD Toolbox           |
|  \\    /   O peration     | Version:  2412                                  |
|   \\  /    A nd           | Website:  www.openfoam.com                      |
|    \\/     M anipulation  |                                                 |
\*---------------------------------------------------------------------------*/
FoamFile
{
    version     2.0;
    format      ascii;
    arch        "LSB;label=32;scalar=64";
    class       volScalarField;
    location    "1";
    object      p;
}
// * * * * * * * * * * * * * * * * * * * * * * * * * * * * * * * * * * * * * //

dimensions      [1 -1 -2 0 0 0 0];

internalField   nonuniform List<scalar> 
7000
(
1
1
1
1
1
1
1
1
1
1
1
1
1
1
1
1
0.999995
0.999995
0.999909
0.999868
0.999916
1.00264
0.994345
1.02843
1.08442
0.978842
2.75456
4.26225
10.3767
10.5284
10.2246
10.012
10.0397
10.1529
10.3143
10.4322
10.5208
10.6034
10.6858
10.7625
10.8305
10.8887
10.9484
11.0002
11.0529
11.105
11.155
11.199
11.2334
11.2608
1
1
1
1
1
1
1
1
1
1
1
1
1
1
1
1.00001
0.999998
1
0.999914
0.999826
0.999836
1.0025
0.994208
1.02808
1.08365
0.97829
2.74995
4.24682
10.3596
10.527
10.2238
10.0097
10.0381
10.1521
10.3132
10.4307
10.5194
10.6022
10.6847
10.7615
10.8297
10.8879
10.948
11.0001
11.0529
11.1051
11.1552
11.1991
11.2332
11.26
1
1
1
1
1
1
1
1
1
1
1
1
1
1
1
1.00001
1
1.00001
0.999959
0.999697
0.999638
1.00221
0.993845
1.02735
1.08209
0.976715
2.7414
4.22216
10.3259
10.519
10.2156
10.0017
10.0313
10.147
10.3077
10.4251
10.5139
10.5974
10.6803
10.7575
10.8258
10.8842
10.9448
10.9971
11.0501
11.1025
11.1525
11.196
11.229
11.2536
1
1
1
1
1
1
1
1
1
1
1
1
1
1
1
1.00002
1.00001
1.00002
1
0.999536
0.999312
1.0017
0.993192
1.02609
1.0795
0.974047
2.72756
4.18209
10.2731
10.5057
10.2039
9.99056
10.0213
10.1385
10.2991
10.4162
10.5056
10.5898
10.6732
10.7507
10.8192
10.8779
10.9388
10.9916
11.045
11.0976
11.1474
11.1905
11.2221
11.2443
1
1
1
1
1
1
1
1
1
1
1
1
1
1
1
1.00002
1.00002
1.00004
1.00005
0.999356
0.998902
1.00105
0.992395
1.02445
1.07603
0.970584
2.70872
4.12503
10.2025
10.4928
10.192
9.97569
10.007
10.1253
10.2862
10.4032
10.4934
10.5787
10.6629
10.7409
10.8097
10.8688
10.93
10.9834
11.0371
11.0899
11.1395
11.1821
11.2125
11.2327
1
1
1
1
1
1
1
1
1
1
1
1
1
1
1
1.00002
1.00002
1.00006
1.00008
0.999073
0.998295
1.00024
0.991601
1.02256
1.07157
0.966312
2.68558
4.0456
10.1076
10.4816
10.1809
9.95717
9.98843
10.107
10.2681
10.3859
10.4775
10.5642
10.6494
10.728
10.7973
10.8568
10.9182
10.972
11.026
11.0787
11.1281
11.1703
11.1995
11.2182
1
1
1
1
1
1
1
1
1
1
1
1
1
1
1
1.00002
1.00002
1.00006
1.00011
0.998793
0.997627
0.999239
0.990455
1.02016
1.06615
0.961051
2.65522
3.94825
9.98133
10.4635
10.166
9.93493
9.96581
10.084
10.2448
10.3644
10.4579
10.546
10.6325
10.7118
10.7816
10.8415
10.9031
10.9572
11.0114
11.0634
11.1124
11.1541
11.1824
11.2
1
1
1
1
1
1
1
1
1
1
1
1
1
1
0.999999
1
0.999992
1.00004
1.00013
0.998619
0.997197
0.998323
0.989168
1.01706
1.05969
0.955169
2.61428
3.83561
9.82771
10.4296
10.1391
9.90615
9.93721
10.0557
10.2165
10.3386
10.4344
10.524
10.6119
10.6917
10.7621
10.8225
10.8841
10.9382
10.9925
11.0433
11.0917
11.1328
11.1601
11.177
1
1
1
1
1
1
1
1
1
1
1
1
1
1
1
1
0.999988
1.00003
1.00015
0.998443
0.996492
0.997148
0.986117
1.01268
1.0527
0.950232
2.56805
3.67932
9.65188
10.3912
10.1072
9.8731
9.90438
10.0229
10.1843
10.3087
10.4068
10.4977
10.5867
10.6672
10.7381
10.7988
10.8606
10.9144
10.9683
11.0174
11.0649
11.1051
11.1317
11.1479
1
1
1
1
1
1
1
1
1
1
1
1
1
1
1
1
1
0.99991
0.999894
0.999058
0.99749
0.997915
0.981631
1.00177
1.02935
0.927314
2.54478
3.4325
9.47046
10.3665
10.0828
9.83954
9.86931
9.98571
10.1485
10.2751
10.3753
10.4672
10.5568
10.6376
10.7091
10.77
10.8316
10.8848
10.9378
10.9845
11.0304
11.0696
11.0954
11.1112
1
1
1
1
1
1
1
1
1
1
1
1
1
1
1.00001
1.00001
1.00001
1.00001
1.00003
0.999576
0.998736
0.998947
0.984914
0.998987
1.01554
0.906476
2.51658
3.19159
9.21386
10.329
10.0568
9.80627
9.8334
9.94522
10.1088
10.2381
10.3402
10.4324
10.5217
10.6025
10.6742
10.735
10.796
10.8479
10.8993
10.943
10.9867
11.0243
11.049
11.0645
1
1
1
1
1
1
1
1
1
1
1
1
1
1
1.00001
1.00001
1.00002
1.00009
1.00011
1.00021
0.99992
1.00037
0.984402
0.995856
1.00491
0.892213
2.42551
2.97324
8.8126
10.2922
10.046
9.78253
9.80346
9.90404
10.0673
10.1988
10.3022
10.3935
10.4815
10.5609
10.6323
10.6929
10.752
10.8021
10.8509
10.8908
10.9312
10.9667
10.9901
11.0052
1
1
1
1
1
1
1
1
1
1
1
1
1
1
1.00001
1.00001
1.00003
1.00009
1.00014
1.00063
1.00054
1.00186
0.998413
1.00513
0.99131
0.949768
2.26273
2.52733
8.36101
10.2818
10.0591
9.77669
9.78645
9.86682
10.0226
10.1556
10.2603
10.3498
10.4356
10.5117
10.5821
10.642
10.698
10.745
10.7899
10.8252
10.8612
10.8934
10.9148
10.9291
1
1
1
1
1
1
1
1
1
1
1
1
1
1
1.00001
1.00001
1.00006
1.00007
1.00035
1.00038
1.00201
1.00264
1.00735
1.02341
1.01924
0.938852
2.17944
2.15729
7.80357
10.3011
10.1042
9.79504
9.77904
9.83745
9.97113
10.1071
10.2137
10.3008
10.382
10.4543
10.5219
10.5796
10.6312
10.6734
10.7127
10.7419
10.772
10.7996
10.8184
10.8318
1
1
1
1
1
1
1
1
1
1
1
1
1
1
1.00001
1.00001
1.00006
1.00007
1.00037
1.0004
1.00219
1.00211
1.01292
1.02546
1.07743
1.02438
1.88634
2.04314
6.78848
10.2765
10.1651
9.86839
9.7817
9.81671
9.91799
10.0523
10.1604
10.2447
10.3182
10.3869
10.4493
10.5029
10.5484
10.5839
10.6153
10.6367
10.6586
10.6792
10.6936
10.7047
1
1
1
1
1
1
1
1
1
1
1
1
1
1
1.00001
1.00001
1.00005
1.00006
1.00034
1.00038
1.00203
1.00239
1.011
1.01535
1.06629
1.07482
1.65745
1.75297
5.59564
10.1333
10.259
10.0274
9.81198
9.80703
9.86329
9.985
10.0953
10.1787
10.244
10.3051
10.3608
10.4077
10.4446
10.4708
10.4906
10.503
10.5134
10.5236
10.531
10.5382
1
1
1
1
1
1
1
1
1
1
1
1
1
1
1.00001
1.00001
1.00004
1.00004
1.00026
1.00027
1.00158
1.00146
1.01068
1.00983
1.06735
1.03151
1.55163
1.63884
4.70346
9.43338
10.4211
10.2181
9.87708
9.78399
9.81606
9.90629
10.0177
10.0964
10.1548
10.2063
10.2527
10.29
10.3153
10.3298
10.3341
10.3321
10.3261
10.3191
10.3135
10.3112
1
1
1
1
1
1
1
1
1
1
1
1
1
1
1
1.00001
1.00002
1.00003
1.00018
1.00022
1.00121
1.00147
1.00777
1.00842
1.05165
1.04784
1.42688
1.423
4.07902
8.13151
10.5425
10.3814
9.96192
9.75647
9.76438
9.81936
9.92422
9.99857
10.0472
10.0869
10.1217
10.1461
10.1553
10.1556
10.1419
10.1146
10.0818
10.0469
10.0149
9.99164
1
1
1
1
1
1
1
1
1
1
1
1
1
1
1
1
0.999996
0.999993
0.999965
1.00002
0.999912
0.999618
1.00733
1.01529
1.02179
1.02463
1.32267
1.25603
3.50084
6.68344
10.6298
10.4821
10.0091
9.70813
9.68474
9.72419
9.81319
9.88061
9.91751
9.94513
9.96515
9.97229
9.96429
9.94539
9.90069
9.83951
9.76298
9.67481
9.58591
9.49925
1
1
1
1
1
1
1
1
1
1
1
1
1
1
1
1
0.999998
0.999992
0.999941
1.00001
0.999762
0.998991
1.01022
1.02657
1.01645
1.06947
1.1715
1.10846
2.98851
5.30965
10.5027
10.4066
9.99292
9.62736
9.57222
9.60605
9.68461
9.74244
9.7691
9.78038
9.78169
9.77153
9.74005
9.68996
9.60469
9.49663
9.34719
9.16083
8.93221
8.63661
1
1
1
1
1
1
1
1
1
1
1
1
1
1
1
1
1.00001
1.00002
1.00003
1.00016
1.00009
0.999845
1.00448
1.01115
1.00362
1.03921
1.09718
0.997221
2.71959
4.1202
9.89401
10.1731
9.86773
9.49907
9.42735
9.45623
9.52316
9.5676
9.57788
9.57351
9.55589
9.51454
9.44373
9.35194
9.21258
9.02125
8.74908
8.33334
7.64671
6.1373
1
1
1
1
1
1
1
1
1
1
1
1
1
1
1
0.999999
0.999998
0.999995
0.999962
0.999954
1.00004
0.998836
0.997521
0.998237
0.989234
1.01297
1.0452
0.94652
2.42817
3.21577
8.57214
9.79993
9.61163
9.3015
9.23878
9.26757
9.32944
9.36036
9.35738
9.33919
9.29377
9.2125
9.10201
8.95738
8.75461
8.47341
8.07563
7.48583
6.64572
5.19882
1
1
1
1
1
1
1
1
1
1
1
1
1
1
1
1
1
1
1.00001
1
1.00009
1.00016
1.0005
1.00129
1.00108
1.01187
1.00131
0.93329
2.20203
2.28199
7.32916
9.45506
9.36671
9.14412
9.06541
9.08386
9.12701
9.14502
9.13505
9.09992
9.02339
8.90996
8.7636
8.5697
8.32236
7.98288
7.53341
6.92672
6.15348
5.09673
1
1
1
1
1
1
1
1
1
1
1
1
1
1
1
1
1.00001
1.00001
1.00004
1.00005
1.00025
1.0003
1.00156
1.00156
1.00924
1.01154
1.06595
1.05051
1.70713
1.86427
5.24963
8.93272
9.23889
9.10633
8.96192
8.94179
8.95078
8.94953
8.93038
8.87541
8.76744
8.62913
8.45585
8.23536
7.95834
7.60285
7.15998
6.60838
5.95104
5.12425
1
1
1
1
1
1
1
1
1
1
1
1
1
1
1
1
1.00001
1.00001
1.00004
1.00005
1.00023
1.00034
1.00128
1.00163
1.00741
1.01134
1.04661
1.07875
1.40413
1.53084
3.86652
7.59683
9.07205
9.06668
8.96695
8.85431
8.8146
8.79033
8.74239
8.65694
8.53499
8.38061
8.18993
7.95527
7.66941
7.32348
6.91099
6.42289
5.86622
5.19153
1
1
1
1
1
1
1
1
1
1
1
1
1
1
1
1
1
1
1.00004
1.0001
1.00013
1.00068
1.00078
1.00421
1.00622
1.02648
1.01735
1.06961
1.15802
1.10427
2.7281
4.6818
8.58627
9.10168
8.99957
8.79948
8.68121
8.61445
8.54414
8.44559
8.31485
8.15166
7.95389
7.7174
7.43778
7.11097
6.73414
6.30268
5.82465
5.26041
1
1
1
1
1
1
1
1
1
1
1
1
1
1
1
1
1
1.00001
1.00001
1.00005
1.00005
1.00027
1.00028
1.00152
1.00183
1.00881
1.01097
1.05334
1.0482
1.40357
1.47244
3.72112
7.05981
8.86629
8.91658
8.77982
8.55861
8.42501
8.33175
8.22887
8.09777
7.93481
7.73932
7.50998
7.24453
6.94155
6.59917
6.21402
5.79247
5.30596
1
1
1
1
1
1
1
1
1
1
1
1
1
1
1
1
1
1
1.00001
1.00002
1.00008
1.00012
1.00055
1.00065
1.00364
1.00524
1.02361
1.01365
1.05626
1.12646
1.04594
2.6113
4.042
8.16139
8.79204
8.67706
8.42345
8.21939
8.1019
8.00378
7.88299
7.72973
7.54314
7.32561
7.07777
6.79857
6.48696
6.1435
5.77282
5.34817
1
1
1
1
1
1
1
1
1
1
1
1
1
1
1
1
1
1
1
1.00001
1.00001
1.00007
1.00009
1.00035
1.00045
1.0019
1.00605
1.00272
1.02766
1.05308
1.01809
2.13338
2.4259
6.3309
8.35185
8.39374
8.26059
8.00444
7.86067
7.77124
7.66976
7.53369
7.36061
7.15653
6.92516
6.66857
6.3884
6.08272
5.75501
5.38212
1
1
1
1
1
1
1
1
1
1
1
1
1
1
1
1
1
1
1
1.00001
1.00001
1.00006
1.00006
1.00032
1.00032
1.00184
1.00181
1.01095
1.0128
1.06467
1.07456
1.49435
1.48916
4.0352
7.29575
8.15618
8.11541
7.97449
7.77723
7.64905
7.52863
7.39416
7.22944
7.03757
6.82183
6.57955
6.31459
6.02983
5.73083
5.39543
1
1
1
1
1
1
1
1
1
1
1
1
1
1
1
1
1
1
1
1
1.00001
1.00002
1.00002
1.00026
1.00062
1.00087
1.00348
1.00447
1.01536
1.01361
1.01033
1.23824
1.2227
2.67068
4.71397
7.4716
7.98966
7.93217
7.76589
7.58414
7.43029
7.28524
7.12215
6.93862
6.73363
6.51237
6.27298
6.01353
5.73608
5.42803
1
1
1
1
1
1
1
1
1
1
1
1
1
1
1
1
1
1
1
1
1
1.00001
1.00003
1.00003
1.00021
1.0002
1.00013
1.00335
1.00903
1.00464
1.02224
1.04922
0.99533
2.11595
2.3064
6.07185
7.60895
7.79884
7.71948
7.53919
7.34635
7.18186
7.0242
6.8556
6.66506
6.45571
6.23006
5.98791
5.7345
5.44837
1
1
1
1
1
1
1
1
1
1
1
1
1
1
1
1
1
1
1
1
1
1.00001
1.00001
1.00005
1.00006
1.00024
1.00032
1.00117
1.00188
1.00736
0.999792
1.02718
1.0657
0.9998
2.2649
2.70073
6.50679
7.54808
7.56898
7.48031
7.28255
7.09348
6.93232
6.77362
6.60043
6.40661
6.1978
5.97331
5.73676
5.47148
1
1
1
1
1
1
1
1
1
1
1
1
1
1
1
1
1
1
1
1
1
1
1.00001
1.00001
1.00004
1.00006
1.00023
1.00036
1.00117
1.00114
1.01044
1.011
1.07104
1.08349
1.54878
1.68126
3.757
6.53338
7.30341
7.31567
7.24123
7.06529
6.88214
6.7112
6.54402
6.36887
6.17697
5.96777
5.74364
5.49628
1
1
1
1
1
1
1
1
1
1
1
1
1
1
1
1
1
1
1
1
1
1
1
1
1
1.00001
1.00002
1.00003
1.00016
1.00009
1.00215
1.00154
0.999455
1.07329
1.19183
1.18928
2.39633
3.89373
6.41153
7.11078
7.14475
7.06712
6.89485
6.71087
6.52518
6.34371
6.15613
5.96046
5.75167
5.51947
1
1
1
1
1
1
1
1
1
1
1
1
1
1
1
1
1
1
1
1
1
1
1
0.999999
0.999998
0.999981
0.999965
0.999843
0.999864
0.999425
0.998486
1.0112
1.02655
1.02377
1.08822
1.17918
1.12932
2.5006
4.02639
6.30422
6.94769
6.9959
6.92275
6.75104
6.54046
6.34851
6.15945
5.96412
5.76443
5.54256
1
1
1
1
1
1
1
1
1
1
1
1
1
1
1
1
1
1
1
1
1
1
1
1
1
0.999998
0.999996
0.999995
0.999987
0.999986
1.00009
1.00014
1.00239
1.00651
1.00483
1.08326
1.22278
1.26594
2.47468
4.09308
6.12851
6.78119
6.8382
6.76322
6.59076
6.37237
6.17277
5.97685
5.7852
5.57711
1
1
1
1
1
1
1
1
1
1
1
1
1
1
1
1
1
1
1
1
1
1
1
1
1
1
1.00001
1.00001
1.00004
1.00005
1.00025
1.0002
1.00196
1.0054
1.00415
1.02535
1.05853
1.0232
1.77068
1.82037
4.09423
6.02903
6.60444
6.65512
6.58173
6.42201
6.20754
6.0076
5.81851
5.6182
1
1
1
1
1
1
1
1
1
1
1
1
1
1
1
1
1
1
1
1
1
1
1
1
1
1
1
1
1.00001
1.00001
1.00007
1.00011
1.0005
1.00075
1.00357
1.00603
1.00596
1.06071
1.21542
1.22882
2.29848
3.72342
5.68212
6.3597
6.46416
6.40702
6.26394
6.06862
5.87427
5.6733
1
1
1
1
1
1
1
1
1
1
1
1
1
1
1
1
1
1
1
1
1
1
1
1
1
1
1
1
1.00001
1.00001
1.00004
1.00003
1.00021
1.00031
1.00059
1.00362
1.00263
1.02462
1.04081
1.04434
1.63278
1.72283
3.48177
5.41271
6.12339
6.27029
6.23223
6.12214
5.95146
5.74919
1
1
1
1
1
1
1
1
1
1
1
1
1
1
1
1
1
1
1
1
1
1
1
1
1
1
1
1
1
1.00001
1.00001
1.00005
1.00006
1.00028
1.00037
1.00179
1.0018
1.01052
1.01334
1.06793
1.09144
1.50885
1.60462
3.13855
4.9972
5.82679
6.07448
6.06545
6.00031
5.85959
1
1
1
1
1
1
1
1
1
1
1
1
1
1
1
1
1
1
1
1
1
1
1
1
1
1
1
1
1
1
1
1.00001
1.00003
1.00001
1.00023
1.0002
1.00167
1.00162
1.00959
1.01452
1.05761
1.05187
1.41994
1.50529
2.75013
4.33718
5.43603
5.85311
5.91061
5.85479
1
1
1
1
1
1
1
1
1
1
1
1
1
1
1
1
1
1
1
1
1
1
1
1
1
1
1
1
1
1
1
1
1.00001
1.00001
1.00001
1.00011
1.00013
1.00046
1.00174
1.00256
0.998905
1.03922
1.10128
1.07311
1.7408
1.93314
3.6667
5.08889
5.62781
5.70721
1
1
1
1
1
1
1
1
1
1
1
1
1
1
1
1
1
1
1
1
1
1
1
1
1
1
1
1
1
1
1
1
1
1.00001
1.00001
1.00006
1.00007
1.00026
1.00055
1.00144
1.00191
1.01088
1.02822
1.05464
1.02982
1.59743
1.68052
3.01915
4.65631
5.2373
1
1
1
1
1
1
1
1
1
1
1
1
1
1
1
1
1
1
1
1
1
1
1
1
1
1
1
1
1
1
1
1
1
1
1
1.00002
1.00002
1.00011
1.00013
1.00065
1.00065
1.00376
1.00447
1.02081
1.03137
1.14261
1.1099
1.78447
2.24452
3.71769
1
1
1
1
1
1
1
1
1
1
1
1
1
1
1
1
1
1
1
1
1
1
1
1
1
1
1
1
1
1
1
1
1
1
1
1
1.00002
1.00002
1.00009
1.00012
1.00042
1.00062
1.00174
1.00734
1.00734
1.04648
1.04001
1.26631
1.24911
2.12995
1
1
1
1
1
1
1
1
1
1
1
1
1
1
1
1
1
1
1
1
1
1
1
1
1
1
1
1
1
1
1
1
1
1
1
1
1
1.00001
1.00002
1.00008
1.00011
1.00046
1.00057
1.00262
1.00317
1.0134
1.01303
1.01428
1.17517
1.20706
1
1
1
1
1
1
1
1
1
1
1
1
1
1
1
1
1
1
1
1
1
1
1
1
1
1
1
1
1
1
1
1
1
1
1
1
1
1
1
0.999995
1.00001
0.999975
0.999879
1.00132
1.00319
1.00223
1.00799
1.01335
1.00282
1.19283
1
1
1
1
1
1
1
1
1
1
1
1
1
1
1
1
1
1
1
1
1
1
1
1
1
1
1
1
1
1
1
1
1
1
1
1
1
1
1
1
1.00001
0.999999
0.99997
1.00038
1.00095
1.00047
1.00256
1.00446
0.999188
1.08511
1
1
1
1
1
1
1
1
1
1
1
1
1
1
1
1
1
1
1
1
1
1
1
1
1
1
1
1
1
1
1
1
1
1
1
1
1
1
1
1
1
1.00002
1.00003
1.00015
1.00022
1.00021
1.00228
1.00555
1.00818
1.00829
1
1
1
1
1
1
1
1
1
1
1
1
1
1
1
1
1
1
1
1
1
1
1
1
1
1
1
1
1
1
1
1
1
1
1
1
1
1
1
1
0.999998
0.999999
0.999987
0.999999
1
0.999896
1.00095
1.00212
1.00182
1.0168
1
1
1
1
1
1
1
1
1
1
1
1
1
1
1
1
1
1
1
1
1
1
1
1
1
1
1
1
1
1
1
1
1
1
1
1
1
1
1
1
0.999999
0.999999
0.999992
0.999995
1
0.999992
1.00029
1.00105
1.00072
1.00747
1
1
1
1
1
1
1
1
1
1
1
1
1
1
1
1
1
1
1
1
1
1
1
1
1
1
1
1
1
1
1
1
1
1
1
1
1
1
1
1
1
1
0.999997
0.999998
1
0.999985
1.00019
1.00043
1.00046
1.0032
1
1
1
1
1
1
1
1
1
1
1
1
1
1
1
1
1
1
1
1
1
1
1
1
1
1
1
1
1
1
1
1
1
1
1
1
1
1
1
1
1
1
1
1
1
0.999992
1.00008
1.00018
1.00019
1.00139
1
1
1
1
1
1
1
1
1
1
1
1
1
1
1
1
1
1
1
1
1
1
1
1
1
1
1
1
1
1
1
1
1
1
1
1
1
1
1
1
1
1
1
1
1
1.00002
1.00002
1.0001
1.00015
1.00016
1
1
1
1
1
1
1
1
1
1
1
1
1
1
1
1
1
1
1
1
1
1
1
1
1
1
1
1
1
1
1
1
1
1
1
1
1
1
1
1
1
1
1
1
1
1.00001
1.00001
1.00005
1.00007
1.00006
1
1
1
1
1
1
1
1
1
1
1
1
1
1
1
1
1
1
1
1
1
1
1
1
1
1
1
1
1
1
1
1
1
1
1
1
1
1
1
1
1
1
1
1
1
1
1
1.00002
1.00003
1.00003
1
1
1
1
1
1
1
1
1
1
1
1
1
1
1
1
1
1
1
1
1
1
1
1
1
1
1
1
1
1
1
1
1
1
1
1
1
1
1
1
1
1
1
1
1
1
1
1
1
1.00004
1
1
1
1
1
1
1
1
1
1
1
1
1
1
1
1
1
1
1
1
1
1
1
1
1
1
1
1
1
1
1
1
1
1
1
1
1
1
1
1
1
1
1
1
1
1
1
1
1
1.00002
1
1
1
1
1
1
1
1
1
1
1
1
1
1
1
1
1
1
1
1
1
1
1
1
1
1
1
1
1
1
1
1
1
1
1
1
1
1
1
1
1
1
1
1
1
1
1
1
1
1.00001
2.10908
1.05878
0.715572
0.640112
0.658389
0.718005
0.848199
1.00536
1.08754
1.10165
1.09973
1.09509
1.09563
1.09816
1.10418
1.1141
1.11944
1.12059
1.12024
1.11891
1.11591
1.11049
1.10513
1.09984
1.09471
1.08954
1.0839
1.07782
1.07136
1.06462
1.05776
1.05081
1.04369
1.03652
1.02935
1.02216
1.01492
1.00764
1.00029
0.992861
0.985411
0.977957
0.970469
0.962978
0.955523
0.94814
0.940854
0.933695
0.92669
0.919867
0.913243
0.906823
0.900607
0.894606
0.888836
0.883299
0.877983
0.872882
0.867999
0.863342
0.858918
0.854732
0.850798
0.847124
0.84372
0.840599
0.837772
0.835239
0.833023
0.83112
0.829522
0.828245
0.827256
0.826541
0.826143
0.826109
0.826125
0.826255
0.826676
0.827403
0.828716
0.829797
0.831135
0.83254
0.834021
0.8356
0.837366
0.838933
0.840907
0.842731
0.844301
0.846957
0.848472
0.851529
0.853038
0.856556
0.858313
0.862755
0.866188
0.874473
2.79555
1.70476
1.26025
1.08768
1.01784
0.976219
0.95007
0.956017
0.974641
1.01391
1.06563
1.10705
1.12482
1.12447
1.12304
1.11988
1.11718
1.11613
1.11567
1.11506
1.1138
1.11123
1.10719
1.10212
1.09642
1.09035
1.0841
1.07769
1.07111
1.06443
1.05766
1.05071
1.04354
1.03637
1.02922
1.02203
1.01478
1.00752
1.00021
0.992754
0.985275
0.977882
0.970417
0.962886
0.955413
0.948016
0.940717
0.933544
0.926528
0.919693
0.913059
0.906637
0.900422
0.894412
0.888635
0.883105
0.877798
0.872698
0.867817
0.863162
0.85874
0.854556
0.85062
0.846941
0.843532
0.840401
0.837563
0.835011
0.832769
0.830845
0.829218
0.827964
0.827037
0.826392
0.826145
0.826127
0.82617
0.826326
0.826742
0.827622
0.828636
0.829946
0.830903
0.832723
0.833765
0.83576
0.837167
0.839123
0.840842
0.842747
0.84464
0.84682
0.848813
0.851382
0.853152
0.856512
0.858502
0.862442
0.865595
0.872314
3.60448
2.59531
1.95912
1.54409
1.27187
1.09
0.974
0.942128
0.947014
0.963141
0.998704
1.04575
1.08295
1.10959
1.11913
1.11981
1.11933
1.11793
1.11504
1.1126
1.11044
1.10763
1.10393
1.09945
1.09424
1.08838
1.08233
1.0761
1.06964
1.06297
1.05633
1.04952
1.04231
1.03499
1.02803
1.02094
1.01377
1.00655
0.999263
0.991897
0.984494
0.977061
0.969594
0.962129
0.954683
0.947301
0.940032
0.932882
0.925892
0.919089
0.912479
0.906087
0.899921
0.893945
0.888141
0.882623
0.877409
0.87234
0.867455
0.862814
0.858408
0.85424
0.85032
0.846656
0.843267
0.840155
0.837353
0.834841
0.832635
0.830791
0.829184
0.82789
0.826786
0.826021
0.825725
0.825716
0.82575
0.825906
0.82631
0.827189
0.828251
0.82961
0.83073
0.832409
0.833587
0.835635
0.836943
0.839075
0.840719
0.842816
0.844645
0.846868
0.848777
0.851421
0.853259
0.856488
0.858456
0.862399
0.865096
0.870958
4.03953
3.14608
2.46213
1.96375
1.62013
1.38101
1.22637
1.11496
1.0474
1.01293
1.01385
1.02035
1.03623
1.06582
1.09121
1.11201
1.12222
1.12277
1.12201
1.11975
1.11506
1.10965
1.10515
1.09997
1.09438
1.08872
1.08285
1.07673
1.07024
1.0635
1.05685
1.04987
1.04243
1.03526
1.02824
1.02112
1.01395
1.00668
0.999355
0.991998
0.984578
0.977096
0.969611
0.962153
0.954702
0.947277
0.939974
0.932829
0.925844
0.919037
0.912434
0.90605
0.899877
0.893912
0.888176
0.882684
0.877409
0.872336
0.867477
0.862835
0.85842
0.85424
0.850299
0.846611
0.843188
0.84004
0.837181
0.834629
0.832353
0.830415
0.828869
0.827668
0.826709
0.825996
0.825706
0.825685
0.825735
0.825916
0.826358
0.827309
0.828289
0.829714
0.830831
0.832618
0.833814
0.835794
0.837149
0.839275
0.840832
0.843066
0.844777
0.847274
0.849003
0.851894
0.853602
0.856966
0.858853
0.862704
0.865172
0.870469
4.31779
3.54133
2.88717
2.36623
1.97436
1.6814
1.46463
1.30221
1.18195
1.09282
1.0458
1.02589
1.02699
1.03237
1.04507
1.06532
1.08324
1.09821
1.10701
1.10894
1.10851
1.10696
1.10343
1.0975
1.09155
1.08534
1.0791
1.07277
1.0664
1.06017
1.05353
1.04657
1.03985
1.03305
1.02609
1.01901
1.01194
1.00477
0.997375
0.990061
0.982766
0.975302
0.967837
0.960459
0.953129
0.945758
0.938401
0.931393
0.924504
0.917775
0.911245
0.904927
0.898821
0.892932
0.887269
0.881829
0.876604
0.871583
0.866766
0.862159
0.857773
0.853614
0.849691
0.846029
0.84262
0.839506
0.836685
0.834128
0.831985
0.830063
0.828412
0.827142
0.826161
0.825438
0.825153
0.825145
0.82519
0.825371
0.825812
0.826802
0.827848
0.829356
0.830578
0.832386
0.833759
0.835813
0.837275
0.839564
0.841098
0.843657
0.84524
0.848015
0.849574
0.852678
0.854361
0.857787
0.859621
0.863472
0.865897
0.871033
4.52301
3.84952
3.24555
2.73016
2.31413
1.98654
1.73161
1.53505
1.38238
1.26854
1.17577
1.1095
1.0698
1.04671
1.04491
1.04721
1.05357
1.06665
1.08086
1.092
1.10017
1.10186
1.10134
1.09957
1.09559
1.08863
1.08139
1.07422
1.06726
1.06007
1.05307
1.04651
1.03985
1.03309
1.02632
1.0193
1.01214
1.00504
0.997767
0.990328
0.982861
0.97534
0.967953
0.960606
0.953107
0.945661
0.938534
0.931523
0.924653
0.917961
0.911471
0.905191
0.89912
0.893263
0.887623
0.882197
0.876977
0.871958
0.867138
0.862523
0.858123
0.85394
0.849995
0.846296
0.842855
0.839697
0.836813
0.834235
0.831961
0.830006
0.828393
0.827157
0.826198
0.82551
0.825295
0.825307
0.825383
0.825626
0.826156
0.827289
0.828571
0.830173
0.831679
0.833668
0.835343
0.83773
0.839423
0.842103
0.843705
0.846563
0.848107
0.85121
0.852805
0.856105
0.857765
0.861249
0.862946
0.866682
0.869032
0.87404
4.67339
4.08695
3.54003
3.04818
2.62836
2.28179
1.99997
1.77318
1.58996
1.44286
1.32377
1.22816
1.15206
1.10006
1.06839
1.04931
1.04652
1.04789
1.05154
1.05921
1.06967
1.07768
1.0836
1.08527
1.08484
1.08334
1.07998
1.07329
1.06586
1.05835
1.05085
1.04361
1.03672
1.02979
1.02281
1.01607
1.00929
1.00219
0.995025
0.987742
0.980351
0.97306
0.965721
0.958182
0.950783
0.943601
0.936518
0.929582
0.922814
0.916232
0.909856
0.903683
0.897708
0.891935
0.886373
0.881019
0.875866
0.870906
0.866137
0.861566
0.8572
0.853043
0.849121
0.845436
0.842009
0.838861
0.835993
0.833426
0.831199
0.829263
0.827685
0.826509
0.825604
0.825054
0.825043
0.825121
0.825382
0.825966
0.827088
0.828746
0.830602
0.832883
0.835102
0.837889
0.840296
0.843528
0.84585
0.849419
0.851603
0.855388
0.857345
0.861169
0.862927
0.866562
0.868109
0.871446
0.872921
0.876184
0.878318
0.883235
4.79404
4.27481
3.78012
3.31816
2.90734
2.55394
2.25605
2.00783
1.80175
1.63137
1.49103
1.37485
1.28098
1.20297
1.13957
1.09648
1.06864
1.05156
1.04537
1.04588
1.04765
1.05164
1.05934
1.06579
1.07064
1.07262
1.07226
1.07081
1.06742
1.06057
1.05304
1.04504
1.0373
1.02991
1.02254
1.01537
1.00836
1.00139
0.994374
0.987232
0.980125
0.97293
0.965427
0.958022
0.950817
0.943628
0.936566
0.9297
0.922993
0.916464
0.910157
0.904054
0.898128
0.892391
0.886872
0.881555
0.876428
0.871484
0.86672
0.862147
0.857771
0.8536
0.849658
0.845949
0.8425
0.839328
0.836451
0.833887
0.831683
0.829832
0.828377
0.827452
0.8269
0.826984
0.827296
0.827989
0.829365
0.831387
0.834029
0.837406
0.84127
0.845843
0.850601
0.856061
0.861173
0.867214
0.871928
0.878266
0.882214
0.888048
0.89096
0.895769
0.897631
0.901198
0.902219
0.904473
0.904899
0.906136
0.907117
0.910864
4.89119
4.42885
3.98082
3.54953
3.15283
2.80047
2.49436
2.23215
2.00927
1.82061
1.66157
1.52734
1.41462
1.31955
1.24223
1.17571
1.1235
1.08644
1.0618
1.04648
1.03869
1.03879
1.03949
1.04119
1.04507
1.05057
1.05469
1.0555
1.05508
1.05355
1.05009
1.04374
1.03677
1.02885
1.02088
1.01314
1.0057
0.998367
0.991125
0.984195
0.977105
0.969794
0.962784
0.955712
0.948669
0.941694
0.934706
0.927901
0.921349
0.914824
0.908579
0.902569
0.896697
0.890972
0.885519
0.880305
0.875252
0.870364
0.865647
0.861112
0.856767
0.852622
0.848704
0.845027
0.841616
0.838514
0.835749
0.83337
0.831454
0.830103
0.829312
0.829537
0.830279
0.831624
0.834223
0.838344
0.843844
0.850732
0.859036
0.868761
0.879548
0.891487
0.903683
0.916664
0.92871
0.941396
0.951555
0.963022
0.970592
0.979434
0.983745
0.989024
0.99049
0.992253
0.991647
0.99036
0.987393
0.984507
0.979658
0.982471
4.95485
4.53892
4.13219
3.73284
3.35609
3.01246
2.70627
2.43775
2.20459
2.00345
1.83076
1.68269
1.55608
1.44759
1.35574
1.27693
1.21144
1.15518
1.11134
1.07896
1.05631
1.04251
1.0341
1.03078
1.03098
1.0317
1.03352
1.03701
1.03984
1.03983
1.03935
1.03802
1.0349
1.02883
1.02157
1.01379
1.0057
0.997952
0.990536
0.982869
0.975538
0.968591
0.961744
0.954971
0.948061
0.941245
0.934714
0.928095
0.921491
0.915055
0.908895
0.902954
0.897068
0.891325
0.885949
0.880764
0.875737
0.870875
0.866181
0.86167
0.857353
0.853246
0.849396
0.845843
0.842657
0.83994
0.837833
0.83639
0.836356
0.837058
0.839078
0.842976
0.849339
0.85853
0.870744
0.886137
0.904623
0.926012
0.950042
0.976017
1.00312
1.031
1.05799
1.08422
1.10799
1.13119
1.14957
1.16736
1.17926
1.18958
1.19407
1.19575
1.19461
1.19149
1.18402
1.17545
1.15982
1.14906
1.12752
1.13298
5.02154
4.636
4.26149
3.88949
3.53123
3.19757
2.89464
2.62464
2.38658
2.17792
1.99558
1.83686
1.69898
1.57922
1.47555
1.38563
1.30809
1.24127
1.18441
1.13564
1.09814
1.07008
1.04884
1.03457
1.02624
1.02232
1.02011
1.02016
1.02058
1.0219
1.02337
1.02324
1.02261
1.02095
1.01745
1.01155
1.00506
0.997337
0.989078
0.981433
0.973929
0.966716
0.959585
0.952488
0.945886
0.939471
0.932857
0.926375
0.919991
0.913773
0.907807
0.901855
0.895919
0.890297
0.884943
0.87975
0.874731
0.869897
0.865252
0.860823
0.85664
0.852761
0.849302
0.846441
0.844343
0.843623
0.844484
0.847114
0.852014
0.861163
0.875044
0.894431
0.919735
0.950981
0.988215
1.03126
1.07785
1.12952
1.18495
1.2403
1.29195
1.33737
1.37492
1.40552
1.42785
1.44514
1.45538
1.46234
1.46468
1.46444
1.46227
1.45915
1.45291
1.44676
1.43459
1.42517
1.40504
1.3924
1.3643
1.37461
5.07127
4.71294
4.36526
4.0187
3.68154
3.36231
3.06692
2.79838
2.55732
2.34334
2.15396
1.9871
1.84027
1.71136
1.59822
1.49916
1.41229
1.33613
1.26948
1.21217
1.16195
1.1194
1.0857
1.05939
1.03961
1.02566
1.01641
1.0113
1.00807
1.00638
1.00644
1.00671
1.00723
1.00707
1.00643
1.00493
1.00156
0.995888
0.989325
0.982059
0.974387
0.966604
0.959246
0.952354
0.945384
0.938645
0.932141
0.925772
0.919602
0.913704
0.907795
0.901817
0.896104
0.890626
0.885281
0.880109
0.875139
0.870406
0.86596
0.861911
0.85843
0.855776
0.854444
0.855381
0.858379
0.864185
0.875624
0.894254
0.921501
0.95825
1.00491
1.06245
1.12967
1.21072
1.29551
1.37482
1.44174
1.49202
1.52514
1.54512
1.55601
1.56108
1.56227
1.56151
1.55898
1.5558
1.55118
1.54691
1.54098
1.53644
1.52953
1.52495
1.51752
1.51295
1.50403
1.49897
1.48816
1.48366
1.47458
1.47896
5.11636
4.78058
4.45485
4.13095
3.81226
3.50658
3.21972
2.95546
2.71523
2.49863
2.30499
2.13256
1.97934
1.84315
1.72217
1.61492
1.51996
1.43596
1.36138
1.29541
1.23683
1.18558
1.14012
1.10193
1.07096
1.04647
1.02761
1.01353
1.004
0.998085
0.993931
0.991389
0.99103
0.991059
0.990944
0.990692
0.989962
0.98847
0.985338
0.979984
0.973389
0.966556
0.959547
0.95211
0.944865
0.937885
0.931094
0.924571
0.918457
0.912468
0.906432
0.900675
0.895192
0.889828
0.884616
0.879632
0.874972
0.870781
0.867392
0.864998
0.865526
0.868213
0.873973
0.886316
0.907598
0.941363
0.987834
1.05022
1.12657
1.22737
1.34075
1.44181
1.5232
1.57367
1.59998
1.61316
1.61831
1.61843
1.61661
1.61249
1.60691
1.60095
1.59364
1.58737
1.5798
1.57342
1.56587
1.56005
1.55247
1.5472
1.5395
1.53477
1.52708
1.52263
1.51451
1.51005
1.50138
1.49722
1.48968
1.49074
5.16241
4.8391
4.53484
4.22683
3.92483
3.63372
3.35728
3.0991
2.86128
2.64442
2.44812
2.27135
2.11309
1.97148
1.84487
1.73146
1.62979
1.53871
1.45704
1.38383
1.31832
1.25962
1.20731
1.16072
1.11905
1.08391
1.05516
1.03161
1.01358
0.999726
0.989752
0.983944
0.979927
0.976681
0.97548
0.975558
0.975572
0.975417
0.974786
0.973208
0.969848
0.965242
0.959062
0.952318
0.945375
0.938316
0.931308
0.924704
0.918335
0.911949
0.905952
0.90033
0.89494
0.889874
0.885166
0.881128
0.877989
0.877385
0.879117
0.884543
0.895835
0.916891
0.953866
1.00762
1.0814
1.17734
1.30598
1.4412
1.55123
1.62041
1.6533
1.66877
1.67384
1.67238
1.66781
1.66028
1.65104
1.6415
1.63146
1.62241
1.61304
1.60503
1.59636
1.58894
1.58065
1.57389
1.56583
1.55979
1.55177
1.54643
1.53838
1.53369
1.52603
1.52169
1.51383
1.50968
1.50144
1.49747
1.48982
1.49092
5.20527
4.89731
4.6013
4.3124
4.02565
3.7455
3.47794
3.22627
2.99248
2.77769
2.58189
2.40412
2.24286
2.09705
1.96541
1.84657
1.73925
1.64231
1.55466
1.47534
1.40359
1.3386
1.27987
1.22672
1.17908
1.13611
1.0979
1.06509
1.0383
1.01638
0.998836
0.986489
0.976905
0.96994
0.96588
0.963197
0.961812
0.961591
0.961162
0.960489
0.959781
0.95816
0.955122
0.950134
0.94427
0.937921
0.931496
0.924947
0.918158
0.911732
0.905735
0.900145
0.895052
0.890993
0.888261
0.889236
0.89296
0.901374
0.919154
0.953995
1.01
1.08916
1.19681
1.34636
1.50259
1.62375
1.68822
1.71708
1.72974
1.72986
1.7258
1.71551
1.70326
1.69002
1.67704
1.66492
1.65326
1.64239
1.63138
1.62123
1.61074
1.60102
1.59085
1.5819
1.57225
1.56413
1.5549
1.548
1.53916
1.53331
1.52512
1.52028
1.51296
1.5088
1.50189
1.49833
1.49127
1.48794
1.48142
1.48206
5.24426
4.95189
4.67069
4.39145
4.11716
3.85021
3.59179
3.34655
3.11705
2.90439
2.70882
2.5298
2.36649
2.21785
2.08266
1.95973
1.84785
1.746
1.65317
1.5685
1.49123
1.42067
1.3563
1.29755
1.24408
1.1955
1.15174
1.11234
1.07732
1.04718
1.02207
1.00208
0.985876
0.973105
0.964075
0.957867
0.953599
0.95038
0.948809
0.948339
0.947797
0.947095
0.945748
0.943322
0.939889
0.935635
0.930404
0.924452
0.918585
0.91275
0.907215
0.902719
0.900446
0.902142
0.907758
0.920112
0.94585
0.995936
1.0741
1.18311
1.34415
1.52432
1.67018
1.74243
1.77491
1.78967
1.78846
1.78102
1.7672
1.75128
1.73508
1.71981
1.70503
1.69047
1.67591
1.66165
1.6473
1.63338
1.61952
1.60632
1.59324
1.58103
1.56895
1.55798
1.54699
1.53751
1.52742
1.51971
1.51054
1.5042
1.49629
1.49122
1.48452
1.48057
1.47472
1.47172
1.4661
1.46363
1.45895
1.4589
5.29093
5.00575
4.73705
4.46814
4.2031
3.94408
3.69542
3.45688
3.23197
3.02217
2.82805
2.64926
2.48514
2.33473
2.19695
2.07075
1.95508
1.84899
1.75161
1.66215
1.57996
1.50442
1.43498
1.37123
1.31279
1.25926
1.21034
1.16584
1.1257
1.08976
1.05777
1.03024
1.00727
0.988315
0.973116
0.961353
0.952528
0.946119
0.941667
0.938475
0.936188
0.93482
0.934097
0.933218
0.93156
0.929083
0.926008
0.92241
0.918643
0.914941
0.913985
0.916131
0.923287
0.939586
0.973374
1.03857
1.13944
1.29265
1.497
1.68409
1.78357
1.8267
1.84935
1.84917
1.84208
1.82559
1.80699
1.78798
1.76972
1.75181
1.73369
1.71526
1.69639
1.6776
1.65887
1.64072
1.62293
1.60606
1.58966
1.57438
1.55956
1.54598
1.53276
1.52096
1.50932
1.49932
1.48906
1.48091
1.472
1.46536
1.45788
1.45264
1.4466
1.44267
1.43766
1.43481
1.43044
1.42814