/*--------------------------------*- C++ -*----------------------------------*\
| =========                 |                                                 |
| \\      /  F ield         | OpenFOAM: The Open Source CFD Toolbox           |
|  \\    /   O peration     | Version:  2412                                  |
|   \\  /    A nd           | Website:  www.openfoam.com                      |
|    \\/     M anipulation  |                                                 |
\*---------------------------------------------------------------------------*/
FoamFile
{
    version     2.0;
    format      ascii;
    arch        "LSB;label=32;scalar=64";
    class       surfaceScalarField;
    location    "1";
    object      phi;
}
// * * * * * * * * * * * * * * * * * * * * * * * * * * * * * * * * * * * * * //

dimensions      [1 0 -1 0 0 0 0];

oriented        oriented;

internalField   nonuniform List<scalar> 
13790
(
0.00290515
1.51729e-15
0.00290515
6.77683e-15
0.00290515
2.81359e-14
0.00290515
4.02428e-14
0.00290515
2.1285e-13
0.00290515
3.31213e-13
0.00290515
7.29769e-13
0.00290515
4.87052e-13
0.00290515
-3.44144e-13
0.00290515
-2.81124e-12
0.00290515
-1.89256e-11
0.00290515
-4.68985e-11
0.00290515
-1.89139e-10
0.00290515
-4.61585e-10
0.00290515
-1.01234e-09
0.00290516
-2.95969e-09
0.00290515
-5.0262e-09
0.00290525
-9.96944e-09
0.00290566
-1.78648e-08
0.00290476
6.86694e-09
0.00290335
4.91884e-08
0.00290067
1.2167e-07
0.0028999
1.7455e-07
0.00288919
4.43329e-07
0.0028818
7.9241e-07
0.00288133
9.97819e-07
0.00286293
6.82399e-06
0.00276615
2.55909e-05
0.00256831
0.000120958
0.00244086
0.00012894
0.00234045
0.000129339
0.00222282
0.000133471
0.002098
0.000129936
0.00197418
0.000121729
0.00184841
0.000110501
0.00173408
9.98424e-05
0.00162918
9.27671e-05
0.00152322
8.99335e-05
0.00139907
9.13988e-05
0.00127941
9.53497e-05
0.00116883
0.000102898
0.00106298
0.000111918
0.000957899
0.000121955
0.000838923
0.000127702
0.000711896
0.000128843
0.000592755
0.000126818
0.000476759
0.000128766
0.000351485
0.000138635
0.000194198
0.000163602
0.000195816
0.00301309
1.18374e-14
0.00301309
8.66305e-15
0.00301309
3.92579e-14
0.00301309
4.22195e-14
0.00301309
1.6091e-13
0.00301309
3.61439e-13
0.00301309
1.82101e-13
0.00301309
-3.07043e-14
0.00301309
-6.16219e-13
0.00301309
4.60593e-12
0.00301309
-3.29808e-11
0.00301309
-6.9643e-11
0.00301309
-3.24223e-10
0.00301309
-1.00518e-09
0.00301309
-2.09824e-09
0.00301311
-5.66351e-09
0.00301309
-1.12905e-08
0.0030132
-1.92874e-08
0.00301367
-4.20326e-08
0.00301273
2.84521e-08
0.00301123
1.16424e-07
0.00300845
2.56985e-07
0.00300764
4.11823e-07
0.00299642
8.96683e-07
0.00298899
1.53984e-06
0.0029886
2.13858e-06
0.00297074
1.32025e-05
0.00287908
4.18267e-05
0.00271237
0.000209479
0.00259856
0.000251798
0.00249001
0.000268582
0.00236274
0.000275977
0.0022284
0.000269155
0.00209735
0.000250718
0.00196251
0.000230303
0.00183549
0.00021215
0.00171434
0.000200995
0.00159023
0.000196435
0.00144916
0.000197342
0.00131647
0.000203075
0.00119603
0.000215853
0.00108257
0.000232771
0.000970657
0.000250632
0.00084533
0.00026141
0.000712034
0.000263685
0.000585362
0.00026178
0.00046059
0.000266702
0.000327684
0.000284904
0.000171279
0.000325387
0.00036868
0.00312505
-4.47092e-15
0.00312505
-1.59394e-15
0.00312505
9.66826e-15
0.00312505
4.53702e-14
0.00312505
-4.54879e-14
0.00312505
-2.93627e-14
0.00312505
-3.83779e-13
0.00312505
-5.53415e-13
0.00312505
-2.3231e-12
0.00312505
-4.47003e-12
0.00312505
-1.52848e-11
0.00312505
-1.15696e-10
0.00312505
-1.86217e-11
0.00312504
-6.50263e-10
0.00312504
-9.66864e-10
0.00312505
-3.59192e-09
0.00312504
-7.62564e-09
0.00312511
-1.66765e-08
0.00312546
-3.84553e-08
0.00312464
5.21036e-08
0.00312308
1.92867e-07
0.00312017
4.20781e-07
0.00311921
6.65045e-07
0.00310766
1.49218e-06
0.00309986
2.49537e-06
0.0030996
3.58082e-06
0.00307954
2.07458e-05
0.00297765
6.47957e-05
0.00278671
0.000318021
0.00266553
0.000381368
0.0025565
0.000408821
0.00242841
0.000420297
0.00229383
0.000409337
0.00216074
0.000381796
0.00202512
0.000350405
0.00189891
0.000323987
0.00177927
0.000308238
0.00165608
0.000302877
0.00151198
0.00030524
0.00137407
0.00031421
0.00124809
0.000333709
0.00112883
0.000359457
0.00101036
0.000386703
0.000876752
0.000403819
0.000733411
0.000408914
0.000595189
0.000408715
0.000458637
0.000416562
0.000316302
0.000440249
0.000158098
0.00048713
0.000528854
0.00324116
2.27577e-15
0.00324116
5.68285e-16
0.00324116
-3.24603e-14
0.00324116
-4.4975e-14
0.00324116
-1.70518e-13
0.00324116
-5.52224e-13
0.00324116
-7.70971e-13
0.00324116
-2.39616e-13
0.00324116
-3.59805e-12
0.00324116
-1.05376e-11
0.00324116
-5.41625e-12
0.00324116
-2.08657e-11
0.00324116
-3.84515e-11
0.00324116
-1.25197e-10
0.00324115
-1.74723e-10
0.00324116
-7.56254e-10
0.00324114
-1.94908e-09
0.00324121
-8.69823e-09
0.00324153
-2.71287e-08
0.00324077
7.98237e-08
0.00323921
2.67243e-07
0.00323622
5.60782e-07
0.00323539
8.74508e-07
0.00322329
2.01233e-06
0.00321505
3.44722e-06
0.00321503
4.88896e-06
0.00319392
2.86659e-05
0.00308682
9.01908e-05
0.00288253
0.000436426
0.00275411
0.000520266
0.00264057
0.000552708
0.00250987
0.000566919
0.00237313
0.000551981
0.00223618
0.000517113
0.00209534
0.000476175
0.00196356
0.000441226
0.0018394
0.000419657
0.00171276
0.000411748
0.00156575
0.000414686
0.00142544
0.000427013
0.00129719
0.000453694
0.00117541
0.000489054
0.00105398
0.000526785
0.000915189
0.000552105
0.000764047
0.000562426
0.000615946
0.000566045
0.000468163
0.000578053
0.000315782
0.000605491
0.000152845
0.0006518
0.000684409
0.00336158
1.93077e-14
0.00336158
-2.13103e-15
0.00336158
2.75565e-14
0.00336158
1.04994e-14
0.00336158
5.84858e-14
0.00336158
-5.07939e-13
0.00336158
4.00708e-13
0.00336158
2.53473e-13
0.00336158
-1.15199e-12
0.00336158
-2.57667e-12
0.00336158
-2.49878e-11
0.00336158
4.3335e-11
0.00336158
-1.64445e-10
0.00336158
-4.87353e-11
0.00336158
-3.89641e-11
0.00336158
-2.42104e-10
0.00336156
5.82248e-10
0.00336164
-2.48844e-09
0.00336191
-1.68959e-08
0.00336118
1.47875e-07
0.00335959
4.19031e-07
0.00335652
7.63781e-07
0.00335589
1.0965e-06
0.00334298
2.58273e-06
0.00333433
4.51243e-06
0.00333453
6.24948e-06
0.00331323
3.56118e-05
0.00320008
0.000119341
0.00297742
0.000569937
0.00283795
0.000666589
0.00271724
0.000697608
0.00258218
0.000714021
0.0024436
0.000695011
0.00230469
0.00065405
0.00216389
0.000604817
0.00203219
0.000560231
0.00190786
0.000532027
0.00178033
0.000521921
0.00163051
0.000526193
0.00148663
0.000542816
0.00135485
0.000577239
0.0012295
0.000622712
0.00110484
0.000671577
0.000961017
0.000706746
0.000802359
0.000724428
0.000644578
0.000733625
0.000485928
0.000750682
0.000323221
0.000780854
0.000153214
0.000821815
0.000840969
0.00348648
-2.03877e-14
0.00348648
-1.46706e-15
0.00348648
-4.44244e-14
0.00348648
-5.2796e-14
0.00348648
-9.40166e-14
0.00348648
1.49794e-13
0.00348648
-6.80892e-13
0.00348648
-1.74642e-12
0.00348648
-2.46298e-12
0.00348648
-7.27061e-12
0.00348648
-1.57584e-11
0.00348648
-2.99672e-11
0.00348648
-1.42583e-11
0.00348648
3.45688e-10
0.00348648
7.29279e-10
0.00348648
2.80489e-09
0.00348644
8.61456e-09
0.00348657
1.24855e-08
0.00348676
4.62397e-09
0.00348602
1.40252e-07
0.00348423
3.67876e-07
0.00348131
6.96663e-07
0.00348033
1.11377e-06
0.00346875
2.74075e-06
0.00346243
4.93364e-06
0.00346459
7.04526e-06
0.00344124
4.23502e-05
0.00332876
0.00013691
0.00311336
0.000690912
0.00296821
0.000823756
0.00283039
0.000862971
0.00268142
0.000876314
0.0025349
0.000847763
0.0023933
0.000795444
0.00225294
0.00073465
0.00212248
0.000679323
0.00199833
0.00064526
0.00186881
0.000634488
0.0017142
0.000641627
0.0015641
0.000663653
0.00142614
0.000706401
0.0012947
0.000762198
0.00116519
0.00082275
0.00101496
0.000868997
0.000847548
0.000895603
0.000679662
0.000911361
0.000510341
0.000934137
0.000336802
0.000966921
0.000157706
0.000999378
0.00100277
0.00361602
-6.55969e-15
0.00361602
-5.30337e-15
0.00361602
-8.44946e-15
0.00361602
-5.47184e-14
0.00361602
1.57482e-13
0.00361602
-6.99945e-13
0.00361602
2.3248e-13
0.00361602
-4.55095e-12
0.00361602
2.95602e-13
0.00361602
-1.70942e-11
0.00361602
-4.86406e-12
0.00361602
-5.05268e-11
0.00361602
-1.41279e-11
0.00361602
4.96011e-10
0.00361602
1.24131e-09
0.00361601
5.92491e-09
0.00361598
1.39601e-08
0.00361607
2.39661e-08
0.00361616
2.58021e-08
0.00361553
6.21842e-08
0.00361389
1.30894e-07
0.00361149
2.78343e-07
0.00360989
7.61848e-07
0.00360024
2.65954e-06
0.0035948
5.29025e-06
0.00359672
7.54404e-06
0.00357032
4.84152e-05
0.00345856
0.000144332
0.00325474
0.000801031
0.00310852
0.000993569
0.00295724
0.00104721
0.00279854
0.00104945
0.0026487
0.0010054
0.00250818
0.000937097
0.00236819
0.000863693
0.00223734
0.000799071
0.00211091
0.000761299
0.0019768
0.000751688
0.00181517
0.00076322
0.00165664
0.000791283
0.00151068
0.000842671
0.00137126
0.000909225
0.0012352
0.000982205
0.00107694
0.00104047
0.000899725
0.00107695
0.000720742
0.00110016
0.000540286
0.00112888
0.000355565
0.00116399
0.000165623
0.00118709
0.00117336
0.00375038
-2.58482e-15
0.00375038
-6.09278e-15
0.00375038
-3.70057e-14
0.00375038
-1.51714e-14
0.00375038
-4.25069e-13
0.00375038
1.9298e-13
0.00375038
-1.46282e-12
0.00375038
1.77525e-12
0.00375038
-8.59712e-12
0.00375038
-4.57595e-13
0.00375038
-3.91048e-11
0.00375038
-2.78464e-11
0.00375038
-1.74546e-10
0.00375038
-4.15909e-10
0.00375038
-1.04351e-09
0.00375037
-6.9773e-10
0.00375038
-1.73658e-09
0.00375036
4.71566e-09
0.00375036
2.10647e-08
0.00374996
-4.23884e-08
0.00374858
-1.1197e-07
0.0037471
-2.05719e-07
0.00374697
6.81763e-07
0.00373328
3.01906e-06
0.00372562
6.26025e-06
0.00372709
8.79356e-06
0.00370746
4.9e-05
0.00356944
0.000182885
0.00334388
0.000925751
0.00318762
0.00116639
0.0030501
0.00122276
0.00290628
0.00121134
0.00277131
0.00115036
0.00263984
0.00106861
0.0025021
0.000986144
0.00237098
0.000918197
0.00224164
0.000881164
0.00210195
0.00087524
0.00193191
0.000892642
0.00176317
0.000927137
0.00160778
0.000987371
0.00145904
0.00106513
0.00131519
0.00115125
0.00114748
0.00122264
0.000959363
0.00126972
0.000768259
0.00130072
0.000575925
0.00133546
0.000379411
0.00137255
0.000176513
0.00138715
0.00135486
0.00388972
-1.15901e-15
0.00388972
-3.72396e-16
0.00388972
-1.65216e-14
0.00388972
-1.77954e-14
0.00388972
-2.3681e-13
0.00388972
-1.56066e-13
0.00388972
-2.07913e-12
0.00388972
-2.52346e-12
0.00388972
-1.11423e-11
0.00388972
-1.29911e-11
0.00388972
-5.61541e-11
0.00388972
-7.00374e-11
0.00388972
-2.51995e-10
0.00388972
-4.83901e-10
0.00388973
-1.56109e-09
0.00388971
-1.64782e-09
0.00388973
-1.24753e-08
0.0038896
9.66581e-09
0.00388943
6.63896e-08
0.00388981
-3.66354e-07
0.00388978
-8.84666e-07
0.00389276
-1.29624e-06
0.00388823
-6.78924e-07
0.00387852
1.4313e-06
0.00385835
8.64001e-06
0.00384758
1.30992e-05
0.00385016
3.23197e-05
0.0036846
0.000227555
0.00344274
0.00105332
0.00326891
0.00135818
0.00313606
0.00140148
0.00300426
0.00136464
0.00288354
0.00128195
0.00276245
0.00118759
0.00263021
0.00109982
0.00250209
0.00103342
0.00237365
0.00100075
0.00223216
0.00100106
0.00205713
0.00102665
0.00188024
0.00106947
0.00171625
0.0011399
0.00155795
0.00123023
0.00140577
0.00133067
0.00122768
0.0014164
0.00102761
0.00147489
0.000822966
0.00151386
0.00061752
0.00155487
0.000407749
0.00159409
0.000190212
0.00160086
0.00154942
0.00403424
-1.13448e-15
0.00403424
2.46537e-15
0.00403424
3.16668e-16
0.00403424
9.38903e-15
0.00403424
-4.73912e-14
0.00403424
-5.92898e-14
0.00403424
-6.34558e-13
0.00403424
-1.19991e-12
0.00403424
-5.84115e-12
0.00403424
-1.07143e-11
0.00403424
-4.65513e-11
0.00403424
-9.98365e-11
0.00403424
-3.80493e-10
0.00403424
-4.55491e-10
0.00403425
-2.24189e-09
0.00403425
-4.24163e-09
0.00403425
-1.1884e-08
0.00403434
-4.51393e-08
0.00403416
-8.22583e-08
0.00403493
-3.04603e-07
0.0040364
-9.19897e-07
0.00403389
-1.5208e-06
0.00406008
-3.99915e-06
0.00400458
-4.54058e-06
0.00398065
-6.58063e-07
0.00403867
2.97466e-06
0.00407541
3.33225e-05
0.00392277
0.000198407
0.00363185
0.00127076
0.0034267
0.00160507
0.0032674
0.00160159
0.00312923
0.00151672
0.00301366
0.00140303
0.0028989
0.00129559
0.00277148
0.00120673
0.00264634
0.00114611
0.00251866
0.00112069
0.00237554
0.00112935
0.00219587
0.00116516
0.00201101
0.00121817
0.00183819
0.00130042
0.0016696
0.00140495
0.00150825
0.0015211
0.00131886
0.00162265
0.00110604
0.00169324
0.000886624
0.0017409
0.000666693
0.0017887
0.000441111
0.00183148
0.000206724
0.00183045
0.00175983
0.00418414
3.63471e-15
0.00418414
3.64148e-15
0.00418414
8.34735e-15
0.00418414
3.81843e-14
0.00418414
2.81021e-14
0.00418414
9.83267e-14
0.00418414
3.21078e-14
0.00418414
1.71868e-13
0.00418414
-1.24322e-12
0.00418414
-1.25703e-12
0.00418414
-1.54541e-11
0.00418414
-2.59013e-11
0.00418414
-1.43322e-10
0.00418414
-2.1766e-10
0.00418414
-9.26412e-10
0.00418413
-2.60764e-09
0.00418415
-7.29496e-09
0.00418413
-3.35431e-08
0.00418399
-6.8141e-08
0.00418456
-2.67788e-07
0.00418616
-8.0855e-07
0.00418327
-1.62466e-06
0.00421654
-2.58339e-06
0.00413577
-5.18732e-06
0.00417188
-2.92546e-06
0.00427338
-2.55768e-06
0.00424246
5.10159e-05
0.00407292
0.00017461
0.00371548
0.00152071
0.00351477
0.00185012
0.00337288
0.00178305
0.00325543
0.001646
0.00315993
0.00150193
0.00305729
0.00138698
0.00293681
0.0013057
0.00281478
0.00125713
0.00268646
0.00124246
0.00253979
0.00126188
0.00235321
0.00130959
0.00215867
0.00137475
0.00197587
0.00147056
0.00179607
0.00159065
0.00162481
0.00172366
0.00142333
0.00184281
0.00119695
0.00192715
0.000960732
0.00198412
0.000724146
0.00203891
0.000481289
0.00208584
0.000226736
0.00207993
0.00198974
0.0043396
4.09582e-15
0.0043396
6.84245e-15
0.0043396
3.03399e-14
0.0043396
2.68096e-14
0.0043396
1.41076e-13
0.0043396
2.37029e-13
0.0043396
5.18863e-13
0.0043396
1.45964e-12
0.0043396
1.83921e-12
0.0043396
3.71304e-12
0.0043396
2.14558e-12
0.0043396
8.68717e-12
0.0043396
-4.9218e-11
0.0043396
-1.22928e-10
0.00433961
-9.54302e-10
0.00433959
-9.06377e-10
0.00433962
-7.004e-09
0.00433951
-6.47458e-09
0.00433946
-3.04101e-08
0.00433908
-2.01142e-07
0.00434215
-3.53593e-07
0.00433717
-1.06229e-06
0.00437942
-5.34564e-06
0.00433014
-6.67564e-06
0.00431964
-4.28468e-06
0.00434497
-2.94786e-05
0.00436235
6.82893e-05
0.00412221
0.00026942
0.00383772
0.00168059
0.00365595
0.00211656
0.00352266
0.00196512
0.00342505
0.00175698
0.00334505
0.00158541
0.00325115
0.001465
0.00313462
0.0014027
0.00301264
0.00136968
0.00288122
0.00136824
0.002729
0.0014006
0.00253385
0.00146204
0.00232812
0.00154148
0.00213338
0.00165224
0.00194056
0.00178909
0.00175838
0.00194
0.00154418
0.00207874
0.00130308
0.00217782
0.00104761
0.00224441
0.00079207
0.00230652
0.000527884
0.00235989
0.000250388
0.00235021
0.00224188
0.00450084
4.15556e-15
0.00450084
7.1266e-15
0.00450084
2.26432e-14
0.00450084
4.46933e-14
0.00450084
1.23468e-13
0.00450084
2.11003e-13
0.00450084
6.19966e-13
0.00450084
9.52558e-13
0.00450084
2.52343e-12
0.00450084
6.42039e-12
0.00450084
6.97934e-12
0.00450084
3.21083e-11
0.00450084
7.18669e-12
0.00450084
7.3172e-11
0.00450084
-4.12597e-10
0.00450083
-3.86483e-11
0.00450089
-7.51339e-09
0.00450075
1.40758e-09
0.00450089
-6.90948e-08
0.00450054
-1.00255e-11
0.00450033
-5.22412e-07
0.00450674
-2.45544e-07
0.00451011
-4.10004e-06
0.00450691
-8.46246e-06
0.00451926
-1.77906e-05
0.00419806
-3.15439e-05
0.00450522
6.59665e-05
0.00448823
0.000223424
0.0040599
0.00190361
0.00384405
0.00240954
0.00370547
0.00216767
0.00363364
0.00185254
0.0035643
0.00166479
0.00347637
0.00153807
0.00336292
0.00149657
0.00324035
0.00148303
0.00310498
0.00149858
0.0029462
0.00154676
0.00274055
0.0016253
0.00251967
0.00172044
0.00231038
0.00184752
0.00210335
0.00200171
0.00190921
0.00217061
0.00168157
0.00233031
0.00142504
0.00244587
0.00114853
0.00252418
0.000871292
0.00259457
0.000584408
0.00265558
0.000279574
0.00264868
0.00252204
0.00466806
3.96143e-15
0.00466806
1.34588e-14
0.00466806
3.35627e-14
0.00466806
6.6568e-14
0.00466806
1.7519e-13
0.00466806
3.30152e-13
0.00466806
9.50056e-13
0.00466806
1.34565e-12
0.00466806
5.50052e-12
0.00466806
8.78055e-12
0.00466806
2.97459e-11
0.00466806
2.7842e-11
0.00466806
1.24385e-10
0.00466806
2.1234e-10
0.00466806
4.58378e-10
0.00466806
1.4066e-09
0.00466806
9.88763e-10
0.00466806
1.78418e-09
0.00466796
-9.65352e-09
0.00466802
4.87993e-09
0.00466839
-9.45577e-08
0.00466367
1.45938e-07
0.00468208
-1.41588e-06
0.00460964
-1.38067e-06
0.00479692
-1.61679e-05
0.00503703
-4.22758e-05
0.00475624
0.000111376
0.00486289
0.000145958
0.00431466
0.00199772
0.00409233
0.00268477
0.00395169
0.002373
0.00390291
0.00193626
0.00383563
0.0017392
0.00374712
0.00161935
0.00363635
0.00159395
0.0035094
0.00160268
0.0033658
0.00163838
0.00319577
0.00170496
0.00297609
0.00180156
0.00273835
0.00191479
0.00251155
0.00205938
0.00228794
0.00223066
0.0020808
0.0024166
0.00183971
0.00259697
0.00156823
0.00272981
0.00126912
0.00282257
0.000967712
0.00290551
0.000652043
0.0029808
0.000314366
0.00297983
0.00283507
0.00484151
1.07658e-14
0.00484151
1.15273e-14
0.00484151
4.00196e-14
0.00484151
5.12475e-14
0.00484151
2.01337e-13
0.00484151
3.43057e-13
0.00484151
1.06874e-12
0.00484151
1.54327e-12
0.00484151
5.65144e-12
0.00484151
9.7524e-12
0.00484151
3.31576e-11
0.00484151
6.6486e-11
0.00484151
1.85889e-10
0.00484151
2.85513e-10
0.00484151
1.01353e-09
0.0048415
1.49919e-09
0.00484149
5.62955e-09
0.00484151
9.35541e-09
0.00484137
2.56167e-08
0.00484164
4.23277e-08
0.00484102
1.27669e-07
0.00484199
1.55436e-07
0.00484138
8.8425e-07
0.00482515
3.9838e-06
0.00481014
5.03386e-06
0.00489801
-8.21128e-06
0.00477548
9.66738e-05
0.00465761
0.000169319
0.00459387
0.00167992
0.00439761
0.00291596
0.00430047
0.00251998
0.00423347
0.00206522
0.00415715
0.0018249
0.00406387
0.00172311
0.00395415
0.00169729
0.00382086
0.00173277
0.00366441
0.00179186
0.00347538
0.00187956
0.00323555
0.00199356
0.00297911
0.00212664
0.00273319
0.00228849
0.00249241
0.002476
0.00227143
0.00267745
0.00201679
0.00287873
0.00173037
0.00302936
0.00141128
0.00313809
0.00108361
0.00323735
0.000737399
0.00333166
0.000360217
0.00334971
0.00319207
0.00502139
1.11696e-14
0.00502139
-1.12968e-14
0.00502139
5.18595e-14
0.00502139
-4.49596e-14
0.00502139
3.02773e-13
0.00502139
-1.93766e-13
0.00502139
1.96537e-12
0.00502139
-2.85524e-13
0.00502139
9.56001e-12
0.00502139
1.04729e-11
0.00502139
2.86625e-11
0.00502139
4.64461e-11
0.00502139
1.44514e-10
0.00502139
2.3921e-10
0.00502139
8.55186e-10
0.00502139
1.22712e-09
0.00502137
5.93376e-09
0.00502146
1.12966e-08
0.00502125
4.1767e-08
0.00502188
6.82752e-08
0.00502098
2.38231e-07
0.00502116
4.58619e-07
0.00502318
9.11903e-07
0.00500007
2.52084e-06
0.00503863
4.6927e-06
0.00477058
1.1576e-05
0.00497457
7.17989e-05
0.00511046
0.000108494
0.00521467
0.00115554
0.00481522
0.00312815
0.00468851
0.00267469
0.00459998
0.00220495
0.00452794
0.00193224
0.00442269
0.00184225
0.00431009
0.00181835
0.00416623
0.0018755
0.00398912
0.00196161
0.00377333
0.00207351
0.00351116
0.00220466
0.00323636
0.00235689
0.0029736
0.00253515
0.00271777
0.002737
0.00248677
0.00295267
0.00222278
0.0031752
0.00192208
0.00334645
0.00158103
0.00347414
0.00122768
0.00359182
0.000845147
0.00371649
0.000419129
0.00376517
0.00360499
0.00520796
7.29831e-16
0.00520796
-1.07274e-15
0.00520796
6.76271e-15
0.00520796
-7.78343e-15
0.00520796
7.43282e-14
0.00520796
-3.4861e-14
0.00520796
4.16982e-13
0.00520796
-7.39047e-14
0.00520796
3.45387e-12
0.00520796
-1.02175e-11
0.00520796
4.44736e-11
0.00520796
-2.34168e-11
0.00520796
2.77306e-10
0.00520796
8.63133e-12
0.00520796
1.78521e-09
0.00520796
8.6577e-10
0.00520796
9.91196e-09
0.00520802
1.26406e-08
0.00520782
4.63853e-08
0.00520861
7.86679e-08
0.00520716
2.47559e-07
0.00520971
4.35645e-07
0.00520239
1.28717e-06
0.00522143
9.25909e-07
0.00518983
6.78631e-06
0.00535409
5.23967e-06
0.0052123
6.26795e-05
0.00510952
0.000108421
0.00521476
0.0008351
0.0051233
0.00278094
0.00505586
0.00275965
0.00500363
0.0023235
0.00494386
0.00203242
0.00483775
0.00196204
0.00469526
0.00196559
0.00452053
0.00204492
0.00431202
0.00215379
0.00406471
0.00228533
0.00378581
0.00243569
0.00349957
0.0026032
0.00322669
0.00279399
0.00296205
0.00300602
0.00272586
0.00323374
0.00245908
0.00347499
0.00215258
0.00366514
0.00179625
0.00382163
0.00141431
0.00397186
0.00099293
0.0041371
0.000507099
0.0042401
0.00410262
0.00540147
7.4997e-16
0.00540147
1.06081e-14
0.00540147
2.27452e-14
0.00540147
8.52269e-14
0.00540147
1.43187e-13
0.00540147
5.45791e-13
0.00540147
8.95779e-13
0.00540147
3.332e-12
0.00540147
5.65289e-12
0.00540147
1.72921e-11
0.00540147
3.2757e-11
0.00540147
1.16316e-10
0.00540147
2.22105e-10
0.00540147
7.24766e-10
0.00540147
1.40454e-09
0.00540147
4.45802e-09
0.00540146
1.04098e-08
0.00540142
2.07811e-08
0.00540122
8.24397e-08
0.00540146
1.2025e-07
0.00540101
5.06959e-07
0.00539834
9.17924e-07
0.00540009
6.13799e-07
0.005417
-2.07258e-06
0.00539083
8.07471e-06
0.00555826
1.08275e-05
0.00535788
4.51179e-05
0.00568234
0.000100315
0.00537437
0.00061259
0.00543951
0.00223141
0.00555463
0.00268987
0.00552592
0.00241648
0.00539766
0.00218683
0.00523839
0.00211726
0.00503529
0.00215293
0.00481921
0.00223654
0.00458357
0.00236646
0.00432547
0.00251558
0.00404243
0.00267771
0.00375488
0.0028564
0.00348156
0.00305629
0.0032178
0.00327501
0.00298531
0.00350787
0.00273313
0.00376392
0.00242256
0.00398617
0.00205938
0.00417306
0.00166571
0.00435957
0.00120525
0.00459501
0.000641005
0.00479321
0.00473092
0.00560216
-6.94296e-17
0.00560216
1.27527e-14
0.00560216
2.20802e-14
0.00560216
9.39304e-14
0.00560216
1.58089e-13
0.00560216
5.8332e-13
0.00560216
8.12724e-13
0.00560216
3.52642e-12
0.00560216
4.0498e-12
0.00560216
1.83177e-11
0.00560216
2.17263e-11
0.00560216
8.99327e-11
0.00560216
9.59246e-11
0.00560216
2.84424e-10
0.00560216
4.09221e-10
0.00560216
1.15657e-09
0.00560217
1.80424e-09
0.00560219
3.9408e-09
0.00560218
1.44703e-08
0.0056024
1.99724e-08
0.00560184
9.96194e-08
0.00560177
2.76014e-07
0.00560351
1.01237e-08
0.00562673
-1.44965e-06
0.00554976
3.05887e-06
0.00582654
-2.31476e-06
0.00569401
5.25026e-05
0.00616319
0.000103492
0.00566268
0.00041579
0.00590736
0.00153057
0.00599369
0.00257372
0.00583607
0.002552
0.00566751
0.002317
0.00546956
0.00228435
0.00525139
0.00234983
0.00502393
0.00244692
0.00479475
0.00258369
0.00454487
0.00274389
0.00427696
0.00291683
0.00400687
0.00310589
0.00374667
0.00331334
0.0034998
0.00353395
0.00327868
0.00376886
0.00304653
0.00404683
0.00275523
0.00429625
0.00240667
0.00451612
0.00201105
0.0047496
0.00153888
0.00506161
0.000893987
0.00542755
0.00561046
0.00581031
-2.89455e-16
0.00581031
4.03959e-15
0.00581031
8.80787e-15
0.00581031
3.19418e-14
0.00581031
6.00687e-14
0.00581031
1.64952e-13
0.00581031
4.36147e-13
0.00581031
7.66556e-13
0.00581031
2.81002e-12
0.00581031
4.14909e-12
0.00581031
1.46605e-11
0.00581031
1.72968e-11
0.00581031
7.48878e-11
0.00581031
8.1479e-11
0.00581031
2.22098e-10
0.00581031
4.58774e-10
0.00581032
-1.36421e-09
0.00581033
-5.30668e-09
0.00581036
-1.71038e-08
0.00581049
-3.29493e-08
0.00581105
-8.38185e-08
0.00581211
-2.00513e-07
0.00580911
1.38513e-06
0.00579908
4.54727e-06
0.0057885
6.49851e-06
0.0057469
1.41512e-05
0.00573147
3.00846e-05
0.00574599
6.23145e-05
0.00582802
0.000251755
0.00603869
0.000895779
0.00607176
0.00251715
0.00602855
0.0025618
0.00581238
0.00251717
0.00560362
0.00247043
0.0053965
0.00254216
0.00518181
0.00264931
0.00496824
0.00279299
0.00474503
0.00296031
0.00450619
0.00314017
0.00426383
0.00333056
0.00403689
0.0035381
0.00381101
0.00376581
0.00360461
0.00400786
0.00341311
0.0042883
0.00316536
0.00456212
0.00286504
0.0048147
0.00251325
0.00509025
0.00207686
0.00549432
0.00140783
0.00608658
0.00700307
0.00840003
-1.75097e-15
0.00840003
1.75212e-15
0.00840003
-2.70038e-15
0.00840003
1.36027e-14
0.00840003
-1.33118e-15
0.00840003
7.7798e-14
0.00840003
2.29707e-14
0.00840003
4.64926e-13
0.00840003
3.59917e-13
0.00840003
2.54938e-12
0.00840003
2.63278e-12
0.00840003
1.48277e-11
0.00840003
2.80881e-11
0.00840003
1.1397e-10
0.00840003
1.91127e-10
0.00840004
3.04553e-10
0.00840002
1.64938e-09
0.00840001
4.60261e-09
0.00839991
6.55849e-09
0.0083999
3.33781e-08
0.00840024
1.57057e-08
0.00840078
8.00132e-08
0.00839886
1.47445e-06
0.00840777
3.82996e-06
0.00839976
5.86404e-06
0.00837808
1.23657e-05
0.00837322
2.07092e-05
0.00840779
2.90699e-05
0.00845272
0.000156834
0.0086599
0.000485665
0.0086725
0.00227657
0.00850228
0.00266308
0.00824425
0.00273304
0.00795471
0.00273033
0.00768738
0.00279726
0.00741724
0.0029061
0.00716021
0.00304842
0.006898
0.00321266
0.00662721
0.00338622
0.00636067
0.00356901
0.00610589
0.00377442
0.00586623
0.00399479
0.00567013
0.00421956
0.0055406
0.00448489
0.00535793
0.00477381
0.00513946
0.00502675
0.00494515
0.00526796
0.00490721
0.00551516
0.00519871
0.00578565
0.00525778
0.0069295
0.00840003
-5.60424e-16
0.00840003
-3.80297e-16
0.00840003
-4.58895e-15
0.00840003
-2.88129e-15
0.00840003
-3.3421e-14
0.00840003
-2.48984e-14
0.00840003
-2.27984e-13
0.00840003
-2.80352e-13
0.00840003
-1.41554e-12
0.00840003
-1.80129e-12
0.00840003
-8.02159e-12
0.00840003
-1.05658e-11
0.00840003
-4.52443e-11
0.00840003
-6.36666e-11
0.00840003
-2.32915e-10
0.00840003
-4.83667e-10
0.00840004
-1.07892e-09
0.0084
-1.63406e-09
0.00840017
-8.1811e-09
0.00839988
-5.51981e-09
0.00839974
-1.48396e-08
0.00840027
-2.15039e-07
0.00840009
-3.46119e-07
0.00840393
-7.71683e-08
0.00840343
-1.81179e-06
0.00840502
2.49394e-07
0.00838863
7.46062e-06
0.00841703
-6.45903e-07
0.00844901
0.000101262
0.00840539
0.000349686
0.00842122
0.00211092
0.00819958
0.00287459
0.00791585
0.00300569
0.00768709
0.00295312
0.0074802
0.00300775
0.00729213
0.00310579
0.00709664
0.00324702
0.00690472
0.00339955
0.0067146
0.00355968
0.00653295
0.00373345
0.00636724
0.00392862
0.0062256
0.00412881
0.00612448
0.00433103
0.00612301
0.00455141
0.00614432
0.0048039
0.00616073
0.00502035
0.00624426
0.00517871
0.00651634
0.00523361
0.00705465
0.0052391
0.00470897
0.00760022
0.00840003
1.14e-15
0.00840003
1.31229e-15
0.00840003
5.07599e-15
0.00840003
4.15709e-15
0.00840003
1.58482e-14
0.00840003
8.80505e-15
0.00840003
3.19148e-14
0.00840003
-2.49619e-14
0.00840003
-6.03038e-14
0.00840003
-3.2565e-13
0.00840003
-1.19732e-12
0.00840003
-1.83389e-12
0.00840003
-1.39682e-11
0.00840003
-2.14746e-11
0.00840003
-1.32101e-10
0.00840003
-2.21359e-10
0.00840003
-1.05468e-09
0.00840004
-2.01079e-09
0.00840005
-7.76034e-09
0.00840004
-1.50021e-08
0.00840005
-5.06378e-08
0.00840011
-9.51873e-08
0.00839885
-3.91111e-07
0.00839765
-5.62354e-07
0.00839367
-2.61586e-06
0.00841635
-2.24669e-06
0.00842706
-1.22744e-05
0.00871932
-3.12648e-05
0.0084343
0.000118384
0.00861399
0.000204215
0.00840684
0.00208294
0.00813991
0.00310949
0.0078724
0.00325934
0.00765458
0.00319863
0.00746491
0.00321178
0.00731038
0.00328093
0.00717585
0.00340633
0.00705254
0.00355798
0.00693512
0.0037157
0.00683516
0.0038849
0.00675
0.00406511
0.00668775
0.00424228
0.00666278
0.00441402
0.00671847
0.00457699
0.00686332
0.00475288
0.00703887
0.00490057
0.00724864
0.00499225
0.0075322
0.00496272
0.0079262
0.00484709
0.00440105
0.00823688
0.00840003
1.31034e-15
0.00840003
3.16045e-17
0.00840003
6.76259e-15
0.00840003
2.18034e-15
0.00840003
4.37468e-14
0.00840003
1.19401e-14
0.00840003
2.6971e-13
0.00840003
1.0269e-13
0.00840003
1.48184e-12
0.00840003
1.48752e-12
0.00840003
7.1548e-12
0.00840003
9.57246e-12
0.00840003
2.68152e-11
0.00840003
4.84627e-11
0.00840003
1.00628e-10
0.00840003
1.35961e-10
0.00840003
1.51259e-10
0.00840003
8.16054e-10
0.00840001
-2.31759e-10
0.00840001
-2.6741e-09
0.00839997
-1.57013e-09
0.00839963
-2.49553e-08
0.00839837
-1.18839e-08
0.00840298
-1.46166e-07
0.00839435
-1.45762e-07
0.00841762
-7.02677e-07
0.00839502
9.01382e-07
0.00841597
-7.60356e-06
0.00831965
8.30853e-05
0.00824939
0.00016551
0.00892764
0.00122107
0.00856928
0.00345211
0.00827219
0.00359996
0.00801354
0.00352018
0.00787156
0.00338671
0.00773866
0.00343278
0.00764017
0.00352654
0.00756211
0.00366043
0.00748117
0.00382182
0.00741111
0.00399052
0.00736326
0.00414991
0.00734029
0.00430427
0.00734579
0.00444993
0.00740471
0.00457115
0.00755244
0.00467565
0.00775873
0.00475549
0.00799998
0.00478627
0.00825934
0.00473125
0.00853633
0.00458409
0.00421963
0.00872587
0.00840003
-1.24792e-16
0.00840003
2.49049e-15
0.00840003
3.65139e-15
0.00840003
1.72809e-14
0.00840003
2.69926e-14
0.00840003
9.04595e-14
0.00840003
1.57459e-13
0.00840003
4.77502e-13
0.00840003
9.42668e-13
0.00840003
2.57354e-12
0.00840003
5.24587e-12
0.00840003
6.55337e-12
0.00840003
4.22094e-11
0.00840003
7.29476e-11
0.00840003
1.56508e-10
0.00840003
6.23044e-11
0.00840003
1.15248e-09
0.00840004
1.71158e-09
0.00840003
3.67555e-09
0.00840004
-1.01598e-09
0.00839998
2.74021e-08
0.00839994
-1.94787e-08
0.00839957
1.37709e-07
0.00840035
-1.84434e-07
0.00839964
4.78398e-07
0.00837481
-1.18799e-06
0.00841772
7.28157e-06
0.00818862
4.81634e-06
0.00842132
7.05947e-05
0.00761222
0.000135981
0.00881863
0.000792479
0.0092998
0.00269682
0.00904386
0.00382755
0.00886291
0.00371028
0.00860334
0.00366304
0.0084099
0.00362356
0.0082636
0.00366602
0.00815111
0.00376909
0.00807701
0.00390066
0.008035
0.00403824
0.00800877
0.00417634
0.008006
0.00430273
0.00802859
0.00441998
0.00808074
0.00451237
0.00819183
0.00457062
0.00836166
0.00460215
0.00857335
0.00458744
0.00880081
0.00451242
0.00902194
0.00436514
0.00407604
0.00916109
0.00840003
-4.25942e-16
0.00840003
1.73418e-16
0.00840003
4.3772e-16
0.00840003
3.77797e-15
0.00840003
3.68564e-15
0.00840003
3.37745e-14
0.00840003
2.47053e-14
0.00840003
2.06848e-13
0.00840003
1.1359e-13
0.00840003
5.21083e-13
0.00840003
1.22231e-12
0.00840003
5.64773e-12
0.00840003
7.85389e-12
0.00840003
7.96625e-12
0.00840003
1.64618e-10
0.00840003
3.17169e-10
0.00840003
6.82671e-10
0.00840002
2.56819e-10
0.00840002
6.14075e-09
0.00839998
1.24691e-08
0.00839994
2.31586e-08
0.00839964
9.05927e-08
0.00839967
1.50194e-07
0.00839832
5.73271e-07
0.00839707
1.15499e-06
0.00839089
3.75571e-06
0.00839251
3.68294e-06
0.00835782
7.8826e-06
0.00834414
3.19792e-05
0.00835563
2.01837e-06
0.00869521
0.000452683
0.00964774
0.00118991
0.00989749
0.00359226
0.0095488
0.00414042
0.00925193
0.00399925