/*--------------------------------*- C++ -*----------------------------------*\
| =========                 |                                                 |
| \\      /  F ield         | OpenFOAM: The Open Source CFD Toolbox           |
|  \\    /   O peration     | Version:  2412                                  |
|   \\  /    A nd           | Website:  www.openfoam.com                      |
|    \\/     M anipulation  |                                                 |
\*---------------------------------------------------------------------------*/
FoamFile
{
    version     2.0;
    format      ascii;
    arch        "LSB;label=32;scalar=64";
    class       volScalarField;
    location    "1";
    object      T;
}
// * * * * * * * * * * * * * * * * * * * * * * * * * * * * * * * * * * * * * //

dimensions      [0 0 0 1 0 0 0];

internalField   nonuniform List<scalar> 
7000
(
1
1
1
1
1
1
1
1
1
1
1
1
1
1
1
0.999995
1.00002
0.99993
0.999976
0.999619
1.00117
0.995459
1.03167
0.903647
1.09498
1.23535
1.87448
2.67507
2.74927
2.73641
2.69987
2.64394
2.63627
2.63341
2.64144
2.65696
2.66419
2.67541
2.71172
2.7686
2.79315
2.78691
2.75006
2.73428
2.75092
2.7827
2.79462
2.80236
2.85123
3.13195
1
1
1
1
1
1
1
1
1
1
1
1
1
1
1
0.999995
1.00002
0.999929
0.999977
0.999602
1.00113
0.995443
1.03141
0.903988
1.09448
1.2341
1.87206
2.67465
2.75261
2.73238
2.69351
2.64023
2.63506
2.63298
2.64022
2.65486
2.66223
2.67448
2.7135
2.77082
2.79389
2.78587
2.74797
2.73487
2.75402
2.7847
2.79616
2.80501
2.8603
3.14516
1
1
1
1
1
1
1
1
1
1
1
1
1
1
1
0.999999
1.00002
0.999945
0.999987
0.999554
1.00105
0.995358
1.03113
0.904217
1.09382
1.23169
1.86886
2.67391
2.75041
2.73401
2.69521
2.64228
2.63662
2.63461
2.64239
2.65617
2.66258
2.67329
2.70979
2.76906
2.79388
2.7863
2.74842
2.73516
2.7543
2.78455
2.79724
2.8097
2.87948
3.16945
1
1
1
1
1
1
1
1
1
1
1
1
1
1
1.00001
1
1.00003
0.999947
0.999993
0.999491
1.00089
0.995229
1.0305
0.90454
1.0926
1.22806
1.8635
2.67101
2.74698
2.72888
2.69106
2.64097
2.6363
2.63451
2.64165
2.65568
2.66253
2.67378
2.71083
2.7693
2.79385
2.78641
2.74854
2.73498
2.75373
2.78386
2.79678
2.81175
2.896
3.18924
1
1
1
1
1
1
1
1
1
1
1
1
1
1
1.00001
1
1.00004
0.999945
0.99999
0.99942
1.00069
0.995095
1.02965
0.905148
1.09099
1.22312
1.85591
2.66721
2.73933
2.72132
2.68988
2.64528
2.64278
2.64112
2.64604
2.65676
2.66258
2.6733
2.70964
2.76782
2.79254
2.78547
2.74772
2.73337
2.75111
2.78149
2.79541
2.81287
2.91019
3.20434
1
1
1
1
1
1
1
1
1
1
1
1
1
1
1.00001
1
1.00004
0.999939
0.999957
0.999295
1.00044
0.994923
1.02854
0.906391
1.08788
1.21489
1.84427
2.66697
2.74204
2.71951
2.68584
2.64214
2.64081
2.63948
2.64445
2.65518
2.66098
2.67145
2.70696
2.76474
2.79011
2.78399
2.74682
2.73089
2.74716
2.77882
2.7939
2.81268
2.92113
3.21527
1
1
1
1
1
1
1
1
1
1
1
1
1
1
1
0.999998
1.00005
0.999914
0.999958
0.999183
1.00017
0.994613
1.02736
0.907287
1.08422
1.20579
1.83115
2.6646
2.74144
2.71353
2.67637
2.63465
2.63474
2.6343
2.64049
2.65281
2.65912
2.66957
2.70407
2.76172
2.78828
2.78321
2.74659
2.72895
2.74379
2.77595
2.79198
2.81194
2.92831
3.22102
1
1
1
1
1
1
1
1
1
1
1
1
1
1
1
0.999994
1.00004
0.999879
0.999986
0.999113
0.999939
0.994504
1.02541
0.908916
1.08162
1.19712
1.81453
2.64828
2.71932
2.70626
2.66766
2.62456
2.62337
2.62391
2.63478
2.65108
2.6584
2.66837
2.7007
2.75851
2.78677
2.78288
2.74701
2.72749
2.74088
2.77313
2.78964
2.81015
2.92937
3.22211
1
1
1
1
1
1
1
1
1
1
1
1
1
1
1
0.999996
1.00002
0.999901
1.00001
0.999046
0.999826
0.993372
1.02425
0.907361
1.07639
1.19048
1.79439
2.64498
2.71301
2.70163
2.66023
2.61651
2.61517
2.61665
2.63015
2.64907
2.65744
2.66728
2.69789
2.75503
2.78486
2.78223
2.74757
2.72617
2.73807
2.77039
2.78748
2.80829
2.92835
3.2214
1
1
1
1
1
1
1
1
1
1
1
1
1
1
1
0.999998
1.00001
0.999941
0.999959
0.999323
0.999669
0.994829
1.01548
0.91106
1.0842
1.15105
1.76006
2.66225
2.7024
2.68037
2.63515
2.60327
2.60547
2.61051
2.62868
2.64818
2.65658
2.6661
2.69494
2.75085
2.78216
2.78093
2.74815
2.72516
2.7358
2.76791
2.78474
2.80424
2.92526
3.21936
1
1
1
1
1
1
1
1
1
1
1
1
1
1
1
1.00001
1.00001
1
1.00002
0.999701
1
0.996645
1.01077
0.926336
1.07981
1.10186
1.74148
2.6443
2.67582
2.66223
2.62157
2.59499
2.59822
2.60582
2.628
2.647
2.65485
2.66398
2.6916
2.74678
2.77961
2.77954
2.74858
2.72377
2.73265
2.76411
2.78101
2.79964
2.91703
3.21254
1
1
1
1
1
1
1
1
1
1
1
1
1
1
1
1.00001
1.00002
1.00003
1.00013
1.0001
1.00036
0.996913
1.01388
0.920411
1.07523
1.10732
1.7263
2.59571
2.64709
2.63932
2.60361
2.58692
2.59226
2.60335
2.62822
2.64646
2.65358
2.66199
2.68808
2.74137
2.77459
2.77611
2.74749
2.71975
2.72628
2.75741
2.77548
2.79245
2.90858
3.20648
1
1
1
1
1
1
1
1
1
1
1
1
1
1
1
1.00001
1.00002
1.00006
1.00012
1.00031
1.0008
0.99989
1.00435
0.980461
1.04124
1.05452
1.63818
2.5075
2.60499
2.62157
2.60096
2.58497
2.59037
2.60347
2.62816
2.64585
2.65263
2.66015
2.68359
2.7356
2.77067
2.77356
2.74654
2.71583
2.72
2.75059
2.77026
2.78711
2.89497
3.19172
1
1
1
1
1
1
1
1
1
1
1
1
1
1
1
1.00002
1.00002
1.0001
1.00012
1.00056
1.0008
1.00296
1.00518
1.00791
1.04539
1.00678
1.57757
2.39216
2.57305
2.60916
2.5963
2.58618
2.59243
2.6081
2.62745
2.64432
2.65076
2.65788
2.67983
2.72873
2.76379
2.76827
2.74381
2.70958
2.71059
2.73784
2.75996
2.77448
2.8773
3.1802
1
1
1
1
1
1
1
1
1
1
1
1
1
1
1
1.00002
1.00002
1.00011
1.00013
1.00058
1.00084
1.00314
1.00564
1.02158
1.03245
1.08359
1.42845
2.18143
2.52276
2.60816
2.59633
2.59211
2.59791
2.6119
2.62595
2.64069
2.6465
2.65459
2.67795
2.72389
2.75776
2.76349
2.74137
2.70533
2.70458
2.72951
2.74822
2.76237
2.85329
3.15344
1
1
1
1
1
1
1
1
1
1
1
1
1
1
1
1.00002
1.00002
1.00009
1.00012
1.00053
1.00067
1.00342
1.00372
1.0188
1.02506
1.12177
1.30328
1.94424
2.37538
2.60822
2.60764
2.60933
2.60884
2.61452
2.62466
2.63572
2.64295
2.65373
2.67928
2.7205
2.75111
2.75656
2.73624
2.69616
2.692
2.71455
2.73891
2.74783
2.82842
3.13282
1
1
1
1
1
1
1
1
1
1
1
1
1
1
1
1.00001
1.00001
1.00005
1.00011
1.00037
1.00059
1.00252
1.0037
1.01611
1.02378
1.09203
1.24821
1.76304
2.21504
2.62619
2.64368
2.63562
2.61432
2.61387
2.6222
2.63304
2.64471
2.65827
2.68353
2.71746
2.74234
2.74663
2.7271
2.6849
2.67687
2.69561
2.71699
2.73
2.79563
3.08686
1
1
1
1
1
1
1
1
1
1
1
1
1
1
1
1
1.00002
1.00002
1.00009
1.00027
1.0005
1.00222
1.00278
1.01127
1.02546
1.06837
1.20449
1.57788
2.09801
2.59858
2.65726
2.6359
2.61711
2.61578
2.62717
2.64038
2.65577
2.66658
2.68523
2.71265
2.73315
2.73698
2.72028
2.67532
2.66347
2.67857
2.70062
2.70064
2.75769
3.04653
1
1
1
1
1
1
1
1
1
1
1
1
1
1
1
0.999999
1
0.999983
1.00004
0.99975
1.00061
1.00029
1.0051
1.00253
1.02634
1.0205
1.15835
1.40688
1.97868
2.51259
2.6744
2.6521
2.64071
2.63203
2.64127
2.65076
2.66056
2.66775
2.68227
2.70089
2.71628
2.71963
2.70719
2.66225
2.64124
2.64955
2.66908
2.67272
2.69344
2.94656
1
1
1
1
1
1
1
1
1
1
1
1
1
1
1
1
1
0.999985
1.00003
0.99977
1.00066
1.00004
1.00664
1.00087
1.04616
0.908691
1.1323
1.32716
1.93445
2.54312
2.7065
2.66352
2.6524
2.6357
2.63963
2.64854
2.65688
2.66147
2.66904
2.68218
2.6919
2.6928
2.68236
2.63967
2.61258
2.61341
2.62873
2.61759
2.62846
2.82682
1
1
1
1
1
1
1
1
1
1
1
1
1
1
1
1
1.00001
1.00001
1.00005
0.99998
1.00041
1.00014
1.00318
0.9976
1.0347
0.909958
1.09806
1.23672
1.84524
2.60719
2.66585
2.65574
2.63738
2.62676
2.62874
2.63856
2.6464
2.64951
2.65589
2.66519
2.67098
2.67035
2.66147
2.6203
2.57462
2.56352
2.56
2.54086
2.45496
2.4871
1
1
1
1
1
1
1
1
1
1
1
1
1
1
1
0.999999
0.999999
0.999995
0.999991
0.999915
0.999994
0.999252
1.00007
0.994657
1.02271
0.915728
1.06865
1.16558
1.7181
2.53793
2.59661
2.61765
2.60572
2.60264
2.60501
2.61173
2.61969
2.62938
2.6363
2.646
2.64945
2.64796
2.63989
2.60746
2.54693
2.50858
2.48943
2.45982
2.3523
2.28624
1
1
1
1
1
1
1
1
1
1
1
1
1
1
1
1
1
1
1.00001
1.00001
1.00005
1.00004
1.00045
0.999961
1.00384
0.993637
1.04225
1.03629
1.59379
2.39227
2.50478
2.55559
2.54006
2.54014
2.54751
2.56109
2.57228
2.58149
2.59108
2.59859
2.59928
2.59723
2.5905
2.57123
2.51983
2.46701
2.41872
2.38448
2.30581
2.22084
1
1
1
1
1
1
1
1
1
1
1
1
1
1
1
1
1
1.00001
1.00002
1.00006
1.0001
1.00038
1.00066
1.00234
1.004
1.01374
1.03682
1.10493
1.35926
2.00566
2.34856
2.51364
2.51429
2.50541
2.49523
2.49614
2.49934
2.49985
2.50194
2.5062
2.50731
2.50614
2.50238
2.49267
2.46488
2.41973
2.36775
2.31919
2.25736
2.18613
1
1
1
1
1
1
1
1
1
1
1
1
1
1
1
1
1
1.00001
1.00001
1.00007
1.00009
1.00038
1.0005
1.00206
1.00293
1.01234
1.02418
1.08637
1.20609
1.63399
2.13074
2.43795
2.49246
2.48882
2.48883
2.48785
2.48862
2.48747
2.48153
2.47332
2.46335
2.45507
2.442
2.43042
2.41195
2.37798
2.33428
2.28216
2.2231
2.16002
1
1
1
1
1
1
1
1
1
1
1
1
1
1
1
1
1
1
1.00002
1.00002
1.00019
1.00018
1.00122
1.00143
1.00735
1.00188
1.04345
0.915934
1.12167
1.28877
1.84057
2.38323
2.53223
2.51201
2.48864
2.48013
2.47796
2.47521
2.46858
2.46135
2.4496
2.43873
2.4238
2.40445
2.38591
2.35673
2.32082
2.27556
2.22284
2.16379
1
1
1
1
1
1
1
1
1
1
1
1
1
1
1
1
1
1
1.00001
1.00002
1.00007
1.0001
1.00038
1.00058
1.00223
1.00351
1.01385
1.02201
1.06323
1.20381
1.59097
2.08109
2.46057
2.51129
2.49935
2.48394
2.47492
2.47075
2.46241
2.45324
2.4416
2.4301
2.4185
2.39822
2.3791
2.35383
2.32212
2.27972
2.2316
2.17682
1
1
1
1
1
1
1
1
1
1
1
1
1
1
1
1
1
1
1
1.00002
1.00002
1.00016
1.00015
1.00102
1.00122
1.00629
1.00097
1.03845
0.918767
1.10738
1.25929
1.7882
2.3549
2.49627
2.49327
2.47943
2.46869
2.46494
2.45874
2.44865
2.43759
2.42606
2.41618
2.39862
2.38006
2.35686
2.33064
2.29277
2.25157
2.20615
1
1
1
1
1
1
1
1
1
1
1
1
1
1
1
1
1
1
1
1
1.00002
1.00003
1.0001
1.00015
1.00038
1.00126
1.00261
1.00829
0.991392
1.07822
1.07211
1.5828
2.27592
2.4026
2.45419
2.44773
2.45182
2.45215
2.45115
2.44582
2.43407
2.41791
2.40745
2.39306
2.37699
2.35618
2.33446
2.30401
2.2667
2.22941
1
1
1
1
1
1
1
1
1
1
1
1
1
1
1
1
1
1
1
1
1.00001
1.00002
1.00009
1.0001
1.0005
1.00058
1.00285
1.00391
1.017
1.02443
1.10748
1.2277
1.67383
2.13794
2.38806
2.38649
2.37976
2.38266
2.39554
2.40873
2.40798
2.39944
2.38205
2.36755
2.35323
2.33765
2.32068
2.29715
2.26381
2.23074
1
1
1
1
1
1
1
1
1
1
1
1
1
1
1
1
1
1
1
1
1
1.00003
1.00002
1.00018
1.00017
1.00115
1.0013
1.00536
1.00327
1.02305
0.98463
1.12895
1.28646
1.76015
2.17728
2.3773
2.38219
2.37897
2.37143
2.36639
2.36141
2.35351
2.33909
2.3193
2.30458
2.28491
2.26742
2.25481
2.23188
2.20604
1
1
1
1
1
1
1
1
1
1
1
1
1
1
1
1
1
1
1
1
1
1.00001
1.00001
1.00005
1.00003
1.00037
1.0001
1.00211
1.00132
1.01287
0.966709
1.06859
1.08446
1.55051
2.1655
2.30194
2.34149
2.35708
2.35057
2.33612
2.32938
2.32705
2.32166
2.30755
2.28866
2.26812
2.24273
2.21867
2.19442
2.17002
1
1
1
1
1
1
1
1
1
1
1
1
1
1
1
1
1
1
1
1
1
1
1.00001
1.00002
1.00008
1.00008
1.00037
1.00049
1.00207
0.998215
1.02596
0.926531
1.07902
1.15744
1.62568
2.28701
2.31525
2.32953
2.32369
2.31767
2.30501
2.29105
2.2862
2.28093
2.27243
2.25853
2.23645
2.21302
2.18468
2.15585
1
1
1
1
1
1
1
1
1
1
1
1
1
1
1
1
1
1
1
1
1
1
1
1.00001
1.00002
1.00007
1.00008
1.00039
1.00051
1.00114
1.00544
1.0111
1.03525
1.11064
1.2707
1.74062
2.08641
2.2755
2.27501
2.2733
2.27295
2.27042
2.26465
2.25678
2.24284
2.23104
2.21728
2.19898
2.17853
2.15073
1
1
1
1
1
1
1
1
1
1
1
1
1
1
1
1
1
1
1
1
1
1
1
1
1
1
1
1.00004
0.999934
1.00076
0.998069
1.00457
1.00505
1.038
1.10809
1.25052
1.68577
2.11099
2.27131
2.26315
2.23911
2.22512
2.22163
2.22294
2.22149
2.21513
2.20483
2.18593
2.16626
2.14459
1
1
1
1
1
1
1
1
1
1
1
1
1
1
1
1
1
1
1
1
1
1
1
1
0.999996
0.999995
0.999959
0.999994
0.999668
1.00061
0.999862
1.00692
1.00454
1.04646
0.932834
1.12632
1.29543
1.7388
2.11508
2.27202
2.25887
2.22879
2.20198
2.18504
2.1784
2.17709
2.17461
2.16954
2.15747
2.14353
1
1
1
1
1
1
1
1
1
1
1
1
1
1
1
1
1
1
1
1
1
1
1
1
1
0.999999
0.999999
0.999993
1
0.999989
0.999938
1.00079
0.999016
1.00597
1.00903
1.04942
1.11091
1.32971
1.68643
2.09684
2.25969
2.25712
2.23596
2.19785
2.17745
2.16258
2.15389
2.14616
2.13758
2.13212
1
1
1
1
1
1
1
1
1
1
1
1
1
1
1
1
1
1
1
1
1
1
1
1
1
1
1
1.00001
1.00002
1.00006
1.00013
1.00023
1.00111
1.00255
1.00862
0.996928
1.05769
1.05971
1.37243
1.74684
2.08342
2.22509
2.21927
2.20508
2.17479
2.16128
2.14361
2.13701
2.12457
2.1136
1
1
1
1
1
1
1
1
1
1
1
1
1
1
1
1
1
1
1
1
1
1
1
1
1
1
1
1
1
1.00002
1.00002
1.00014
1.00011
1.00109
0.999962
1.00474
1.00908
1.03614
1.10956
1.28425
1.60866
1.98229
2.16747
2.18747
2.17802
2.15861
2.14337
2.12548
2.11592
2.09736
1
1
1
1
1
1
1
1
1
1
1
1
1
1
1
1
1
1
1
1
1
1
1
1
1
1
1
1
1
1.00001
1.00001
1.00006
1.00006
1.00029
1.00041
1.00211
1.0017
1.01116
1.03923
1.06362
1.31084
1.65658
1.93647
2.11181
2.1462
2.14179
2.13357
2.11528
2.10259
2.08407
1
1
1
1
1
1
1
1
1
1
1
1
1
1
1
1
1
1
1
1
1
1
1
1
1
1
1
1
1
1
1.00001
1.00002
1.00008
1.00009
1.0005
1.00053
1.00297
1.00385
1.01455
1.03305
1.09743
1.25383
1.57738
1.83867
2.03896
2.09248
2.09711
2.09121
2.08334
2.06743
1
1
1
1
1
1
1
1
1
1
1
1
1
1
1
1
1
1
1
1
1
1
1
1
1
1
1
1
1
1
1
1
1.00002
0.999996
1.00014
1.00027
1.00062
1.00242
1.00361
1.01508
1.02517
1.06144
1.19795
1.48313
1.73471
1.96629
2.03611
2.05737
2.05676
2.05141
1
1
1
1
1
1
1
1
1
1
1
1
1
1
1
1
1
1
1
1
1
1
1
1
1
1
1
1
1
1
1
1
1
1.00002
1
1.00007
1.00008
1.0003
1.0006
1.00301
1.00436
1.01825
1.0535
1.12046
1.35546
1.6729
1.88647
1.99924
2.02145
2.02678
1
1
1
1
1
1
1
1
1
1
1
1
1
1
1
1
1
1
1
1
1
1
1
1
1
1
1
1
1
1
1
1
1
1
1.00002
1.00002
1.00009
1.00012
1.00033
1.00118
1.0011
1.00782
1.00489
1.04916
1.05628
1.27959
1.57126
1.77885
1.94999
1.97327
1
1
1
1
1
1
1
1
1
1
1
1
1
1
1
1
1
1
1
1
1
1
1
1
1
1
1
1
1
1
1
1
1
1
1.00001
1.00001
1.00003
1.00004
1.00018
1.00018
1.001
1.0012
1.00591
1.00784
1.03121
1.0723
1.14855
1.38981
1.66338
1.83851
1
1
1
1
1
1
1
1
1
1
1
1
1
1
1
1
1
1
1
1
1
1
1
1
1
1
1
1
1
1
1
1
1
1
1
1.00001
1.00001
1.00003
1.00003
1.00014
1.00018
1.00052
1.00116
1.00333
1.00991
1.01587
1.06036
1.11111
1.27211
1.49452
1
1
1
1
1
1
1
1
1
1
1
1
1
1
1
1
1
1
1
1
1
1
1
1
1
1
1
1
1
1
1
1
1
1
1
1
1
1
1.00003
1.00002
1.00014
1.00012
1.00079
1.00069
1.00426
1.0007
1.02258
1.00584
1.09678
1.18526
1
1
1
1
1
1
1
1
1
1
1
1
1
1
1
1
1
1
1
1
1
1
1
1
1
1
1
1
1
1
1
1
1
1
1
1
1
1
0.999998
1
0.999973
1.00008
1.00001
1.00081
1.00042
1.00477
0.989109
1.01498
1.02872
1.09326
1
1
1
1
1
1
1
1
1
1
1
1
1
1
1
1
1
1
1
1
1
1
1
1
1
1
1
1
1
1
1
1
1
1
1
1
1
1
1
1
0.999993
1.00003
1
1.00024
1
1.00181
0.99487
1.00609
1.01206
1.04035
1
1
1
1
1
1
1
1
1
1
1
1
1
1
1
1
1
1
1
1
1
1
1
1
1
1
1
1
1
1
1
1
1
1
1
1
1
1
1
1
1.00001
1.00001
1.00004
1.00003
1.00024
1.00016
1.0015
1.00085
1.00735
1.0083
1
1
1
1
1
1
1
1
1
1
1
1
1
1
1
1
1
1
1
1
1
1
1
1
1
1
1
1
1
1
1
1
1
1
1
1
1
1
1
1
1
0.999996
1.00001
0.999928
1.00006
1.00009
1.00046
1.00113
1.00293
1.00784
1
1
1
1
1
1
1
1
1
1
1
1
1
1
1
1
1
1
1
1
1
1
1
1
1
1
1
1
1
1
1
1
1
1
1
1
1
1
1
1
1
0.999997
1
0.99997
1.00003
1.00006
1.00014
1.00052
1.00139
1.00332
1
1
1
1
1
1
1
1
1
1
1
1
1
1
1
1
1
1
1
1
1
1
1
1
1
1
1
1
1
1
1
1
1
1
1
1
1
1
1
1
1
0.999999
1
0.999988
1.00001
1.00001
1.0001
1.00023
1.00067
1.00141
1
1
1
1
1
1
1
1
1
1
1
1
1
1
1
1
1
1
1
1
1
1
1
1
1
1
1
1
1
1
1
1
1
1
1
1
1
1
1
1
1
1
1
0.999995
1.00001
1.00001
1.00004
1.0001
1.00028
1.00062
1
1
1
1
1
1
1
1
1
1
1
1
1
1
1
1
1
1
1
1
1
1
1
1
1
1
1
1
1
1
1
1
1
1
1
1
1
1
1
1
1
1
1
1
1
1.00001
1.00003
1.00002
1.00012
1.00016
1
1
1
1
1
1
1
1
1
1
1
1
1
1
1
1
1
1
1
1
1
1
1
1
1
1
1
1
1
1
1
1
1
1
1
1
1
1
1
1
1
1
1
1
1
1
1.00001
1.00001
1.00005
1.00007
1
1
1
1
1
1
1
1
1
1
1
1
1
1
1
1
1
1
1
1
1
1
1
1
1
1
1
1
1
1
1
1
1
1
1
1
1
1
1
1
1
1
1
1
1
1
1.00001
1
1.00002
1.00003
1
1
1
1
1
1
1
1
1
1
1
1
1
1
1
1
1
1
1
1
1
1
1
1
1
1
1
1
1
1
1
1
1
1
1
1
1
1
1
1
1
1
1
1
1
1
0.999999
1
1
1.00002
1
1
1
1
1
1
1
1
1
1
1
1
1
1
1
1
1
1
1
1
1
1
1
1
1
1
1
1
1
1
1
1
1
1
1
1
1
1
1
1
1
1
1
1
1
1
1
1
1
1.00001
1
1
1
1
1
1
1
1
1
1
1
1
1
1
1
1
1
1
1
1
1
1
1
1
1
1
1
1
1
1
1
1
1
1
1
1
1
1
1
1
1
1
1
1
1
1
1
1
1
1
2.26055
2.16729
2.17431
2.25804
2.34708
2.43034
2.49881
2.55634
2.58887
2.59374
2.60673
2.62202
2.64076
2.65622
2.66695
2.67815
2.67849
2.67786
2.67582
2.67353
2.67086
2.66902
2.66895
2.66967
2.67191
2.67471
2.67676
2.67794
2.67844
2.67854
2.67844
2.67796
2.67678
2.67499
2.67261
2.66946
2.66555
2.6611
2.65636
2.65159
2.647
2.64254
2.63799
2.63312
2.62781
2.62204
2.61591
2.60954
2.60315
2.59676
2.59051
2.5843
2.57818
2.57193
2.5658
2.55961
2.55363
2.54778
2.5422
2.53682
2.53169
2.52692
2.52243
2.5182
2.51401
2.50993
2.50619
2.50285
2.49993
2.49746
2.49567
2.49467
2.4942
2.4939
2.49378
2.49388
2.49361
2.49264
2.48901
2.48564
2.47768
2.47189
2.45966
2.44927
2.43745
2.42323
2.41605
2.40149
2.39486
2.38191
2.37498
2.35779
2.34539
2.31265
2.28936
2.23087
2.19512
2.11109
2.0707
1.95153
2.14443
2.09789
2.081
2.07262
2.0546
2.02353
1.99612
1.99225
2.00393
2.02378
2.05916
2.07597
2.09668
2.09921
2.10413
2.10773
2.11033
2.1125
2.11418
2.11538
2.11611
2.11605
2.11569
2.11501
2.11443
2.11406
2.11376
2.1135
2.11336
2.11336
2.11349
2.11391
2.11486
2.11662
2.11894
2.12139
2.12356
2.12521
2.12615
2.12638
2.12624
2.12559
2.12395
2.12179
2.11965
2.11772
2.11602
2.1145
2.11304
2.11151
2.10982
2.10783
2.10554
2.10299
2.10028
2.09745
2.09452
2.09147
2.0883
2.08508
2.0818
2.07848
2.07519
2.07218
2.06945
2.06699
2.06502
2.06358
2.0625
2.06177
2.0613
2.0611
2.06109
2.06108
2.06119
2.06168
2.06261
2.06385
2.06465
2.06599
2.06699
2.06717
2.06715
2.06586
2.06367
2.05776
2.05304
2.04265
2.03642
2.02427
2.01809
2.00653
2.00106
1.98978
1.98384
1.96988
1.96106
1.9389
1.92749
1.88268
2.11358
2.06694
2.02119
1.96291
1.89209
1.83317
1.79148
1.78088
1.78135
1.79187
1.80764
1.83476
1.84724
1.86595
1.87167
1.87761
1.88337
1.88918
1.89433
1.89882
1.90188
1.90286
1.9027
1.90175
1.89923
1.89534
1.89121
1.88736
1.88424
1.88232
1.88178
1.88199
1.88318
1.88652
1.89222
1.89841
1.90437
1.9096
1.91374
1.91672
1.91867
1.91983
1.92043
1.92071
1.92083
1.92091
1.92105
1.92134
1.92193
1.92283
1.9239
1.92498
1.92591
1.92651
1.9267
1.92663
1.92622
1.92519
1.92388
1.92256
1.92123
1.91985
1.91838
1.91695
1.91556
1.91412
1.91283
1.91184
1.91119
1.91101
1.91102
1.91117
1.91173
1.91261
1.91314
1.91417
1.91543
1.91677
1.91744
1.91828
1.91925
1.91959
1.91986
1.91964
1.91905
1.91683
1.9146
1.90915
1.90545
1.89749
1.89305
1.884
1.87943
1.86985
1.86461
1.85251
1.8451
1.82529
1.81444
1.77265
2.0859
2.03208
1.97205
1.91747
1.85851
1.8095
1.76251
1.72719
1.70134
1.69239
1.69487
1.69913
1.71087
1.72946
1.74139
1.75643
1.76426
1.77284
1.78019
1.7837
1.78442
1.78396
1.78182
1.77665
1.76989
1.76302
1.75666
1.75138
1.74756
1.74551
1.74515
1.74563
1.74754
1.75201
1.75782
1.76374
1.76924
1.77395
1.77771
1.78049
1.78236
1.78351
1.78422
1.78483
1.78554
1.78653
1.78801
1.79001
1.79242
1.79509
1.7979
1.8007
1.80337
1.80582
1.80806
1.81004
1.81176
1.81324
1.81449
1.81555
1.81647
1.81731
1.81799
1.81848
1.81884
1.81915
1.81934
1.81971
1.82004
1.82053
1.82123
1.82217
1.82326
1.82489
1.82586
1.82677
1.82847
1.82975
1.83038
1.83055
1.8308
1.83064
1.83023
1.82886
1.8276
1.8244
1.82207
1.81671
1.81335
1.80598
1.80177
1.79285
1.788
1.77731
1.771
1.75634
1.74746
1.72542
1.71389
1.67348
2.06842
2.01316
1.95734
1.90413
1.85022
1.8021
1.75488
1.71523
1.67728
1.6534
1.63752
1.63608
1.63976
1.64491
1.65774
1.67162
1.68446
1.69706
1.70177
1.70166
1.70045
1.69673
1.6909
1.68456
1.6786
1.67324
1.66893
1.66606
1.66482
1.66482
1.66559
1.66803
1.67232
1.67687
1.68093
1.68408
1.68618
1.68719
1.68732
1.68713
1.68644
1.68535
1.68459
1.68436
1.68447
1.68507
1.68676
1.68988
1.69351
1.69734
1.7011
1.7047
1.70803
1.71104
1.71384
1.7165
1.71898
1.72147
1.72388
1.72626
1.7286
1.73093
1.73307
1.73511
1.7369
1.73866
1.74013
1.74152
1.74285
1.74429
1.74577
1.74764
1.74922
1.75054
1.75212
1.75336
1.75396
1.75484
1.75522
1.755
1.75478
1.75407
1.75341
1.75176
1.75061
1.74787
1.74605
1.74181
1.73911
1.73293
1.72915
1.72052
1.71518
1.70291
1.69535
1.67795
1.66767
1.6433
1.63108
1.59189
2.07283
2.01524
1.96019
1.9076
1.8554
1.80709
1.76161
1.72034
1.6847
1.65323
1.62656
1.60744
1.59775
1.59862
1.60407
1.60997
1.61721
1.62479
1.62925
1.63008
1.62982
1.62716
1.62405
1.62096
1.61745
1.61353
1.61051
1.60936
1.60952
1.61058
1.6134
1.61727
1.62079
1.62346
1.62502
1.62545
1.62531
1.62457
1.62269
1.62032
1.6183
1.61699
1.61657
1.61669
1.61735
1.61914
1.62197
1.62498
1.62787
1.63046
1.63274
1.63474
1.63654
1.63833
1.64019
1.64225
1.64454
1.64705
1.64963
1.65224
1.65484
1.65733
1.65961
1.66174
1.66383
1.66575
1.66754
1.66949
1.6714
1.67323
1.67504
1.67717
1.67896
1.68021
1.68131
1.68252
1.68331
1.68333
1.68349
1.68323
1.68297
1.6824
1.68214
1.68152
1.68117
1.68019
1.67944
1.67732
1.67558
1.67109
1.66783
1.65983
1.65442
1.64166
1.63369
1.61546
1.6047
1.58008
1.56824
1.53148
2.08916
2.02843
1.97371
1.92136
1.87088
1.82237
1.77762
1.73538
1.69868
1.66444
1.63574
1.61219
1.5942
1.58254
1.57813
1.57303
1.57268
1.57081
1.57094
1.57167
1.57187
1.57288
1.57228
1.5703
1.569
1.56831
1.56829
1.56924
1.572
1.57597
1.57963
1.58242
1.58418
1.58475
1.58462
1.58382
1.58168
1.57858
1.57568
1.57339
1.57199
1.57159
1.57172
1.57241
1.57413
1.57636
1.57842
1.5802
1.58165
1.58281
1.58378
1.58461
1.58551
1.58659
1.58799
1.58978
1.59192
1.59431
1.59681
1.5993
1.60169
1.60408
1.60626
1.6084
1.61063
1.61293
1.61518
1.61759
1.62009
1.62243
1.62463
1.62696
1.62882
1.63012
1.63126
1.63216
1.63289
1.63334
1.63349
1.6334
1.63347
1.63355
1.63379
1.63395
1.63412
1.63389
1.63349
1.63191
1.63041
1.62618
1.62277
1.61416
1.60824
1.59411
1.58509
1.56487
1.5534
1.52777
1.51549
1.47821
2.12562
2.06341
2.01027
1.96032
1.91272
1.86601
1.82161
1.77928
1.74114
1.70567
1.67358
1.6458
1.6206
1.59436
1.57396
1.55616
1.54245
1.53336
1.52846
1.52492
1.52285
1.52302
1.52424
1.52545
1.52837
1.53328
1.53852
1.54504
1.55149
1.55541
1.55701
1.55713
1.5567
1.55516
1.55179
1.54742
1.54289
1.53886
1.53583
1.53404
1.53345
1.53354
1.53413
1.53569
1.53766
1.53931
1.54055
1.54146
1.54209
1.54252
1.54289
1.54334
1.54399
1.54497
1.54635
1.54812
1.55017
1.55242
1.5547
1.55695
1.55913
1.56135
1.56341
1.56554
1.5678
1.57011
1.57247
1.575
1.57754
1.57988
1.58209
1.58456
1.58648
1.58808
1.58931
1.59047
1.59182
1.59285
1.59389
1.5948
1.59613
1.59729
1.59895
1.60003
1.60154
1.60205
1.60239
1.60134
1.59982
1.5951
1.59114
1.58132
1.57457
1.55908
1.54957
1.52853
1.5167
1.49099
1.47913
1.44129
2.15955
2.10055
2.04894
2.00188
1.95723
1.91321
1.86989
1.82729
1.78587
1.74633
1.70833
1.67186
1.63879
1.60654
1.57739
1.55134
1.52866
1.51286
1.50162
1.49078
1.48697
1.48736
1.48892
1.49315
1.50181
1.51152
1.52154
1.53019
1.53631
1.53843
1.53821
1.53672
1.53286
1.52699
1.52065
1.51445
1.50916
1.50541
1.50349
1.50313
1.50343
1.5046
1.50693
1.50912
1.51079
1.51178
1.51208
1.51203
1.51173
1.51113
1.5109
1.51092
1.51112
1.51173
1.51306
1.51491
1.51703
1.51926
1.52147
1.52362
1.52566
1.52773
1.52969
1.53171
1.53382
1.53606
1.53836
1.5408
1.54327
1.54577
1.54829
1.5511
1.55332
1.55536
1.55765
1.56031
1.56377
1.5671
1.57111
1.57507
1.58002
1.58454
1.58972
1.59386
1.59804
1.60037
1.60187
1.60136
1.59989
1.59441
1.58953
1.57789
1.57006
1.55254
1.54209
1.51949
1.50673
1.48011
1.4682
1.42436
2.16929
2.11278
2.06147
2.01558
1.97321
1.93185
1.89049
1.84847
1.80618
1.76454
1.72369
1.68451
1.64749
1.61379
1.58137
1.55378
1.52776
1.5055
1.4881
1.47354
1.46723
1.46774
1.47078
1.47833
1.48915
1.49915
1.50738
1.51374
1.51594
1.51565
1.51413
1.50973
1.50346
1.49695
1.49039
1.48451
1.48039
1.47877
1.4788
1.47959
1.48182
1.48465
1.48699
1.48846
1.4889
1.48876
1.48804
1.48635
1.48451
1.48323
1.48272
1.48273
1.48299
1.48381
1.48548
1.48745
1.48951
1.49158
1.49354
1.49545
1.49726
1.49917
1.50106
1.50305
1.50521
1.50767
1.51022
1.51305
1.51647
1.51992
1.52346
1.52788
1.53289
1.53861
1.54596
1.55383
1.56346
1.57332
1.58492
1.59583
1.60786
1.61857
1.62956
1.63767
1.64478
1.64873
1.65049
1.64942
1.64702
1.63892
1.63225
1.61664
1.60694
1.58642
1.57369
1.54774
1.53229
1.50071
1.48921
1.43335
2.15644
2.10542
2.05502
2.00953
1.96866
1.92934
1.88986
1.84921
1.80847
1.76787
1.72804
1.68921
1.65225
1.61779
1.58551
1.55623
1.52986
1.50681
1.4877
1.47387
1.46794
1.46837
1.47083
1.47683
1.48345
1.48838
1.49083
1.49129
1.49053
1.4876
1.48232
1.47643
1.47139
1.46745
1.4637
1.46051
1.45962
1.46003
1.4618
1.46501
1.4677
1.46961
1.47049
1.47049
1.4699
1.46802
1.46504
1.46231
1.46028
1.45922
1.45902
1.45918
1.45982
1.4613
1.4632
1.46507
1.46686
1.46853
1.47006
1.47154
1.47297
1.47461
1.47637
1.47843
1.48092
1.48421
1.48806
1.49281
1.49829
1.50611
1.51568
1.52769
1.54234
1.55823
1.57735
1.5979
1.62057
1.64311
1.66729
1.68783
1.70593
1.71757
1.72553
1.72787
1.72722
1.72315
1.71726
1.70662
1.69894
1.68331
1.67449
1.65591
1.64507
1.62313
1.61185
1.58666
1.57371
1.54067
1.53486
1.46978
2.12929
2.08594
2.03852
1.99321
1.95249
1.91498
1.87883
1.84225
1.80523
1.76743
1.7295
1.69197
1.65593
1.62185
1.59072
1.56225
1.53759
1.51772
1.50315
1.49336
1.48785
1.48485
1.48283
1.48178
1.4795
1.47622
1.47213
1.4678
1.46287
1.45603
1.44946
1.44475
1.44188
1.44066
1.44046
1.44127
1.44437
1.44867
1.45237
1.4548
1.45588
1.45599
1.45555
1.45394
1.45054
1.4467
1.44324
1.44064
1.43923
1.4389
1.43903
1.43962
1.44102
1.44278
1.44445
1.44589
1.44715
1.44827
1.44933
1.45048
1.45183
1.45367
1.45625
1.45993
1.46462
1.47084
1.4797
1.49227
1.50891
1.52988
1.55408
1.5834
1.61697
1.65449
1.68952
1.71675
1.73655
1.74655
1.75064
1.74854
1.74444
1.73724
1.72998
1.71924
1.71141
1.69692
1.68913
1.67309
1.66472
1.64762
1.6388
1.62009
1.61066
1.59091
1.58105
1.55947
1.54958
1.52373
1.51841
1.47166
2.11317
2.07688
2.03444
1.99041
1.94892
1.91061
1.8748
1.83983
1.80466
1.76839
1.73224
1.69671
1.66275
1.63109
1.60291
1.57875
1.55907
1.54367
1.53185
1.52228
1.51402
1.5059
1.49662
1.48684
1.47707
1.46637
1.45603
1.44651
1.43728
1.42852
1.42118
1.41796
1.41764
1.41825
1.42081
1.42618
1.43299
1.43923
1.44295
1.44408
1.44393
1.44296
1.44031
1.43588
1.43119
1.42696
1.42372
1.42187
1.42136
1.42146
1.42202
1.4234
1.42513
1.42664
1.42785
1.42879
1.42961
1.43042
1.43149
1.433
1.43604
1.44021
1.44544
1.45496
1.46791
1.48864
1.5135
1.54593
1.58388
1.63196
1.68056
1.71463
1.73718
1.74537
1.74658
1.74407
1.73983
1.73304
1.72703
1.71734
1.71014
1.69749
1.69046
1.67564
1.66809
1.65268
1.64472
1.62853
1.62058
1.60421
1.59591
1.57837
1.56931
1.55043
1.54099
1.52063
1.51092
1.48849
1.47981
1.44843
2.10618
2.07075
2.03398
1.99527
1.95383
1.91481
1.87832
1.84325
1.80867
1.77441
1.7411
1.70945
1.68022
1.65365
1.62994
1.60926
1.59142
1.5761
1.56263
1.55017
1.53704
1.52379
1.50897
1.49299
1.47683
1.4608
1.44505
1.43078
1.4184
1.4073
1.40066
1.39933
1.39993
1.40225
1.40767
1.41493
1.42208
1.42791
1.43094
1.43131
1.43056
1.42792
1.42297
1.4179
1.4133
1.40959
1.40723
1.40644
1.4065
1.40701
1.40833
1.40993
1.41135
1.41247
1.41334
1.41408
1.41493
1.41709
1.42004
1.42468
1.43261
1.44485
1.46628
1.49461
1.53085
1.57744
1.6344
1.68708
1.71773
1.73163
1.73448
1.73288
1.72973
1.72426
1.71898
1.71073
1.70409
1.69266
1.68612
1.67278
1.66625
1.65256
1.64565
1.63149
1.62428
1.60953
1.60208
1.58689
1.57933
1.56373
1.55569
1.53878
1.52998
1.51169
1.50234
1.48268
1.47299
1.45214
1.4436
1.41765
2.10306
2.06769
2.03612
2.00018
1.96728
1.93036
1.89351
1.85818
1.82463
1.79319
1.76365
1.73574
1.70919
1.68451
1.66194
1.64147
1.62287
1.60549
1.58865
1.57188
1.55451
1.53636
1.51765
1.4984
1.47837
1.45903
1.43941
1.42196
1.4079
1.39666
1.39031
1.38973
1.39087
1.39426
1.40013
1.40611
1.41144
1.41492
1.41591
1.41543
1.41323
1.40912
1.40515
1.40113
1.39767
1.39534
1.39444
1.39447
1.39493
1.39616
1.3975
1.39858
1.39937
1.40025
1.40143
1.40392
1.40743
1.41271
1.42287
1.44202
1.47203
1.50913
1.56039
1.62395
1.68087
1.71167
1.72108
1.72133
1.71971
1.71528
1.71079
1.7035
1.69687
1.68712
1.68067
1.66963
1.66345
1.65135
1.64499
1.63209
1.62525
1.61189
1.60492
1.59085
1.58362
1.56903
1.56159
1.54651
1.53895
1.5234
1.51545
1.49877
1.49012
1.47217
1.46308
1.44435
1.43515
1.41558
1.40768
1.38529
2.10653
2.06912
2.03761
2.00868
1.97437
1.94514
1.91304
1.88073
1.84913
1.81892
1.78998
1.76256
1.73674
1.7125
1.68982
1.66826
1.64772
1.62759
1.60753
1.58725
1.56654
1.54535
1.52366
1.50181
1.48001
1.45862
1.43881
1.42124
1.40682
1.39715
1.39096
1.38969
1.39035
1.39241
1.39592
1.39888
1.4005
1.40072
1.40001
1.39759
1.39381
1.39042
1.38774
1.38577
1.38448
1.384
1.38409
1.38472
1.38597
1.38693
1.38755
1.38835
1.3901
1.39275
1.39709
1.40433
1.41791
1.44529
1.48234
1.53262
1.60148
1.66581
1.70449
1.71201
1.71196
1.70971
1.70437
1.69801
1.69086
1.68214
1.67474
1.66575
1.65847
1.64871
1.6415
1.63072
1.62302
1.61174
1.60347
1.59149
1.58327
1.57033
1.56234
1.54829
1.54072
1.52582
1.5183
1.50302
1.4954
1.47974
1.47188
1.45561
1.4473
1.43022
1.42168
1.40423
1.39572
1.37766
1.37038
1.35181
2.1112
2.07662
2.03963
2.00976
1.98107
1.94973
1.92261
1.89443
1.86567
1.83758
1.81018
1.78384
1.75848
1.73402
1.71038
1.68726
1.66466
1.64219
1.61971
1.59705
1.57403
1.5509
1.52761
1.50463
1.48259
1.46168
1.44325
1.42777
1.4158
1.40685
1.40083
1.39733
1.39545
1.39454
1.39394
1.39264
1.39041
1.38738
1.38366
1.37933
1.37512
1.37219
1.37087
1.37058
1.37068
1.37125
1.37273
1.37459
1.37619
1.37733
1.37986
1.3831
1.38844
1.3974
1.41564
1.45069
1.49625
1.56481
1.6405
1.69549
1.70757
1.70768
1.70576
1.6994
1.69226
1.68297
1.67371
1.6646
1.65585
1.64714
1.63871
1.62925
1.62061
1.61046
1.60128
1.5907
1.58134
1.56996
1.56091
1.54833
1.53958
1.52633
1.51763
1.50349
1.49546
1.48054
1.47297
1.45761
1.45005
1.43473
1.42717
1.41165
1.4038
1.38778
1.37985
1.36374
1.35598
1.33961
1.33291
1.31778
2.1037
2.07863
2.04445
2.00771
1.97942
1.95174
1.9234
1.89885
1.87384
1.84863
1.82338
1.7984
1.77339
1.74857
1.72391
1.69949
1.67522
1.65106
1.62694
1.60294
1.57907
1.5555
1.53247
1.51023
1.48945
1.47068
1.45445
1.44071
1.42971
1.42073
1.41376
1.40804
1.40298
1.39806
1.39299
1.38755
1.3812
1.37462
1.36851
1.36299
1.35819
1.35518
1.35454
1.35478
1.35572
1.3579
1.36069
1.36417
1.36793
1.37246
1.37957
1.39087
1.4144
1.45501
1.509
1.59509
1.66911
1.70677
1.70619
1.70485
1.69923
1.69081
1.68064
1.67
1.65924
1.64876
1.63917
1.62931
1.61947
1.60965
1.59963
1.58944
1.57942
1.56842
1.5585
1.54671
1.53705
1.52477
1.51516
1.5024
1.49333
1.47959
1.47132
1.45688
1.44952
1.4347
1.42748
1.41285
1.40569
1.39125
1.38414
1.3697
1.36249
1.34783
1.34057
1.32583
1.31878
1.30416
1.29756
1.28518
2.08136
2.06907
2.04289
2.00873
1.97469
1.94609
1.92152
1.89771
1.8757
1.8534
1.83012
1.80612
1.78147
1.75657
1.73148
1.70647
1.68138
1.65646
1.63171
1.60753
1.58396