/*--------------------------------*- C++ -*----------------------------------*\
| =========                 |                                                 |
| \\      /  F ield         | OpenFOAM: The Open Source CFD Toolbox           |
|  \\    /   O peration     | Version:  2412                                  |
|   \\  /    A nd           | Website:  www.openfoam.com                      |
|    \\/     M anipulation  |                                                 |
\*---------------------------------------------------------------------------*/
FoamFile
{
    version     2.0;
    format      ascii;
    arch        "LSB;label=32;scalar=64";
    class       volVectorField;
    location    "1";
    object      U;
}
// * * * * * * * * * * * * * * * * * * * * * * * * * * * * * * * * * * * * * //

dimensions      [0 1 -1 0 0 0 0];

internalField   nonuniform List<vector> 
7000
(
(3 1.91431e-13 0)
(3 1.58802e-12 0)
(3 7.98775e-12 0)
(3 9.65699e-12 0)
(3 6.29237e-11 0)
(3 1.04632e-10 0)
(3 2.88923e-10 0)
(3 3.82918e-10 0)
(3 5.55763e-11 0)
(3 -1.39852e-09 0)
(3 -6.44671e-09 0)
(3 -1.61576e-08 0)
(3 -6.18517e-08 0)
(3 -1.40778e-07 0)
(3 -2.92786e-07 0)
(3 -8.39477e-07 0)
(3 -1.27268e-06 0)
(3 -2.36262e-06 0)
(3.00007 -4.10587e-06 0)
(3.00021 3.39489e-06 0)
(3.0001 1.62003e-05 0)
(3.00106 3.74573e-05 0)
(2.99809 5.54554e-05 0)
(2.98761 0.000121487 0)
(2.99885 0.000278567 0)
(2.766 0.000396024 0)
(2.2866 0.00173221 0)
(1.47184 0.00503606 0)
(0.54989 0.0115025 0)
(0.562055 0.0125396 0)
(0.617502 0.0120006 0)
(0.634653 0.0116891 0)
(0.606241 0.0111537 0)
(0.557349 0.0102464 0)
(0.505831 0.00899351 0)
(0.467067 0.00773406 0)
(0.43752 0.00682225 0)
(0.411447 0.00645529 0)
(0.384603 0.00670309 0)
(0.355085 0.00737859 0)
(0.324177 0.00835908 0)
(0.292261 0.00940597 0)
(0.261475 0.0103765 0)
(0.231724 0.0109833 0)
(0.20021 0.0112063 0)
(0.16807 0.0111497 0)
(0.137966 0.011365 0)
(0.110195 0.0124658 0)
(0.0781615 0.0154686 0)
(0.0410198 0.0216961 0)
(3 4.35837e-12 0)
(3 5.43698e-12 0)
(3 2.34027e-11 0)
(3 2.97616e-11 0)
(3 1.26783e-10 0)
(3 2.50076e-10 0)
(3 3.12652e-10 0)
(3 1.84573e-10 0)
(3 -1.55839e-10 0)
(3 7.65965e-10 0)
(3 -1.55103e-08 0)
(3 -3.60403e-08 0)
(3 -1.69724e-07 0)
(3 -4.77997e-07 0)
(3 -1.04195e-06 0)
(3 -2.83673e-06 0)
(3 -5.47381e-06 0)
(3 -9.8176e-06 0)
(3.00007 -1.94684e-05 0)
(3.00022 8.12842e-06 0)
(3.00012 4.70727e-05 0)
(3.00108 0.000109559 0)
(2.99814 0.000175666 0)
(2.98775 0.00033735 0)
(2.99901 0.000716114 0)
(2.7668 0.000995086 0)
(2.29076 0.00444085 0)
(1.47829 0.011857 0)
(0.562588 0.0262102 0)
(0.577725 0.0292221 0)
(0.633796 0.0305561 0)
(0.649751 0.0313615 0)
(0.619697 0.0305452 0)
(0.569891 0.0282785 0)
(0.517808 0.0256345 0)
(0.477573 0.0234089 0)
(0.445321 0.02197 0)
(0.415925 0.0213654 0)
(0.385837 0.021651 0)
(0.353591 0.0226273 0)
(0.320677 0.0241412 0)
(0.287499 0.025802 0)
(0.256032 0.0272468 0)
(0.225897 0.0280587 0)
(0.194057 0.0282559 0)
(0.161393 0.0280812 0)
(0.130225 0.0284898 0)
(0.101248 0.0304266 0)
(0.0688015 0.0356079 0)
(0.0332889 0.0454347 0)
(3 2.20831e-12 0)
(3 2.3523e-12 0)
(3 1.65758e-11 0)
(3 3.53326e-11 0)
(3 4.9021e-11 0)
(3 1.42284e-10 0)
(3 -2.31868e-11 0)
(3 -1.97262e-10 0)
(3 -6.72217e-10 0)
(3 1.10119e-09 0)
(3 -1.35857e-08 0)
(3 -5.51753e-08 0)
(3 -9.30893e-08 0)
(3 -5.21235e-07 0)
(3 -1.02988e-06 0)
(3 -3.05758e-06 0)
(3 -6.50672e-06 0)
(2.99999 -1.24656e-05 0)
(3.00008 -2.73291e-05 0)
(3.00025 2.02231e-05 0)
(3.00016 8.94569e-05 0)
(3.00114 0.000200992 0)
(2.99823 0.000336404 0)
(2.98795 0.000631551 0)
(2.99922 0.00128886 0)
(2.768 0.00190234 0)
(2.29587 0.00765704 0)
(1.48505 0.0186746 0)
(0.561801 0.0413451 0)
(0.571966 0.0482479 0)
(0.628185 0.0529391 0)
(0.644634 0.0548578 0)
(0.615015 0.0532786 0)
(0.566079 0.0490678 0)
(0.515212 0.0444157 0)
(0.476264 0.0407403 0)
(0.44524 0.0384755 0)
(0.416941 0.0376021 0)
(0.387685 0.0380623 0)
(0.355852 0.0396808 0)
(0.322931 0.0422047 0)
(0.289407 0.0450765 0)
(0.257356 0.0475735 0)
(0.226465 0.0491601 0)
(0.193625 0.0497713 0)
(0.159612 0.0498482 0)
(0.126699 0.0506611 0)
(0.0962761 0.0535828 0)
(0.0634075 0.0608631 0)
(0.0282898 0.0741055 0)
(3 -2.91788e-12 0)
(3 -2.26835e-12 0)
(3 -1.55934e-11 0)
(3 -1.51534e-11 0)
(3 -1.09691e-10 0)
(3 -2.39122e-10 0)
(3 -5.31487e-10 0)
(3 -5.50814e-10 0)
(3 -2.37126e-09 0)
(3 -5.78023e-09 0)
(3 -5.86074e-09 0)
(3 -4.42414e-08 0)
(3 2.22302e-09 0)
(3 -1.808e-07 0)
(3 -2.26714e-07 0)
(3 -9.35605e-07 0)
(2.99999 -2.17365e-06 0)
(2.99999 -6.36316e-06 0)
(3.00009 -1.77033e-05 0)
(3.0003 3.97534e-05 0)
(3.00023 0.000131982 0)
(3.00123 0.000278346 0)
(2.99842 0.000452918 0)
(2.98837 0.000876701 0)
(2.99975 0.00183909 0)
(2.77021 0.00278268 0)
(2.30474 0.011231 0)
(1.49787 0.0275558 0)
(0.566892 0.059702 0)
(0.569846 0.0692171 0)
(0.625584 0.075614 0)
(0.642477 0.0780577 0)
(0.613319 0.0755342 0)
(0.564845 0.0696182 0)
(0.514313 0.0630751 0)
(0.475378 0.057978 0)
(0.444225 0.0548329 0)
(0.415997 0.0536628 0)
(0.387113 0.054416 0)
(0.355882 0.0568488 0)
(0.323615 0.0605525 0)
(0.290598 0.0647317 0)
(0.258836 0.0683692 0)
(0.228 0.0708434 0)
(0.194884 0.0720858 0)
(0.160083 0.0727028 0)
(0.125794 0.0740999 0)
(0.09409 0.0778467 0)
(0.0607564 0.0865102 0)
(0.0252775 0.101751 0)
(3 9.3057e-12 0)
(3 1.54008e-12 0)
(3 4.84646e-12 0)
(3 -3.13238e-12 0)
(3 9.56761e-13 0)
(3 -3.09887e-10 0)
(3 1.43568e-11 0)
(3 3.05861e-10 0)
(3 -1.06154e-09 0)
(3 -3.97969e-09 0)
(3 -7.74204e-09 0)
(3 1.36154e-08 0)
(3 -6.29674e-08 0)
(3 -5.38544e-08 0)
(3 -9.89801e-08 0)
(3 -4.15652e-07 0)
(2.99999 -6.41963e-07 0)
(2.99998 -4.09701e-06 0)
(3.00011 -1.41167e-05 0)
(3.00035 6.84408e-05 0)
(3.00031 0.00021283 0)
(3.00134 0.000411605 0)
(2.99862 0.000632791 0)
(2.98888 0.00122989 0)
(3.00038 0.00256145 0)
(2.77319 0.00377956 0)
(2.31743 0.0147417 0)
(1.5164 0.038188 0)
(0.573138 0.0813832 0)
(0.565284 0.0914281 0)
(0.621079 0.0977242 0)
(0.639219 0.100615 0)
(0.610714 0.0977208 0)
(0.562695 0.0908081 0)
(0.512817 0.0827945 0)
(0.474745 0.0762233 0)
(0.444379 0.0719861 0)
(0.416849 0.0703121 0)
(0.388543 0.0712153 0)
(0.357781 0.0744025 0)
(0.325884 0.0792612 0)
(0.293097 0.0847794 0)
(0.261457 0.0896579 0)
(0.230672 0.0932437 0)
(0.197413 0.0954393 0)
(0.162029 0.0969081 0)
(0.126593 0.099044 0)
(0.0937756 0.103462 0)
(0.0599069 0.112951 0)
(0.023616 0.128984 0)
(3 -2.2945e-13 0)
(3 -7.40039e-13 0)
(3 -2.22131e-12 0)
(3 -6.2362e-12 0)
(3 -7.91231e-12 0)
(3 -3.41163e-11 0)
(3 -2.90999e-11 0)
(3 -1.76784e-10 0)
(3 -9.21588e-10 0)
(3 -1.12107e-09 0)
(3 -1.1673e-08 0)
(3 1.12858e-08 0)
(3 -4.81337e-08 0)
(3 7.46453e-08 0)
(3 1.50016e-07 0)
(3 5.0128e-07 0)
(2.99999 2.19194e-06 0)
(2.99998 1.75026e-06 0)
(3.00014 -6.42081e-06 0)
(3.00045 8.6233e-05 0)
(3.00046 0.000247177 0)
(3.00151 0.000464861 0)
(2.99896 0.000744768 0)
(2.98971 0.00151095 0)
(3.00142 0.00316927 0)
(2.77752 0.00468254 0)
(2.33765 0.017957 0)
(1.54638 0.0475286 0)
(0.591448 0.103863 0)
(0.570924 0.116054 0)
(0.624343 0.122522 0)
(0.641036 0.125151 0)
(0.611286 0.121106 0)
(0.563314 0.112573 0)
(0.514584 0.102717 0)
(0.47799 0.0943911 0)
(0.448726 0.0890304 0)
(0.42179 0.087033 0)
(0.393703 0.0883153 0)
(0.362922 0.092479 0)
(0.330865 0.098641 0)
(0.297778 0.105588 0)
(0.265789 0.111794 0)
(0.234707 0.116648 0)
(0.201081 0.120045 0)
(0.165044 0.122633 0)
(0.128555 0.125661 0)
(0.0947526 0.130678 0)
(0.0602604 0.140649 0)
(0.0228789 0.156798 0)
(3 -1.07187e-11 0)
(3 -3.32989e-12 0)
(3 -1.94568e-11 0)
(3 -3.98421e-11 0)
(3 2.14789e-11 0)
(3 -1.64106e-10 0)
(3 -1.28835e-10 0)
(3 -2.57715e-09 0)
(3 -5.65772e-10 0)
(3 -9.03724e-09 0)
(3 -4.37357e-09 0)
(3 -3.15895e-08 0)
(3 -9.44915e-09 0)
(3 2.87985e-07 0)
(3 7.71325e-07 0)
(3 3.17115e-06 0)
(2.99999 8.37905e-06 0)
(2.99998 1.4537e-05 0)
(3.00017 1.55002e-05 0)
(3.00052 7.04728e-05 0)
(3.00057 0.000157641 0)
(3.00168 0.000307251 0)
(2.99933 0.000539089 0)
(2.99063 0.00132409 0)
(3.00254 0.00311568 0)
(2.78263 0.0046848 0)
(2.36044 0.0212074 0)
(1.58075 0.0530513 0)
(0.611841 0.121711 0)
(0.576202 0.140184 0)
(0.627906 0.149959 0)
(0.644405 0.152341 0)
(0.614904 0.146216 0)
(0.568294 0.135041 0)
(0.521263 0.122811 0)
(0.485947 0.112663 0)
(0.457271 0.106356 0)
(0.430345 0.10429 0)
(0.401995 0.106181 0)
(0.370826 0.111487 0)
(0.338273 0.119065 0)
(0.304536 0.127516 0)
(0.271823 0.135143 0)
(0.240097 0.141371 0)
(0.205827 0.146121 0)
(0.168985 0.150001 0)
(0.13143 0.154009 0)
(0.0966728 0.159574 0)
(0.0614761 0.169839 0)
(0.0228249 0.185819 0)
(3 -1.16723e-12 0)
(3 -2.70249e-12 0)
(3 -9.47734e-12 0)
(3 -1.60118e-11 0)
(3 -4.07689e-11 0)
(3 -1.25675e-10 0)
(3 -1.62585e-10 0)
(3 -1.64058e-10 0)
(3 -1.31812e-09 0)
(3 -3.2785e-09 0)
(3 -8.246e-09 0)
(3 -1.62784e-08 0)
(3 -4.56265e-08 0)
(3 3.98871e-08 0)
(3 9.86302e-08 0)
(3 1.49655e-06 0)
(3 3.97989e-06 0)
(2.99998 7.85171e-06 0)
(3.00018 9.60834e-06 0)
(3.00055 9.81605e-06 0)
(3.00063 2.39871e-05 0)
(3.00178 5.06262e-05 0)
(2.99969 0.000589507 0)
(2.99164 0.00167826 0)
(3.00376 0.00369682 0)
(2.78887 0.00537585 0)
(2.38445 0.0227892 0)
(1.61752 0.061704 0)
(0.621627 0.140127 0)
(0.567034 0.165033 0)
(0.621226 0.177656 0)
(0.642154 0.178913 0)
(0.616996 0.170198 0)
(0.574564 0.156479 0)
(0.53067 0.142439 0)
(0.497017 0.131265 0)
(0.468823 0.124571 0)
(0.441603 0.122708 0)
(0.412691 0.125327 0)
(0.380897 0.131813 0)
(0.347656 0.140849 0)
(0.313079 0.150862 0)
(0.279415 0.160008 0)
(0.2468 0.16771 0)
(0.211672 0.173905 0)
(0.17387 0.179157 0)
(0.135176 0.184168 0)
(0.0993974 0.190237 0)
(0.0633542 0.200678 0)
(0.0232919 0.21648 0)
(3 -1.14208e-12 0)
(3 -2.07771e-12 0)
(3 -1.78957e-11 0)
(3 -1.36918e-11 0)
(3 -2.31986e-10 0)
(3 1.86574e-11 0)
(3 -1.20021e-09 0)
(3 1.17726e-10 0)
(3 -6.38542e-09 0)
(3 -2.22737e-09 0)
(3 -2.90465e-08 0)
(3 -2.55944e-08 0)
(3 -1.2228e-07 0)
(3 -2.86231e-07 0)
(3 -8.69572e-07 0)
(3 -1.12408e-06 0)
(3 -5.17903e-06 0)
(2.99998 4.01632e-06 0)
(3.00017 3.3476e-05 0)
(3.00053 -0.000122259 0)
(3.0006 -0.000306413 0)
(3.0021 -0.000482023 0)
(3.00057 0.000124889 0)
(2.99307 0.00171116 0)
(3.00523 0.00569096 0)
(2.79554 0.00907682 0)
(2.4205 0.018704 0)
(1.67298 0.0829482 0)
(0.636994 0.169635 0)
(0.559558 0.195114 0)
(0.613775 0.205107 0)
(0.638076 0.203173 0)
(0.616897 0.191422 0)
(0.578453 0.175671 0)
(0.537723 0.160632 0)
(0.506126 0.149403 0)
(0.479086 0.143069 0)
(0.452412 0.141877 0)
(0.423718 0.145533 0)
(0.3919 0.153378 0)
(0.35834 0.164023 0)
(0.323073 0.175753 0)
(0.288444 0.18658 0)
(0.254839 0.195884 0)
(0.21873 0.203615 0)
(0.179834 0.210296 0)
(0.139862 0.216339 0)
(0.102884 0.222893 0)
(0.0657992 0.233487 0)
(0.0242168 0.249253 0)
(3 -6.38465e-13 0)
(3 9.60309e-13 0)
(3 -3.66422e-12 0)
(3 -9.41862e-13 0)
(3 -7.61785e-11 0)
(3 -6.9338e-11 0)
(3 -7.94615e-10 0)
(3 -1.50599e-09 0)
(3 -5.39534e-09 0)
(3 -8.91357e-09 0)
(3 -3.33358e-08 0)
(3 -5.91971e-08 0)
(3 -2.08173e-07 0)
(3 -3.20521e-07 0)
(3 -1.21229e-06 0)
(3 -1.89771e-06 0)
(3 -7.62174e-06 0)
(3.00001 -9.50651e-06 0)
(3.00008 -9.94932e-09 0)
(3.00028 -0.000209523 0)
(3.00035 -0.000566439 0)
(3.00209 -0.000878059 0)
(3.00143 -0.00156658 0)
(2.99622 -0.000943216 0)
(3.00933 0.00283988 0)
(2.79922 0.00465251 0)
(2.48907 0.0140023 0)
(1.7793 0.0880939 0)
(0.666911 0.1999 0)
(0.562497 0.227111 0)
(0.612712 0.233436 0)
(0.638338 0.227056 0)
(0.620039 0.211429 0)
(0.58498 0.193653 0)
(0.546961 0.17811 0)
(0.517034 0.167286 0)
(0.490826 0.161658 0)
(0.464607 0.161433 0)
(0.436176 0.166441 0)
(0.404411 0.175944 0)
(0.370606 0.18849 0)
(0.334672 0.202224 0)
(0.29903 0.214996 0)
(0.26435 0.226095 0)
(0.227185 0.235473 0)
(0.187092 0.243662 0)
(0.145662 0.250779 0)
(0.107226 0.257856 0)
(0.0688001 0.26874 0)
(0.0255343 0.28471 0)
(3 5.40194e-13 0)
(3 1.04288e-12 0)
(3 1.7966e-12 0)
(3 1.3522e-11 0)
(3 -5.08438e-12 0)
(3 1.13017e-11 0)
(3 -1.62082e-10 0)
(3 -2.31094e-10 0)
(3 -1.97648e-09 0)
(3 -3.04623e-09 0)
(3 -1.80369e-08 0)
(3 -3.66469e-08 0)
(3 -1.5842e-07 0)
(3 -2.08103e-07 0)
(3 -9.44321e-07 0)
(3 -2.09201e-06 0)
(2.99999 -5.6361e-06 0)
(2.99999 -2.50338e-05 0)
(3.00001 -5.71967e-05 0)
(3.00008 -0.00017942 0)
(3.00007 -0.000539646 0)
(3.00127 -0.00101373 0)
(3.00057 -0.00213664 0)
(2.99663 -0.00307819 0)
(3.00934 -0.00252105 0)
(2.8068 -0.00159969 0)
(2.54174 0.0185345 0)
(1.85482 0.075473 0)
(0.679826 0.239018 0)
(0.549009 0.264705 0)
(0.604289 0.2635 0)
(0.63687 0.24995 0)
(0.624681 0.229212 0)
(0.594764 0.209675 0)
(0.559944 0.194603 0)
(0.531433 0.184943 0)
(0.505622 0.180498 0)
(0.479522 0.181592 0)
(0.451069 0.188246 0)
(0.419096 0.199714 0)
(0.384866 0.214463 0)
(0.348148 0.230477 0)
(0.311387 0.245457 0)
(0.275527 0.258545 0)
(0.237247 0.269713 0)
(0.195858 0.279522 0)
(0.152743 0.287801 0)
(0.112557 0.295491 0)
(0.0724673 0.30681 0)
(0.0272484 0.323361 0)
(3 2.3604e-12 0)
(3 3.00479e-12 0)
(3 1.21448e-11 0)
(3 2.06775e-11 0)
(3 5.34496e-11 0)
(3 1.13714e-10 0)
(3 1.92848e-10 0)
(3 5.44884e-10 0)
(3 3.29624e-10 0)
(3 1.25286e-09 0)
(3 -2.50204e-09 0)
(3 -1.25307e-09 0)
(3 -4.60842e-08 0)
(3 -8.40147e-08 0)
(3 -5.11881e-07 0)
(2.99999 -9.45712e-07 0)
(2.99998 -3.92839e-06 0)
(2.99997 -1.06512e-05 0)
(2.99996 -2.36299e-05 0)
(2.99988 -0.000136318 0)
(2.99965 -0.000296028 0)
(3.00076 -0.000795816 0)
(2.99981 -0.00237655 0)
(2.99563 -0.00312812 0)
(3.00982 -0.000976049 0)
(2.81444 -0.00730687 0)
(2.57004 0.0332368 0)
(1.91542 0.103921 0)
(0.716762 0.288807 0)
(0.541419 0.304461 0)
(0.600878 0.291212 0)
(0.641165 0.268886 0)
(0.635431 0.243571 0)
(0.610662 0.223406 0)
(0.578354 0.210506 0)
(0.550256 0.202872 0)
(0.524103 0.200047 0)
(0.497702 0.202776 0)
(0.468906 0.211306 0)
(0.436403 0.22502 0)
(0.401452 0.242229 0)
(0.363743 0.260761 0)
(0.325712 0.278184 0)
(0.288561 0.293442 0)
(0.249115 0.30655 0)
(0.206338 0.318116 0)
(0.161306 0.327752 0)
(0.118994 0.336292 0)
(0.0768352 0.348278 0)
(0.0293976 0.365917 0)
(3 2.4892e-12 0)
(3 4.14692e-12 0)
(3 1.60701e-11 0)
(3 2.11859e-11 0)
(3 8.06828e-11 0)
(3 1.31407e-10 0)
(3 3.46874e-10 0)
(3 7.58913e-10 0)
(3 1.39097e-09 0)
(3 3.05806e-09 0)
(3 2.53786e-09 0)
(3 1.16495e-08 0)
(3 -1.46186e-08 0)
(3 -1.50598e-08 0)
(3 -4.19746e-07 0)
(2.99999 -3.31538e-07 0)
(2.99998 -4.54474e-06 0)
(2.99997 -1.02967e-06 0)
(2.9999 -2.8564e-05 0)
(2.99985 -5.06488e-05 0)
(2.9995 -0.000237229 0)
(2.99946 -0.000266757 0)
(2.99857 -0.00285917 0)
(2.9978 -0.00458841 0)
(3.00584 -0.00713816 0)
(2.84098 -0.0204822 0)
(2.66735 0.0342513 0)
(2.04643 0.121267 0)
(0.769957 0.341141 0)
(0.54306 0.345337 0)
(0.603387 0.319165 0)
(0.650177 0.285469 0)
(0.650404 0.256386 0)
(0.631208 0.235848 0)
(0.601435 0.226095 0)
(0.572967 0.221115 0)
(0.546155 0.220413 0)
(0.519269 0.225183 0)
(0.489903 0.235977 0)
(0.45656 0.252243 0)
(0.420535 0.272208 0)
(0.38161 0.293469 0)
(0.34216 0.313495 0)
(0.303594 0.331086 0)
(0.262933 0.346312 0)
(0.218738 0.359848 0)
(0.171632 0.371162 0)
(0.126843 0.380889 0)
(0.0821836 0.393883 0)
(0.0320988 0.41317 0)
(3 2.20192e-12 0)
(3 5.2383e-12 0)
(3 1.56441e-11 0)
(3 3.1404e-11 0)
(3 8.61467e-11 0)
(3 1.39751e-10 0)
(3 4.43014e-10 0)
(3 6.34046e-10 0)
(3 2.29807e-09 0)
(3 4.51782e-09 0)
(3 1.04392e-08 0)
(3 1.68831e-08 0)
(3 3.44428e-08 0)
(3 8.11894e-08 0)
(3 1.21327e-08 0)
(2.99999 4.19452e-07 0)
(2.99998 -1.90843e-06 0)
(2.99995 8.57217e-07 0)
(2.99991 -2.54681e-05 0)
(2.99969 8.66639e-06 0)
(2.99946 -0.0001969 0)
(2.99843 1.89942e-06 0)
(2.99586 -0.0016116 0)
(2.99164 -0.00304368 0)
(2.99594 -0.0117242 0)
(2.85677 -0.0252524 0)
(2.74168 0.0470769 0)
(2.16797 0.0969871 0)
(0.84139 0.40131 0)
(0.549866 0.38793 0)
(0.611749 0.349035 0)
(0.664468 0.30025 0)
(0.671783 0.269079 0)
(0.658309 0.248849 0)
(0.631243 0.241993 0)
(0.601327 0.240038 0)
(0.572942 0.24198 0)
(0.5449 0.249263 0)
(0.514394 0.262786 0)
(0.479745 0.281902 0)
(0.442285 0.304886 0)
(0.401891 0.329015 0)
(0.360927 0.351729 0)
(0.32091 0.371729 0)
(0.279041 0.389247 0)
(0.233456 0.405018 0)
(0.184147 0.41848 0)
(0.136458 0.429985 0)
(0.0886987 0.444504 0)
(0.0354459 0.466343 0)
(3 4.50934e-12 0)
(3 8.72417e-12 0)
(3 2.46136e-11 0)
(3 4.13542e-11 0)
(3 1.20721e-10 0)
(3 2.28824e-10 0)
(3 6.26755e-10 0)
(3 9.41327e-10 0)
(3 3.30416e-09 0)
(3 5.20114e-09 0)
(3 1.8549e-08 0)
(3 2.88229e-08 0)
(3 9.55815e-08 0)
(3 1.5468e-07 0)
(3 4.6095e-07 0)
(2.99999 9.47658e-07 0)
(2.99998 2.23508e-06 0)
(2.99995 3.65779e-06 0)
(2.99991 7.61218e-06 0)
(2.99969 1.17154e-05 0)
(2.9995 3.91776e-05 0)
(2.99817 8.72648e-05 0)
(2.99579 3.93317e-06 0)
(2.98845 0.00126125 0)
(2.98571 -0.00166667 0)
(2.88977 -0.0103312 0)
(2.79789 0.0596621 0)
(2.28714 0.0896041 0)
(0.957112 0.426781 0)
(0.572381 0.419992 0)
(0.624506 0.37293 0)
(0.678624 0.314043 0)
(0.697418 0.282381 0)
(0.690114 0.264231 0)
(0.666416 0.259082 0)
(0.634852 0.260409 0)
(0.604086 0.265474 0)
(0.574105 0.275819 0)
(0.541811 0.292452 0)
(0.505431 0.314737 0)
(0.466336 0.340804 0)
(0.424426 0.367831 0)
(0.382038 0.393235 0)
(0.34071 0.41572 0)
(0.297799 0.43576 0)
(0.250998 0.45409 0)
(0.199565 0.470343 0)
(0.148616 0.484476 0)
(0.0971382 0.501408 0)
(0.0399017 0.527006 0)
(3 6.8116e-12 0)
(3 2.79322e-15 0)
(3 2.90705e-11 0)
(3 1.52499e-12 0)
(3 1.63804e-10 0)
(3 4.719e-11 0)
(3 9.97875e-10 0)
(3 4.88083e-10 0)
(3 5.01352e-09 0)
(3 8.5239e-09 0)
(3 2.16748e-08 0)
(3 4.1969e-08 0)
(3 1.08171e-07 0)
(3 1.87964e-07 0)
(3 5.86863e-07 0)
(2.99999 9.02583e-07 0)
(2.99999 3.56399e-06 0)
(2.99995 6.54251e-06 0)
(2.99992 2.1107e-05 0)
(2.99973 3.61185e-05 0)
(2.99953 0.000117109 0)
(2.9984 0.000201629 0)
(2.99702 0.000575313 0)
(2.99004 0.00210244 0)
(2.98537 0.00321599 0)
(2.91431 0.00333719 0)
(2.84706 0.0441045 0)
(2.43019 0.075766 0)
(1.13533 0.367403 0)
(0.642417 0.447496 0)
(0.642008 0.395012 0)
(0.693382 0.332359 0)
(0.726167 0.298253 0)
(0.725721 0.282744 0)
(0.705548 0.278009 0)
(0.672813 0.282692 0)
(0.638457 0.291569 0)
(0.605443 0.305795 0)
(0.570771 0.325848 0)
(0.532499 0.351417 0)
(0.491883 0.380413 0)
(0.44884 0.410164 0)
(0.405522 0.43817 0)
(0.363414 0.463204 0)
(0.319856 0.486112 0)
(0.272243 0.507557 0)
(0.218991 0.527609 0)
(0.164498 0.545835 0)
(0.108421 0.566628 0)
(0.0459504 0.597959 0)
(3 2.98225e-12 0)
(3 -5.68061e-12 0)
(3 1.23235e-11 0)
(3 -2.70277e-11 0)
(3 8.6591e-11 0)
(3 -1.41181e-10 0)
(3 5.62008e-10 0)
(3 -5.33056e-10 0)
(3 3.36686e-09 0)
(3 -2.2382e-09 0)
(3 1.95024e-08 0)
(3 -9.15488e-09 0)
(3 1.10893e-07 0)
(3 -1.0607e-08 0)
(3 7.00775e-07 0)
(2.99999 2.11283e-07 0)
(2.99999 4.17385e-06 0)
(2.99997 5.6528e-06 0)
(2.99994 2.35553e-05 0)
(2.99979 3.82576e-05 0)
(2.99967 0.000125241 0)
(2.99863 0.000226181 0)
(2.99767 0.000628638 0)
(2.99106 0.001229 0)
(2.98698 0.00361766 0)
(2.93072 0.0042364 0)
(2.87562 0.0357918 0)
(2.52898 0.0617878 0)
(1.37775 0.286586 0)
(0.770366 0.4801 0)
(0.651616 0.416483 0)
(0.706469 0.350772 0)
(0.756629 0.313102 0)
(0.764148 0.301677 0)
(0.745811 0.299795 0)
(0.71175 0.308748 0)
(0.672691 0.32214 0)
(0.635699 0.340382 0)
(0.598442 0.363863 0)
(0.558885 0.392247 0)
(0.517613 0.423642 0)
(0.474472 0.455699 0)
(0.43126 0.48626 0)
(0.38937 0.513869 0)
(0.346015 0.539866 0)
(0.298477 0.565584 0)
(0.244377 0.591099 0)
(0.186424 0.61563 0)
(0.12491 0.643093 0)
(0.0551483 0.6837 0)
(3 -1.78553e-13 0)
(3 2.88966e-12 0)
(3 5.66764e-12 0)
(3 2.22716e-11 0)
(3 4.34569e-11 0)
(3 1.36174e-10 0)
(3 2.43426e-10 0)
(3 7.54578e-10 0)
(3 2.19364e-09 0)
(3 -7.83874e-10 0)
(3 2.03258e-08 0)
(3 1.56672e-08 0)
(3 1.46762e-07 0)
(3 1.91662e-07 0)
(3 9.91691e-07 0)
(3 1.65366e-06 0)
(2.99999 6.57506e-06 0)
(2.99997 1.14136e-05 0)
(2.99995 4.28709e-05 0)
(2.99983 6.87637e-05 0)
(2.99973 0.000247274 0)
(2.99892 0.000460044 0)
(2.99805 0.000592975 0)
(2.99312 -0.000444364 0)
(2.98845 0.0043652 0)
(2.94604 0.00589478 0)
(2.90912 0.0292496 0)
(2.61053 0.0579343 0)
(1.65098 0.231299 0)
(0.943066 0.481526 0)
(0.664318 0.41768 0)
(0.722684 0.362052 0)
(0.786279 0.330313 0)
(0.800577 0.324854 0)
(0.780504 0.32874 0)
(0.743487 0.341228 0)
(0.699536 0.358646 0)
(0.659687 0.380036 0)
(0.621621 0.406059 0)
(0.582414 0.43638 0)
(0.542232 0.469602 0)
(0.500849 0.503662 0)
(0.45932 0.536731 0)
(0.418884 0.566924 0)
(0.377555 0.596939 0)
(0.331994 0.628397 0)
(0.278483 0.661604 0)
(0.2181 0.696106 0)
(0.150838 0.735322 0)
(0.0702917 0.793201 0)
(3 2.56456e-13 0)
(3 7.5358e-12 0)
(3 1.54943e-11 0)
(3 6.01606e-11 0)
(3 1.06409e-10 0)
(3 3.85212e-10 0)
(3 6.22163e-10 0)
(3 2.38336e-09 0)
(3 3.60238e-09 0)
(3 1.36054e-08 0)
(3 2.07e-08 0)
(3 7.56679e-08 0)
(3 1.12811e-07 0)
(3 3.68704e-07 0)
(3 6.06732e-07 0)
(3 1.90804e-06 0)
(3 3.84034e-06 0)
(3 8.42071e-06 0)
(3 3.09901e-05 0)
(3.00001 4.80523e-05 0)
(3.00009 0.000199973 0)
(2.99899 0.000414928 0)
(2.99666 0.000127794 0)
(2.99509 -0.00149161 0)
(2.99388 0.00249354 0)
(2.95671 0.000655294 0)
(2.93407 0.0264926 0)
(2.67826 0.0599274 0)
(1.90754 0.185419 0)
(1.12935 0.42982 0)
(0.673461 0.393992 0)
(0.725296 0.368361 0)
(0.795816 0.35077 0)
(0.815831 0.353586 0)
(0.79536 0.364295 0)
(0.758265 0.37937 0)
(0.714279 0.399103 0)
(0.67493 0.422551 0)
(0.638842 0.450207 0)
(0.602556 0.481992 0)
(0.565741 0.516789 0)
(0.528094 0.552534 0)
(0.489931 0.587942 0)
(0.45328 0.621737 0)
(0.416571 0.656967 0)
(0.375415 0.695401 0)
(0.32598 0.73941 0)
(0.266501 0.789454 0)
(0.196078 0.850481 0)
(0.0996879 0.945828 0)
(3 -5.60985e-14 0)
(3 4.94409e-12 0)
(3 9.3239e-12 0)
(3 3.66199e-11 0)
(3 6.43225e-11 0)
(3 2.11862e-10 0)
(3 3.62228e-10 0)
(3 1.15754e-09 0)
(3 1.93491e-09 0)
(3 5.80094e-09 0)
(3 9.70477e-09 0)
(3 2.53453e-08 0)
(3 3.95944e-08 0)
(3 7.44538e-08 0)
(3 8.69115e-08 0)
(3 1.59906e-07 0)
(3 -8.56645e-07 0)
(3 -2.9653e-06 0)
(3 -8.0115e-06 0)
(3.00002 -2.01818e-05 0)
(3.00013 -3.99819e-05 0)
(2.99884 -8.17286e-05 0)
(2.99593 0.000262782 0)
(2.99574 0.000908768 0)
(2.99071 0.00282777 0)
(2.97311 0.00157855 0)
(2.9759 0.0241508 0)
(2.72507 0.0545643 0)
(2.09908 0.135755 0)
(1.28342 0.34061 0)
(0.653645 0.371498 0)
(0.704593 0.380026 0)
(0.780058 0.37817 0)
(0.812645 0.386457 0)
(0.795912 0.400672 0)
(0.760956 0.417494 0)
(0.720187 0.438292 0)
(0.684434 0.463079 0)
(0.652612 0.492096 0)
(0.621019 0.525023 0)
(0.588839 0.560961 0)
(0.556415 0.59852 0)
(0.524427 0.636925 0)
(0.494368 0.674964 0)
(0.464639 0.715508 0)
(0.432091 0.76214 0)
(0.393385 0.819725 0)
(0.344363 0.89374 0)
(0.284212 0.998939 0)
(0.165134 1.20594 0)
(3 -6.65309e-13 0)
(3 1.30751e-12 0)
(3 8.43582e-13 0)
(3 1.04103e-11 0)
(3 1.13145e-11 0)
(3 5.12661e-11 0)
(3 1.07374e-10 0)
(3 2.28847e-10 0)
(3 7.74752e-10 0)
(3 1.28702e-09 0)
(3 4.53126e-09 0)
(3 6.76439e-09 0)
(3 3.08317e-08 0)
(3 6.35583e-08 0)
(3 1.51472e-07 0)
(3 3.03457e-07 0)
(3 4.0324e-07 0)
(2.99999 6.34644e-07 0)
(2.99998 -9.54942e-07 0)
(2.99997 4.63851e-06 0)
(3 -1.3086e-05 0)
(2.99946 -8.12804e-06 0)
(2.99823 0.00098358 0)
(2.99858 0.00292211 0)
(2.99519 0.00478474 0)
(2.98403 0.00894606 0)
(2.99386 0.0177374 0)
(2.76969 0.0297075 0)
(2.31257 0.0846568 0)
(1.53244 0.230507 0)
(0.6949 0.3743 0)
(0.697991 0.403419 0)
(0.764943 0.416294 0)
(0.803436 0.428741 0)
(0.791804 0.444735 0)
(0.760618 0.463323 0)
(0.724666 0.485444 0)
(0.694509 0.511637 0)
(0.668897 0.541783 0)
(0.644271 0.575345 0)
(0.620759 0.612327 0)
(0.599157 0.652299 0)
(0.578685 0.69405 0)
(0.560938 0.736444 0)
(0.546718 0.782255 0)
(0.53528 0.837259 0)
(0.529671 0.907903 0)
(0.536169 1.0035 0)
(0.595778 1.13686 0)
(0.692458 1.36703 0)
(3 -7.67243e-13 0)
(3 -2.1541e-14 0)
(3 -3.26577e-12 0)
(3 3.37806e-13 0)
(3 -1.63938e-11 0)
(3 2.98209e-12 0)
(3 -8.88733e-11 0)
(3 1.38652e-11 0)
(3 -4.6077e-10 0)
(3 9.94665e-11 0)
(3 -2.36368e-09 0)
(3 8.35597e-10 0)
(3 -8.92163e-09 0)
(3 1.02393e-08 0)
(3 -2.20295e-08 0)
(3 -8.72612e-08 0)
(3 2.68532e-07 0)
(3 1.38297e-06 0)
(3.00001 1.63419e-06 0)
(3 1.28488e-05 0)
(3.00013 1.49646e-05 0)
(3.00038 -3.87382e-07 0)
(3.00042 0.000306864 0)
(3.00155 0.000964964 0)
(2.9999 0.00104549 0)
(2.99337 0.00293389 0)
(3.00527 0.00935825 0)
(2.81495 0.0100374 0)
(2.50254 0.0595154 0)
(1.83366 0.173821 0)
(0.80927 0.384644 0)
(0.689148 0.428064 0)
(0.741961 0.453513 0)
(0.781502 0.468561 0)
(0.775466 0.485382 0)
(0.750733 0.504296 0)
(0.722688 0.526832 0)
(0.700866 0.5532 0)
(0.683129 0.582865 0)
(0.667662 0.616032 0)
(0.655514 0.653549 0)
(0.646005 0.694577 0)
(0.638283 0.737635 0)
(0.634921 0.782563 0)
(0.638567 0.830497 0)
(0.651541 0.887072 0)
(0.681014 0.957696 0)
(0.734311 1.04814 0)
(0.854982 1.16017 0)
(1.03334 1.29719 0)
(3 2.25203e-13 0)
(3 3.6928e-13 0)
(3 2.6241e-13 0)
(3 6.62945e-14 0)
(3 -6.7635e-12 0)
(3 -8.61315e-12 0)
(3 -7.83707e-11 0)
(3 -1.41584e-10 0)
(3 -6.05483e-10 0)
(3 -1.06224e-09 0)
(3 -3.88763e-09 0)
(3 -6.86679e-09 0)
(3 -2.51833e-08 0)
(3 -4.5031e-08 0)
(3 -1.568e-07 0)
(3 -3.021e-07 0)
(3 -9.26203e-07 0)
(3 -2.00103e-06 0)
(3 -6.65717e-06 0)
(2.99999 -1.30715e-05 0)
(2.99997 -3.08875e-05 0)
(2.99994 -0.000130834 0)
(2.99984 -0.000393299 0)
(2.9998 -0.000611382 0)
(2.99846 -0.00212551 0)
(2.9983 -0.00211141 0)
(3.00586 -0.00384275 0)
(2.85186 -0.0135923 0)
(2.69043 0.051158 0)
(2.12444 0.132769 0)
(0.924858 0.450415 0)
(0.694888 0.497068 0)
(0.726694 0.508168 0)
(0.762506 0.509467 0)
(0.766068 0.519574 0)
(0.750235 0.535694 0)
(0.730699 0.557875 0)
(0.715529 0.58422 0)
(0.704686 0.61335 0)
(0.698693 0.646286 0)
(0.697557 0.683936 0)
(0.69917 0.724699 0)
(0.703879 0.767651 0)
(0.714057 0.812696 0)
(0.733209 0.859834 0)
(0.764999 0.912236 0)
(0.816046 0.972849 0)
(0.892672 1.04295 0)
(1.02085 1.12033 0)
(1.1882 1.18692 0)
(3 7.96913e-13 0)
(3 3.64914e-13 0)
(3 3.89429e-12 0)
(3 1.5208e-12 0)
(3 1.93496e-11 0)
(3 5.44353e-12 0)
(3 1.01504e-10 0)
(3 3.7712e-11 0)
(3 5.07155e-10 0)
(3 4.58655e-10 0)
(3 2.25055e-09 0)
(3 3.63836e-09 0)
(3 6.42694e-09 0)
(3 1.29256e-08 0)
(3 1.36521e-09 0)
(3 1.25534e-08 0)
(3 -2.12149e-07 0)
(2.99999 -2.7726e-07 0)
(2.99999 -2.15719e-06 0)
(2.99996 -4.48631e-06 0)
(2.99994 -1.4723e-05 0)
(2.99978 -2.57601e-05 0)
(2.99961 -9.36716e-05 0)
(2.99867 -0.000126578 0)
(2.99742 -0.0006315 0)
(2.99048 -0.000420386 0)
(2.98716 -0.00380872 0)
(2.90817 -0.0117003 0)
(2.8227 0.0532096 0)
(2.40447 0.100814 0)
(1.21021 0.442547 0)
(0.774965 0.552073 0)
(0.749731 0.557745 0)
(0.779496 0.550674 0)
(0.79205 0.548579 0)
(0.782827 0.559174 0)
(0.768445 0.578679 0)
(0.755781 0.603556 0)
(0.74798 0.632546 0)
(0.747975 0.665811 0)
(0.75365 0.702521 0)
(0.762167 0.741733 0)
(0.775157 0.782919 0)
(0.794786 0.825611 0)
(0.824083 0.869556 0)
(0.866205 0.915101 0)
(0.925831 0.96332 0)
(1.00757 1.01329 0)
(1.12673 1.06238 0)
(1.26828 1.09712 0)
(3 3.41166e-13 0)
(3 5.73842e-13 0)
(3 3.09328e-12 0)
(3 5.58678e-12 0)
(3 2.24697e-11 0)
(3 2.95448e-11 0)
(3 1.39791e-10 0)
(3 1.85487e-10 0)
(3 8.15832e-10 0)
(3 1.46281e-09 0)
(3 4.41278e-09 0)
(3 5.99304e-09 0)
(3 2.40823e-08 0)
(3 4.57705e-08 0)
(3 9.42456e-08 0)
(3 7.47732e-08 0)
(3 4.55919e-07 0)
(2.99999 1.00102e-06 0)
(2.99999 1.55699e-06 0)
(2.99997 -1.18692e-06 0)
(2.99994 1.04242e-05 0)
(2.99981 -1.59721e-05 0)
(2.99967 5.3104e-05 0)
(2.9989 -0.000119864 0)
(2.99797 0.00018784 0)
(2.99301 -0.000779919 0)
(2.98728 0.00315069 0)
(2.94347 0.00137922 0)
(2.90109 0.0443731 0)
(2.59057 0.0926355 0)
(1.61392 0.339067 0)
(1.01636 0.598763 0)
(0.840409 0.615733 0)
(0.841424 0.598272 0)
(0.853334 0.58417 0)
(0.854371 0.586577 0)
(0.842495 0.601427 0)
(0.829534 0.623526 0)
(0.821765 0.650905 0)
(0.821023 0.682354 0)
(0.826356 0.716108 0)
(0.836711 0.752014 0)
(0.852989 0.789587 0)
(0.876837 0.828113 0)
(0.910302 0.866969 0)
(0.955606 0.905341 0)
(1.01589 0.942954 0)
(1.09374 0.978459 0)
(1.19896 1.0096 0)
(1.31766 1.02832 0)
(3 -2.066e-13 0)
(3 8.47112e-13 0)
(3 9.82129e-13 0)
(3 6.93845e-12 0)
(3 7.68276e-12 0)
(3 4.1206e-11 0)
(3 4.18225e-11 0)
(3 2.16529e-10 0)
(3 2.3419e-10 0)
(3 8.4747e-10 0)
(3 1.51989e-09 0)
(3 3.03972e-09 0)
(3 1.24065e-08 0)
(3 1.86355e-08 0)
(3 9.35123e-08 0)
(3 9.84255e-08 0)
(3 5.62054e-07 0)
(3 4.86408e-07 0)
(2.99999 3.10071e-06 0)
(2.99998 3.05896e-06 0)
(2.99991 1.625e-05 0)
(2.99985 1.78632e-05 0)
(2.99944 9.09743e-05 0)
(2.99889 9.00766e-05 0)
(2.99632 0.000528493 0)
(2.99539 0.000581375 0)
(2.99072 0.00347752 0)
(2.97495 0.00372709 0)
(2.97761 0.0283395 0)
(2.75919 0.0306252 0)
(2.18942 0.277592 0)
(1.46843 0.52541 0)
(0.954378 0.643932 0)
(0.893892 0.642146 0)
(0.906378 0.631521 0)
(0.920182 0.626049 0)
(0.917857 0.635227 0)
(0.908609 0.653767 0)
(0.901647 0.677305 0)
(0.900408 0.703967 0)
(0.905189 0.732874 0)
(0.915825 0.763749 0)
(0.932856 0.796062 0)
(0.957495 0.82897 0)
(0.991234 0.861608 0)
(1.03554 0.892954 0)
(1.09248 0.922158 0)
(1.16341 0.947919 0)
(1.25477 0.968585 0)
(1.3551 0.979197 0)
(3 2.30261e-14 0)
(3 9.51915e-14 0)
(3 5.45615e-13 0)
(3 8.89581e-13 0)
(3 2.23839e-12 0)
(3 1.28208e-11 0)
(3 2.53789e-11 0)
(3 8.00007e-11 0)
(3 1.23099e-10 0)
(3 1.35398e-10 0)
(3 1.09581e-09 0)
(3 2.88473e-09 0)
(3 4.22544e-09 0)
(3 3.50678e-09 0)
(3 5.30696e-08 0)
(3 1.74947e-07 0)
(3 3.47793e-07 0)
(3 2.74465e-07 0)
(2.99999 2.02486e-06 0)
(2.99999 7.17808e-06 0)
(2.99996 9.01297e-06 0)
(2.99994 4.97294e-05 0)
(2.99979 5.64273e-05 0)
(2.99963 0.000312347 0)
(2.99879 0.000442121 0)
(2.99793 0.00197194 0)
(2.9926 0.00131831 0)
(2.98708 0.00529473 0)
(2.94652 0.0118627 0)
(2.90776 0.00560647 0)
(2.61598 0.136191 0)
(1.74651 0.321535 0)
(1.15997 0.620159 0)
(0.956001 0.660845 0)
(0.952333 0.661845 0)
(0.972743 0.659042 0)
(0.98738 0.666309 0)
(0.985756 0.68373 0)
(0.979789 0.705558 0)
(0.977511 0.728957 0)
(0.981308 0.75343 0)
(0.991446 0.779089 0)
(1.00813 0.80575 0)
(1.03208 0.832709 0)
(1.06435 0.859077 0)
(1.10602 0.883916 0)
(1.15849 0.906272 0)
(1.22238 0.924944 0)
(1.30191 0.938717 0)
(1.38737 0.944601 0)
(3 1.74179e-13 0)
(3 2.27292e-13 0)
(3 1.20419e-12 0)
(3 1.94966e-12 0)
(3 8.01793e-12 0)
(3 1.29276e-11 0)
(3 5.01426e-11 0)
(3 8.47367e-11 0)
(3 3.04258e-10 0)
(3 5.06414e-10 0)
(3 1.72289e-09 0)
(3 3.14868e-09 0)
(3 8.2283e-09 0)
(3 1.50822e-08 0)
(3 3.00693e-08 0)
(3 1.11022e-07 0)
(3 1.37542e-07 0)
(3 5.76052e-07 0)
(3 8.92069e-07 0)
(2.99999 3.39617e-06 0)
(2.99998 5.71229e-06 0)
(2.99993 1.9408e-05 0)
(2.99988 3.34387e-05 0)
(2.99953 0.00011096 0)
(2.99908 0.000195991 0)
(2.99684 0.000660236 0)
(2.99624 0.000969978 0)
(2.99256 0.00442468 0)
(2.97935 0.00616306 0)
(2.98541 0.0297539 0)
(2.77819 0.0594057 0)
(2.30411 0.21398 0)