/*--------------------------------*- C++ -*----------------------------------*\
| =========                 |                                                 |
| \\      /  F ield         | OpenFOAM: The Open Source CFD Toolbox           |
|  \\    /   O peration     | Version:  2412                                  |
|   \\  /    A nd           | Website:  www.openfoam.com                      |
|    \\/     M anipulation  |                                                 |
\*---------------------------------------------------------------------------*/
FoamFile
{
    version     2.0;
    format      ascii;
    arch        "LSB;label=32;scalar=64";
    class       volScalarField;
    location    "16.5";
    object      Ma;
}
// * * * * * * * * * * * * * * * * * * * * * * * * * * * * * * * * * * * * * //

dimensions      [0 0 0 0 0 0 0];

internalField   nonuniform List<scalar> 
7000
(
2.25636
0.994834
0.30095
0.33841
0.401043
0.442405
0.450619
0.446146
0.439782
0.434864
0.432014
0.429738
0.427138
0.424045
0.420575
0.416794
0.41273
0.408346
0.403638
0.398574
0.393156
0.387354
0.381173
0.374577
0.367569
0.360113
0.35221
0.343821
0.334946
0.325545
0.315618
0.305124
0.29406
0.282389
0.270108
0.257183
0.243613
0.229374
0.214468
0.198885
0.182636
0.16573
0.148193
0.130056
0.111374
0.0921945
0.0726009
0.0528514
0.0319119
0.0155401
2.25642
0.994896
0.300747
0.338244
0.400887
0.442257
0.450471
0.446001
0.439643
0.434732
0.431887
0.429614
0.427017
0.423929
0.420462
0.416687
0.412628
0.408251
0.403549
0.398491
0.39308
0.387287
0.381114
0.374528
0.367531
0.360086
0.352196
0.34382
0.334961
0.325577
0.315668
0.305194
0.294153
0.282506
0.270251
0.257356
0.243818
0.229615
0.214748
0.19921
0.183013
0.166167
0.148705
0.130662
0.112108
0.0931188
0.0738285
0.0546586
0.0351469
0.0220691
2.25655
0.995093
0.30088
0.338279
0.400917
0.442289
0.450505
0.446041
0.439701
0.434801
0.431969
0.4297
0.427115
0.424032
0.42058
0.416812
0.412769
0.408401
0.403717
0.39867
0.39328
0.387502
0.381353
0.374786
0.367817
0.360397
0.35254
0.344195
0.335375
0.32603
0.316169
0.305743
0.294759
0.283173
0.270988
0.25817
0.244719
0.230615
0.21586
0.200452
0.184406
0.167743
0.150503
0.132746
0.114571
0.0961167
0.0776429
0.0598414
0.0430327
0.0335816
2.25672
0.995398
0.301151
0.338357
0.400999
0.442389
0.450608
0.44616
0.439831
0.434961
0.432137
0.42989
0.42731
0.424251
0.420808
0.417068
0.413035
0.408698
0.404028
0.399017
0.393645
0.387908
0.381782
0.375263
0.368324
0.36096
0.353141
0.344862
0.336092
0.326825
0.317026
0.306694
0.29579
0.284316
0.272235
0.259551
0.246235
0.232297
0.21772
0.202525
0.186722
0.170349
0.153466
0.136149
0.11856
0.100896
0.0835568
0.0674588
0.0532975
0.0461887
2.25697
0.995829
0.3015
0.338426
0.401084
0.44251
0.450738
0.446309
0.439995
0.435163
0.432354
0.430136
0.427567
0.424541
0.421114
0.417411
0.4134
0.409103
0.404459
0.399493
0.394156
0.388469
0.382389
0.375927
0.369046
0.361747
0.354002
0.345799
0.337122
0.327943
0.318261
0.308035
0.297275
0.28593
0.274027
0.261507
0.248411
0.234683
0.220381
0.205467
0.190019
0.17404
0.157643
0.140923
0.124077
0.10741
0.0913785
0.0770293
0.0651052
0.0595026
2.2573
0.996402
0.301944
0.338498
0.40118
0.442656
0.450908
0.446478
0.440227
0.435398
0.432651
0.430429
0.427919
0.424891
0.42153
0.417831
0.413891
0.409603
0.405039
0.400089
0.39484
0.38918
0.383198
0.376776
0.370006
0.362764
0.355144
0.34702
0.338484
0.329413
0.319892
0.309808
0.299233
0.288075
0.276387
0.264108
0.251269
0.237852
0.22387
0.209361
0.194335
0.178896
0.163092
0.147117
0.13117
0.115613
0.100991
0.0882982
0.0781867
0.0736279
2.25772
0.997128
0.302487
0.338574
0.401288
0.442834
0.451112
0.446712
0.440488
0.435711
0.43299
0.430814
0.428328
0.425352
0.422019
0.418379
0.414472
0.410254
0.405728
0.400861
0.395658
0.390096
0.384171
0.377867
0.371167
0.364066
0.356534
0.348579
0.340154
0.331284
0.321906
0.312058
0.30167
0.29079
0.279345
0.267393
0.254873
0.241845
0.228282
0.214246
0.199775
0.184939
0.169893
0.154754
0.139836
0.12548
0.112241
0.101079
0.0924448
0.088633
2.25823
0.99802
0.303139
0.338655
0.401408
0.443046
0.45136
0.446995
0.440806
0.436089
0.433404
0.43128
0.42883
0.425909
0.42262
0.419043
0.41519
0.411041
0.406582
0.401794
0.396674
0.391203
0.385382
0.379182
0.372612
0.365633
0.358264
0.350452
0.342229
0.333529
0.3244
0.314762
0.304679
0.294059
0.282986
0.271364
0.259293
0.24669
0.233669
0.220189
0.206378
0.192283
0.178049
0.163902
0.150058
0.136958
0.125082
0.115264
0.107844
0.104631
2.25885
0.999089
0.303909
0.338744
0.401545
0.443292
0.451657
0.447326
0.441196
0.436531
0.433905
0.431827
0.429435
0.426566
0.423345
0.419829
0.416052
0.411976
0.407606
0.402905
0.39789
0.392526
0.386828
0.38076
0.374336
0.367519
0.360323
0.352712
0.344696
0.336246
0.327364
0.318033
0.308247
0.298009
0.287296
0.276146
0.264521
0.252501
0.240043
0.227277
0.214188
0.200961
0.187669
0.174547
0.161904
0.150029
0.139459
0.130891
0.124495
0.121724
2.25957
1.00035
0.304807
0.338843
0.4017
0.443582
0.452006
0.447727
0.441651
0.437063
0.434488
0.432481
0.430142
0.42735
0.424192
0.420763
0.417062
0.413085
0.408806
0.40422
0.399315
0.394087
0.388524
0.382618
0.376359
0.369737
0.362743
0.355367
0.347599
0.339431
0.330857
0.321865
0.312461
0.302629
0.292393
0.281732
0.270698
0.259274
0.247547
0.235514
0.223322
0.211004
0.198789
0.186792
0.175344
0.164786
0.155447
0.147993
0.142494
0.140153
2.26041
1.00181
0.30584
0.338953
0.401877
0.443915
0.452419
0.448184
0.442202
0.437672
0.435185
0.433232
0.430983
0.428254
0.425195
0.421842
0.418252
0.414366
0.410214
0.405741
0.400984
0.395893
0.390505
0.384768
0.378718
0.372304
0.36556
0.358438
0.350972
0.343117
0.334906
0.326302
0.317338
0.307984
0.298278
0.288211
0.277817
0.267128
0.256171
0.245043
0.23378
0.22255
0.211443
0.200704
0.190523
0.181225
0.173173
0.16681
0.162139
0.160108
2.26137
1.00348
0.307018
0.339079
0.402079
0.444303
0.452896
0.448736
0.442828
0.438401
0.435978
0.434123
0.43194
0.429319
0.426337
0.423106
0.419608
0.415861
0.41182
0.407508
0.402889
0.397987
0.392768
0.387255
0.381413
0.375264
0.368779
0.361974
0.354828
0.347352
0.339538
0.33139
0.322911
0.314115
0.305005
0.295614
0.285953
0.276077
0.266025
0.255861
0.245699
0.235599
0.22578
0.216328
0.207545
0.199611
0.192772
0.187493
0.183636
0.182034
2.26245
1.00538
0.308348
0.339224
0.402311
0.444742
0.45345
0.449362
0.443574
0.439229
0.436912
0.435132
0.433062
0.430525
0.42767
0.424535
0.421183
0.41755
0.413678
0.409505
0.405083
0.400352
0.395366
0.390063
0.384499
0.37861
0.372454
0.365971
0.359219
0.352143
0.344798
0.337147
0.329234
0.321046
0.312625
0.303977
0.295156
0.286183
0.277142
0.268076
0.259102
0.250315
0.241837
0.23387
0.226519
0.22007
0.214655
0.21055
0.207575
0.206276
2.26365
1.00749
0.309829
0.339372
0.40259
0.445234
0.454084
0.450091
0.444422
0.440192
0.437973
0.4363
0.43433
0.431915
0.429173
0.426178
0.422953
0.419485
0.415763
0.411785
0.407543
0.403045
0.398277
0.393254
0.387954
0.382401
0.376569
0.370489
0.364135
0.357543
0.35069
0.343619
0.336316
0.328826
0.321157
0.313351
0.305449
0.297497
0.289567
0.281729
0.274082
0.266731
0.259809
0.253428
0.247787
0.242934
0.239034
0.236295
0.234374
0.233725
2.26498
1.00983
0.311468
0.339536
0.402917
0.445796
0.454814
0.450939
0.4454
0.441308
0.439187
0.437639
0.435775
0.433497
0.430879
0.428037
0.424958
0.421664
0.418119
0.414343
0.410317
0.406057
0.401553
0.396812
0.391837
0.38662
0.381185
0.37551
0.369639
0.363538
0.357273
0.3508
0.34421
0.337456
0.330647
0.323752
0.316886
0.310053
0.30337
0.296885
0.290722
0.284973
0.279769
0.275244
0.271487
0.268675
0.266708
0.265731
0.2652
0.26517
2.26644
1.0124
0.313274
0.33974
0.403282
0.446448
0.455662
0.451916
0.446554
0.442585
0.440598
0.439158
0.437439
0.435284
0.432827
0.430125
0.42723
0.424102
0.420772
0.417197
0.413425
0.409409
0.405209
0.400766
0.396151
0.391303
0.386297
0.381076
0.375718
0.370177
0.364525
0.358744
0.352892
0.346987
0.341076
0.335217
0.329451
0.323876
0.318548
0.313585
0.309078
0.30516
0.301931
0.299531
0.298092
0.297589
0.298093
0.299519
0.301163
0.302693
2.26802
1.0152
0.315234
0.33997
0.403706
0.447205
0.456649
0.453055
0.447895
0.444059
0.442215
0.440895
0.439326
0.43731
0.43502
0.432479
0.429774
0.426838
0.423728
0.420386
0.416874
0.413143
0.409249
0.405155
0.400906
0.396482
0.391917
0.387211
0.382388
0.377469
0.372474
0.367443
0.362402
0.357401
0.352494
0.347727
0.343202
0.338958
0.335151
0.331835
0.32918
0.327321
0.326399
0.326524
0.327929
0.33067
0.334539
0.339644
0.344742
0.348745
2.2697
1.01819
0.317337
0.34024
0.404199
0.448096
0.457806
0.454407
0.449446
0.445789
0.444063
0.442899
0.44146
0.439621
0.437478
0.435137
0.432604
0.429899
0.426999
0.42393
0.420674
0.417267
0.413689
0.409978
0.406118
0.402149
0.398063
0.393896
0.389666
0.385391
0.381124
0.37687
0.372719
0.368671
0.36485
0.361266
0.358065
0.355311
0.353126
0.351693
0.351068
0.351517
0.353211
0.356423
0.361341
0.368085
0.376921
0.387654
0.399388
0.409997
2.27147
1.02133
0.319558
0.340563
0.404787
0.449147
0.459168
0.455987
0.451262
0.447775
0.446185
0.445166
0.443882
0.442211
0.440249
0.438096
0.435776
0.43329
0.430646
0.427835
0.424889
0.42179
0.418587
0.415247
0.41184
0.408318
0.404777
0.401156
0.397576
0.393973
0.390482
0.38706
0.383838
0.380821
0.378122
0.375821
0.373998
0.372847
0.372427
0.37293
0.374595
0.377714
0.382639
0.389509
0.398942
0.411268
0.426973
0.447133
0.471015
0.498631
2.27328
1.02455
0.321808
0.340925
0.405481
0.450388
0.460791
0.457852
0.453411
0.45007
0.448625
0.447727
0.446611
0.445088
0.443329
0.441344
0.439261
0.436984
0.43462
0.432071
0.429457
0.426684
0.423873
0.420935
0.417988
0.414962
0.411965
0.408953
0.406017
0.403158
0.400443
0.397926
0.395651
0.393732
0.392207
0.391246
0.390888
0.391319
0.392705
0.395393
0.399601
0.405698
0.413906
0.425071
0.43964
0.459181
0.485114
0.520631
0.571963
0.664954
2.27534
1.02826
0.32431
0.341181
0.40627
0.451971
0.462926
0.460356
0.456268
0.453148
0.451867
0.451181
0.450289
0.449033
0.447523
0.445849
0.444053
0.442141
0.440123
0.43801
0.435815
0.433559
0.431253
0.428931
0.426596
0.424301
0.422045
0.4199
0.417867
0.416037
0.414422
0.41313
0.412205
0.411764
0.41191
0.412685
0.414249
0.417016
0.42121
0.426905
0.434601
0.444574
0.457849
0.474838
0.497636
0.527637
0.569637
0.631198
0.72989
0.881574
2.27754
1.03223
0.327318
0.342141
0.408007
0.454847
0.466522
0.464332
0.460562
0.457502
0.456261
0.455668
0.45493
0.453855
0.452558
0.451113
0.449592
0.44798
0.446315
0.44458
0.442824
0.441034
0.439265
0.437505
0.435818
0.434197
0.432718
0.43138
0.430275
0.42941
0.428906
0.428778
0.429147
0.430033
0.431673
0.434264
0.437982
0.442904
0.449474
0.457802
0.468603
0.482324
0.49983
0.522649
0.551826
0.591398
0.643961
0.718109
0.829076
0.967296
2.27883
1.03455
0.329195
0.343205
0.410175
0.458599
0.471254
0.469565
0.46612
0.463085
0.461877
0.461405
0.460829
0.459936
0.458823
0.457589
0.456297
0.454954
0.453584
0.452189
0.450802
0.449435
0.448124
0.446886
0.445763
0.444781
0.44399
0.443429
0.44316
0.44325
0.443711
0.444618
0.446206
0.448616
0.451838
0.456136
0.461572
0.468573
0.477192
0.488168
0.501506
0.518512
0.539238
0.565795
0.599092
0.64176
0.697439
0.767847
0.864289
0.967681
2.27998
1.03666
0.33251
0.346908
0.415045
0.465023
0.478277
0.476462
0.472668
0.469287
0.468002
0.467637
0.467222
0.466506
0.465598
0.464595
0.463587
0.462556
0.461542
0.460526
0.459561
0.458637
0.457812
0.457085
0.45652
0.456127
0.455981
0.456093
0.456511
0.457319
0.458692
0.460675
0.463326
0.466817
0.471212
0.476818
0.483663
0.492248
0.502617
0.515393
0.530897
0.549724
0.572865
0.600733
0.63536
0.677167
0.728984
0.791074
0.868985
0.950144
2.27644
1.0303
0.334712
0.35686
0.427508
0.4799
0.49342
0.490629
0.485629
0.481375
0.479711
0.47915
0.478572
0.477697
0.476632
0.475533
0.474463
0.473432
0.472449
0.471531
0.470698
0.469982
0.469397
0.468992
0.46879
0.468823
0.46909
0.469754
0.470829
0.472429
0.474521
0.477309
0.480756
0.485152
0.490466
0.497056
0.504973
0.514543
0.526082
0.539793
0.556355
0.575936
0.599488
0.627416
0.660617
0.700133
0.746398
0.80082
0.864339
0.928963
2.28236
1.02312
0.359192
0.382447
0.448561
0.498476
0.510412
0.506672
0.500934
0.496545
0.494838
0.494145
0.493443
0.492491
0.491422
0.490342
0.489305
0.488304
0.487361
0.486476
0.485693
0.485013
0.484494
0.484103
0.483965
0.48411
0.484649
0.485506
0.486889
0.488728
0.491275
0.49441
0.498494
0.503352
0.509464
0.516588
0.525352
0.53547
0.5477
0.561848
0.578643
0.59821
0.621072
0.647836
0.678689
0.714659
0.755646
0.802538
0.855776
0.909357
1.87643
0.772248
0.27364
0.344144
0.417622
0.441175
0.441136
0.437158
0.433505
0.433398
0.435565
0.438447
0.441446
0.444487
0.447628
0.450875
0.454197
0.45754
0.460884
0.4642
0.467483
0.470664
0.473812
0.476953
0.48015
0.483334
0.486628
0.489953
0.493573
0.497388
0.501683
0.506385
0.511804
0.517917
0.525019
0.533176
0.542604
0.553567
0.566086
0.580749
0.597314
0.61672
0.638491
0.66383
0.692122
0.724605
0.760615
0.801105
0.845939
0.890721
1.86898
0.771612
0.28252
0.355399
0.428231
0.447738
0.443319
0.435983
0.430306
0.428389
0.428286
0.42868
0.429273
0.43017
0.43151
0.433285
0.435539
0.438142
0.441214
0.444639
0.448524
0.452596
0.45707
0.461724
0.466753
0.471922
0.477453
0.483199
0.489281
0.495629
0.502349
0.509445
0.516996
0.525154
0.533942
0.543709
0.554303
0.566339
0.579529
0.59461
0.611261
0.63025
0.651299
0.675068
0.701415
0.730742
0.763066
0.798219
0.836641
0.874348
1.86803
0.770311
0.284665
0.365133
0.443545
0.46367
0.457539
0.448193
0.441168
0.438413
0.4375
0.436893
0.436298
0.435887
0.435791
0.436053
0.436675
0.437667
0.43919
0.441169
0.443644
0.44657
0.450062
0.454086
0.45869
0.463857
0.469562
0.475839
0.482612
0.490006
0.497868
0.506477
0.515555
0.52553
0.535945
0.547409
0.559468
0.572756
0.586928
0.602618
0.61955
0.638297
0.65872
0.681236
0.705781
0.732609
0.761664
0.792888
0.826525
0.859078
1.86951
0.773585
0.290457
0.367354
0.443624
0.464271
0.459102
0.450613
0.444018
0.441634
0.441146
0.440961
0.440737
0.440621
0.440699
0.440999
0.441578
0.442478
0.443658
0.445137
0.446931
0.44916
0.451792
0.454996
0.458675
0.46305
0.467958
0.473675
0.479946
0.487143
0.494888
0.503653
0.512958
0.523338
0.534351
0.546493
0.559407
0.573517
0.588521
0.60479
0.622162
0.640917
0.661013
0.682679
0.705875
0.73074
0.757207
0.785321
0.815134
0.843805
1.8726
0.78024
0.298122
0.361296
0.428975
0.450251
0.448019
0.44198
0.436356
0.434465
0.43449
0.435015
0.435597
0.436307
0.437196
0.438361
0.439815
0.441495
0.443362
0.445464
0.447804
0.450462
0.453416
0.456781
0.460513
0.464786
0.469498
0.474903
0.480827
0.487598
0.494973
0.5033
0.512336
0.522387
0.533257
0.545177
0.558005
0.571932
0.586876
0.602988
0.620222
0.638717
0.658374
0.679331
0.701467
0.724957
0.749585
0.775329
0.802367
0.828227
1.88118
0.786831
0.300395
0.349066
0.412079
0.441187
0.444204
0.439531
0.434377
0.432077
0.431822
0.432339
0.43305
0.433963
0.435055
0.436383
0.437973
0.439824
0.441932
0.444323
0.446993
0.449995
0.453301
0.456997
0.46103
0.465544
0.470446
0.475945
0.481901
0.488575
0.495816
0.503875
0.51264
0.522301
0.532788
0.54426
0.55664
0.570068
0.58447
0.599971
0.616495
0.634156
0.652867
0.672731
0.693645
0.715645
0.738585
0.762428
0.787266
0.810936
2.26345
1.10671
0.407736
0.399339
0.459473
0.508197
0.519514
0.514631
0.507708
0.501647
0.498121
0.495643
0.493524
0.491499
0.489464
0.487486
0.485754
0.484257
0.4831
0.482245
0.481806
0.481748
0.48219
0.483113
0.484582
0.486636
0.489309
0.492659
0.496687
0.50149
0.507034
0.513444
0.520674
0.528865
0.537951
0.548075
0.55916
0.571329
0.584504
0.598791
0.614089
0.630491
0.647878
0.666298
0.685666
0.705969
0.727111
0.749008
0.771739
0.793365
2.27291
1.12869
0.392217
0.377248
0.450097
0.510864
0.529301
0.528434
0.524212
0.520405
0.518959
0.518581
0.518562
0.518518
0.5181
0.517468
0.516792
0.516159
0.515586
0.515106
0.514734
0.514533
0.514524
0.514788
0.515363
0.516325
0.51771
0.519632
0.522084
0.525223
0.529003
0.533601
0.538954
0.545222
0.552359
0.560476
0.569568
0.57971
0.590906
0.60317
0.616539
0.630961
0.646459
0.662942
0.680376
0.698698
0.71781
0.737619
0.75819
0.77777
2.29779
1.17741
0.434795
0.38411
0.447181
0.503509
0.522018
0.523059
0.521238
0.520053
0.520474
0.521706
0.5235
0.525302
0.526711
0.527911
0.529034
0.530182
0.531329
0.532509
0.533694
0.534938
0.536228
0.537629
0.53914
0.540834
0.542727
0.544895
0.54738
0.550253
0.553577
0.557409
0.561838
0.566908
0.572721
0.579308
0.586765
0.595104
0.604396
0.614646
0.625872
0.638064
0.651232
0.66538
0.680463
0.696465
0.713285
0.730767
0.748996
0.766389
1.90085
0.805173
0.306082
0.31686
0.37396
0.414849
0.429145
0.432986
0.435818
0.439477
0.444415
0.450165
0.456607
0.463106
0.469287
0.475288
0.481256
0.487222
0.493169
0.499058
0.504884
0.510628
0.516305
0.521898
0.527438
0.532907
0.538366
0.543793
0.549272
0.554803
0.560448
0.566261
0.572296
0.57863
0.585307
0.592433
0.600029
0.608218
0.61699
0.626476
0.636639
0.647608
0.659309
0.67183
0.685075
0.699047
0.713684
0.729012
0.745035
0.760354
2.30632
1.19456
0.450167
0.386778
0.440751
0.492347
0.50937
0.509443
0.506297
0.503819
0.502559
0.502371
0.502823
0.503217
0.503536
0.504037
0.504857
0.506128
0.507817
0.509971
0.512537
0.515573
0.519029
0.522951
0.527259
0.532014
0.537096
0.542597
0.548356
0.554492
0.560878
0.567619
0.574602
0.581942
0.589539
0.597523
0.605817
0.614545
0.623655
0.633252
0.643315
0.653917
0.665052
0.676745
0.689009
0.701825
0.715204
0.729052
0.743462
0.757188
2.31158
1.20459
0.433461
0.369828
0.438458
0.500766
0.522256
0.523681
0.521462
0.51999
0.520117
0.521246
0.522974
0.524478
0.525502
0.526346
0.527178
0.528124
0.529196
0.53048
0.531985
0.533794
0.535897
0.538375
0.541217
0.544486
0.548175
0.552321
0.556929
0.562005
0.567558
0.573566
0.580045
0.586959
0.594352
0.602154
0.610426
0.619084
0.628213
0.637715
0.647695
0.658043
0.668882
0.680089
0.691784
0.703842
0.716359
0.729199
0.742487
0.755098
2.3143
1.21041
0.437635
0.37187
0.441589
0.505496
0.527913
0.529609
0.527445
0.526096
0.526568
0.528082
0.530352
0.532544
0.534263
0.53579
0.537315
0.538944
0.540674
0.542533
0.54452
0.546663
0.548983
0.551507
0.554273
0.557301
0.560639
0.564295
0.568327
0.57273
0.577565
0.582815
0.588541
0.594709
0.601375
0.608496
0.61612
0.6242
0.632768
0.641785
0.651264
0.661181
0.671524
0.682283
0.693419
0.704945
0.71679
0.728972
0.741482
0.753379
2.31727
1.21811
0.464036
0.387988
0.447206
0.506361
0.528955
0.532204
0.531329
0.530959
0.531852
0.533779
0.536317
0.538614
0.540641
0.542542
0.544499
0.546537
0.548714
0.550993
0.553423
0.555971
0.558696
0.561564
0.564641
0.567897
0.571399
0.575122
0.579133
0.583414
0.58803
0.592971
0.598289
0.603983
0.610085
0.616598
0.623541
0.630929
0.638757
0.647045
0.655761
0.664936
0.67452
0.684538
0.694928
0.705708
0.716805
0.728218
0.739966
0.751148
1.90569
0.813699
0.324973
0.323679
0.376456
0.414353
0.427252
0.430304
0.432601
0.435946
0.440722
0.446635
0.453366
0.460186
0.466899
0.473561
0.480297
0.487092
0.493959
0.500838
0.507737
0.514617
0.521496
0.528346
0.535193
0.542024
0.548866
0.555715
0.562598
0.569522
0.576509
0.583584
0.590763
0.598085
0.605556
0.61323
0.621101
0.629225
0.637592
0.646243
0.655172
0.664401
0.673919
0.683746
0.693861
0.704271
0.714952
0.725892
0.737145
0.747826
2.31236
1.2094
0.465545
0.403687
0.466357
0.52758
0.549545
0.55049
0.546346
0.542512
0.540302
0.538927
0.538328
0.537928
0.537191
0.536464
0.535893
0.535734
0.535917
0.536595
0.537704
0.539306
0.541381
0.543959
0.547012
0.550558
0.554565
0.55905
0.563965
0.569326
0.575082
0.581237
0.587741
0.594604
0.601787
0.609294
0.617098
0.625201
0.633582
0.642248
0.651187
0.660403
0.669886
0.679637
0.689637
0.699878
0.710345
0.721014
0.731947
0.742317
2.29438
1.17027
0.460615
0.422924
0.485988
0.546415
0.566334
0.566383
0.562661
0.559418
0.558658
0.559058
0.560142
0.561403
0.562273
0.56291
0.5635
0.564157
0.56489
0.565713
0.566632
0.567694
0.568943
0.570425
0.57217
0.574224
0.576603
0.579341
0.582453
0.585963
0.589871
0.594203
0.598959
0.604151
0.609773
0.615826
0.622298
0.629182
0.636464
0.64413
0.65216
0.660539
0.669241
0.678254
0.687571
0.697158
0.707015
0.717105
0.727478
0.737335
1.88789
0.805166
0.341071
0.35544
0.406382
0.443162
0.452899
0.452732
0.451799
0.452651
0.455966
0.460592
0.466132
0.472199
0.47829
0.484414
0.490632
0.496954
0.503331
0.509721
0.516084
0.522413
0.528691
0.534925
0.541103
0.547242
0.553345
0.559441
0.565544
0.571693
0.577906
0.58421
0.590631
0.597195
0.603925
0.610842
0.617965
0.625309
0.632887
0.640706
0.64878
0.657109
0.665701
0.674541
0.683622
0.69294
0.702475
0.712219
0.72221
0.731708
1.87402
0.796366
0.339759
0.356729
0.398336
0.426956
0.434875
0.434841
0.433841
0.433333
0.434068
0.435704
0.438261
0.44147
0.444962
0.448795
0.45305
0.457768
0.462925
0.468505
0.474464
0.480785
0.487417
0.494344
0.501513
0.50891
0.516483
0.524223
0.532084
0.540064
0.548126
0.556291
0.564521
0.572847
0.581236
0.589728
0.598298
0.606981
0.61577
0.624674
0.633688
0.642829
0.652101
0.661512
0.671063
0.680761
0.690604
0.700584
0.710743
0.720361
1.88893
0.806148
0.345336
0.373772
0.430983
0.466976
0.473731
0.46968
0.464594
0.461484
0.460529
0.460499
0.461089
0.462054
0.463093
0.464266
0.465698
0.467458
0.469583
0.472082
0.474982
0.478288
0.482034
0.486208
0.490834
0.49589
0.501392
0.507304
0.513634
0.520338
0.527428
0.534848
0.542607
0.550649
0.55898
0.567541
0.576343
0.585331
0.594508
0.603854
0.613371
0.62303
0.632835
0.642755
0.652801
0.662946
0.673201
0.683539
0.694033
0.703933
2.34106
1.12488
0.469565
0.447845
0.513377
0.575155
0.595812
0.595217
0.589917
0.584608
0.58159
0.579675
0.578105
0.576729
0.575174
0.573438
0.571663
0.569948
0.568336
0.566856
0.565531
0.564398
0.563481
0.562831
0.562472
0.56246
0.562806
0.563574
0.564754
0.566385
0.568498
0.571098
0.574212
0.577822
0.581951
0.586574
0.591703
0.597307
0.603389
0.609911
0.616864
0.624212
0.63193
0.640015
0.648421
0.657134
0.666113
0.675347
0.684841
0.693899
1.88941
0.807329
0.346437
0.363567
0.415886
0.456154
0.468639
0.469654
0.46911
0.469091
0.47138
0.4749
0.479106
0.483843
0.488669
0.493485
0.498326
0.503258
0.508233
0.513249
0.518239
0.52322
0.528146
0.533049
0.537894
0.542721
0.547503
0.552285
0.557066
0.561877
0.566725
0.571644
0.576632
0.581742
0.586972
0.592374
0.597939
0.60372
0.609701
0.615934
0.622394
0.629127
0.63611
0.643352
0.650841
0.65859
0.666577
0.674803
0.683282
0.691384
1.88914
0.807474
0.347748
0.364637
0.416162
0.45466
0.465118
0.464064
0.461196
0.45864
0.458172
0.459014
0.460598
0.462806
0.465227
0.467819
0.470687
0.473915
0.477506
0.481449
0.485713
0.490282
0.495135
0.500254
0.505618
0.5112
0.516982
0.522939
0.529054
0.535323
0.541725
0.548257
0.554908
0.561669
0.568535
0.575501
0.58257
0.589741
0.597021
0.604407
0.611911
0.619527
0.627269
0.635131
0.643131
0.651256
0.659525
0.667917
0.676486
0.684621
2.34307
1.12855
0.473237
0.449912
0.516634
0.580911
0.603403
0.603523
0.598444
0.593372
0.590582
0.589021
0.587888
0.587033
0.586029
0.584863
0.583635
0.582508
0.581468
0.580608
0.579866
0.579355
0.579008
0.578947
0.579102
0.579582
0.580343
0.581429
0.582853
0.584625
0.586751
0.589232
0.592067
0.595256
0.598796
0.602687
0.606923
0.611496
0.616397
0.621618
0.627145
0.632969
0.639075
0.645455
0.652092
0.658978
0.666095
0.673434
0.681001
0.688238
1.88983
0.808861
0.353737
0.381552
0.439751
0.479737
0.489724
0.488054
0.485012
0.483622
0.485047
0.487723
0.49107
0.494907
0.498809
0.502763
0.506826
0.511056
0.515419
0.519904
0.524465
0.5291
0.533782
0.538515
0.543285
0.548091
0.552932
0.557811
0.562737
0.567713
0.572748
0.577857
0.583039
0.588318
0.593691
0.599181
0.604782
0.610516
0.616377
0.622382
0.628533
0.63484
0.641306
0.647932
0.654722
0.661677
0.668796
0.676069
0.683525
0.690624
1.87522
0.799782
0.351413
0.378226
0.427576
0.459505
0.467175
0.466058
0.464385
0.463673
0.464202
0.465403
0.467304
0.469594
0.471948
0.474433
0.477141
0.480128
0.483396
0.486947
0.490767
0.494854
0.499195
0.503786
0.508613
0.513669
0.518938
0.52441
0.530069
0.535905
0.541906
0.548052
0.554351
0.56078
0.567348
0.574032
0.580846
0.58777
0.594819
0.601973
0.609246
0.616616
0.6241
0.631679
0.639372
0.647157
0.655054
0.663044
0.67118
0.678883
1.87419
0.799395
0.351921
0.375463
0.422467
0.454146
0.462384
0.461936
0.460826
0.460212
0.460486
0.461315
0.4628
0.464642
0.466492
0.468399
0.470458
0.472718
0.475193
0.477887
0.480805
0.483955
0.487343
0.490973
0.494848
0.49897
0.50334
0.507956
0.51282
0.517924
0.523271
0.528852
0.534666
0.5407
0.54695
0.553404
0.560057
0.566894
0.573914
0.581104
0.588462
0.595978
0.60365
0.611463
0.619412
0.627483
0.635688
0.644015
0.652501
0.660557
1.88908
0.809199
0.355155
0.362771
0.413374
0.452176
0.463134
0.462733
0.460951
0.45971
0.45975
0.460564
0.462104
0.464014
0.465842
0.467655
0.469573
0.47167
0.473955
0.476435
0.479101
0.481965
0.48502
0.48828
0.491739
0.495407
0.499281
0.503369
0.507667
0.512183
0.516914
0.521863
0.527029
0.532413
0.538012
0.543825
0.549852
0.556087
0.562529
0.56917
0.576009
0.583035
0.590244
0.597629
0.605194
0.612927
0.620824
0.628868
0.637088
0.644902
2.31261
1.20528
0.485932
0.431704
0.492769
0.557036
0.583071
0.586588
0.583929
0.581202
0.579911
0.579594
0.58008
0.580915
0.581449
0.581745
0.581972
0.582259
0.58263
0.583102
0.583664
0.584332
0.585105
0.586005
0.587032
0.588205
0.589526
0.591012
0.592666
0.594502
0.596524
0.598744
0.601168
0.603803
0.606657
0.609734
0.613042
0.61658
0.620358
0.624373
0.628632
0.633128
0.637869
0.642846
0.648067
0.653516
0.659195
0.665082
0.671205
0.677093
2.32288
1.2295
0.466631
0.405549
0.481613
0.557735
0.588958
0.593663
0.591034
0.588172
0.587179
0.587627
0.588912
0.590728
0.592407
0.593805
0.595131
0.596544
0.598092
0.599773
0.601571
0.603483
0.605508
0.607649
0.609908
0.612287
0.614787
0.617412
0.620162
0.623041
0.62605
0.629193
0.632472
0.63589
0.639451
0.643157
0.647012
0.651018
0.655178
0.659496
0.663973
0.668611
0.673416
0.678387
0.683525
0.688828
0.694294
0.699918
0.705715
0.711255
2.313
1.20678
0.487157
0.432767
0.494542
0.560035
0.587139
0.591309
0.589263
0.587153
0.58658
0.587233
0.58874
0.590729
0.592526
0.594119
0.59569
0.597371
0.599197
0.60117
0.603276
0.60552
0.607894
0.610411
0.613064
0.615865
0.618805
0.621895
0.625127
0.628511
0.632038
0.635719
0.639544
0.643524
0.647648
0.651929
0.656353
0.660934
0.665659
0.67054
0.675564
0.680745
0.686066
0.691544
0.69716
0.70293
0.708835
0.714888
0.721096
0.727038
1.88897
0.809235
0.356343
0.364416
0.416465
0.457089
0.469209
0.469241
0.467664
0.466657
0.467307
0.468935
0.471426
0.474384
0.477325
0.480292
0.483406
0.486734
0.490281
0.494041
0.497999
0.502151
0.506487
0.51101
0.515708
0.520585
0.525626
0.530838
0.536204
0.541733
0.547406
0.553233
0.559195
0.565305
0.571541
0.577918
0.584412
0.591043
0.597784
0.604655
0.61163
0.618732
0.625931
0.633251
0.640662
0.64819
0.655806
0.663541
0.671399
0.678888
1.87416
0.800026
0.355531
0.380596
0.428638
0.460197
0.467736
0.466582
0.464854
0.463976
0.464198
0.46505
0.466604
0.468483
0.470327
0.472176
0.474151
0.476288
0.47861
0.481102
0.483776
0.486625
0.48966
0.492878
0.496288
0.499887
0.503681
0.507669
0.511853
0.516234
0.520808
0.525582
0.530547
0.53571
0.54106
0.546607
0.552333
0.558253
0.564346
0.570628
0.577074
0.583702
0.590486
0.597444
0.604547
0.611816
0.61922
0.626782
0.634494
0.641852
1.87702
0.803159
0.359647
0.395305
0.451654
0.484679
0.490623
0.4871
0.482922
0.480973
0.480963
0.481757
0.483179
0.484839
0.486447
0.488064
0.489818
0.491726
0.49381
0.496044
0.498444
0.500994
0.503714
0.506591
0.50964
0.512854
0.516241
0.519798
0.523529
0.527437
0.531518
0.53578
0.540214
0.544832
0.549621
0.554596
0.559739
0.565069
0.570563
0.576243
0.582084
0.588108
0.594288
0.600646
0.607154
0.613835
0.620657
0.627642
0.634774
0.641585
1.19187
1.05022
0.498694
0.190743
0.00921893
0.10848
0.15925
0.207786
0.229536
0.234029
0.222527
0.211156
0.200874
0.191317
0.179263
0.164792
0.14745
0.127508
0.105672
0.0825275
0.0586901
0.0349858
0.015724
0.0236031
0.047377
0.0717114
0.0959161
0.119639
0.143021
0.165947
0.188496
0.210603
0.232286
0.253457
0.273511
0.292644
0.312226
0.33264
0.352659
0.371865
0.390434
0.408471
0.426054
0.443152
0.459798
0.475948
0.49164
0.506822
0.52154
0.535736
0.549453
0.56263
0.575307
0.587416
0.598992
0.609963
0.620357
0.630098
0.639209
0.647608
0.655318
0.66225
0.66843
0.673769
0.678299
0.681942
0.684746
0.68666
0.687765
0.688113
0.688086
0.687767
0.68683
0.684759
0.681668
0.678233
0.674704
0.671145
0.667591
0.664135
0.660857
0.657857
0.655187
0.652908
0.651033
0.64959
0.648558
0.647936
0.647692
0.647754
0.647992
0.648407
0.649132
0.650313
0.651796
0.653386
0.654997
0.656696
0.65834
0.663048
1.1223
1.03684
0.807298
0.550367
0.503417
0.432099
0.381839
0.340947
0.310492
0.291948
0.260889
0.230798
0.211268
0.209572
0.216697
0.227255
0.23974
0.253687
0.26886
0.284755
0.301162
0.317686
0.334048
0.350295
0.367071
0.384119
0.401327
0.418482
0.435625
0.452606
0.469503
0.486181
0.502721
0.519003
0.534699
0.549659
0.564693
0.580462
0.596371
0.611648
0.626411
0.64084
0.654972
0.66881
0.682325
0.695512
0.708351
0.720842
0.73297
0.744731
0.756111
0.767096
0.777676
0.787823
0.797533
0.806766
0.81552
0.823743
0.83144
0.838543
0.845066
0.85093
0.856156
0.860661
0.864473
0.86752
0.869839
0.87138
0.872198
0.872394
0.872242
0.871786
0.870761
0.868787
0.865886
0.862601
0.859199
0.855772
0.852383
0.849103
0.846015
0.843194
0.840706
0.838588
0.836874
0.835561
0.834653
0.834129
0.833988
0.8341
0.834353
0.83478
0.835437
0.836508
0.837811
0.839242
0.840634
0.842104
0.843312
0.847093
1.07492
1.07615
1.00875
0.900787
0.831879
0.781952
0.745991
0.715912
0.691101
0.673065
0.658165
0.643961
0.633949
0.628913
0.627432
0.627751
0.62935
0.631851
0.635313
0.639657
0.644827
0.650659
0.65705
0.663927
0.671489
0.679682
0.688444
0.697621
0.707177
0.716996
0.72709
0.737354
0.747829
0.758389
0.768761
0.778717
0.788783
0.799585
0.810952
0.82207
0.832886
0.843533
0.854067
0.864501
0.874806
0.884961
0.894944
0.904735
0.914322
0.923681
0.932802
0.94166
0.950243
0.958521
0.966481
0.974089
0.981327
0.988163
0.994572
1.00052
1.00598
1.01092
1.01531
1.01911
1.02231
1.02487
1.0268
1.02805
1.02866
1.02872
1.02851
1.028
1.02699
1.02515
1.02249
1.01947
1.01628
1.01308
1.00992
1.00689
1.00404
1.00147
0.999195