/*--------------------------------*- C++ -*----------------------------------*\
| =========                 |                                                 |
| \\      /  F ield         | OpenFOAM: The Open Source CFD Toolbox           |
|  \\    /   O peration     | Version:  2412                                  |
|   \\  /    A nd           | Website:  www.openfoam.com                      |
|    \\/     M anipulation  |                                                 |
\*---------------------------------------------------------------------------*/
FoamFile
{
    version     2.0;
    format      ascii;
    arch        "LSB;label=32;scalar=64";
    class       volScalarField;
    location    "16.5";
    object      p;
}
// * * * * * * * * * * * * * * * * * * * * * * * * * * * * * * * * * * * * * //

dimensions      [1 -1 -2 0 0 0 0];

internalField   nonuniform List<scalar> 
7000
(
1.63864
3.75388
11.4491
11.5269
11.0966
10.6869
10.5681
10.5827
10.6238
10.6636
10.6855
10.6993
10.7138
10.7316
10.752
10.7742
10.798
10.8235
10.8507
10.8798
10.9106
10.9433
10.9778
11.0142
11.0525
11.0925
11.1344
11.1781
11.2235
11.2705
11.3192
11.3693
11.4208
11.4733
11.5269
11.5811
11.6357
11.6903
11.7446
11.798
11.85
11.9
11.9475
11.9917
12.0319
12.0675
12.0979
12.1223
12.14
12.1529
1.63895
3.75259
11.4486
11.5262
11.0962
10.6865
10.5678
10.5824
10.6234
10.6632
10.685
10.6988
10.7133
10.7311
10.7514
10.7736
10.7975
10.8229
10.8501
10.8791
10.9099
10.9426
10.9771
11.0134
11.0516
11.0917
11.1335
11.1771
11.2225
11.2695
11.3181
11.3682
11.4196
11.4722
11.5257
11.5799
11.6345
11.6892
11.7434
11.7968
11.8489
11.899
11.9466
11.9909
12.0312
12.0669
12.0974
12.122
12.1397
12.1527
1.63884
3.75165
11.4467
11.5254
11.0955
10.6858
10.5671
10.5817
10.6226
10.6623
10.684
10.6978
10.7123
10.7299
10.7502
10.7724
10.7962
10.8215
10.8487
10.8776
10.9083
10.9409
10.9753
11.0116
11.0496
11.0896
11.1313
11.1748
11.22
11.2669
11.3154
11.3653
11.4166
11.469
11.5224
11.5765
11.6309
11.6854
11.7396
11.7929
11.8449
11.8949
11.9424
11.9867
12.0271
12.0628
12.0933
12.1179
12.1355
12.1484
1.63871
3.75037
11.4434
11.5243
11.0945
10.6847
10.5659
10.5804
10.6213
10.6608
10.6825
10.6961
10.7105
10.7281
10.7484
10.7704
10.7941
10.8193
10.8464
10.8752
10.9058
10.9382
10.9725
11.0086
11.0465
11.0862
11.1278
11.1711
11.2161
11.2628
11.311
11.3607
11.4118
11.4639
11.517
11.5709
11.6251
11.6794
11.7333
11.7864
11.8382
11.8882
11.9356
11.9798
12.0201
12.0558
12.0862
12.1108
12.1283
12.1412
1.63854
3.7485
11.4386
11.5229
11.0932
10.6831
10.5642
10.5787
10.6195
10.6588
10.6803
10.6938
10.7081
10.7256
10.7457
10.7676
10.7911
10.8163
10.8431
10.8717
10.9022
10.9344
10.9685
11.0043
11.042
11.0815
11.1228
11.1658
11.2105
11.2569
11.3048
11.3541
11.4048
11.4566
11.5093
11.5628
11.6167
11.6706
11.7242
11.777
11.8286
11.8783
11.9255
11.9696
12.0098
12.0455
12.076
12.1006
12.118
12.1309
1.63832
3.74598
11.4324
11.5211
11.0916
10.681
10.5619
10.5764
10.617
10.6561
10.6774
10.6908
10.705
10.7223
10.7422
10.764
10.7873
10.8122
10.8388
10.8672
10.8974
10.9294
10.9631
10.9987
11.0361
11.0752
11.1161
11.1587
11.203
11.249
11.2964
11.3453
11.3955
11.4468
11.499
11.552
11.6053
11.6588
11.7119
11.7643
11.8155
11.8649
11.9118
11.9557
11.9958
12.0314
12.0618
12.0865
12.1039
12.1169
1.63805
3.74275
11.4245
11.5188
11.0895
10.6783
10.559
10.5734
10.6138
10.6527
10.6738
10.687
10.7009
10.7181
10.7378
10.7593
10.7823
10.807
10.8334
10.8615
10.8913
10.923
10.9564
10.9916
11.0285
11.0672
11.1077
11.1498
11.1936
11.2389
11.2858
11.3341
11.3836
11.4343
11.4858
11.5381
11.5908
11.6436
11.6961
11.7479
11.7985
11.8474
11.894
11.9376
11.9775
12.0129
12.0433
12.068
12.0853
12.0986
1.63774
3.73876
11.4148
11.5161
11.087
10.6751
10.5554
10.5697
10.6099
10.6485
10.6693
10.6822
10.696
10.7128
10.7323
10.7535
10.7763
10.8006
10.8266
10.8544
10.8839
10.9151
10.9481
10.9828
11.0192
11.0574
11.0972
11.1387
11.1818
11.2265
11.2727
11.3201
11.3689
11.4187
11.4695
11.5209
11.5727
11.6246
11.6763
11.7273
11.7772
11.8255
11.8715
11.9146
11.9541
11.9894
12.0196
12.0443
12.0617
12.0753
1.63737
3.73396
11.4032
11.5128
11.084
10.6713
10.5511
10.5652
10.6051
10.6434
10.6639
10.6765
10.69
10.7066
10.7257
10.7466
10.769
10.7929
10.8186
10.8459
10.8749
10.9056
10.938
10.9722
11.008
11.0455
11.0846
11.1254
11.1677
11.2115
11.2568
11.3033
11.3511
11.3999
11.4495
11.4999
11.5506
11.6014
11.6521
11.702
11.751
11.7983
11.8435
11.886
11.9251
11.96
11.99
12.0147
12.0321
12.046
1.63694
3.72829
11.3896
11.5089
11.0805
10.6667
10.5459
10.5599
10.5995
10.6374
10.6575
10.6698
10.6829
10.6991
10.7178
10.7383
10.7603
10.7838
10.809
10.8358
10.8642
10.8944
10.9261
10.9596
10.9947
11.0314
11.0697
11.1095
11.1509
11.1937
11.2378
11.2833
11.3298
11.3774
11.4257
11.4747
11.5241
11.5736
11.6228
11.6715
11.7191
11.7653
11.8094
11.8509
11.8892
11.9236
11.9533
11.9779
11.9953
12.0095
1.63645
3.72172
11.3739
11.5044
11.0764
10.6615
10.5399
10.5537
10.5928
10.6303
10.6499
10.6619
10.6746
10.6904
10.7087
10.7287
10.7502
10.7732
10.7977
10.8239
10.8518
10.8812
10.9122
10.9449
10.9791
11.0149
11.0522
11.091
11.1312
11.1728
11.2157
11.2597
11.3048
11.3509
11.3977
11.445
11.4927
11.5405
11.588
11.6349
11.6809
11.7254
11.7681
11.8083
11.8454
11.8789
11.908
11.9323
11.9497
11.9643
1.6359
3.71419
11.3559
11.4993
11.0716
10.6554
10.533
10.5465
10.5851
10.622
10.6412
10.6527
10.6649
10.6802
10.698
10.7175
10.7384
10.7608
10.7847
10.8102
10.8373
10.866
10.8962
10.9279
10.9611
10.9958
11.032
11.0695
11.1084
11.1486
11.1899
11.2324
11.2758
11.32
11.3649
11.4103
11.4559
11.5015
11.5469
11.5916
11.6354
11.6778
11.7184
11.7567
11.7922
11.8243
11.8524
11.8762
11.8933
11.9083
1.63529
3.70567
11.3356
11.4933
11.0662
10.6485
10.525
10.5382
10.5762
10.6125
10.6311
10.6421
10.6538
10.6686
10.6858
10.7047
10.7249
10.7466
10.7698
10.7946
10.8208
10.8485
10.8777
10.9084
10.9405
10.9739
11.0088
11.0449
11.0822
11.1208
11.1603
11.2009
11.2423
11.2844
11.327
11.37
11.4131
11.4561
11.4987
11.5407
11.5816
11.6211
11.6589
11.6946
11.7276
11.7575
11.7839
11.8065
11.8231
11.8388
1.63462
3.69609
11.313
11.4865
11.06
10.6408
10.5159
10.5287
10.5659
10.6016
10.6196
10.63
10.6411
10.6553
10.6718
10.69
10.7096
10.7305
10.7529
10.7767
10.802
10.8287
10.8568
10.8862
10.917
10.9491
10.9824
11.0169
11.0525
11.0891
11.1266
11.165
11.204
11.2436
11.2836
11.3237
11.3638
11.4035
11.4428
11.4812
11.5184
11.5541
11.5881
11.6199
11.6492
11.6758
11.6994
11.7199
11.7352
11.7511
1.6339
3.68548
11.288
11.4789
11.053
10.6321
10.5057
10.518
10.5543
10.5891
10.6065
10.6163
10.6267
10.6402
10.656
10.6735
10.6922
10.7123
10.7337
10.7566
10.7808
10.8063
10.8332
10.8613
10.8906
10.921
10.9526
10.9853
11.0188
11.0533
11.0885
11.1243
11.1607
11.1973
11.2341
11.2708
11.3072
11.3431
11.3781
11.412
11.4445
11.4752
11.5039
11.5302
11.554
11.5752
11.5938
11.6105
11.6233
11.6395
1.6331
3.6739
11.2606
11.4705
11.0454
10.6224
10.4941
10.5058
10.541
10.575
10.5917
10.6007
10.6105
10.6232
10.6382
10.6548
10.6727
10.6918
10.7122
10.734
10.757
10.7812
10.8067
10.8333
10.8609
10.8896
10.9193
10.9498
10.9811
11.0131
11.0457
11.0786
11.1118
11.1451
11.1782
11.2109
11.2429
11.2741
11.3039
11.3322
11.3585
11.3826
11.404
11.4226
11.4382
11.4511
11.4616
11.471
11.4782
11.4931
1.63225
3.66138
11.2308
11.4614
11.037
10.6117
10.4811
10.4921
10.5261
10.5591
10.575
10.5833
10.5922
10.6041
10.6183
10.6339
10.6508
10.6689
10.6883
10.7088
10.7305
10.7533
10.7772
10.8021
10.828
10.8547
10.8822
10.9104
10.9392
10.9684
10.9979
11.0276
11.0572
11.0866
11.1154
11.1434
11.1703
11.1958
11.2193
11.2406
11.2592
11.2744
11.2861
11.2938
11.2969
11.2963
11.2928
11.2885
11.2845
11.2952
1.63135
3.64803
11.199
11.4516
11.0278
10.5997
10.4664
10.4767
10.5091
10.541
10.5561
10.5636
10.5717
10.5827
10.5959
10.6106
10.6265
10.6435
10.6616
10.6808
10.7011
10.7223
10.7446
10.7676
10.7915
10.816
10.8412
10.8668
10.8927
10.9189
10.945
10.971
10.9966
11.0215
11.0455
11.0681
11.0889
11.1076
11.1236
11.1363
11.1451
11.149
11.1474
11.1404
11.1255
11.1036
11.0757
11.045
11.0148
11.0111
1.63042
3.63404
11.1656
11.4411
11.0178
10.5864
10.45
10.4593
10.49
10.5208
10.5351
10.5418
10.549
10.559
10.5713
10.5849
10.5996
10.6154
10.6322
10.65
10.6687
10.6883
10.7087
10.7297
10.7514
10.7735
10.7961
10.8189
10.8417
10.8645
10.8869
10.9088
10.9299
10.9498
10.9682
10.9847
10.9986
11.0094
11.0165
11.0185
11.0157
11.0061
10.9868
10.9577
10.9169
10.8626
10.7934
10.7114
10.6209
10.5655
1.6295
3.61959
11.1316
11.4299
11.0069
10.5715
10.4313
10.4394
10.468
10.4977
10.5111
10.517
10.5234
10.5324
10.5436
10.5562
10.5698
10.5843
10.5997
10.616
10.6331
10.6508
10.6692
10.6881
10.7074
10.727
10.7467
10.7664
10.7859
10.8049
10.8233
10.8407
10.8567
10.8711
10.8833
10.8928
10.899
10.9005
10.8977
10.8888
10.8703
10.8421
10.8013
10.745
10.6681
10.565
10.4271
10.2461
10.0123
9.75789
1.62874
3.60121
11.0911
11.4167
10.9932
10.5521
10.4064
10.413
10.4388
10.4671
10.4798
10.4848
10.49
10.4978
10.5077
10.5188
10.5309
10.5438
10.5574
10.5718
10.5867
10.6022
10.6181
10.6342
10.6505
10.6668
10.6829
10.6987
10.7139
10.7282
10.7414
10.753
10.7628
10.7701
10.7743
10.7742
10.7714
10.7625
10.7445
10.7178
10.68
10.6279
10.5572
10.4611
10.3302
10.1478
9.88471
9.47948
8.78107
7.25872
1.62795
3.58176
11.048
11.3994
10.974
10.5237
10.3701
10.3747
10.3973
10.4248
10.4374
10.4418
10.4461
10.4527
10.4613
10.4711
10.4816
10.4927
10.5043
10.5164
10.5289
10.5417
10.5545
10.5674
10.5801
10.5925
10.6044
10.6154
10.6255
10.6341
10.6411
10.6459
10.6478
10.6468
10.6426
10.6327
10.6157
10.5913
10.5576
10.5119
10.4514
10.3712
10.2647
10.1224
9.92936
9.66167
9.27779
8.70879
7.86636
6.47967
1.62749
3.57048
11.0231
11.3878
10.9585
10.4954
10.3309
10.3331
10.3519
10.3792
10.3918
10.3956
10.3987
10.404
10.4112
10.4195
10.4283
10.4376
10.4471
10.4569
10.4668
10.4768
10.4866
10.4961
10.5051
10.5135
10.5209
10.5272
10.5319
10.5347
10.535
10.5335
10.5287
10.5185
10.5031
10.4817
10.4528
10.4146
10.365
10.301
10.2186
10.1128
9.97545
9.79674
9.56138
9.24815
8.82785
8.26019
7.52818
6.55489
1.62686
3.5613
10.9998
11.3664
10.9305
10.4499
10.2759
10.2781
10.2984
10.3291
10.3432
10.3467
10.3489
10.3533
10.3595
10.3666
10.3739
10.3813
10.3888
10.3963
10.4036
10.4107
10.4174
10.4235
10.4289
10.4332
10.4363
10.4376
10.4372
10.4351
10.4299
10.4204
10.4071
10.3888
10.3646
10.3334
10.2935
10.2431
10.1797
10.1002
10.0008
9.87629
9.71981
9.5226
9.2735
8.95869
8.56356
8.07236
7.49179
6.76244
1.6275
3.59583
11.061
11.3637
10.9032
10.3843
10.1989
10.2042
10.2323
10.2702
10.2867
10.2903
10.2921
10.2957
10.3014
10.3076
10.3137
10.3196
10.3253
10.3308
10.3359
10.3404
10.3443
10.3474
10.3494
10.3499
10.3492
10.3469
10.3418
10.3336
10.3222
10.307
10.2871
10.2619
10.2301
10.1904
10.1414
10.0811
10.0072
9.91696
9.80672
9.67216
9.50796
9.30779
9.06439
8.76998
8.41732
7.99924
7.51815
6.96683
1.58974
3.7065
11.0659
11.2723
10.8222
10.3028
10.1298
10.1397
10.1762
10.2162
10.2327
10.2366
10.2386
10.2423
10.2472
10.2521
10.2566
10.2607
10.2643
10.2674
10.2699
10.2717
10.2725
10.2723
10.2712
10.2684
10.2631
10.2559
10.2461
10.2332
10.2168
10.1962
10.1707
10.1393
10.101
10.0546
9.99856
9.93116
9.85036
9.75366
9.63816
9.50044
9.33663
9.1424
8.91331
8.64489
8.3338
7.97736
7.57759
7.12972
1.55443
4.81462
11.2178
10.95
10.311
10.0537
10.0487
10.0753
10.1227
10.1493
10.159
10.1633
10.1676
10.1727
10.1778
10.1824
10.1863
10.1895
10.1919
10.1935
10.1941
10.1939
10.1929
10.1905
10.186
10.1801
10.1724
10.1623
10.1493
10.1328
10.1123
10.0873
10.0572
10.0209
9.97772
9.92635
9.86557
9.79379
9.70924
9.60986
9.49338
9.35722
9.19865
9.01477
8.80287
8.56051
8.28624
7.98004
7.64322
7.26854
1.55533
4.82167
11.1677
10.8807
10.2382
9.99853
10.0084
10.0505
10.0991
10.1209
10.127
10.1296
10.1327
10.1359
10.1385
10.1402
10.1409
10.1408
10.1401
10.1384
10.1353
10.1314
10.1265
10.1202
10.1123
10.1024
10.0902
10.0755
10.058
10.0373
10.0129
9.98426
9.95056
9.91072
9.8638
9.80895
9.74496
9.67058
9.58442
9.48484
9.3701
9.23828
9.08749
8.91576
8.7215
8.50326
8.26034
7.99223
7.70523
7.38903
1.56549
4.84075
11.2303
10.9007
10.1819
9.92104
9.93588
9.99021
10.0476
10.0722
10.0786
10.0814
10.0848
10.0882
10.0905
10.0916
10.0915
10.0905
10.0882
10.084
10.0789
10.0726
10.0649
10.0556
10.0445
10.0312
10.0157
9.99761
9.97665
9.95241
9.92423
9.89147
9.85354
9.81005
9.76028
9.70318
9.63783
9.56279
9.47687
9.37879
9.26741
9.14122
8.99907
8.83961
8.66187
8.46517
8.24982
8.01562
7.76643
7.49588
1.55581
4.81897
11.1544
10.8488
10.1577
9.89618
9.908
9.95689
10.0131
10.0375
10.0432
10.0447
10.0467
10.0486
10.0494
10.049
10.0474
10.0441
10.0393
10.0334
10.0263
10.0179
10.0078
9.99598
9.98218
9.96621
9.94778
9.92671
9.90259
9.87513
9.84377
9.80811
9.76765
9.72169
9.66962
9.61051
9.54363
9.46817
9.38334
9.28804
9.18135
9.06202
8.92905
8.78161
8.61941
8.44239
8.25073
8.04383
7.82535
7.59051
1.52659
4.76143
10.9467
10.7239
10.1489
9.9007
9.90138
9.93045
9.97913
10.0025
10.0084
10.0092
10.0098
10.0101
10.0097
10.008
10.0044
9.99933
9.99312
9.98574
9.97694
9.96657
9.95445
9.94047
9.92439
9.90612
9.88531
9.86183
9.83522
9.80527
9.77157
9.73369
9.69117
9.64342
9.58996
9.53012
9.46325
9.38863
9.30556
9.2132
9.11074
8.99762
8.87333
8.73741
8.58936
8.42887
8.25606
8.07304
7.88026
7.67419
1.5105
4.71591
10.8634
10.729
10.2323
9.9393
9.88708
9.90534
9.94471
9.9689
9.97571
9.97546
9.97434
9.97207
9.96919
9.96539
9.96033
9.95399
9.94636
9.93741
9.92694
9.91488
9.90102
9.88531
9.86748
9.84743
9.82482
9.79951
9.77113
9.73943
9.70408
9.66468
9.62091
9.57226
9.51823
9.45833
9.39208
9.3189
9.23823
9.14943
9.05198
8.94537
8.82922
8.7032
8.56719
8.42128
8.2658
8.10143
7.9294
7.74674
1.66776
3.2904
10.5004
11.0105
10.5952
10.0752
9.88677
9.89066
9.91584
9.94895
9.95973
9.95858
9.95466
9.94834
9.94252
9.93661
9.92973
9.9215
9.91187
9.90082
9.88829
9.8741
9.8581
9.84032
9.82046
9.79835
9.77369
9.74639
9.71607
9.68258
9.64555
9.60467
9.55957
9.50989
9.45522
9.39523
9.32956
9.25777
9.17943
9.0941
9.0013
8.90071
8.79209
8.67518
8.54997
8.41661
8.27539
8.12681
7.97204
7.80859
1.67566
3.16659
10.4341
11.1627
10.7144
10.1102
9.86501
9.85201
9.86973
9.90194
9.91241
9.91056
9.90458
9.89526
9.88765
9.88114
9.87421
9.86603
9.85638
9.84526
9.8326
9.81828
9.80215
9.78402
9.76378
9.74122
9.71608
9.68823
9.65735
9.6233
9.58576
9.54454
9.49937
9.44997
9.39609
9.33732
9.27326
9.20356
9.12792
9.04592
8.95729
8.86191
8.75974
8.65091
8.53526
8.41286
8.2839
8.14882
8.00859
7.86109
1.64095
3.05193
9.90516
11.0062
10.6467
10.1076
9.8842
9.86322
9.87419
9.89252
9.89421
9.89027
9.88014
9.8668
9.85564
9.84596
9.83618
9.82544
9.81349
9.80027
9.78573
9.76972
9.75206
9.7326
9.71115
9.68753
9.66156
9.63297
9.60152
9.56701
9.52928
9.48807
9.44315
9.39425
9.3411
9.28339
9.22085
9.15322
9.08026
9.00185
8.91792
8.82824
8.7326
8.63085
8.52291
8.40909
8.29024
8.16673
8.03901
7.90511
1.43522
4.5478
10.3307
10.509
10.2169
9.92249
9.81455
9.8119
9.82017
9.83068
9.83061
9.82709
9.81807
9.80612
9.79589
9.78678
9.7773
9.7667
9.75482
9.74164
9.72711
9.71107
9.69337
9.67384
9.65235
9.62869
9.60273
9.5742
9.54294
9.50884
9.47167
9.43116
9.38712
9.33933
9.28758
9.23162
9.17124
9.10626
9.03652
8.96187
8.88219
8.79737
8.70732
8.61207
8.512
8.40724
8.29768
8.1835
8.06573
7.9429
1.63325
3.00052
9.71995
10.8937
10.5794
10.0791
9.85938
9.82497
9.83031
9.83678
9.83403
9.82489
9.80822
9.79243
9.77884
9.76629
9.75348
9.73966
9.72465
9.70857
9.69141
9.67294
9.65299
9.63139
9.60797
9.58262
9.55514
9.52551
9.49356
9.45896
9.42152
9.38103
9.33733
9.29028
9.23965
9.18522
9.12681
9.06425
8.99741
8.92616
8.85042
8.77015
8.68535
8.59607
8.50245
8.40461
8.30271
8.19712
8.08844
7.97542
1.64211
2.93229
9.72109
11.019
10.6381
10.0468
9.78923
9.75557
9.76572
9.78139
9.78031
9.77318
9.75724
9.74016
9.72633
9.71421
9.70198
9.68891
9.6748
9.65945
9.6427
9.62451
9.60478
9.58338
9.5602
9.53509
9.50788
9.47845
9.44666
9.41231
9.37528
9.33542
9.29256
9.24647
9.19701
9.14409
9.08757
9.02733
8.96327
8.89531
8.82337
8.74741
8.66743
8.58348
8.49564
8.40405
8.30892
8.21069
8.10979
8.00497
1.64043
2.913
9.6666
10.9974
10.6131
10.0067
9.73971
9.70443
9.71556
9.73391
9.73341
9.72719
9.71223
9.69464
9.68052
9.66847
9.6564
9.64335
9.6291
9.61357
9.5967
9.57843
9.55864
9.53722
9.51404
9.48898
9.4619
9.43268
9.40118
9.36728
9.33084
9.29173
9.24979
9.20489
9.1569
9.1057
9.05122
8.99337
8.93207
8.86726
8.79887
8.72689
8.65132
8.57222
8.48972
8.40395
8.31498
8.22317
8.12897
8.03125
1.62606
2.92164
9.49859
10.8564
10.5471
9.99597
9.74009
9.69203
9.69671
9.70499
9.70267
9.69414
9.67694
9.66022
9.64591
9.63284
9.61964
9.6056
9.59051
9.57428
9.55684
9.53809
9.5179
9.49617
9.47277
9.44757
9.42046
9.39133
9.36005
9.32652
9.29058
9.25212
9.21102
9.16721
9.12061
9.07113
9.01865
8.96308
8.90435
8.84246
8.77734
8.709
8.63745
8.56275
8.485
8.40432
8.32092
8.23493
8.14665
8.05504
1.39344
4.48055
10.0299
10.301
10.0207
9.73326
9.62538
9.6162
9.6216
9.62818
9.62712
9.62191
9.61061
9.59792
9.58648
9.57564
9.5643
9.55187
9.53816
9.52311
9.50672
9.4889
9.46959
9.44869
9.42611
9.40174
9.37547
9.34721
9.31687
9.28437
9.24958
9.21242
9.17278
9.1306
9.08579
9.03827
8.98795
8.93476
8.8787
8.81971
8.75782
8.69305
8.62537
8.55483
8.48146
8.40537
8.32677
8.24571
8.16257
8.07636
1.63129
2.94536
9.58606
10.8397
10.4963
9.90724
9.63343
9.59087
9.60114
9.62159
9.62319
9.61853
9.60615
9.58884
9.57392
9.56081
9.54761
9.53336
9.51781
9.50093
9.48282
9.46331
9.44243
9.42018
9.39649
9.37124
9.34426
9.31547
9.28474
9.25199
9.21719
9.18031
9.14129
9.1
9.05636
9.01029
8.96172
8.91061
8.85688
8.80047
8.74137
8.67956
8.61509
8.54802
8.47843
8.40643
8.33216
8.25568
8.17723
8.09587
1.6415
3.07523
9.85972
10.7715
10.3896
9.77746
9.51522
9.49491
9.51222
9.54506
9.55456
9.55191
9.54357
9.52935
9.51688
9.50602
9.49497
9.48268
9.46894
9.45383
9.43749
9.41987
9.40076
9.38002
9.35757
9.33337
9.30743
9.27969
9.25009
9.21859
9.18513
9.14961
9.11195
9.07208
9.02995
8.98549
8.93867
8.88944
8.83777
8.78366
8.7271
8.66815
8.60682
8.54307
8.47697
8.4086
8.33805
8.26545
8.19099
8.11381
1.4036
4.54451
10.0987
10.1556
9.85023
9.54299
9.44346
9.44875
9.46812
9.48812
9.49387
9.49237
9.48735
9.47792
9.4686
9.45956
9.4498
9.43872
9.42615
9.41214
9.39671
9.3798
9.36135
9.34128
9.31956
9.29615
9.27104
9.24417
9.21548
9.1849
9.15244
9.11805
9.08166
9.0432
9.00264
8.95991
8.91499
8.86784
8.81843
8.76676
8.7128
8.65656
8.59808
8.53743
8.47464
8.40976
8.34287
8.274
8.20333
8.13007
1.38753
4.55433
9.99522
10.0215
9.78012
9.54824
9.46593
9.46322
9.46936
9.47876
9.48046
9.47839
9.47247
9.46245
9.45216
9.44176
9.43057
9.41819
9.40452
9.38956
9.37331
9.35574
9.3368
9.31642
9.29455
9.27114
9.24614
9.2195
9.1912
9.16119
9.12936
9.09567
9.06006
9.02248
8.9829
8.94128
8.89758
8.85174
8.80384
8.75397
8.70208
8.6481
8.59203
8.5339
8.47375
8.41159
8.3475
8.28161
8.21407
8.14412
1.42076
4.56772
10.2074
10.1782
9.79539
9.45982
9.36642
9.37836
9.40957
9.4341
9.44106
9.4397
9.43511
9.42653
9.41758
9.40848
9.39853
9.38725
9.37452
9.36033
9.34471
9.32762
9.30905
9.28901
9.26747
9.24439
9.21973
9.19348
9.16562
9.13609
9.10484
9.07184
9.03702
9.00039
8.96194
8.92166
8.87952
8.83556
8.78964
8.74171
8.69178
8.63989
8.58608
8.53037
8.47276
8.41331
8.35206
8.28908
8.22446
8.15739
1.53198
3.3502
9.88253
10.7037
10.3165
9.67402
9.38974
9.36371
9.38133
9.4172
9.43141
9.4304
9.42577
9.41602
9.40556
9.39556
9.38513
9.37349
9.36041
9.3459
9.33001
9.31274
9.29409
9.27399
9.2524
9.2293
9.20457
9.17822
9.15036
9.12088
9.08972
9.05685
9.02231
8.98608
8.94813
8.90845
8.86702
8.82383
8.77885
8.73207
8.6835
8.63319
8.58104
8.52708
8.4714
8.41408
8.35513
8.29462
8.23265
8.16851
1.39594
4.53303
10.0608
10.0914
9.78862
9.46365
9.34164
9.34001
9.3514
9.37284
9.38167
9.38098
9.37748
9.36985
9.3609
9.35215
9.34296
9.33261
9.32082
9.30758
9.29292
9.27686
9.25937
9.24041
9.21994
9.19794
9.17437
9.14924
9.12257
9.09433
9.0645
9.03309
9.00006
8.96534
8.92889
8.89071
8.8508
8.80916
8.76578
8.72065
8.67377
8.62513
8.57485
8.52296
8.46946
8.41435
8.35768
8.29952
8.23999
8.17856
1.39333
4.53015
10.0434
10.0784
9.77203
9.44425
9.32401
9.32428
9.33679
9.35953
9.36893
9.36805
9.36401
9.35544
9.34577
9.33629
9.32633
9.31523
9.30273
9.28885
9.27365
9.25715
9.23934
9.22018
9.19967
9.17776
9.15448
9.12979
9.10359
9.07583
9.04649
9.01555
8.98302
8.94894
8.91328
8.87605
8.8372
8.79671
8.75459
8.71084
8.66545
8.61845
8.56985
8.51969
8.46796
8.41469
8.35993
8.30371
8.24612
8.18667
1.53018
3.33825
9.84325
10.6846
10.2989
9.63418
9.32991
9.29393
9.31045
9.34521
9.36046
9.35958
9.35503
9.34521
9.33438
9.32442
9.31436
9.30331
9.29089
9.27712
9.26202
9.24562
9.22788
9.2088
9.18833
9.16638
9.14312
9.11841
9.09222
9.06452
9.03531
9.00458
8.97236
8.93866
8.90344
8.8667
8.82843
8.78862
8.74727
8.70438
8.65996
8.61401
8.56656
8.51762
8.46721
8.41538
8.36213
8.30754
8.25169
8.19417
1.40739
4.54668
10.1135
10.0879
9.70357
9.35059
9.24016
9.24937
9.27859
9.30759
9.31722
9.3163
9.31242
9.30438
9.29572
9.28723
9.27819
9.26799
9.25642
9.2435
9.22928
9.21377
9.19696
9.17883
9.15934
9.13848
9.11624
9.09261
9.06755
9.04103
9.01304
8.98362
8.95275
8.92041
8.88657
8.85123
8.81439
8.77605
8.73622
8.69488
8.65201
8.60762
8.56173
8.51436
8.46555
8.41531
8.36365
8.31066
8.25644
8.20057
1.39231
4.55454
10.0026
9.97736
9.66536
9.38506
9.2964
9.29937
9.31146
9.32226
9.32281
9.32032
9.31371
9.30361
9.29357
9.28365
9.27313
9.26158
9.24889
9.23502
9.21999
9.2038
9.18644
9.16787
9.14808
9.12702
9.10469
9.08107
9.05612
9.02985
9.00225
8.97326
8.94284
8.91098
8.87767
8.84291
8.80667
8.76897
8.72981
8.68921
8.64718
8.60375
8.55888
8.5126
8.46492
8.41585
8.36544
8.31368
8.26061
8.20579
1.38433
4.54688
9.95398
9.94312
9.6554
9.38378
9.29138
9.29059
9.29672
9.30439
9.30443
9.30217
9.29602
9.2861
9.27616
9.26635
9.25601
9.2447
9.23231
9.21883
9.20424
9.18852
9.17161
9.15351
9.13418
9.11359
9.09174
9.06859
9.04414
9.01836
8.99123
8.96274
8.93286
8.90159
8.86893
8.83487
8.79943
8.76258
8.72431
8.68462
8.64351
8.60099
8.55706
8.51173
8.46505
8.41708
8.36777
8.31709
8.26508
8.21127
1.37641
4.5082
9.91409
10.0276
9.72762
9.39985
9.27854
9.27442
9.28299
9.2953
9.29737
9.29501
9.28832
9.27725
9.26653
9.25638
9.24589
9.23448
9.22195
9.2083
9.19355
9.17767
9.16065
9.14247
9.1231
9.10252
9.08071
9.05766
9.03334
9.00775
8.98086
8.95266
8.92313
8.89226
8.86005
8.82648
8.79155
8.75526
8.71759
8.67854
8.63813
8.59637
8.55327
8.50886
8.46311
8.416
8.36757
8.31786
8.26693
8.2144
1.62594
2.96691
9.51541
10.6144
10.2704
9.64446
9.3346
9.26848
9.27599
9.29412
9.30155
9.2993
9.29175
9.27736
9.26415
9.25282
9.24194
9.2304
9.21775
9.20397
9.1891
9.17316
9.15612
9.13796
9.11865
9.09814
9.07643
9.0535
9.02932
9.00387
8.97715
8.94913
8.91981
8.88916
8.85718
8.82387
8.78922
8.75323
8.71589
8.67721
8.63719
8.59584
8.55318
8.50921
8.46395
8.41741
8.36965
8.32075
8.27076
8.21937
1.63524
2.85139
9.47712
10.8185
10.4126
9.67396
9.30628
9.22795
9.23845
9.26434
9.27899
9.27778
9.27164
9.25825
9.2441
9.23251
9.22206
9.21113
9.19905
9.18574
9.17129
9.15578
9.13917
9.12146
9.1026
9.08257
9.06135
9.03892
9.01527
8.99037
8.96421
8.93678
8.90806
8.87805
8.84673
8.81409
8.78014
8.74486
8.70826
8.67033
8.63108
8.59051
8.54864
8.50545
8.46097
8.41523
8.36828
8.32015
8.27093
8.22036
1.62631
2.96005
9.50015
10.6049
10.2609
9.62831
9.31038
9.24245
9.25079
9.27131
9.28146
9.27958
9.27252
9.25809
9.24421
9.23248
9.22152
9.21001
9.19743
9.18373
9.16898
9.15321
9.1364
9.11853
9.09956
9.07946
9.05822
9.0358
9.01219
8.98737
8.96133
8.93404
8.9055
8.87569
8.84459
8.81221
8.77853
8.74355
8.70727
8.66968
8.63078
8.59059
8.5491
8.50633
8.46229
8.417
8.37048
8.32274
8.27385
8.22341
1.37338
4.50492
9.89476
10.0079
9.70375
9.36176
9.233
9.22844
9.23793
9.25243
9.25553
9.2533
9.24678
9.23579
9.22517
9.21522
9.20502
9.19395
9.18182
9.16863
9.15441
9.13916
9.12287
9.1055
9.08704
9.06745
9.04673
9.02483
9.00176
8.97748
8.95199
8.92526
8.89728
8.86805
8.83754
8.80575
8.77266
8.73829
8.70261
8.66563
8.62734
8.58776
8.54687
8.50469
8.46124
8.41653
8.37056
8.32333
8.27483
8.22458
1.37917
4.54027
9.91956
9.90256
9.60359
9.32662
9.2386
9.24084
9.25146
9.26139
9.26161
9.25901
9.25204
9.24119
9.23056
9.22027
9.20956
9.19796
9.18535
9.17174
9.15715
9.14156
9.12495
9.10728
9.08854
9.0687
9.04774
9.02565
9.00239
8.97796
8.95233
8.92549
8.89742
8.86812
8.83756
8.80575
8.77267
8.73831
8.70267
8.66575
8.62755
8.58806
8.54731
8.50528
8.462
8.41747
8.37172
8.32474
8.27657
8.22687
1.4034
4.56145
10.05
9.98317
9.58872
9.27262
9.1896
9.20115
9.2308
9.25121
9.25377
9.25111
9.24406
9.23367
9.2237
9.214
9.20372
9.19244
9.1801
9.16673
9.15236
9.13698
9.12057
9.1031
9.08456
9.06492
9.04415
9.02225
8.99919
8.97495
8.94952
8.92287
8.895
8.86589
8.83553
8.80391
8.77103
8.73686
8.70142
8.66469
8.62669
8.5874
8.54683
8.505
8.46191
8.41758
8.37203
8.32528
8.27738
8.2281
3.04257
2.45552
2.99773
4.17666
4.12283
4.10731
4.04657
4.0088
3.99574
3.99826
4.02554
4.0688
4.10578
4.13654
4.17059
4.21336
4.26503
4.32314
4.3848
4.44774
4.51023
4.57103
4.62971
4.68672
4.73778
4.78322
4.82297
4.8575
4.88667
4.91079
4.92979
4.94391
4.95323
4.95801
4.9584
4.95677
4.95141
4.94006
4.92454
4.9067
4.88659
4.86416
4.83952
4.81295
4.78471
4.75507
4.72428
4.69259
4.66022
4.62741
4.59435
4.56128
4.52837
4.49584
4.46388
4.43269
4.40246
4.3734
4.34569
4.31953
4.29512
4.27263
4.25226
4.23418
4.21854
4.20548
4.1951
4.18744
4.1825
4.18023
4.18029
4.18095
4.18315
4.18837
4.19895
4.21165
4.22478
4.23809
4.25146
4.26464
4.2773
4.28909
4.29973
4.30902
4.31683
4.3231
4.3278
4.33098
4.33276
4.3333
4.33322
4.33282
4.3317
4.32926
4.32512
4.32057
4.31593
4.31117
4.30614
4.30186
4.09462
3.55068
3.75264
4.23078
4.14929
4.09286
4.03383
3.99359
3.98165
3.99361
4.03423
4.08433
4.11607
4.1382
4.16735
4.20828
4.25953
4.31755
4.37908
4.44192
4.50432
4.56526
4.62422
4.68096
4.73211
4.77755
4.81743
4.85206
4.8814
4.90563
4.92476
4.93898
4.94838
4.95318
4.95339
4.9522
4.94792
4.93787
4.92082
4.90234
4.8824
4.8603
4.83592
4.80951
4.78139
4.75186
4.72119
4.68961
4.65734
4.62463
4.59166
4.55867
4.52584
4.49338
4.46149
4.43035
4.40018
4.37116
4.34348
4.31736
4.29297
4.27051
4.25016
4.2321
4.21649
4.20346
4.19314
4.18558
4.18082
4.17895
4.17911
4.17992
4.18223
4.18744
4.19795
4.2108
4.22428
4.23792
4.25153
4.26489
4.27769
4.2896
4.30034
4.30971
4.31756
4.32383
4.32853
4.3317
4.33341
4.33386
4.33375
4.33333
4.33221
4.32978
4.32554
4.32086
4.31613
4.31143
4.30661
4.30395
5.22382
4.46212
4.23255
4.26447
4.24554
4.19351
4.11204
4.05927
4.03889
4.04121
4.05335
4.08208
4.11741
4.14877
4.18202
4.22275
4.27172
4.32729
4.38669
4.44766
4.50848
4.568
4.6254
4.68001
4.7303
4.77523
4.81468
4.84883
4.87773
4.90153
4.92029
4.93415
4.9432
4.94755
4.94747
4.94637
4.9427
4.93403
4.91666
4.89721
4.87666
4.85445
4.83019
4.80394
4.77595
4.74653
4.71596
4.68449
4.65235
4.61977
4.58693
4.55405
4.52134
4.48898
4.45719
4.42615
4.39606
4.36713
4.33953
4.31349
4.28917
4.26679
4.24652
4.22854
4.21302
4.20012
4.18994
4.18259
4.17816
4.17703
4.17728
4.17827
4.18078
4.18622
4.19677
4.20965
4.22352
4.23767
4.25176
4.2655
4.27859
4.29073
4.30164
4.31112
4.31903
4.3253
4.32993
4.33299
4.33468
4.33491
4.33477
4.33427
4.33304
4.33042
4.32609
4.32128
4.31642
4.31175
4.3071
4.30613
5.82728
5.09375
4.66012
4.46365
4.42496
4.35974
4.26799
4.18775
4.1357
4.11494
4.11712
4.1279
4.15359
4.19063
4.22428
4.25926
4.30016
4.34788
4.40092
4.457
4.51409
4.57068
4.62556
4.67795
4.72645
4.77029
4.80896
4.84236
4.87057
4.89376
4.91197
4.92532
4.93389
4.93768
4.93751
4.93638
4.93299
4.92517
4.90922
4.88905
4.86762
4.84498
4.82071
4.79467
4.76695
4.7378
4.70749
4.67629
4.64441
4.61207
4.57949
4.54685
4.51437
4.48225
4.45067
4.41985
4.38997
4.36124
4.33385
4.308
4.28387
4.26167
4.24159
4.2238
4.20849
4.1958
4.18589
4.17891
4.175
4.17459
4.17494
4.17613
4.179
4.185
4.1955
4.20839
4.22258
4.23731
4.252
4.26626
4.27974
4.29215
4.30325
4.31284
4.3208
4.32707
4.33167
4.33468
4.33615
4.33613
4.33592
4.33528
4.33381
4.33081
4.32652
4.32167
4.31669
4.31203
4.30758
4.30767
6.23041
5.59511
5.11991
4.83052
4.68171
4.56913
4.45812
4.35679
4.27925
4.23149
4.21137
4.21225
4.21838
4.23452
4.26686
4.29978
4.33614
4.37746
4.42358
4.47334
4.52518
4.57754
4.62896
4.67828
4.72448
4.76659
4.804
4.83626
4.86346
4.88583
4.90325
4.91587
4.9238
4.92682
4.92656
4.92531
4.92193
4.91446
4.89934
4.87953
4.85767
4.83447
4.80991
4.78387
4.75635
4.7275
4.69751
4.66662
4.63505
4.60303
4.57075
4.53842
4.50624
4.47442
4.44315
4.41263
4.38305
4.35462
4.32753
4.30197
4.27814
4.25624
4.23646
4.21898
4.20398
4.19164
4.18213
4.17563
4.17237
4.17242
4.17292
4.1744
4.17776
4.18463
4.19506
4.20784
4.2222
4.23734
4.25255
4.2673
4.28117
4.29384
4.3051
4.31477
4.32275
4.32899
4.33353
4.33641
4.33753
4.33745
4.33709
4.33621
4.33434
4.33103
4.32675
4.32189
4.31684
4.31216
4.30803
4.30833
6.53753
6.00219
5.54721
5.2031
4.97003
4.80378
4.66696
4.54793
4.4499
4.37768
4.33217
4.3101
4.30954
4.3127
4.32332
4.34639
4.37875
4.41477
4.45355
4.49546
4.54013
4.58644
4.63291
4.67826
4.72133
4.76112
4.79677
4.82779
4.85396
4.87538
4.89187
4.90375
4.91102
4.91325
4.91292
4.91156
4.9081
4.90067
4.88602
4.86705
4.84532
4.8218
4.79692
4.77078
4.74341
4.71486
4.68526
4.6548
4.62365
4.59205
4.56019
4.52828
4.49652
4.46512
4.43428
4.40419
4.37505
4.34705
4.3204
4.29529
4.27191
4.25046
4.23114
4.21411
4.19957
4.18773
4.17878
4.17283
4.17036
4.17052
4.17125
4.17314
4.17718
4.18494
4.19536
4.20802
4.22235
4.23763
4.25313
4.2682
4.28235
4.29521
4.30657
4.31627
4.32425
4.33048
4.33492
4.33765
4.33838
4.33826
4.3378
4.3367
4.33443
4.3309
4.32654
4.32165
4.31658
4.31192
4.30804
4.30845
6.78179
6.33102
5.91321
5.55388
5.27315
5.06141
4.89383
4.75403
4.63703
4.54351
4.47469
4.42976
4.40614
4.4
4.40159
4.4082
4.42382
4.45228
4.48406
4.51935
4.5574
4.59731
4.63806
4.67867
4.71802
4.75499
4.78857
4.81807
4.84309
4.8635
4.87923
4.89035
4.89689
4.89836
4.89796
4.89648
4.89286
4.88521
4.87104
4.85276
4.83143
4.80794
4.78292
4.7567
4.72943
4.70116
4.67196
4.64195
4.6113
4.5802
4.54883
4.51743
4.48619
4.45531
4.425
4.39545
4.36686
4.33943
4.31335
4.28881
4.26603
4.24519
4.22646
4.21006
4.19615
4.18492
4.17657
4.17119
4.16958
4.16983
4.17077
4.17306
4.17784
4.18619
4.19684
4.20945
4.22359
4.23871
4.25414
4.26922
4.28342
4.29636
4.30775
4.31745
4.32537
4.3315
4.33581