/*--------------------------------*- C++ -*----------------------------------*\
| =========                 |                                                 |
| \\      /  F ield         | OpenFOAM: The Open Source CFD Toolbox           |
|  \\    /   O peration     | Version:  2412                                  |
|   \\  /    A nd           | Website:  www.openfoam.com                      |
|    \\/     M anipulation  |                                                 |
\*---------------------------------------------------------------------------*/
FoamFile
{
    version     2.0;
    format      ascii;
    arch        "LSB;label=32;scalar=64";
    class       surfaceScalarField;
    location    "16.5";
    object      phi;
}
// * * * * * * * * * * * * * * * * * * * * * * * * * * * * * * * * * * * * * //

dimensions      [1 0 -1 0 0 0 0];

oriented        oriented;

internalField   nonuniform List<scalar> 
13790
(
0.00292377
-1.9747e-07
0.00274455
9.30802e-07
0.00280385
3.24674e-06
0.00280506
5.58375e-06
0.00279901
6.47138e-06
0.00279185
7.16264e-06
0.00278387
7.95461e-06
0.00277495
8.90393e-06
0.00276493
9.99067e-06
0.00275368
1.12347e-05
0.00274109
1.25662e-05
0.00272713
1.39466e-05
0.00271173
1.53787e-05
0.00269483
1.6879e-05
0.00267636
1.84606e-05
0.00265621
2.01285e-05
0.00263431
2.18871e-05
0.00261056
2.37394e-05
0.00258486
2.5693e-05
0.00255709
2.77537e-05
0.00252715
2.99316e-05
0.00249491
3.22332e-05
0.00246024
3.46703e-05
0.00242298
3.72498e-05
0.00238299
3.99855e-05
0.00234011
4.28843e-05
0.00229414
4.59617e-05
0.00224492
4.92238e-05
0.00219223
5.26867e-05
0.00213588
5.63544e-05
0.00207564
6.02425e-05
0.00201129
6.43508e-05
0.00194261
6.86918e-05
0.00186935
7.32576e-05
0.0017913
7.80541e-05
0.00170824
8.30615e-05
0.00161997
8.82725e-05
0.00152631
9.36502e-05
0.00142714
9.91671e-05
0.00132237
0.000104763
0.00121198
0.000110385
0.00109604
0.000115939
0.000974687
0.00012135
0.000848196
0.000126494
0.0007169
0.000131289
0.0005813
0.000135601
0.000441826
0.000139465
0.000299161
0.000142657
0.000152294
0.000146885
0.000152297
0.0030322
2.0306e-08
0.00284622
8.41137e-07
0.00290631
8.60621e-06
0.00290759
1.12817e-05
0.0029017
1.28042e-05
0.0028945
1.43702e-05
0.00288629
1.61423e-05
0.00287702
1.8143e-05
0.00286661
2.03811e-05
0.00285493
2.28961e-05
0.00284188
2.55871e-05
0.00282742
2.83904e-05
0.00281147
3.13079e-05
0.00279397
3.43663e-05
0.00277482
3.75887e-05
0.00275395
4.09857e-05
0.00273126
4.45663e-05
0.00270665
4.83384e-05
0.00268001
5.23165e-05
0.00265124
5.65132e-05
0.00262022
6.09479e-05
0.00258681
6.5635e-05
0.00255087
7.05974e-05
0.00251227
7.58505e-05
0.00247083
8.14214e-05
0.00242638
8.73252e-05
0.00237875
9.35926e-05
0.00232774
0.000100237
0.00227314
0.00010729
0.00221473
0.000114762
0.00215229
0.000122684
0.00208559
0.000131055
0.00201439
0.000139903
0.00193844
0.00014921
0.0018575
0.000158993
0.00177136
0.000169206
0.00167979
0.000179843
0.0015826
0.000190822
0.00147967
0.000202096
0.00137089
0.000213537
0.00125624
0.000225041
0.00113575
0.00023642
0.00100958
0.000247515
0.000877992
0.000258088
0.000741345
0.000267929
0.0006001
0.000276846
0.000454818
0.000284738
0.00030609
0.000291377
0.000154207
0.000298789
0.000306506
0.00314491
9.20754e-08
0.00295173
1.2104e-06
0.00301426
1.38751e-05
0.00301549
1.72654e-05
0.00300947
1.92848e-05
0.00300214
2.17108e-05
0.0029937
2.45601e-05
0.00298413
2.76872e-05
0.00297334
3.11394e-05
0.00296125
3.49711e-05
0.00294775
3.90608e-05
0.0029328
4.33285e-05
0.00291629
4.77865e-05
0.00289819
5.24578e-05
0.00287837
5.73839e-05
0.00285678
6.25681e-05
0.00283329
6.80391e-05
0.00280782
7.37941e-05
0.00278025
7.98725e-05
0.00275048
8.62747e-05
0.00271837
9.30507e-05
0.0026838
0.0001002
0.0026466
0.000107783
0.00260665
0.000115795
0.00256376
0.000124308
0.00251777
0.000133313
0.00246847
0.000142891
0.00241568
0.000153027
0.00235916
0.000163809
0.00229872
0.000175212
0.00223408
0.000187324
0.00216503
0.000200106
0.0020913
0.00021364
0.00201265
0.000227862
0.00192882
0.000242832
0.00183956
0.000258459
0.00174466
0.000274746
0.0016439
0.000291571
0.00153714
0.000308852
0.00142425
0.000326421
0.00130521
0.000344079
0.00118002
0.000361612
0.00104886
0.000378663
0.000911929
0.000395027
0.000769631
0.000410221
0.000622503
0.000423974
0.000471021
0.00043621
0.000316144
0.000446245
0.000158594
0.000456357
0.000465102
0.00326184
1.16058e-07
0.00306148
1.66726e-06
0.00312657
1.90723e-05
0.00312784
2.34532e-05
0.00312164
2.59717e-05
0.00311414
2.9223e-05
0.00310549
3.31804e-05
0.00309564
3.7517e-05
0.0030845
4.22523e-05
0.003072
4.74474e-05
0.00305807
5.297e-05
0.00304262
5.87531e-05
0.00302559
6.47979e-05
0.00300689
7.11462e-05
0.00298642
7.78279e-05
0.00296411
8.48697e-05
0.00293984
9.22855e-05
0.00291352
0.000100101
0.00288504
0.000108338
0.00285428
0.000117034
0.0028211
0.000126213
0.00278537
0.000135924
0.00274695
0.000146194
0.00270566
0.000157079
0.00266136
0.000168607
0.00261383
0.000180844
0.0025629
0.000193813
0.00250834
0.000207592
0.00244996
0.000222191
0.00238747
0.0002377
0.0023207
0.000254104
0.0022493
0.000271503
0.00217311
0.000289841
0.00209175
0.000309219
0.00200507
0.000329522
0.00191269
0.000350837
0.00181448
0.000372961
0.00171009
0.000395944
0.00159947
0.000419473
0.00148237
0.00044351
0.00135881
0.000467645
0.00122877
0.000491645
0.00109233
0.000515098
0.000949912
0.000537448
0.000801588
0.000558535
0.000648198
0.000577367
0.000490304
0.000594091
0.000328649
0.000607893
0.000164752
0.000620275
0.000629855
0.00338308
1.39442e-07
0.0031753
2.15598e-06
0.00324297
2.42961e-05
0.00324437
2.97726e-05
0.00323802
3.28334e-05
0.00323034
3.69143e-05
0.00322151
4.19859e-05
0.00321138
4.76148e-05
0.00319991
5.36931e-05
0.00318704
6.02964e-05
0.00317269
6.72942e-05
0.00315679
7.46411e-05
0.00313924
8.23233e-05
0.00311996
9.04064e-05
0.00309887
9.89007e-05
0.00307586
0.000107863
0.00305084
0.000117285
0.0030237
0.000127229
0.00299433
0.000137692
0.0029626
0.000148752
0.00292839
0.000160413
0.00289155
0.000172762
0.00285192
0.000185809
0.00280935
0.000199648
0.00276366
0.000214297
0.00271465
0.000229851
0.00266212
0.00024634
0.00260586
0.00026385
0.00254562
0.000282428
0.00248119
0.000302133
0.00241227
0.000323032
0.00233864
0.000345137
0.00225995
0.000368536
0.002176
0.00039316
0.00208641
0.000419118
0.00199103
0.000446217
0.00188941
0.000474582
0.00178151
0.000503833
0.00166688
0.000534102
0.00154562
0.000564769
0.00141733
0.000595926
0.00128228
0.000626698
0.00114037
0.000656999
0.000991896
0.000685926
0.000837446
0.000712977
0.000677123
0.000737689
0.00051218
0.000759027
0.000343454
0.000776609
0.000172028
0.000791717
0.000801886
0.00350884
1.63132e-07
0.00329337
2.65103e-06
0.00336372
2.95635e-05
0.00336528
3.61944e-05
0.0033588
3.98563e-05
0.00335096
4.47681e-05
0.00334188
5.10356e-05
0.00333155
5.79118e-05
0.00331982
6.53991e-05
0.00330662
7.34735e-05
0.00329186
8.20207e-05
0.00327552
9.09613e-05
0.00325747
0.000100353
0.00323766
0.000110203
0.00321594
0.000120595
0.00319228
0.000131508
0.00316652
0.00014303
0.00313861
0.00015513
0.00310836
0.000167924
0.00307572
0.000181377
0.00304049
0.000195634
0.0030026
0.00021065
0.0029618
0.000226602
0.00291801
0.000243427
0.00287096
0.000261339
0.00282056
0.000280252
0.00276648
0.000300417
0.00270861
0.000321721
0.0026466
0.000344442
0.00258029
0.00036844
0.00250933
0.000394004
0.0024335
0.000420964
0.00235245
0.000449595
0.00226592
0.000479694
0.00217357
0.000511472
0.00207509
0.000544701
0.00197022
0.000579444
0.00185858
0.000615464
0.00174011
0.000652562
0.00161435
0.00069053
0.00148151
0.000728758
0.00134106
0.000767153
0.00119353
0.000804527
0.00103874
0.000840714
0.00087728
0.000874429
0.000709961
0.000905007
0.000537
0.000931977
0.000360089
0.000953514
0.000180614
0.000971209
0.000982506
0.00363928
1.87152e-07
0.00341582
3.14783e-06
0.00348898
3.48693e-05
0.00349073
4.2693e-05
0.00348417
4.69889e-05
0.00347619
5.27613e-05
0.00346697
6.02295e-05
0.00345642
6.84337e-05
0.00344442
7.73625e-05
0.0034309
8.69711e-05
0.00341579
9.71009e-05
0.00339903
0.000107706
0.00338052
0.000118839
0.00336017
0.000130536
0.00333789
0.000142854
0.00331357
0.00015581
0.00328712
0.000169456
0.00325843
0.000183816
0.00322738
0.000198959
0.00319382
0.000214922
0.00315766
0.000231786
0.00311869
0.000249606
0.00307682
0.000268463
0.00303181
0.000288435
0.00298354
0.000309601
0.00293173
0.000332063
0.00287626
0.000355885
0.00281678
0.000381203
0.00275318
0.000408048
0.00268502
0.000436594
0.00261221
0.00046682
0.00253425
0.000498929
0.00245103
0.000532828
0.00236199
0.000568729
0.00226704
0.000606439
0.00216559
0.000646141
0.00205752
0.000687516
0.00194234
0.000730638
0.00181984
0.000775059
0.00168977
0.000820593
0.0015518
0.000866731
0.00140622
0.000912727
0.00125239
0.000958348
0.00109115
0.00100196
0.000922275
0.00104329
0.000746682
0.0010806
0.000565505
0.00111314
0.000379406
0.00113961
0.00019014
0.00116049
0.00117265
0.00377458
2.11305e-07
0.00354281
3.64366e-06
0.00361892
4.0196e-05
0.0036209
4.92388e-05
0.00361431
5.41913e-05
0.00360623
6.0855e-05
0.00359689
6.95371e-05
0.00358617
7.91251e-05
0.00357395
8.95519e-05
0.00356016
0.000100738
0.00354473
0.000112502
0.0035276
0.000124821
0.00350866
0.00013775
0.00348783
0.000151345
0.00346501
0.000165651
0.00344011
0.000180699
0.00341301
0.000196536
0.00338361
0.000213204
0.00335178
0.000230769
0.0033174
0.000249289
0.00328032
0.000268848
0.00324041
0.000289509
0.00319748
0.000311382
0.00315139
0.000334528
0.00310189
0.000359087
0.00304885
0.000385109
0.00299196
0.000412769
0.00293108
0.000442092
0.00286583
0.000473296
0.00279607
0.000506358
0.00272135
0.00054154
0.00264154
0.000578743
0.00255609
0.000618285
0.00246489
0.000659931
0.00236729
0.000704045
0.00226322
0.000750214
0.00215194
0.000798789
0.00203343
0.000849136
0.00190699
0.00090149
0.00177258
0.000954996
0.00162973
0.00100958
0.00147822
0.00106423
0.00131845
0.00111811
0.00114973
0.00117069
0.000973181
0.00121983
0.000788845
0.00126493
0.000597586
0.00130439
0.000401319
0.00133586
0.000201547
0.00136029
0.00137421
0.00391492
2.35476e-07
0.00367452
4.13516e-06
0.00375374
4.55131e-05
0.00375599
5.57935e-05
0.00374941
6.1427e-05
0.00374128
6.90019e-05
0.00373184
7.89472e-05
0.00372101
8.99204e-05
0.00370863
0.000101901
0.00369462
0.000114722
0.00367891
0.000128177
0.00366146
0.000142259
0.00364214
0.000157043
0.00362088
0.000172585
0.00359757
0.000188937
0.00357212
0.000206127
0.00354443
0.000224213
0.00351438
0.000243239
0.00348184
0.000263287
0.00344671
0.000284415
0.00340881
0.000306728
0.00336803
0.000330291
0.00332416
0.000355234
0.00327706
0.00038163
0.0032265
0.00040963
0.0031723
0.000439313
0.00311421
0.000470849
0.00305198
0.00050432
0.00298538
0.000539904
0.00291405
0.000577687
0.00283776
0.000617833
0.00275607
0.000660432
0.00266877
0.00070559
0.0025753
0.000753412
0.00247548
0.000803865
0.00236862
0.000857083
0.00225462
0.000912791
0.00213261
0.00097113
0.00200264
0.00103146
0.00186376
0.00109386
0.00171613
0.00115722
0.00155896
0.0012214
0.00139226
0.00128481
0.00121646
0.00134649
0.00103077
0.00140552
0.000836884
0.00145883
0.000635255
0.00150601
0.00042699
0.00154412
0.000214235
0.00157306
0.00158845
0.00406049
2.59308e-07
0.00381111
4.61832e-06
0.00389362
5.07726e-05
0.00389622
6.23061e-05
0.0038897
6.86369e-05
0.00388157
7.71509e-05
0.00387213
8.83546e-05
0.00386123
0.000100793
0.00384873
0.000114365
0.00383456
0.000128868
0.00381864
0.000144066
0.00380091
0.000159968
0.00378126
0.000176655
0.00375963
0.0001942
0.00373589
0.000212646
0.00370997
0.000232034
0.00368175
0.000252417
0.00365112
0.000273856
0.00361796
0.000296432
0.00358214
0.000320222
0.00354352
0.000345333
0.00350194
0.000371853
0.00345726
0.000399914
0.00340926
0.000429616
0.00335778
0.000461112
0.00330257
0.000494515
0.00324343
0.000529995
0.00318007
0.000567674
0.00311224
0.000607738
0.00303963
0.000650302
0.00296191
0.000695562
0.00287874
0.000743609
0.00278969
0.000794638
0.00269444
0.000848668
0.00259243
0.000905886
0.00248333
0.000966168
0.00236647
0.00102966
0.00224159
0.001096
0.0021078
0.00116525
0.00196503
0.00123662
0.00181223
0.00131001
0.00164957
0.00138406
0.00147602
0.00145835
0.00129189
0.00153063
0.00109756
0.00159984
0.000892384
0.00166401
0.000678272
0.00172011
0.000456686
0.0017657
0.000229842
0.00179992
0.0018183
0.00421149
2.82469e-07
0.00395277
5.0872e-06
0.00403879
5.59091e-05
0.00404179
6.87127e-05
0.00403539
7.57798e-05
0.00402733
8.52282e-05
0.0040179
9.77544e-05
0.00400704
0.000111623
0.00399452
0.000126844
0.00398027
0.000143095
0.0039642
0.000160104
0.00394628
0.000177875
0.00392638
0.000196525
0.00390444
0.000216116
0.00388035
0.000236714
0.00385403
0.000258339
0.00382535
0.000281073
0.00379423
0.000304959
0.00376053
0.000330114
0.00372414
0.000356599
0.0036849
0.000384559
0.00364268
0.000414067
0.00359728
0.000445296
0.00354856
0.000478333
0.00349628
0.00051338
0.00344026
0.000550532
0.00338023
0.000590021
0.00331596
0.000631945
0.00324714
0.000676562
0.00317348
0.000723965
0.00309461
0.000774431
0.0030102
0.000828028
0.00291981
0.000885038
0.002823
0.000945481
0.00271931
0.00100958
0.00260815
0.00107732
0.00248909
0.00114873
0.00236132
0.00122376
0.00222449
0.00130208
0.00207757
0.00138354
0.00192034
0.00146723
0.00175167
0.00155274
0.00157154
0.00163847
0.0013789
0.00172327
0.00117399
0.00180473
0.00095771
0.00188029
0.000729797
0.00194801
0.000492261
0.00200322
0.000247501
0.00204469
0.00206582
0.00436812
3.02245e-07
0.0040997
5.5384e-06
0.00418947
6.08133e-05
0.00419296
7.49416e-05
0.00418675
8.27866e-05
0.00417886
9.31327e-05
0.00416961
0.000106973
0.00415883
0.000122374
0.00414635
0.000139285
0.00413208
0.000157336
0.00411595
0.000176204
0.00409789
0.00019591
0.00407782
0.000216565
0.00405565
0.000238263
0.0040313
0.000261045
0.00400465
0.000284965
0.00397563
0.000310073
0.00394411
0.00033646
0.00391
0.00036421
0.00387315
0.00039344
0.00383344
0.000424258
0.00379069
0.000456801
0.00374477
0.000491203
0.00369548
0.000527623
0.00364263
0.000566222
0.00358599
0.000607174
0.00352533
0.000650672
0.00346038
0.000696898
0.00339086
0.000746079
0.00331644
0.000798394
0.00323678
0.000854094
0.00315146
0.000913349
0.00306011
0.0009764
0.00296218
0.00104342
0.00285721
0.00111456
0.00274456
0.00118997
0.00262363
0.00126967
0.00249371
0.00135367
0.00235396
0.00144182
0.00220379
0.00153371
0.00204193
0.00162908
0.00186808
0.00172659
0.00168075
0.0018258
0.00147989
0.00192413
0.00126434
0.00202027
0.001034
0.00211064
0.000790407
0.00219159
0.000534692
0.00225892
0.000270093
0.00230931
0.00233592
0.0045306
3.12698e-07
0.00425207
5.98024e-06
0.0043459
6.53399e-05
0.00434995
8.09244e-05
0.00434398
8.96051e-05
0.00433643
0.000100714
0.0043274
0.000115967
0.00431684
0.0001329
0.00430453
0.000151556
0.00429036
0.000171482
0.00427424
0.000192289
0.00425615
0.000213973
0.00423599
0.0002367
0.00421369
0.000260535
0.00418915
0.000285563
0.00416231
0.000311791
0.00413303
0.000339332
0.00410125
0.000368219
0.00406683
0.000398619
0.00402968
0.000430579
0.00398962
0.000464305
0.00394655
0.000499857
0.00390026
0.00053748
0.00385063
0.000577247
0.00379741
0.000619443
0.00374042
0.000664155
0.00367939
0.000711706
0.00361408
0.000762197
0.00354419
0.000815984
0.00346939
0.000873188
0.00338932
0.000934173
0.00330358
0.00099909
0.00321171
0.00106828
0.00311322
0.00114191
0.00300751
0.00122027
0.002894
0.00130349
0.00277187
0.0013918
0.00264043
0.0014851
0.00249866
0.00158357
0.00234562
0.00168674
0.00218027
0.00179443
0.00200111
0.00190573
0.00180748
0.00201942
0.00159744
0.00213417
0.00137092
0.00224678
0.00112697
0.00235459
0.000865166
0.00245338
0.000587416
0.00253666
0.000296621
0.00260012
0.00263255
0.00469915
3.26512e-07
0.00441008
6.37289e-06
0.00450809
6.95772e-05
0.0045129
8.64443e-05
0.0045075
9.59244e-05
0.00450035
0.000107899
0.00449172
0.000124567
0.00448149
0.000143093
0.00446944
0.000163567
0.00445545
0.000185447
0.00443946
0.000208241
0.00442144
0.000231977
0.0044013
0.000256808
0.00437897
0.000282845
0.00435437
0.000310133
0.00432742
0.000338728
0.00429804
0.000368693
0.00426611
0.000400134
0.00423155
0.000433153
0.00419423
0.000467894
0.00415404
0.000504478
0.0041108
0.000543086
0.00406441
0.00058386
0.00401463
0.000627019
0.00396134
0.000672726
0.00390426
0.000721238
0.00384322
0.000772745
0.00377787
0.000827538
0.00370802
0.000885835
0.00363325
0.000947954
0.00355328
0.00101415
0.00346762
0.00108475
0.00337585
0.00116006
0.00327742
0.00124034
0.00317171
0.00132599
0.00305805
0.00141715
0.00293562
0.00151423
0.00280349
0.00161722
0.00266065
0.00172641
0.00250584
0.00184155
0.00233774
0.00196253
0.00215482
0.00208866
0.00195513
0.00221911
0.00173733
0.00235197
0.00149869
0.00248541
0.00123858
0.00261469
0.000956558
0.00273541
0.000653236
0.00283997
0.000332508
0.00292086
0.00296507
0.00487398
3.47768e-07
0.00457397
6.69155e-06
0.0046764
7.34605e-05
0.00468217
9.13025e-05
0.00467763
0.000101465
0.00467104
0.00011453
0.00466298
0.000132592
0.00465323
0.0001528
0.00464154
0.000175223
0.00462785
0.00019911
0.00461211
0.000223955
0.00459426
0.0002498
0.00457424
0.000276793
0.004552
0.000305067
0.00452745
0.000334654
0.00450053
0.000365626
0.00447116
0.000398043
0.00443925
0.000432024
0.00440471
0.000467682
0.00436743
0.000505162
0.00432727
0.00054462
0.00428413
0.000586212
0.00423782
0.000630155
0.00418824
0.000676599
0.00413512
0.000725839
0.00407834
0.000778011
0.00401758
0.000833501
0.00395269
0.00089242
0.00388327
0.000955262
0.00380912
0.0010221
0.00372974
0.00109355
0.00364485
0.00116963
0.00355384
0.00125108
0.00345629
0.00133789
0.00335146
0.00143084
0.00323868
0.00152994
0.00311704
0.00163589
0.0029855
0.00174876
0.00284287
0.00186903
0.0026877
0.0019967
0.00251831
0.00213192
0.00233272
0.00227425
0.00212878
0.00242303
0.00190364
0.00257712
0.00165513
0.00273392
0.00137937
0.00289046
0.0010744
0.00304037
0.0007395
0.00317485
0.000377688
0.00328269
0.00334278
0.00505533
3.60628e-07
0.00474396
6.95612e-06
0.00485137
7.65635e-05
0.00485828
9.53461e-05
0.00485465
0.000106184
0.00484892
0.000120308
0.00484158
0.000139896
0.00483248
0.000161856
0.00482136
0.000186308
0.00480813
0.00021231
0.00479274
0.000239316
0.00477519
0.000267319
0.00475541
0.000296544
0.00473338
0.000327072
0.004709
0.000359007
0.00468226
0.000392345
0.00465304
0.000427242
0.00462132
0.000463726
0.00458695
0.000502028
0.00454992
0.00054219
0.00451001
0.000584504
0.00446721
0.000629009
0.00442128
0.000676069
0.00437215
0.000725721
0.00431958
0.0007784
0.00426343
0.000834155
0.00420345
0.000893482
0.0041394
0.000956463
0.00407103
0.00102364
0.00399797
0.00109515
0.00391995
0.00117157
0.00383644
0.00125314
0.00374712
0.00134041
0.00365126
0.00143375
0.00354841
0.00153369
0.0034376
0.00164074
0.0033181
0.00175538
0.00318869
0.00187817
0.00304809
0.00200962
0.00289465
0.00215013
0.0027264
0.00230016
0.00254073
0.00245992
0.00233471
0.00262904
0.00210496
0.00280687
0.00184633
0.00299255
0.00155514
0.00318164
0.00122621
0.0033693
0.0008557
0.00354535
0.000444098
0.0036943
0.00378689
0.00524342
3.68516e-07
0.00492029
7.12624e-06
0.0050331
7.86621e-05
0.0050415
9.8211e-05
0.00503914
0.000109737
0.00503452
0.000124979
0.00502813
0.000146248
0.00501989
0.000170056
0.0050095
0.000196653
0.00499686
0.000224922
0.00498196
0.000254188
0.00496481
0.000284435
0.0049454
0.000315927
0.0049237
0.000348751
0.00489965
0.000383032
0.00487321
0.000418762
0.00484433
0.000456096
0.00481295
0.000495089
0.004779
0.000535957
0.00474239
0.000578792
0.00470303
0.000623846
0.00466078
0.000671241
0.00461558
0.000721263
0.00456721
0.000774082
0.00451559
0.000830006
0.00446047
0.000889274
0.00440174
0.00095221
0.00433907
0.00101913
0.0042723
0.0010904
0.00420107
0.00116639
0.00412509
0.00124755
0.00404395
0.00133429
0.00395718
0.00142719
0.00386429
0.00152665
0.00376454
0.00163346
0.00365732
0.00174797
0.00354147
0.00187124
0.00341608
0.00200355
0.00327958
0.00214613
0.00313022
0.00229948
0.00296603
0.00246434
0.00278387
0.00264209
0.00257999
0.00283291
0.00235066
0.00303621
0.00208924
0.00325397
0.00178645
0.00348443
0.00143336
0.00372238
0.00101959
0.00395911
0.000538136
0.00417577
0.00432504
0.0054385
3.67075e-07
0.00510319
7.17668e-06
0.00522199
7.9354e-05
0.00523233
9.94553e-05
0.00523166
0.000111698
0.00522853
0.000128173
0.00522346
0.000151275
0.0052163
0.00017718
0.00520679
0.000206126
0.00519486
0.000236826
0.00518056
0.000268446
0.00516394
0.000301027
0.00514502
0.000334814
0.00512376
0.000369991
0.00510016
0.000406603
0.00507417
0.000444733
0.00504578
0.000484455
0.00501493
0.000525927
0.00498159
0.000569284
0.00494564
0.000614723
0.00490706
0.000662415
0.0048657
0.000712587
0.0048215
0.000765453
0.0047743
0.000821267
0.00472398
0.000880311
0.0046704
0.000942846
0.00461334
0.00100926
0.00455268
0.00107979
0.00448809
0.00115499
0.00441943
0.00123505
0.00434627
0.00132072
0.0042684
0.00141215
0.00418528
0.00151032
0.00409654
0.00161539
0.0040015
0.00172851
0.00389945
0.00185003
0.00378963
0.00198108
0.00367058
0.0021226
0.00354141
0.00227529
0.00339941
0.00244146
0.00324346
0.00262028
0.00307141
0.00281414
0.00287664
0.00302768
0.00265176
0.00326108
0.00239137
0.00351436
0.00208591
0.00378989
0.00171798
0.00409032
0.00126605
0.00441102
0.00070123
0.0047406
0.00502629
0.00564087
3.3027e-07
0.0052929
7.11723e-06
0.0054185
7.80283e-05
0.00543137
9.84743e-05
0.00543292
0.000111551
0.0054317
0.000129469
0.00542823
0.000154698
0.00542241
0.000182965
0.00541389
0.000214601
0.00540277
0.000247911
0.00538917
0.000282011
0.0053732
0.000316967
0.00535487
0.000353103
0.00533421
0.000390626
0.00531119
0.000429592
0.00528585
0.00047005
0.00525813
0.000512161
0.00522805
0.000555985
0.00519551
0.000601806
0.00516053
0.000649675
0.00512297
0.000699956
0.00508286
0.000752681
0.00504
0.00080831
0.00499441
0.000866848
0.00494585
0.000928874
0.00489433
0.000994365
0.00483956
0.00106403
0.0047815
0.00113784
0.00471988
0.00121662
0.00465453
0.00130039
0.00458519
0.00139007
0.00451151
0.00148582
0.00443328
0.00158856
0.00434987
0.00169879
0.00426107
0.00181732
0.00416589
0.0019452
0.00406408
0.00208289
0.00395403
0.00223266
0.00383567
0.00239365
0.00370877
0.00256836
0.00356676
0.00276228
0.00340581
0.00297508
0.00322579
0.0032077
0.00302107
0.0034658
0.00278109
0.00375434
0.00249013
0.00408084
0.00212835
0.0044521
0.00165428
0.00488507
0.00099928
0.00539561
0.00602559
0.00585095
1.83786e-07
0.00548933
7.16407e-06
0.00562273
7.41368e-05
0.00563914
9.42731e-05
0.00564364
0.000108596
0.005645
0.000128195
0.00564355
0.000156105
0.00563924
0.000187237
0.00563187
0.000221944
0.00562161
0.000258135
0.00560874
0.00029485
0.00559343
0.000332247
0.00557572
0.000370789
0.00555572
0.000410608
0.00553336
0.000451922
0.00550875
0.000494641
0.00548184
0.000539054
0.00545267
0.000585138
0.00542118
0.000633277
0.00538738
0.00068346
0.0053512
0.000736126
0.0053126
0.000791265
0.00527151
0.00084938
0.00522787
0.00091048
0.00518161
0.000975124
0.00513259
0.00104338
0.0050808
0.00111582
0.00502597
0.00119265
0.00496817
0.00127443
0.00490702
0.00136154
0.00484259
0.00145452
0.00477438
0.00155403
0.00470242
0.00166053
0.00462617
0.00177504
0.00454543
0.00189808
0.00445925
0.00203139
0.00436854
0.0021736
0.00427374
0.00232746
0.00416938
0.002498
0.00405336
0.00268436
0.00392864
0.00288699
0.00379285
0.00311086
0.0036412
0.00335935
0.00346866
0.00363835
0.00326848
0.00395453
0.00302852
0.00432081
0.00272153
0.0047591
0.00229833
0.00530825
0.00164576
0.00604819
0.00767136
0.00846042
1.36618e-07
0.00793485
6.21642e-06
0.00813377
6.46485e-05
0.00816303
8.28748e-05
0.00817559
9.82989e-05
0.0081825
0.000121415
0.00818465
0.000153904
0.00818191
0.000189925
0.00817424
0.000229564
0.00816221
0.000270137
0.00814639
0.00031062
0.00812716
0.00035145
0.00810466
0.000393244
0.00807898
0.000436265
0.00805024
0.000480622
0.00801849
0.000526367
0.00798384
0.000573671
0.00794627
0.000622686
0.00790586
0.000673657
0.00786254
0.00072676
0.00781638
0.000782258
0.00776727
0.000840357
0.00771528
0.000901343
0.00766026
0.000965473
0.00760231
0.00103306
0.00754124
0.00110442
0.00747715
0.00117991
0.00740984
0.00125993
0.00733938
0.00134488
0.00726564
0.00143527
0.00718857
0.00153159
0.00710816
0.00163445
0.00702409
0.00174462
0.00693685
0.00186229
0.00684707
0.00198789
0.00675513
0.00212335
0.00665633
0.00227242
0.00655047
0.00243334
0.00644164
0.00260684
0.00633057
0.00279543
0.00621373
0.00300383
0.00609256
0.00323202
0.0059654
0.0034865
0.005834
0.00376974
0.0057004
0.00408815
0.00557208
0.00444911
0.00548248
0.00484872
0.00550626
0.00528445
0.00591269
0.00564175
0.00547742
0.00810664
0.00846222
1.06392e-07
0.00793427
3.86194e-06
0.008148
4.23e-05
0.00818811
6.08221e-05
0.00820997
7.87324e-05
0.00822386
0.00010765
0.00823009
0.00014763
0.0082296
0.000190361
0.00822285
0.000236268
0.00821167
0.000281287
0.00819704
0.000325212
0.00817928
0.000369173
0.0081585
0.000413982
0.00813488
0.000459865
0.00810854
0.000506927
0.00807967
0.000555224
0.00804832
0.000604987
0.0080146
0.000656385
0.00797852
0.000709704
0.00794016
0.000765101
0.00789951
0.000822887
0.00785662
0.00088322
0.00781148
0.000946453
0.00776417
0.00101276
0.00771467
0.00108254
0.00766307
0.001156
0.00760934
0.00123362
0.00755364
0.00131562
0.00749592
0.00140258
0.00743639
0.00149478
0.00737487
0.0015931
0.00731255
0.00169676
0.00725007
0.00180709
0.0071859
0.00192646
0.0071185
0.00205528
0.00704891
0.00219295
0.0069813
0.00234003
0.00691561
0.00249903
0.0068516
0.00267086
0.00679002
0.00285702
0.00673535
0.00305849
0.00668807
0.00327929
0.00665829
0.00351627
0.00664929
0.00377873
0.00668183
0.00405561
0.00677864
0.0043523
0.00698575
0.00464163
0.0073857
0.00488451
0.00800272
0.0050247
0.00467568
0.00880446
0.00846293
1.57114e-07
0.00793398
7.39033e-07
0.00816305
5.56033e-06
0.00822155
2.0467e-05
0.00825858
4.40171e-05
0.00828216
8.4202e-05
0.00829347
0.000136275
0.00829396
0.000189822
0.00828812
0.000242067
0.00827838
0.000290995
0.00826539
0.000338162
0.00824925
0.000385283
0.00823014
0.000433055
0.00820833
0.000481645
0.00818409
0.000531137
0.00815763
0.000581663
0.00812906
0.000633527
0.0080985
0.000686924
0.00806603
0.000742151
0.00803173
0.000799373
0.00799569
0.000858898
0.007958
0.000920893
0.00791875
0.000985689
0.00787802
0.00105346
0.00783597
0.00112458
0.00779271
0.00119924
0.00774843
0.00127788
0.00770323
0.00136079
0.00765757
0.00144823
0.00761229
0.00154005
0.00756809
0.00163729
0.00752267
0.00174217
0.00747608
0.00185367
0.00743102
0.00197152
0.00738959
0.0020967
0.00735132
0.00223123
0.00731718
0.00237417
0.00728782
0.0025284
0.00726665
0.00269204
0.0072546
0.00286907
0.0072567
0.00305639
0.00727788
0.00325811
0.00732462
0.00346951
0.00741265
0.00369068
0.00755125
0.003917
0.00777066
0.00413288
0.00808378
0.00432851
0.00851013
0.00445817
0.00903026
0.00450458
0.00424752
0.00945843
0.00846151
1.31692e-06
0.00794029
-9.88692e-06
0.00821662
-7.8359e-05
0.00830466
-4.94313e-05
0.0083504
6.16838e-07
0.00837091
6.383e-05
0.0083752
0.000131942
0.00837092
0.000194052
0.00836318
0.000249771
0.00835374
0.000300402
0.00834175
0.000350118
0.00832686
0.000400139
0.00830942
0.000450462
0.00828976
0.000501274
0.00826828
0.000552594
0.0082451
0.000604822
0.00822028
0.000658317
0.00819391
0.000713276
0.00816605
0.000769985
0.00813678
0.000828618
0.00810618
0.000889478
0.00807432
0.000952727
0.00804134
0.00101866
0.00800734
0.00108744
0.00797253
0.00115937
0.00793701
0.00123475
0.00790143
0.00131344
0.00786641
0.00139579
0.00783181
0.00148281
0.00779641
0.00157542
0.00776099
0.00167269
0.0077284
0.00177474
0.00769946
0.00188259
0.00767385
0.00199712
0.00765285
0.00211769
0.00763784
0.00224622
0.00763051
0.00238149
0.00763331
0.00252559
0.00764785
0.0026775
0.00767911
0.00283781
0.0077287
0.00300682
0.00780534
0.00318147
0.00791191
0.00336296
0.00805998
0.0035426
0.00825818
0.00371878
0.00851402
0.00387703
0.00883843
0.00400408
0.0092161
0.0040805
0.00967008
0.00405059
0.00392792
0.00998969
0.00845147
9.96014e-06
0.00797996
-6.57408e-05
0.00836234
-0.000271287
0.00854404
-0.000213133
0.00858722
-4.02807e-05
0.00857815
7.3025e-05
0.00856152
0.000148525
0.00854578
0.000209738
0.00853314
0.000262368
0.00852009
0.000313399
0.00850395
0.000366215
0.00848491
0.000419139
0.00846378
0.000471556
0.00844137
0.000523644
0.00841765
0.000576279
0.00839271
0.000629728
0.00836672
0.000684273
0.00833981
0.000740158
0.00831213
0.000797642
0.00828378
0.00085694
0.00825492
0.000918317
0.00822562
0.000981997
0.00819607
0.00104819
0.0081665
0.00111698
0.00813748
0.00118837
0.00810939
0.00126282
0.00808129
0.00134153
0.00805307
0.00142399
0.00802589
0.00150998
0.00800144
0.00159985
0.00797968
0.00169442
0.00796078
0.00179363
0.0079454
0.00189794
0.00793517
0.00200733
0.00793043
0.00212241
0.00793395
0.00224267
0.00794605
0.00236938
0.00797093
0.00250068
0.0080095
0.00263892
0.00806685
0.00278045
0.0081461
0.00292756
0.00825204
0.00307555
0.00839116
0.00322384
0.00856616
0.00336761
0.00878561
0.00349933
0.00904821
0.00361443
0.00935675
0.00369552
0.00970222
0.00373502
0.010049
0.00370378
0.00359476
0.0103822
0.00851929
1.57287e-05
0.00824799
-0.000394902
0.0087932
-0.000605478
0.00889122
-0.000291181
0.00887274
-1.88671e-05
0.00880499
0.000140956
0.00877306
0.000180412
0.00875312
0.000229613
0.00874343
0.000272023
0.00872889
0.000327886
0.00870992
0.000385145
0.00868885
0.000440167
0.00866681
0.000493557
0.00864378
0.000546634
0.00861976
0.000600252
0.00859468
0.000654773
0.0085685
0.000710418
0.00854132
0.000767312
0.00851323
0.000825698
0.00848441
0.00088573
0.00845491
0.000947787
0.0084251
0.00101178
0.00839547
0.0010778
0.0083663
0.00114614
0.00833676
0.00121789
0.00830752
0.00129204
0.00828036
0.00136866
0.00825621
0.00144813
0.0082347
0.00153148
0.00821669
0.00161785
0.00820243
0.00170867
0.00819326
0.00180278
0.00818933
0.00190185
0.00819235
0.0020043
0.00820268
0.00211205
0.00822222
0.00222311
0.00825228
0.00233931
0.00829452
0.00245842
0.00835225
0.00258116
0.00842651
0.00270617
0.00852286
0.00283119
0.00864196
0.00295644
0.00879055
0.00307523
0.00896913
0.00318903
0.00918229
0.00328618
0.00942929
0.00336744
0.00970744
0.00341737
0.0100123
0.00343012
0.0103158
0.00340036
0.00330224
0.0106083
0.00816103
3.09586e-06