/*--------------------------------*- C++ -*----------------------------------*\
| =========                 |                                                 |
| \\      /  F ield         | OpenFOAM: The Open Source CFD Toolbox           |
|  \\    /   O peration     | Version:  2412                                  |
|   \\  /    A nd           | Website:  www.openfoam.com                      |
|    \\/     M anipulation  |                                                 |
\*---------------------------------------------------------------------------*/
FoamFile
{
    version     2.0;
    format      ascii;
    arch        "LSB;label=32;scalar=64";
    class       volScalarField;
    location    "16.5";
    object      T;
}
// * * * * * * * * * * * * * * * * * * * * * * * * * * * * * * * * * * * * * //

dimensions      [0 0 0 1 0 0 0];

internalField   nonuniform List<scalar> 
7000
(
1.31908
2.6566
2.71953
2.66999
2.66473
2.64795
2.64454
2.64727
2.64933
2.65154
2.65279
2.65382
2.65493
2.65631
2.65778
2.65945
2.66113
2.66303
2.66495
2.6671
2.66926
2.67167
2.67407
2.67672
2.67936
2.68226
2.68512
2.68826
2.69134
2.69468
2.69796
2.70148
2.70491
2.70856
2.7121
2.71581
2.7194
2.72308
2.72662
2.73015
2.73348
2.73673
2.7397
2.74252
2.74491
2.74722
2.74882
2.75055
2.75122
2.7518
1.31914
2.65682
2.71978
2.67009
2.66485
2.64807
2.64466
2.64739
2.64946
2.65166
2.65291
2.65393
2.65504
2.65642
2.65789
2.65955
2.66124
2.66313
2.66505
2.6672
2.66936
2.67175
2.67415
2.6768
2.67944
2.68233
2.6852
2.68832
2.6914
2.69474
2.69801
2.70152
2.70494
2.70859
2.71212
2.71582
2.7194
2.72307
2.7266
2.73012
2.73344
2.73666
2.73963
2.74242
2.74482
2.74706
2.74867
2.75033
2.75094
2.75135
1.31912
2.65673
2.71967
2.67007
2.66481
2.64801
2.6446
2.64735
2.64936
2.6516
2.6528
2.65387
2.65494
2.65636
2.65777
2.65948
2.66112
2.66305
2.66492
2.66711
2.66922
2.67166
2.674
2.67669
2.67927
2.68221
2.68502
2.68818
2.69121
2.69458
2.6978
2.70134
2.70473
2.70839
2.7119
2.71561
2.71919
2.72285
2.7264
2.7299
2.73324
2.73644
2.73944
2.74217
2.74457
2.74686
2.74838
2.75011
2.75065
2.75112
1.3191
2.65655
2.71949
2.67006
2.66476
2.6479
2.64451
2.64719
2.6493
2.65143
2.65273
2.65368
2.65485
2.65616
2.65768
2.65926
2.66101
2.66282
2.66481
2.66686
2.66909
2.67138
2.67386
2.67639
2.67912
2.68188
2.68485
2.68782
2.69101
2.69418
2.69758
2.70091
2.70447
2.70792
2.71159
2.71511
2.71881
2.72233
2.72596
2.72938
2.73276
2.73599
2.73891
2.74184
2.74402
2.74641
2.74799
2.74951
2.75025
2.7505
1.31906
2.65633
2.71926
2.67009
2.66472
2.64777
2.64439
2.647
2.64921
2.65122
2.65262
2.65345
2.65472
2.65591
2.65753
2.65899
2.66084
2.66253
2.6646
2.66655
2.66885
2.67106
2.67358
2.67605
2.67879
2.68153
2.68445
2.68747
2.69055
2.69383
2.69705
2.70057
2.70387
2.70758
2.71092
2.71475
2.71806
2.72193
2.72512
2.72888
2.73188
2.73532
2.73814
2.74098
2.74354
2.74545
2.74733
2.74894
2.74929
2.74992
1.31902
2.65604
2.71897
2.67013
2.66466
2.64765
2.64419
2.64702
2.64884
2.65121
2.65221
2.65342
2.65429
2.65586
2.65707
2.65893
2.66034
2.66245
2.66406
2.66644
2.66826
2.67091
2.67294
2.67585
2.67809
2.68126
2.68371
2.68711
2.68977
2.69336
2.69624
2.69997
2.70306
2.70685
2.71013
2.71389
2.71736
2.72095
2.72455
2.72781
2.73134
2.73407
2.73737
2.73983
2.74243
2.74479
2.74601
2.74794
2.7486
2.74862
1.31897
2.65568
2.7186
2.67018
2.6646
2.64745
2.64399
2.64674
2.64867
2.6509
2.65203
2.65308
2.65409
2.65549
2.65686
2.65852
2.66012
2.66199
2.66383
2.66592
2.66802
2.67032
2.6727
2.67519
2.67783
2.6805
2.68342
2.68624
2.68943
2.69238
2.69581
2.69886
2.70249
2.70563
2.70941
2.71262
2.71641
2.71969
2.72334
2.72669
2.72995
2.73333
2.73575
2.73887
2.7409
2.74333
2.74509
2.7464
2.74687
2.74763
1.31891
2.65524
2.71817
2.67025
2.66452
2.6472
2.64375
2.6464
2.64845
2.65053
2.65176
2.65268
2.65378
2.65506
2.65649
2.65805
2.6597
2.66149
2.66335
2.66538
2.66747
2.66975
2.67206
2.6746
2.6771
2.6799
2.68257
2.68565
2.68845
2.69179
2.6947
2.69827
2.70122
2.70498
2.70794
2.71183
2.71477
2.71869
2.72162
2.72535
2.72829
2.73154
2.73473
2.73685
2.73966
2.74155
2.743
2.74511
2.74572
2.74549
1.31884
2.65472
2.71764
2.67033
2.66443
2.64692
2.64343
2.64611
2.64807
2.6502
2.65133
2.65231
2.65332
2.65464
2.65599
2.65759
2.65915
2.66096
2.66275
2.6648
2.6668
2.66909
2.67131
2.67384
2.67628
2.67902
2.68169
2.68462
2.6875
2.69059
2.69369
2.6969
2.70021
2.70343
2.70695
2.71009
2.71376
2.71673
2.72047
2.72322
2.72684
2.72937
2.73254
2.7354
2.73699
2.73994
2.74124
2.74242
2.74293
2.74394
1.31876
2.65412
2.71703
2.67043
2.66433
2.64657
2.64308
2.64565
2.64774
2.64969
2.65094
2.65176
2.65287
2.65405
2.65549
2.65694
2.65858
2.66026
2.66211
2.66403
2.66609
2.66824
2.67052
2.67289
2.67539
2.67797
2.68067
2.68346
2.68633
2.68931
2.69233
2.69549
2.69861
2.70193
2.70508
2.70854
2.71164
2.71517
2.71808
2.72161
2.72422
2.72761
2.72978
2.73291
2.73515
2.73653
2.7387
2.74054
2.74113
2.7406
1.31866
2.65341
2.71633
2.67055
2.66421
2.64621
2.64263
2.64532
2.64715
2.64929
2.6503
2.65129
2.65218
2.65352
2.65473
2.65634
2.65776
2.65958
2.66122
2.66326
2.66511
2.66738
2.66945
2.67192
2.6742
2.67688
2.67935
2.68221
2.68487
2.6879
2.69072
2.69388
2.69682
2.70007
2.70314
2.70638
2.70956
2.71266
2.71595
2.71874
2.722
2.72444
2.72738
2.72946
2.73202
2.73438
2.73502
2.73634
2.73685
2.7382
1.31855
2.6526
2.71552
2.67068
2.66407
2.64575
2.64215
2.6447
2.64669
2.6486
2.64979
2.65054
2.6516
2.65268
2.6541
2.65542
2.65705
2.65858
2.66042
2.66216
2.66422
2.66617
2.66842
2.67059
2.67303
2.67541
2.67802
2.68059
2.68335
2.6861
2.68898
2.69188
2.69487
2.69783
2.70092
2.70389
2.70702
2.70999
2.71297
2.71601
2.71854
2.72166
2.7236
2.72641
2.72786
2.72984
2.73205
2.7335
2.73402
2.73305
1.31843
2.65169
2.7146
2.67085
2.66387
2.64526
2.64156
2.64419
2.64596
2.64801
2.64897
2.64988
2.65071
2.65196
2.65311
2.65464
2.65596
2.65771
2.65922
2.66119
2.66289
2.66508
2.66697
2.66936
2.67142
2.674
2.67624
2.67898
2.68138
2.68424
2.68681
2.68973
2.69245
2.6954
2.6982
2.70117
2.70393
2.70691
2.70954
2.71241
2.71492
2.71738
2.71996
2.72169
2.72416
2.72541
2.72593
2.72706
2.72748
2.72924
1.31831
2.65071
2.71348
2.67135
2.66337
2.6447
2.64091
2.64348
2.64524
2.6472
2.64817
2.64897
2.64983
2.65095
2.65216
2.65351
2.65493
2.65646
2.6581
2.6598
2.66166
2.66353
2.6656
2.66763
2.66989
2.67208
2.67452
2.67683
2.67944
2.68186
2.68458
2.6871
2.68986
2.69248
2.69521
2.69791
2.70055
2.70323
2.70578
2.7083
2.71064
2.71285
2.71472
2.71675
2.71781
2.72006
2.72149
2.72256
2.72279
2.72108
1.31817
2.64963
2.71221
2.67205
2.66268
2.64406
2.64017
2.64261
2.64447
2.64622
2.6473
2.6479
2.64886
2.6498
2.65108
2.65226
2.65372
2.65511
2.65674
2.65833
2.66013
2.66193
2.66387
2.66589
2.66794
2.67015
2.67229
2.6747
2.6769
2.67949
2.68169
2.68442
2.68662
2.6894
2.69159
2.69431
2.69648
2.69901
2.70114
2.70345
2.70544
2.70745
2.7092
2.71051
2.71189
2.71187
2.71217
2.71255
2.71307
2.71467
1.31802
2.6484
2.71087
2.67256
2.66207
2.64334
2.63931
2.64179
2.64343
2.64527
2.64615
2.64687
2.64761
2.64866
2.6497
2.65102
2.65222
2.65374
2.6551
2.65682
2.65831
2.66024
2.66186
2.66398
2.66572
2.66799
2.66984
2.67221
2.67419
2.67661
2.67871
2.6811
2.68331
2.6856
2.68788
2.68999
2.69224
2.69414
2.69614
2.69782
2.69941
2.70068
2.70198
2.70295
2.70349
2.70493
2.7045
2.70463
2.70331
2.70082
1.31785
2.64706
2.70942
2.67311
2.66138
2.64254
2.63834
2.64088
2.64226
2.64421
2.64488
2.64568
2.64623
2.64735
2.64821
2.64956
2.65061
2.65212
2.65335
2.65502
2.65641
2.65822
2.65978
2.66169
2.66343
2.66539
2.66729
2.66928
2.6713
2.67331
2.67538
2.67739
2.67942
2.68141
2.6833
2.68528
2.68689
2.68882
2.6901
2.69168
2.69271
2.69343
2.69378
2.6939
2.69321
2.69142
2.69073
2.68868
2.68807
2.68783
1.31767
2.6456
2.70786
2.67367
2.66064
2.64162
2.63729
2.63965
2.64114
2.6428
2.64363
2.64416
2.64487
2.64569
2.64674
2.64776
2.64899
2.65016
2.65155
2.65287
2.65442
2.65586
2.65755
2.6591
2.66089
2.66256
2.66439
2.66618
2.66798
2.66987
2.67157
2.67353
2.67507
2.67698
2.67832
2.68001
2.68116
2.68232
2.68338
2.68376
2.68459
2.68451
2.68415
2.68318
2.68205
2.68039
2.67607
2.6726
2.66683
2.66069
1.31748
2.64406
2.70622
2.67425
2.65982
2.6406
2.63608
2.63834
2.63978
2.64134
2.64215
2.64259
2.64325
2.64401
2.64495
2.64596
2.64703
2.64821
2.64939
2.65075
2.65201
2.65353
2.65484
2.65651
2.65783
2.65964
2.66093
2.66283
2.6641
2.66601
2.66725
2.66904
2.67028
2.67178
2.673
2.67404
2.67515
2.67549
2.67613
2.67597
2.67514
2.67439
2.67197
2.66985
2.66519
2.65992
2.65469
2.64505
2.63549
2.62272
1.31729
2.64255
2.70436
2.67477
2.65883
2.63943
2.63464
2.63695
2.63806
2.63975
2.64032
2.64089
2.64131
2.64224
2.64283
2.64406
2.64475
2.64614
2.64695
2.64847
2.64939
2.65101
2.65201
2.65367
2.65475
2.6564
2.65754
2.6591
2.6603
2.66166
2.66288
2.66395
2.66513
2.66585
2.66682
2.66711
2.66776
2.66764
2.66729
2.66643
2.66537
2.66273
2.66053
2.65523
2.6506
2.64065
2.62779
2.61094
2.58217
2.51104
1.3173
2.64175
2.69971
2.67526
2.65738
2.63765
2.63253
2.63467
2.63572
2.63719
2.63781
2.63818
2.63863
2.63927
2.64001
2.64086
2.64173
2.64269
2.64368
2.64472
2.64582
2.64691
2.6481
2.6492
2.65044
2.65149
2.65274
2.65371
2.65489
2.65572
2.65672
2.65734
2.65798
2.65829
2.65849
2.65816
2.65756
2.65666
2.65475
2.65271
2.64859
2.64501
2.63738
2.63132
2.61829
2.60621
2.58338
2.54731
2.4896
2.36401
1.31728
2.64076
2.695
2.67543
2.65546
2.63527
2.62965
2.63175
2.63257
2.63406
2.63461
2.63497
2.6353
2.6359
2.63648
2.63727
2.63795
2.63885
2.63959
2.64056
2.64135
2.64235
2.64316
2.64417
2.64494
2.64591
2.64658
2.64746
2.64797
2.64869
2.64893
2.64944
2.6494
2.64922
2.64874
2.64817
2.64664
2.64537
2.64225
2.63983
2.63477
2.6288
2.62121
2.60777
2.59483
2.56844
2.54175
2.49162
2.41718
2.31787
1.31726
2.64009
2.69253
2.67526
2.65388
2.63297
2.62673
2.62858
2.62933
2.63078
2.63133
2.63159
2.63186
2.63233
2.63286
2.63351
2.63413
2.63485
2.63554
2.63631
2.63702
2.63781
2.63851
2.63926
2.63991
2.64055
2.64106
2.6415
2.64177
2.64194
2.64178
2.6414
2.64087
2.63967
2.63847
2.63609
2.63405
2.63008
2.62697
2.62064
2.61602
2.606
2.59852
2.58339
2.56661
2.54284
2.5064
2.46389
2.39199
2.31827
1.31714
2.63894
2.69172
2.67407
2.65194
2.63017
2.62346
2.6254
2.62624
2.62776
2.62828
2.62834
2.62844
2.62871
2.62893
2.6294
2.62968
2.63018
2.6305
2.63103
2.63138
2.63193
2.63229
2.63283
2.63318
2.63366
2.63395
2.63437
2.63447
2.63456
2.63446
2.63413
2.63355
2.63229
2.63104
2.62827
2.62595
2.62115
2.61662
2.60952
2.60117
2.59127
2.5772
2.56316
2.54106
2.51808
2.48443
2.44371
2.3909
2.32861
1.31686
2.63993
2.70367
2.67078
2.65201
2.62862
2.62141
2.62414
2.6251
2.62694
2.62743
2.62737
2.62733
2.62737
2.62745
2.62755
2.62761
2.62764
2.62762
2.62757
2.62749
2.62731
2.62714
2.62679
2.62651
2.62602
2.62564
2.62481
2.62432
2.62321
2.62256
2.62108
2.62021
2.61818
2.61687
2.61413
2.61148
2.60778
2.60258
2.59697
2.58804
2.57856
2.5647
2.54853
2.52842
2.50232
2.47339
2.4345
2.39191
2.34468
1.30174
2.58633
2.69822
2.67722
2.65955
2.63603
2.62912
2.63203
2.63308
2.63462
2.63449
2.63406
2.6334
2.63286
2.63228
2.63175
2.63111
2.63056
2.6299
2.62935
2.62866
2.62814
2.62739
2.6269
2.626
2.62546
2.62421
2.6233
2.62143
2.62011
2.61742
2.61564
2.61208
2.60984
2.60533
2.60256
2.59691
2.59325
2.58633
2.58056
2.5719
2.56233
2.55059
2.53511
2.5179
2.49444
2.46872
2.43577
2.39806
2.35794
1.7207
2.46853
2.72846
2.70652
2.68414
2.67381
2.67431
2.67586
2.67726
2.67754
2.67635
2.67492
2.67329
2.67154
2.66956
2.6674
2.66498
2.66241
2.65958
2.65666
2.65343
2.65024
2.64668
2.64326
2.63927
2.63537
2.63093
2.62779
2.62396
2.62133
2.61772
2.61489
2.61075
2.60691
2.60188
2.59662
2.59069
2.58348
2.57674
2.56717
2.55911
2.54668
2.5362
2.52012
2.50534
2.48433
2.46304
2.43549
2.40579
2.37297
1.73262
2.46162
2.72294
2.70178
2.67721
2.66818
2.67206
2.67374
2.67643
2.67727
2.67746
2.67732
2.67706
2.67676
2.67608
2.67547
2.67416
2.6732
2.67117
2.66986
2.66715
2.66541
2.66206
2.65971
2.6559
2.65318
2.64894
2.64468
2.63925
2.63368
2.62729
2.62093
2.61489
2.60871
2.60314
2.59597
2.59007
2.5812
2.57376
2.56289
2.55326
2.54014
2.5276
2.51193
2.49561
2.47674
2.45591
2.43296
2.40757
2.38147
1.72936
2.46717
2.72493
2.70208
2.67364
2.66412
2.66894
2.67136
2.67453
2.67565
2.67599
2.67613
2.6763
2.67628
2.67618
2.67592
2.67532
2.67493
2.67402
2.67329
2.67181
2.67056
2.66858
2.66657
2.66402
2.66109
2.65796
2.65407
2.6502
2.64507
2.64058
2.63391
2.62807
2.61894
2.61183
2.6016
2.59371
2.58336
2.57481
2.56354
2.55323
2.54035
2.52734
2.5121
2.49601
2.47769
2.45792
2.43611
2.41259
2.38964
1.73207
2.46046
2.72038
2.69659
2.67055
2.66086
2.66542
2.66763
2.67082
2.67207
2.67249
2.67275
2.6731
2.67339
2.67366
2.67369
2.67361
2.67335
2.67294
2.67221
2.67156
2.67023
2.66927
2.66725
2.66594
2.66323
2.66144
2.65774
2.65536
2.65044
2.64736
2.6411
2.63688
2.62934
2.62327
2.61409
2.60559
2.59423
2.58344
2.57063
2.55807
2.5443
2.53039
2.51506
2.49896
2.48135
2.46316
2.44311
2.42203
2.40132
1.74127
2.44229
2.7088
2.68422
2.66679
2.65739
2.66031
2.66201
2.66512
2.66616
2.66684
2.66692
2.66714
2.66726
2.66739
2.66739
2.66734
2.66716
2.66698
2.66651
2.66617
2.66538
2.6648
2.66354
2.6626
2.66056
2.65918
2.6562
2.65427
2.65025
2.64738
2.6424
2.63834
2.63234
2.6267
2.61939
2.612
2.60297
2.59333
2.5821
2.57
2.55608
2.54146
2.52539
2.50905
2.4913
2.47306
2.45376
2.43372
2.4142
1.73622
2.43585
2.70543
2.67662
2.66897
2.65568
2.65579
2.65778
2.66078
2.66189
2.66296
2.66306
2.66334
2.66353
2.6637
2.66377
2.66375
2.66365
2.6635
2.66315
2.66285
2.66219
2.66168
2.66058
2.65979
2.65808
2.65691
2.65441
2.65269
2.64937
2.64669
2.64249
2.63851
2.63337
2.62822
2.62181
2.61519
2.60729
2.59901
2.5894
2.57919
2.56747
2.55494
2.5408
2.52573
2.50927
2.49204
2.47369
2.45458
2.43594
1.35689
2.4668
2.67904
2.66839
2.6464
2.62374
2.61667
2.62071
2.62267
2.62554
2.62696
2.62798
2.62877
2.62977
2.63047
2.63154
2.63219
2.63314
2.63363
2.63444
2.63474
2.63545
2.63557
2.63572
2.63572
2.6356
2.63536
2.63475
2.63418
2.63294
2.63183
2.62988
2.62796
2.62495
2.62177
2.61721
2.61222
2.60585
2.59897
2.59072
2.58203
2.57195
2.56131
2.54947
2.53675
2.52285
2.50804
2.49218
2.47539
2.45892
1.36029
2.4763
2.68619
2.67701
2.65242
2.62342
2.61377
2.61459
2.61657
2.61854
2.61936
2.61945
2.61965
2.61969
2.61995
2.62028
2.62065
2.62097
2.6213
2.62153
2.62179
2.62187
2.62202
2.62192
2.62174
2.62133
2.62093
2.62003
2.61931
2.61782
2.6166
2.61442
2.61242
2.60951
2.60659
2.60308
2.59936
2.59495
2.58996
2.58436
2.57769
2.57014
2.56119
2.55129
2.54046
2.5288
2.51644
2.50325
2.48916
2.47537
1.34956
2.4121
2.66904
2.66944
2.65002
2.62361
2.61383
2.61389
2.61459
2.61516
2.61483
2.61396
2.61322
2.61218
2.61153
2.61083
2.61034
2.60969
2.60921
2.60857
2.6081
2.60745
2.60697
2.60629
2.60573
2.60494
2.60423
2.60338
2.6025
2.60139
2.60002
2.59844
2.59644
2.59422
2.59144
2.5884
2.58475
2.58079
2.57618
2.57101
2.56527
2.55912
2.55245
2.54512
2.5371
2.52778
2.51727
2.50619
2.49441
2.48305
1.74185
2.39623
2.67445
2.66108
2.65214
2.63824
2.63308
2.63333
2.6331
2.63281
2.63202
2.63081
2.62941
2.62776
2.62616
2.62459
2.62293
2.62122
2.61938
2.61753
2.61555
2.61359
2.61147
2.6094
2.60714
2.60501
2.60265
2.60054
2.59808
2.59564
2.5931
2.59045
2.58767
2.5846
2.58143
2.57779
2.57404
2.56964
2.56515
2.55986
2.55444
2.54814
2.54172
2.53439
2.52675
2.5187
2.51055
2.50153
2.49178
2.48221
1.34694
2.39503
2.65981
2.66566
2.64934
2.62401
2.61541
2.61403
2.6153
2.61556
2.61528
2.61493
2.61404
2.61311
2.61247
2.6116
2.61089
2.60981
2.60887
2.60753
2.6064
2.60502
2.60387
2.60236
2.6011
2.59923
2.59765
2.59514
2.59314
2.59042
2.58807
2.585
2.5822
2.57865
2.57541
2.5715
2.56777
2.5634
2.55904
2.55408
2.54891
2.54314
2.537
2.53036
2.52315
2.51556
2.5074
2.49897
2.48998
2.48136
1.34825
2.40588
2.667
2.67115
2.65082
2.62206
2.61079
2.61059
2.61156
2.61227
2.61215
2.61145
2.61069
2.6097
2.6091
2.60836
2.60776
2.60687
2.60606
2.60493
2.60378
2.60212
2.60044
2.59828
2.5961
2.59361
2.59107
2.58828
2.58535
2.58226
2.57894
2.57556
2.57197
2.56842
2.56445
2.56054
2.55612
2.55184
2.54696
2.54226
2.53692
2.53179
2.52592
2.52023
2.51376
2.50738
2.50019
2.49291
2.48509
2.47773
1.34767
2.40154
2.66422
2.66919
2.64821
2.61876
2.60674
2.60658
2.60739
2.6083
2.60802
2.60717
2.60635
2.60525
2.60453
2.60378
2.60315
2.60236
2.60159
2.60066
2.59969
2.59854
2.59725
2.59579
2.59406
2.59217
2.58994
2.58758
2.58482
2.58195
2.57864
2.57525
2.5714
2.56753
2.56322
2.55885
2.554
2.54904
2.54368
2.53815
2.53233
2.5263
2.52005
2.51352
2.50685
2.49984
2.49281
2.48532
2.47777
2.47039
1.34483
2.37854
2.64702
2.66138
2.64222
2.61437
2.60254
2.60109
2.6014
2.60163
2.60098
2.60021
2.59887
2.59778
2.5967
2.59584
2.59479
2.59388
2.59271
2.5917
2.59042
2.58931
2.58792
2.58669
2.58517
2.58376
2.58201
2.5803
2.57823
2.57614
2.57367
2.57108
2.56809
2.56485
2.56122
2.5573
2.55309
2.54852
2.54367
2.53838
2.53289
2.52693
2.52081
2.51421
2.50747
2.5003
2.49305
2.48553
2.4779
2.47056
1.75151
2.37268
2.64508
2.64129
2.62782
2.61372
2.60885
2.6091
2.60909
2.60898
2.60841
2.60777
2.60654
2.60543
2.60415
2.60305
2.60168
2.60039
2.59881
2.59728
2.5955
2.59375
2.59176
2.58979
2.58761
2.58541
2.58302
2.58057
2.57794
2.57523
2.57242
2.56946
2.56639
2.56308
2.55965
2.55586
2.55194
2.54761
2.54307
2.53812
2.53289
2.52729
2.5215
2.51537
2.50904
2.5024
2.49552
2.48835
2.48085
2.4737
1.34694
2.38818
2.65218
2.65965
2.63909
2.60872
2.59737
2.59599
2.59762
2.59894
2.59878
2.59827
2.59768
2.59641
2.59573
2.59452
2.59378
2.5923
2.59133
2.58962
2.58806
2.58624
2.5844
2.58228
2.58019
2.57797
2.57587
2.57358
2.57142
2.56897
2.56642
2.56354
2.56057
2.5573
2.55394
2.55033
2.54658
2.5426
2.5385
2.53418
2.52966
2.52486
2.51978
2.51434
2.5086
2.50254
2.49622
2.48968
2.48283
2.47627
1.35063
2.41142
2.65455
2.64864
2.62672
2.59614
2.58535
2.58562
2.5874
2.58933
2.58967
2.58943
2.58897
2.58819
2.58768
2.58716
2.5867
2.58608
2.58542
2.58462
2.58374
2.58271
2.58157
2.58025
2.57876
2.57693
2.57485
2.57245
2.56983
2.56694
2.56394
2.56075
2.55742
2.55389
2.55022
2.54636
2.54234
2.53813
2.53375
2.52919
2.52446
2.51955
2.51453
2.5094
2.50405
2.49855
2.49279
2.48683
2.48058
2.47461
1.77141
2.37177
2.63783
2.6171
2.61073
2.59539
2.59267
2.59343
2.59455
2.59585
2.5956
2.59512
2.59479
2.59413
2.59358
2.59301
2.59245
2.59178
2.59107
2.59025
2.58939
2.58838
2.58732
2.58609
2.58477
2.58325
2.5816
2.57971
2.57765
2.57525
2.57253
2.5695
2.56618
2.56258
2.55872
2.55461
2.55027
2.54572
2.54095
2.53601
2.53084
2.52546
2.51981
2.51398
2.508
2.50185
2.49563
2.4893
2.48286
2.47672
1.79803
2.35467
2.62582
2.60539
2.60219
2.59225
2.58888
2.58909
2.58934
2.58991
2.58966
2.58905
2.58842
2.5874
2.58639
2.58526
2.58411
2.58277
2.5814
2.57985
2.57829
2.57657
2.5749
2.57311
2.57137
2.56951
2.56771
2.56578
2.56388
2.56189
2.56003
2.55797
2.55601
2.55379
2.5516
2.54908
2.54651
2.54356
2.54026
2.53658
2.53268
2.52852
2.52411
2.51942
2.51447
2.50925
2.50373
2.49791
2.49181
2.48591
1.76282
2.38117
2.64954
2.61882
2.61304
2.59887
2.5957
2.59782
2.59929
2.60014
2.59988
2.59939
2.59835
2.59715
2.59588
2.59457
2.59314
2.59164
2.58999
2.58831
2.5865
2.58467
2.58258
2.58039
2.57794
2.57543
2.57265
2.56985
2.56678
2.56374
2.56042
2.55719
2.5537
2.55022
2.54648
2.54277
2.5388
2.5349
2.53097
2.52706
2.52297
2.5188
2.51442
2.51
2.50539
2.50073
2.49585
2.49088
2.48564
2.48072
1.28609
2.49401
2.64443
2.64177
2.61653
2.58379
2.5717
2.57213
2.57477
2.57716
2.57841
2.57864
2.57886
2.57884
2.57877
2.57869
2.57854
2.57823
2.57776
2.57711
2.57628
2.57523
2.57408
2.57273
2.57126
2.56956
2.56783
2.56569
2.56345
2.56105
2.55843
2.55564
2.55254
2.54934
2.54585
2.54226
2.53841
2.53448
2.53031
2.52608
2.52164
2.51715
2.51265
2.50792
2.50306
2.49797
2.49278
2.48738
2.48187
2.47659
1.77205
2.36676
2.63892
2.61652
2.61019
2.59475
2.58981
2.59073
2.59115
2.59275
2.59239
2.59181
2.59138
2.59059
2.58986
2.589
2.58825
2.58728
2.58637
2.58521
2.58412
2.58277
2.58148
2.57991
2.57839
2.57657
2.57479
2.57268
2.57038
2.56777
2.56499
2.56191
2.55882
2.5555
2.55218
2.54857
2.54493
2.54098
2.53701
2.53269
2.52836
2.52366
2.5188
2.51373
2.50857
2.50321
2.49776
2.49214
2.4864
2.48092
1.77345
2.36496
2.63683
2.61459
2.60832
2.59299
2.58804
2.58914
2.59021
2.5913
2.59185
2.59135
2.59093
2.59013
2.58929
2.58836
2.58739
2.58625
2.58502
2.58364
2.58217
2.58058
2.5789
2.57712
2.57523
2.57327
2.57118
2.56907
2.567
2.56485
2.56267
2.56034
2.55784
2.55514
2.55224
2.54918
2.54595
2.54258
2.53901
2.53531
2.53141
2.52738
2.52313
2.51876
2.51416
2.50946
2.50452
2.4995
2.49423
2.48915
1.2855
2.49042
2.64174
2.6391
2.61338
2.5787
2.56574
2.56522
2.56775
2.56981
2.57077
2.57071
2.57057
2.57018
2.56987
2.5694
2.5691
2.56847
2.56803
2.56713
2.56649
2.56532
2.56445
2.56301
2.5619
2.56026
2.55863
2.55685
2.55495
2.55294
2.55081
2.54859
2.54627
2.54385
2.54132
2.53865
2.53583
2.53288
2.52978
2.52651
2.52308
2.51948
2.51573
2.51181
2.50774
2.5035
2.49913
2.49457
2.48989
2.48535
1.76702
2.3724
2.64005
2.60939
2.60297
2.58699
2.58393
2.58611
2.58701
2.58915
2.58891
2.58837
2.58793
2.58709
2.58633
2.58543
2.58459
2.58354
2.5825
2.58128
2.58004
2.57864
2.5772
2.57562
2.57397
2.5722
2.57031
2.56832
2.5662
2.56396
2.56159
2.55897
2.55623
2.55326
2.55017
2.54688
2.54348
2.53988
2.53619
2.53238
2.52848
2.52446
2.52031
2.51603
2.51163
2.5071
2.50243
2.49764
2.4927
2.48797
1.79499
2.35546
2.62344
2.59535
2.59137
2.57968
2.57641
2.57761
2.57792
2.57864
2.57847
2.57806
2.57762
2.57687
2.57618
2.57542
2.57463
2.57372
2.57276
2.57167
2.57052
2.56924
2.56791
2.56645
2.56493
2.56329
2.56158
2.55975
2.55786
2.55585
2.55376
2.5517
2.54952
2.54735
2.54503
2.54271
2.54019
2.5376
2.53477
2.53182
2.52861
2.52532
2.52181
2.51823
2.51442
2.51054
2.50643
2.50225
2.49783
2.49366
1.79959
2.35025
2.61842
2.59222
2.58859
2.57733
2.57353
2.57419
2.57438
2.57478
2.57465
2.57423
2.57375
2.57299
2.57223
2.57145
2.5706
2.56967
2.56864
2.56752
2.56629
2.56498
2.56355
2.56202
2.56038
2.55863
2.55677
2.5548
2.5527
2.55051
2.54819
2.54576
2.54321
2.54056
2.53779
2.53492
2.53194
2.52892
2.5258
2.52263
2.51935
2.516
2.51249
2.50891
2.50518
2.50137
2.49741
2.49335
2.48912
2.48512
1.78006
2.35548
2.6159
2.60254
2.59309
2.57664
2.57162
2.5721
2.57271
2.57335
2.57333
2.57285
2.57237
2.57152
2.57074
2.56994
2.56913
2.5682
2.56722
2.5661
2.56494
2.56364
2.56229
2.5608
2.55924
2.55754
2.55577
2.55385
2.55185
2.54971
2.54747
2.54509
2.5426
2.53997
2.53723
2.53435
2.53135
2.52823
2.52496
2.52159
2.51808
2.51448
2.51073
2.50689
2.5029
2.49882
2.49459
2.49028
2.4858
2.48156
1.34471
2.37939
2.63755
2.63711
2.6149
2.58141
2.56718
2.56478
2.56608
2.5672
2.56715
2.56689
2.56622
2.56517
2.56431
2.56348
2.56269
2.56177
2.56081
2.55971
2.55856
2.55726
2.55592
2.55442
2.55287
2.55116
2.54937
2.54744
2.54542
2.54325
2.54098
2.53858
2.53605
2.5334
2.53062
2.52771
2.52466
2.5215
2.51818
2.51476
2.51117
2.50748
2.50362
2.49968
2.49555
2.49135
2.48698
2.48255
2.47794
2.47354
1.34594
2.3869
2.65246
2.65679
2.63074
2.59219
2.57463
2.57225
2.57389
2.57517
2.57562
2.57527
2.57445
2.57343
2.57239
2.5715
2.57064
2.56971
2.5687
2.56759
2.5664
2.56512
2.56377
2.56232
2.56079
2.55916
2.55745
2.55563
2.55372
2.5517
2.54958
2.54736
2.54502
2.54258
2.54001
2.53734
2.53454
2.53162
2.52858
2.52541
2.52212
2.5187
2.51514
2.51146
2.50764
2.5037
2.49962
2.49543
2.49109
2.4869
1.34507
2.37886
2.63593
2.63606
2.61314
2.57979
2.5646
2.56259
2.56394
2.56486
2.56527
2.56485
2.56414
2.56311
2.56217
2.56134
2.56054
2.55966
2.55872
2.55767
2.55657
2.55536
2.55411
2.55274
2.55132
2.54977
2.54818
2.54645
2.54468
2.54276
2.54079
2.53867
2.5365
2.53417
2.53179
2.52925
2.52665
2.52389
2.52107
2.51808
2.51503
2.51181
2.50853
2.50506
2.50154
2.49784
2.49407
2.49013
2.48611
2.48218
1.78133
2.35379
2.6134
2.59925
2.5895
2.57162
2.56655
2.56692
2.5675
2.56856
2.56839
2.56788
2.56736
2.56652
2.56574
2.56497
2.56416
2.56327
2.56232
2.56127
2.56016
2.55894
2.55768
2.55629
2.55485
2.55329
2.55167
2.54992
2.54812
2.54617
2.54418
2.54202
2.53984
2.53747
2.53507
2.53248
2.52987
2.52706
2.52423
2.52119
2.51813
2.51486
2.51157
2.50806
2.50454
2.50078
2.49702
2.49303
2.489
2.48503
1.80168
2.3467
2.614
2.58685
2.58332
2.57206
2.56856
2.56965
2.56993
2.57039
2.57024
2.56977
2.56915
2.56833
2.56745
2.56663
2.56569
2.56474
2.56363
2.56251
2.56124
2.55994
2.5585
2.55701
2.5554
2.55371
2.55191
2.55001
2.54802
2.54591
2.54371
2.54137
2.53897
2.5364
2.53378
2.53098
2.52814
2.5251
2.52203
2.51875
2.51545
2.51193
2.5084
2.50463
2.50086
2.49686
2.49286
2.48862
2.48437
2.48018
1.78858
2.36036
2.62646
2.59486
2.58826
2.57416
2.57168
2.57371
2.5752
2.57613
2.5761
2.57565
2.57502
2.57428
2.57343
2.5727
2.57177
2.57088
2.5698
2.56873
2.56749
2.56624
2.56484
2.56341
2.56183
2.56021
2.55846
2.55662
2.55469
2.55264
2.55051
2.54824
2.54591
2.54342
2.54087
2.53815
2.53539
2.53243
2.52944
2.52624
2.52302
2.51958
2.51613
2.51244
2.50875
2.50483
2.5009
2.49674
2.49256
2.48844
2.1721
2.34404
2.76423
2.85895
2.89565
2.84371
2.84018
2.83883
2.8311
2.82971
2.83208
2.83366
2.83443
2.83517
2.83629
2.83749
2.83892
2.84046
2.84138
2.84194
2.84208
2.84159
2.84024
2.83908
2.83579
2.83327
2.82867
2.82471
2.81918
2.81408
2.80801
2.80209
2.79537
2.78876
2.78177
2.77468
2.76735
2.75946
2.75109
2.74288
2.73448
2.72623
2.71773
2.70945
2.70095
2.69273
2.68432
2.67626
2.66805
2.66023
2.6523
2.64481
2.63727
2.6302
2.62315
2.6166
2.61014
2.60423
2.59847
2.59331
2.58836
2.58409
2.58008
2.5768
2.57384
2.57166
2.56983
2.56879
2.56809
2.56809
2.56818
2.56848
2.56918
2.57059
2.57266
2.5749
2.57723
2.57953
2.58186
2.58407
2.58622
2.58814
2.58991
2.59138
2.59267
2.59363
2.59442
2.59488
2.59522
2.5953
2.59524
2.59508
2.59477
2.59411
2.59337
2.5924
2.59156
2.59051
2.58963
2.58672
2.1802
2.25978
2.44977
2.62831
2.69591
2.74071
2.77275
2.80011
2.81654
2.82973
2.83822
2.84843
2.85455
2.85409
2.84996
2.84402
2.83565
2.8273
2.81687
2.80689
2.79584
2.78503
2.77364
2.76261
2.75094
2.7397
2.72782
2.71653
2.70467
2.69348
2.68175
2.67069
2.65919
2.6483
2.63731
2.62697
2.61645
2.60578
2.59482
2.58414
2.57379
2.56358
2.55358
2.54372
2.53409
2.52461
2.51539
2.50636
2.49758
2.48901
2.48069
2.47263
2.46482
2.45734
2.45011
2.44328
2.43672
2.43063
2.42482
2.41956
2.41462
2.41029
2.40632
2.40302
2.40012
2.39793
2.39618
2.39514
2.39453
2.39453
2.39473
2.39519
2.39618
2.39775
2.40007
2.4027
2.40543
2.40818
2.41089
2.4135
2.41595
2.41819
2.42014
2.42181
2.42314
2.42418
2.42487
2.42527
2.42537
2.42525
2.42505
2.42462
2.42417
2.42323
2.42235
2.4211
2.42015
2.41887
2.41805
2.4151
2.22682
2.21229
2.27142
2.35717
2.41137
2.45924
2.49319
2.52104
2.54295
2.55933
2.57168
2.58082
2.58782
2.59002
2.58915
2.58718
2.58281
2.57782
2.57188
2.56542
2.55832
2.55101
2.54337
2.53571
2.52773
2.5197
2.51137
2.50311
2.49463
2.48632
2.4778
2.4695
2.46097
2.45272
2.44444
2.4367
2.42881
2.4207
2.41213
2.40371
2.39557
2.38755
2.37965
2.37182
2.36409
2.35648
2.34899
2.34164
2.33443
2.3274
2.32054
2.31389
2.30742
2.30119
2.29518
2.28944
2.28397
2.2788
2.27395
2.26944
2.2653
2.26156
2.25824
2.25536
2.25295
2.25102
2.24959
2.24867
2.24825
2.24826
2.24847
2.24891
2.2498
2.2512
2.25332
2.25567
2.2582
2.26068
2.2632
2.26554
2.26781
2.26979
2.27163
2.27308
2.27437
2.27523
2.27594
2.27623
2.27641
2.27631
2.27618
2.2759
2.27555
2.27481
2.27411
2.27308
2.27233
2.27131
2.27083
2.26847
2.25955
2.21992
2.21542
2.24024
2.27115
2.29357
2.30882
2.32054
2.33107
2.34026
2.3479
2.35393
2.35858
2.36214
2.36369
2.36389
2.36382
2.36366
2.3635
2.36317
2.36276
2.36211
2.36146
2.36026
2.3588
2.35711
2.35492
2.3525
2.34966
2.34663
2.34321
2.33961
2.33564
2.33153
2.32731
2.32324
2.31901
2.31426
2.30894
2.3034
2.29794
2.29244
2.28695
2.28134
2.27574
2.27005
2.2644
2.2587
2.25309
2.24747
2.24197
2.2365
2.23119
2.22596
2.22093
2.21602
2.21137
2.20688
2.20271
2.19875
2.19516
2.19183
2.18894
2.18635
2.18425
2.18251
2.18129
2.18046
2.1802
2.18025
2.18048
2.18091
2.18179
2.18308
2.18508
2.18722
2.18966
2.19198
2.19441
2.19658
2.19874
2.20054
2.20226
2.20357
2.20476
2.20552
2.20615
2.20638
2.20653
2.20642
2.20631
2.20606
2.20574
2.20507
2.20447
2.20356
2.20292
2.20206
2.20181
2.19979
2.27479
2.24088
2.21894
2.21133
2.21835
2.22301
2.22503
2.22565
2.22656
2.22841
2.2311
2.23344
2.23538
2.23726
2.2399
2.24228
2.24443
2.24696
2.24957
2.2525
2.25535
2.25823
2.26079
2.26313
2.26502
2.26648
2.26738
2.26793
2.26764
2.26709
2.266
2.26452
2.26252
2.26022
2.25771
2.25521
2.25243
2.24908
2.24506
2.24065
2.23617
2.23157
2.22694
2.22214
2.21731
2.21232
2.20735
2.20226
2.19723
2.19212
2.18713
2.1821
2.17723
2.17237
2.16772
2.16314
2.1588
2.15459
2.15067
2.14694
2.14355
2.14041
2.13765
2.13523
2.13321
2.13159
2.13041
2.12969
2.12946
2.12955
2.12977
2.1302
2.13107
2.13235
2.13421
2.13624
2.13857
2.14083
2.14319
2.14529
2.14739
2.14912
2.15078
2.15203
2.15318
2.15388
2.15451
2.15471
2.15487
2.15478
2.15468
2.15444
2.15414
2.15348
2.15297
2.1521
2.15155
2.15075
2.15062
2.14869
2.29827
2.25444
2.23032
2.21043
2.20057
2.19374
2.18797
2.18191
2.17702
2.17323
2.17143
2.17092
2.17148
2.17184
2.17294
2.17516
2.17776
2.18094
2.18392
2.18754
2.19096
2.19483
2.1982
2.20173
2.20452
2.20726
2.20908
2.21074
2.21147
2.21205
2.21185
2.21119
2.21006
2.20852
2.20683
2.20506
2.20301
2.20036
2.19707
2.19331
2.18942
2.18531
2.18118
2.17686
2.17252
2.168
2.16349
2.15883
2.15421
2.14949
2.14486
2.14018
2.13563
2.13109
2.12672
2.12242
2.11833
2.11436
2.11066
2.10715
2.10394
2.10098
2.09838
2.0961
2.09421
2.09269
2.09162
2.09101
2.09086
2.09097
2.0912
2.09166
2.09256
2.09386
2.0956
2.09753
2.09972
2.10191
2.10415
2.10623
2.10819
2.1099
2.1114
2.11263
2.11362
2.11436
2.11484
2.11508
2.11512
2.11504
2.11493
2.11464
2.11433
2.11365
2.11317
2.1123
2.11179
2.11103
2.11096
2.10909
2.32199
2.28184
2.24816
2.22335
2.20294
2.18799
2.1756
2.16511
2.15561
2.14812
2.14223
2.1387
2.13657
2.13615
2.13621
2.13676
2.13861
2.14149
2.14468
2.14813
2.15175
2.15559
2.15934
2.16311
2.1665
2.16969
2.17226
2.1745
2.176
2.17719
2.17761
2.17776
2.17717
2.17624
2.17519
2.17401
2.17252
2.17043
2.16773
2.16456
2.16116
2.1575
2.15377
2.14985
2.1459
2.14177
2.13763
2.13334
2.12906
2.12467
2.12034
2.11595
2.11167
2.10739
2.10326
2.09918
2.09531
2.09155
2.08803
2.0847
2.08166
2.07886
2.0764
2.07424
2.07247
2.07108
2.07012
2.06963
2.06955
2.06966
2.06991
2.07045
2.07133
2.07272
2.07433
2.07625
2.07826
2.08044
2.08251
2.08458
2.08639
2.0881
2.08949
2.09072
2.09162
2.09235