/*--------------------------------*- C++ -*----------------------------------*\
| =========                 |                                                 |
| \\      /  F ield         | OpenFOAM: The Open Source CFD Toolbox           |
|  \\    /   O peration     | Version:  2412                                  |
|   \\  /    A nd           | Website:  www.openfoam.com                      |
|    \\/     M anipulation  |                                                 |
\*---------------------------------------------------------------------------*/
FoamFile
{
    version     2.0;
    format      ascii;
    arch        "LSB;label=32;scalar=64";
    class       volVectorField;
    location    "16.5";
    object      U;
}
// * * * * * * * * * * * * * * * * * * * * * * * * * * * * * * * * * * * * * //

dimensions      [0 1 -1 0 0 0 0];

internalField   nonuniform List<vector> 
7000
(
(2.59145 -7.26182e-05 0)
(1.62149 0.000178476 0)
(0.496296 0.000208451 0)
(0.552964 0.000350334 0)
(0.65466 0.000446203 0)
(0.719902 0.000524227 0)
(0.732796 0.000592035 0)
(0.725897 0.000662278 0)
(0.715821 0.000740686 0)
(0.708111 0.000831077 0)
(0.703636 0.000929686 0)
(0.700063 0.00103285 0)
(0.695974 0.00113976 0)
(0.691114 0.00125138 0)
(0.685647 0.00136871 0)
(0.679697 0.00149235 0)
(0.673282 0.00162257 0)
(0.666369 0.00175971 0)
(0.658922 0.00190419 0)
(0.650916 0.00205657 0)
(0.642328 0.00221746 0)
(0.633134 0.00238752 0)
(0.623309 0.00256746 0)
(0.612826 0.00275805 0)
(0.601656 0.00296012 0)
(0.589769 0.00317454 0)
(0.577132 0.00340223 0)
(0.563712 0.00364413 0)
(0.549474 0.00390124 0)
(0.534381 0.00417452 0)
(0.518397 0.00446496 0)
(0.501483 0.00477342 0)
(0.483601 0.00510081 0)
(0.464715 0.00544773 0)
(0.444787 0.00581479 0)
(0.423784 0.00620208 0)
(0.401677 0.00660962 0)
(0.378441 0.00703662 0)
(0.354059 0.00748211 0)
(0.328524 0.00794392 0)
(0.301839 0.00841962 0)
(0.274022 0.00890517 0)
(0.24511 0.00939654 0)
(0.215153 0.00988751 0)
(0.18423 0.0103733 0)
(0.152424 0.0108476 0)
(0.119836 0.0113127 0)
(0.0868608 0.0117554 0)
(0.0514717 0.0123451 0)
(0.0221432 0.0131994 0)
(2.59158 -4.82268e-05 0)
(1.62165 0.000347386 0)
(0.495983 0.000827063 0)
(0.552701 0.00113884 0)
(0.654421 0.00137401 0)
(0.719676 0.00159594 0)
(0.73257 0.00180386 0)
(0.725676 0.00201898 0)
(0.715608 0.00225634 0)
(0.707907 0.00252604 0)
(0.703438 0.00281874 0)
(0.69987 0.00312485 0)
(0.695784 0.00344224 0)
(0.690929 0.00377316 0)
(0.685467 0.00412025 0)
(0.679522 0.00448489 0)
(0.673113 0.00486783 0)
(0.666206 0.00526974 0)
(0.658766 0.00569173 0)
(0.650767 0.00613503 0)
(0.642185 0.0066012 0)
(0.632998 0.00709168 0)
(0.623182 0.00760826 0)
(0.612707 0.00815253 0)
(0.601546 0.00872645 0)
(0.589668 0.00933169 0)
(0.57704 0.00997033 0)
(0.56363 0.0106439 0)
(0.549401 0.0113544 0)
(0.534318 0.012103 0)
(0.518343 0.0128914 0)
(0.501437 0.0137198 0)
(0.483563 0.0145892 0)
(0.464682 0.0154983 0)
(0.444758 0.0164463 0)
(0.423756 0.01743 0)
(0.401646 0.0184459 0)
(0.378402 0.0194872 0)
(0.354004 0.0205466 0)
(0.328445 0.0216128 0)
(0.301726 0.0226733 0)
(0.273863 0.0237115 0)
(0.244889 0.0247095 0)
(0.214854 0.0256469 0)
(0.183834 0.0265013 0)
(0.151911 0.027256 0)
(0.119177 0.0279057 0)
(0.0860738 0.0284261 0)
(0.050524 0.0290786 0)
(0.0212154 0.0298317 0)
(2.59171 4.76133e-05 0)
(1.62194 0.000391909 0)
(0.49619 0.00160387 0)
(0.552754 0.00197934 0)
(0.654462 0.00230338 0)
(0.719718 0.00266876 0)
(0.732613 0.00303809 0)
(0.725729 0.0034166 0)
(0.715683 0.0038265 0)
(0.708004 0.00428423 0)
(0.703549 0.00477869 0)
(0.69999 0.0052971 0)
(0.695913 0.00583654 0)
(0.69107 0.00639985 0)
(0.68562 0.006991 0)
(0.67969 0.007612 0)
(0.673294 0.00826449 0)
(0.666402 0.00894954 0)
(0.658978 0.0096694 0)
(0.650995 0.0104259 0)
(0.642431 0.0112222 0)
(0.633264 0.0120604 0)
(0.623467 0.012944 0)
(0.613014 0.0138756 0)
(0.601876 0.0148589 0)
(0.590022 0.0158967 0)
(0.577421 0.0169929 0)
(0.564037 0.0181501 0)
(0.549837 0.0193723 0)
(0.534783 0.0206615 0)
(0.518838 0.0220209 0)
(0.501963 0.0234515 0)
(0.484118 0.0249549 0)
(0.465266 0.02653 0)
(0.445368 0.0281755 0)
(0.424389 0.0298871 0)
(0.402296 0.0316582 0)
(0.379062 0.0334797 0)
(0.354666 0.0353377 0)
(0.329097 0.0372162 0)
(0.302352 0.0390918 0)
(0.274447 0.04094 0)
(0.245409 0.0427277 0)
(0.215285 0.0444238 0)
(0.18415 0.0459902 0)
(0.152087 0.0473923 0)
(0.119183 0.0486191 0)
(0.0859361 0.0496292 0)
(0.0502465 0.0506849 0)
(0.0207744 0.0516809 0)
(2.59188 5.407e-05 0)
(1.62239 0.000535225 0)
(0.496618 0.00234956 0)
(0.552877 0.00281268 0)
(0.654585 0.00323496 0)
(0.719861 0.00375469 0)
(0.732761 0.00430057 0)
(0.725892 0.00485635 0)
(0.715875 0.00544907 0)
(0.708228 0.006101 0)
(0.703796 0.00680206 0)
(0.700254 0.00753862 0)
(0.696194 0.00830677 0)
(0.691371 0.00910963 0)
(0.685943 0.0099517 0)
(0.680035 0.0108359 0)
(0.673664 0.0117645 0)
(0.666797 0.0127393 0)
(0.6594 0.0137633 0)
(0.651445 0.0148396 0)
(0.642912 0.0159718 0)
(0.633777 0.0171639 0)
(0.624015 0.01842 0)
(0.6136 0.0197446 0)
(0.602501 0.0211422 0)
(0.59069 0.0226178 0)
(0.578132 0.0241758 0)
(0.564796 0.0258215 0)
(0.550645 0.0275589 0)
(0.535642 0.0293931 0)
(0.519749 0.0313266 0)
(0.502927 0.0333635 0)
(0.485136 0.0355038 0)
(0.466336 0.0377492 0)
(0.446488 0.0400953 0)
(0.425555 0.0425396 0)
(0.403502 0.0450708 0)
(0.380299 0.0476792 0)
(0.355922 0.050344 0)
(0.330356 0.0530445 0)
(0.303594 0.0557484 0)
(0.275648 0.0584197 0)
(0.246542 0.0610156 0)
(0.216318 0.0634859 0)
(0.185049 0.065786 0)
(0.152819 0.0678582 0)
(0.119712 0.0696754 0)
(0.0862842 0.0711839 0)
(0.0503962 0.0726127 0)
(0.0206282 0.0737724 0)
(2.59213 6.76799e-05 0)
(1.62302 0.000715608 0)
(0.497169 0.00310187 0)
(0.552988 0.00367751 0)
(0.654713 0.00420868 0)
(0.720034 0.00488245 0)
(0.732947 0.00560503 0)
(0.726097 0.00634513 0)
(0.716117 0.00712932 0)
(0.70851 0.00798166 0)
(0.704111 0.00889467 0)
(0.700596 0.00985574 0)
(0.696563 0.0108599 0)
(0.691768 0.0119108 0)
(0.686372 0.0130126 0)
(0.680499 0.0141697 0)
(0.674163 0.0153841 0)
(0.667334 0.0166596 0)
(0.659976 0.0179989 0)
(0.652065 0.0194071 0)
(0.643577 0.020888 0)
(0.634491 0.0224479 0)
(0.624782 0.0240909 0)
(0.614422 0.0258242 0)
(0.603383 0.0276525 0)
(0.591634 0.0295836 0)
(0.579143 0.0316222 0)
(0.565877 0.0337764 0)
(0.5518 0.0360505 0)
(0.536874 0.0384519 0)
(0.52106 0.0409839 0)
(0.504319 0.043652 0)
(0.486609 0.0464567 0)
(0.467889 0.0493998 0)
(0.448119 0.0524773 0)
(0.427258 0.0556839 0)
(0.405269 0.0590087 0)
(0.382118 0.0624353 0)
(0.357777 0.0659426 0)
(0.332225 0.0694984 0)
(0.305453 0.0730675 0)
(0.277462 0.0765974 0)
(0.248274 0.0800345 0)
(0.217929 0.0833108 0)
(0.186491 0.0863606 0)
(0.154052 0.0891165 0)
(0.120682 0.0915203 0)
(0.0870026 0.0934952 0)
(0.0508284 0.0952356 0)
(0.0206451 0.0964883 0)
(2.59247 7.99515e-05 0)
(1.62387 0.00089953 0)
(0.497868 0.00385322 0)
(0.553103 0.00455491 0)
(0.654856 0.00520137 0)
(0.720244 0.00602938 0)
(0.733185 0.0069348 0)
(0.72636 0.00786364 0)
(0.716424 0.00884732 0)
(0.708867 0.009909 0)
(0.70451 0.0110426 0)
(0.701031 0.012236 0)
(0.697034 0.0134848 0)
(0.692278 0.0147921 0)
(0.686924 0.0161629 0)
(0.681095 0.0176017 0)
(0.674807 0.0191118 0)
(0.668027 0.0206971 0)
(0.660723 0.0223619 0)
(0.652867 0.0241118 0)
(0.64444 0.0259525 0)
(0.635419 0.0278905 0)
(0.625779 0.0299326 0)
(0.615493 0.0320862 0)
(0.604533 0.034359 0)
(0.592869 0.0367587 0)
(0.580468 0.0392937 0)
(0.567297 0.0419718 0)
(0.55332 0.0448012 0)
(0.538498 0.0477886 0)
(0.522792 0.0509413 0)
(0.506162 0.0542636 0)
(0.488565 0.0577597 0)
(0.469957 0.0614294 0)
(0.450295 0.0652712 0)
(0.429537 0.069277 0)
(0.40764 0.0734361 0)
(0.384567 0.0777274 0)
(0.360282 0.0821257 0)
(0.334762 0.0865925 0)
(0.307986 0.091081 0)
(0.279952 0.0955347 0)
(0.250669 0.0998793 0)
(0.220174 0.104032 0)
(0.188526 0.107901 0)
(0.155816 0.111396 0)
(0.122113 0.114434 0)
(0.0880743 0.116907 0)
(0.0514894 0.11896 0)
(0.020795 0.120283 0)
(2.5929 9.25995e-05 0)
(1.62494 0.0010856 0)
(0.498724 0.00461228 0)
(0.553225 0.0054478 0)
(0.655015 0.00621606 0)
(0.720496 0.00720204 0)
(0.733476 0.00829789 0)
(0.726684 0.00941993 0)
(0.716802 0.0106098 0)
(0.709305 0.0118893 0)
(0.705001 0.0132516 0)
(0.701567 0.014685 0)
(0.697616 0.0161863 0)
(0.69291 0.0177583 0)
(0.687609 0.0194067 0)
(0.681836 0.021136 0)
(0.675607 0.0229509 0)
(0.66889 0.0248554 0)
(0.661652 0.0268557 0)
(0.653868 0.0289575 0)
(0.645518 0.0311686 0)
(0.636579 0.0334961 0)
(0.627026 0.0359489 0)
(0.616835 0.0385352 0)
(0.605975 0.0412652 0)
(0.594419 0.0441478 0)
(0.582132 0.0471935 0)
(0.569082 0.0504118 0)
(0.555232 0.0538129 0)
(0.540544 0.0574058 0)
(0.524978 0.0611989 0)
(0.508492 0.0651992 0)
(0.491041 0.0694113 0)
(0.47258 0.0738375 0)
(0.453062 0.0784755 0)
(0.432442 0.0833186 0)
(0.410672 0.0883529 0)
(0.387708 0.0935573 0)
(0.363509 0.0989004 0)
(0.33804 0.104339 0)
(0.311275 0.109816 0)
(0.283198 0.115261 0)
(0.253813 0.120593 0)
(0.223139 0.125703 0)
(0.191237 0.130477 0)
(0.158189 0.134797 0)
(0.124054 0.13854 0)
(0.08955 0.141565 0)
(0.0523975 0.143977 0)
(0.0210409 0.145403 0)
(2.59343 0.000105354 0)
(1.62626 0.00127216 0)
(0.499752 0.00537696 0)
(0.553356 0.00635008 0)
(0.655192 0.00724366 0)
(0.720794 0.00839191 0)
(0.733828 0.00968023 0)
(0.727076 0.0110032 0)
(0.717261 0.012408 0)
(0.709834 0.0139134 0)
(0.705592 0.0155118 0)
(0.702216 0.0171931 0)
(0.698322 0.0189546 0)
(0.693677 0.0207999 0)
(0.688441 0.0227346 0)
(0.682737 0.0247637 0)
(0.676581 0.0268923 0)
(0.669941 0.0291258 0)
(0.662785 0.0314711 0)
(0.655089 0.0339352 0)
(0.646832 0.0365269 0)
(0.637994 0.0392551 0)
(0.62855 0.0421299 0)
(0.618474 0.0451617 0)
(0.607739 0.0483615 0)
(0.596315 0.0517411 0)
(0.58417 0.0553123 0)
(0.571269 0.0590873 0)
(0.557578 0.0630777 0)
(0.543056 0.0672952 0)
(0.527664 0.07175 0)
(0.511356 0.0764513 0)
(0.494089 0.081406 0)
(0.475814 0.0866174 0)
(0.45648 0.0920857 0)
(0.436037 0.0978036 0)
(0.414433 0.103758 0)
(0.391616 0.109926 0)
(0.367537 0.116274 0)
(0.342148 0.122753 0)
(0.315412 0.129299 0)
(0.287303 0.135826 0)
(0.257806 0.142234 0)
(0.226931 0.148405 0)
(0.194723 0.154185 0)
(0.161265 0.159429 0)
(0.126592 0.16398 0)
(0.0914684 0.167644 0)
(0.0535957 0.170473 0)
(0.0214291 0.172038 0)
(2.59407 0.00011817 0)
(1.62784 0.0014583 0)
(0.500964 0.00614456 0)
(0.553498 0.00725767 0)
(0.655391 0.00827978 0)
(0.721142 0.00959457 0)
(0.734247 0.0110806 0)
(0.727548 0.0126102 0)
(0.717811 0.0142377 0)
(0.710466 0.0159767 0)
(0.706298 0.0178192 0)
(0.70299 0.0197562 0)
(0.699166 0.0217863 0)
(0.694594 0.0239133 0)
(0.689436 0.0261428 0)
(0.683815 0.0284802 0)
(0.677745 0.0309314 0)
(0.671198 0.0335028 0)
(0.66414 0.0362021 0)
(0.65655 0.0390378 0)
(0.648406 0.0420199 0)
(0.639689 0.0451589 0)
(0.630376 0.0484664 0)
(0.62044 0.0519545 0)
(0.609855 0.0556366 0)
(0.598591 0.0595258 0)
(0.586616 0.0636368 0)
(0.573898 0.0679834 0)
(0.560399 0.0725804 0)
(0.54608 0.0774412 0)
(0.530899 0.0825794 0)
(0.514812 0.0880057 0)
(0.497771 0.0937305 0)
(0.479726 0.0997588 0)
(0.460621 0.106093 0)
(0.440402 0.112728 0)
(0.419009 0.119652 0)
(0.396384 0.12684 0)
(0.372464 0.134258 0)
(0.347194 0.141854 0)
(0.320517 0.149555 0)
(0.29239 0.157269 0)
(0.262785 0.164872 0)
(0.231683 0.172224 0)
(0.199121 0.17915 0)
(0.165165 0.185452 0)
(0.129842 0.190931 0)
(0.0939461 0.195341 0)
(0.0551264 0.19868 0)
(0.0219356 0.200436 0)
(2.59482 0.000130914 0)
(1.62971 0.00164272 0)
(0.502377 0.00690983 0)
(0.553657 0.00816457 0)
(0.655618 0.0093176 0)
(0.721549 0.0108024 0)
(0.734743 0.0124902 0)
(0.728108 0.0142322 0)
(0.718466 0.0160901 0)
(0.711215 0.018071 0)
(0.707132 0.0201659 0)
(0.703905 0.0223671 0)
(0.700163 0.0246741 0)
(0.695678 0.0270912 0)
(0.690612 0.0296239 0)
(0.685088 0.0322782 0)
(0.679121 0.0350605 0)
(0.672682 0.0379783 0)
(0.665741 0.0410403 0)
(0.658274 0.0442565 0)
(0.650265 0.047638 0)
(0.641691 0.051197 0)
(0.632531 0.0549469 0)
(0.622761 0.0589016 0)
(0.612354 0.0630764 0)
(0.60128 0.067487 0)
(0.589509 0.0721502 0)
(0.577008 0.0770824 0)
(0.563739 0.0823011 0)
(0.549663 0.0878228 0)
(0.534738 0.093664 0)
(0.518917 0.0998392 0)
(0.502152 0.106361 0)
(0.484387 0.113239 0)
(0.465565 0.120477 0)
(0.445624 0.128074 0)
(0.424499 0.136019 0)
(0.40212 0.144291 0)
(0.378414 0.152855 0)
(0.353308 0.161655 0)
(0.326732 0.170616 0)
(0.298615 0.179635 0)
(0.26891 0.188573 0)
(0.237572 0.197266 0)
(0.204604 0.205501 0)
(0.170067 0.213041 0)
(0.133938 0.21963 0)
(0.0970716 0.224944 0)
(0.0570886 0.228906 0)
(0.0226395 0.230913 0)
(2.59569 0.000143457 0)
(1.63187 0.00182367 0)
(0.504004 0.00766506 0)
(0.553835 0.00906347 0)
(0.655876 0.0103501 0)
(0.722022 0.0120065 0)
(0.735326 0.0139011 0)
(0.728771 0.0158601 0)
(0.719239 0.0179552 0)
(0.712095 0.0201868 0)
(0.70811 0.0225431 0)
(0.704977 0.0250172 0)
(0.701332 0.0276097 0)
(0.696948 0.0303252 0)
(0.691989 0.0331694 0)
(0.686577 0.0361487 0)
(0.680728 0.0392702 0)
(0.674416 0.0425424 0)
(0.667609 0.0459752 0)
(0.660288 0.0495798 0)
(0.652433 0.0533689 0)
(0.644027 0.0573564 0)
(0.635047 0.0615572 0)
(0.62547 0.0659876 0)
(0.615271 0.0706648 0)
(0.60442 0.0756072 0)
(0.592888 0.0808337 0)
(0.580642 0.0863642 0)
(0.567644 0.0922188 0)
(0.553857 0.0984176 0)
(0.539235 0.10498 0)
(0.523733 0.111926 0)
(0.507298 0.119271 0)
(0.489874 0.127029 0)
(0.471397 0.135208 0)
(0.451801 0.143813 0)
(0.431011 0.152836 0)
(0.408947 0.16226 0)
(0.385523 0.172052 0)
(0.360648 0.182159 0)
(0.334229 0.192499 0)
(0.306172 0.202967 0)
(0.276391 0.213409 0)
(0.244817 0.223635 0)
(0.211404 0.233403 0)
(0.176189 0.242407 0)
(0.139124 0.250328 0)
(0.101054 0.256765 0)
(0.0595682 0.261535 0)
(0.0235279 0.263891 0)
(2.59668 0.00015523 0)
(1.63435 0.00199951 0)
(0.505859 0.00839806 0)
(0.554039 0.00994549 0)
(0.656172 0.0113706 0)
(0.72257 0.0131956 0)
(0.736007 0.0153008 0)
(0.729548 0.0174819 0)
(0.720147 0.019822 0)
(0.713125 0.0223136 0)
(0.709252 0.0249408 0)
(0.706227 0.0276969 0)
(0.702693 0.0305833 0)
(0.698425 0.0336054 0)
(0.693588 0.0367692 0)
(0.688304 0.0400812 0)
(0.682591 0.0435494 0)
(0.676423 0.0471832 0)
(0.669772 0.0509938 0)
(0.662616 0.0549938 0)
(0.65494 0.0591974 0)
(0.646726 0.0636201 0)
(0.637954 0.0682791 0)
(0.628601 0.0731926 0)
(0.618642 0.0783801 0)
(0.60805 0.0838627 0)
(0.596795 0.0896622 0)
(0.584846 0.0958014 0)
(0.572166 0.102304 0)
(0.558716 0.109194 0)
(0.544452 0.116496 0)
(0.529326 0.124231 0)
(0.513285 0.132424 0)
(0.496268 0.141092 0)
(0.47821 0.150251 0)
(0.459036 0.159909 0)
(0.438664 0.170068 0)
(0.417002 0.180717 0)
(0.393949 0.191827 0)
(0.369392 0.203352 0)
(0.343215 0.215212 0)
(0.315288 0.227296 0)
(0.28549 0.239446 0)
(0.253702 0.251444 0)
(0.219827 0.263017 0)
(0.183841 0.273809 0)
(0.145645 0.283396 0)
(0.106115 0.291259 0)
(0.0627794 0.297079 0)
(0.0247402 0.299917 0)
(2.5978 0.000162993 0)
(1.63716 0.00217074 0)
(0.507953 0.00909041 0)
(0.554278 0.0107965 0)
(0.656509 0.0123692 0)
(0.723196 0.0143519 0)
(0.736797 0.0166743 0)
(0.730455 0.0190841 0)
(0.721208 0.0216774 0)
(0.714325 0.0244392 0)
(0.710576 0.0273475 0)
(0.707674 0.0303947 0)
(0.704265 0.0335839 0)
(0.700129 0.0369209 0)
(0.69543 0.0404119 0)
(0.690291 0.0440639 0)
(0.684733 0.0478856 0)
(0.678728 0.0518875 0)
(0.672252 0.056082 0)
(0.665286 0.0604831 0)
(0.657813 0.0651069 0)
(0.649819 0.0699704 0)
(0.641283 0.075093 0)
(0.632186 0.080495 0)
(0.622502 0.0861987 0)
(0.612207 0.0922276 0)
(0.601272 0.0986067 0)
(0.589666 0.105362 0)
(0.577353 0.112522 0)
(0.564296 0.120115 0)
(0.550449 0.128168 0)
(0.535766 0.136712 0)
(0.52019 0.145773 0)
(0.50366 0.155379 0)
(0.486105 0.165552 0)
(0.467447 0.17631 0)
(0.447593 0.187663 0)
(0.42644 0.199611 0)
(0.403871 0.212136 0)
(0.379751 0.225201 0)
(0.353931 0.238736 0)
(0.326249 0.252636 0)
(0.296525 0.266738 0)
(0.264589 0.280811 0)
(0.230269 0.294542 0)
(0.193465 0.307514 0)
(0.15398 0.319205 0)
(0.112646 0.328945 0)
(0.0669277 0.336214 0)
(0.0263049 0.339759 0)
(2.59907 0.000168706 0)
(1.64029 0.00233182 0)
(0.510276 0.0097384 0)
(0.554557 0.0116002 0)
(0.656885 0.0133198 0)
(0.723896 0.0154572 0)
(0.737704 0.018006 0)
(0.731499 0.0206511 0)
(0.722432 0.0235069 0)
(0.715708 0.0265496 0)
(0.712099 0.0297492 0)
(0.709333 0.0330972 0)
(0.706066 0.0365978 0)
(0.702078 0.0402574 0)
(0.697534 0.0440828 0)
(0.692558 0.0480811 0)
(0.687172 0.0522619 0)
(0.681353 0.0566367 0)
(0.675074 0.0612194 0)
(0.668321 0.0660257 0)
(0.661078 0.071073 0)
(0.653332 0.0763807 0)
(0.645065 0.08197 0)
(0.636257 0.0878638 0)
(0.626887 0.0940867 0)
(0.61693 0.100666 0)
(0.606361 0.107628 0)
(0.595147 0.115005 0)
(0.583257 0.122828 0)
(0.570652 0.131131 0)
(0.55729 0.139946 0)
(0.543122 0.14931 0)
(0.528093 0.159258 0)
(0.512139 0.169826 0)
(0.495188 0.181044 0)
(0.477154 0.192944 0)
(0.457939 0.205547 0)
(0.437429 0.218869 0)
(0.415488 0.232908 0)
(0.39196 0.247644 0)
(0.366664 0.263026 0)
(0.339393 0.27896 0)
(0.309907 0.295301 0)
(0.277951 0.311814 0)
(0.243258 0.328168 0)
(0.205602 0.343884 0)
(0.16466 0.358309 0)
(0.121188 0.370577 0)
(0.072497 0.379882 0)
(0.0285029 0.384489 0)
(2.60046 0.000178645 0)
(1.64376 0.00247171 0)
(0.512845 0.0103449 0)
(0.55488 0.0123377 0)
(0.657314 0.0141825 0)
(0.724699 0.0164961 0)
(0.738757 0.0192676 0)
(0.732714 0.0221586 0)
(0.723857 0.0252947 0)
(0.717311 0.028631 0)
(0.713856 0.0321322 0)
(0.71124 0.0357908 0)
(0.708129 0.039612 0)
(0.704305 0.0436028 0)
(0.699933 0.0477698 0)
(0.695138 0.0521209 0)
(0.689943 0.0566662 0)
(0.684328 0.0614186 0)
(0.67827 0.0663931 0)
(0.671753 0.0716072 0)
(0.664768 0.0770799 0)
(0.657299 0.0828329 0)
(0.649333 0.0888892 0)
(0.640851 0.0952746 0)
(0.631834 0.102016 0)
(0.62226 0.109144 0)
(0.612103 0.11669 0)
(0.601337 0.124688 0)
(0.589928 0.133175 0)
(0.577842 0.142188 0)
(0.565037 0.151769 0)
(0.551466 0.16196 0)
(0.537074 0.172806 0)
(0.521799 0.18435 0)
(0.505566 0.196638 0)
(0.488287 0.209714 0)
(0.469857 0.223617 0)
(0.450152 0.238382 0)
(0.429023 0.254032 0)
(0.406291 0.270573 0)
(0.381741 0.287984 0)
(0.355118 0.306204 0)
(0.326117 0.325112 0)
(0.294387 0.344501 0)
(0.259527 0.36404 0)
(0.221136 0.383219 0)
(0.178648 0.40126 0)
(0.132622 0.417075 0)
(0.0800815 0.429417 0)
(0.0315332 0.43576 0)
(2.60198 0.000188283 0)
(1.64757 0.00258867 0)
(0.515681 0.0108746 0)
(0.555252 0.0129774 0)
(0.657819 0.0149334 0)
(0.725639 0.0174342 0)
(0.739983 0.0204365 0)
(0.734145 0.0235861 0)
(0.725531 0.0270187 0)
(0.719178 0.0306628 0)
(0.715889 0.0344773 0)
(0.713438 0.0384557 0)
(0.710499 0.0426047 0)
(0.706854 0.0469324 0)
(0.702669 0.0514453 0)
(0.69807 0.056152 0)
(0.693085 0.0610635 0)
(0.687695 0.0661944 0)
(0.681878 0.0715609 0)
(0.675624 0.0771824 0)
(0.668921 0.0830798 0)
(0.66176 0.0892767 0)
(0.654128 0.0957983 0)
(0.646009 0.102673 0)
(0.637386 0.109931 0)
(0.628239 0.117605 0)
(0.618546 0.12573 0)
(0.608281 0.134345 0)
(0.597417 0.143491 0)
(0.58592 0.153213 0)
(0.573751 0.163558 0)
(0.560867 0.174575 0)
(0.547214 0.18632 0)
(0.532732 0.198849 0)
(0.517347 0.212221 0)
(0.500972 0.226496 0)
(0.483499 0.241736 0)
(0.464798 0.258002 0)
(0.444711 0.275347 0)
(0.423039 0.293817 0)
(0.399537 0.313436 0)
(0.373903 0.3342 0)
(0.345759 0.356046 0)
(0.314642 0.37882 0)
(0.279989 0.402286 0)
(0.241134 0.425911 0)
(0.197204 0.448808 0)
(0.148355 0.469708 0)
(0.0910026 0.48673 0)
(0.0361605 0.496133 0)
(2.60363 0.000193768 0)
(1.6517 0.00267828 0)
(0.518761 0.0112798 0)
(0.555675 0.0134806 0)
(0.658409 0.0155453 0)
(0.726741 0.0182305 0)
(0.741421 0.0214883 0)
(0.735826 0.0249125 0)
(0.727489 0.0286578 0)
(0.721346 0.0326306 0)
(0.718235 0.0367786 0)
(0.715959 0.0410939 0)
(0.713205 0.045585 0)
(0.709753 0.0502609 0)
(0.705771 0.055129 0)
(0.701386 0.060198 0)
(0.696629 0.0654802 0)
(0.691483 0.0709908 0)
(0.685932 0.0767486 0)
(0.679964 0.0827741 0)
(0.673574 0.0890908 0)
(0.666751 0.0957241 0)
(0.659488 0.102702 0)
(0.651769 0.110055 0)
(0.643582 0.117818 0)
(0.63491 0.126024 0)
(0.625733 0.134716 0)
(0.61603 0.143934 0)
(0.605777 0.153725 0)
(0.594943 0.16414 0)
(0.583495 0.175234 0)
(0.571393 0.187065 0)
(0.558589 0.199698 0)
(0.545027 0.213203 0)
(0.530637 0.227656 0)
(0.515336 0.243136 0)
(0.499019 0.259732 0)
(0.481558 0.277534 0)
(0.462789 0.296638 0)
(0.442507 0.317141 0)
(0.420449 0.33912 0)
(0.396272 0.362683 0)
(0.369526 0.38786 0)
(0.339683 0.414526 0)
(0.305964 0.442725 0)
(0.267315 0.472047 0)
(0.222433 0.501655 0)
(0.17072 0.530107 0)
(0.107362 0.554923 0)
(0.0434856 0.570096 0)
(2.60538 0.000196381 0)
(1.65611 0.00272809 0)
(0.522069 0.0115135 0)
(0.556167 0.0137989 0)
(0.659113 0.0159679 0)
(0.728048 0.0188425 0)
(0.743125 0.0223718 0)
(0.737811 0.0260879 0)
(0.729795 0.0301638 0)
(0.723883 0.0344787 0)
(0.720959 0.0389672 0)
(0.718869 0.0436215 0)
(0.71631 0.0484544 0)
(0.713065 0.0534773 0)
(0.709298 0.0586988 0)
(0.705141 0.0641284 0)
(0.700626 0.0697793 0)
(0.695743 0.0756684 0)
(0.690476 0.081816 0)
(0.684818 0.0882443 0)
(0.678764 0.0949784 0)
(0.67231 0.102046 0)
(0.665448 0.109476 0)
(0.658169 0.117303 0)
(0.65046 0.125561 0)
(0.64231 0.134291 0)
(0.633703 0.143536 0)
(0.624623 0.153342 0)
(0.615048 0.163761 0)
(0.604955 0.17485 0)
(0.594317 0.18667 0)
(0.583099 0.19929 0)
(0.571262 0.212786 0)
(0.558757 0.227242 0)
(0.545523 0.242751 0)
(0.531487 0.259416 0)
(0.516552 0.277353 0)
(0.500604 0.296691 0)
(0.483488 0.317567 0)
(0.464992 0.340188 0)
(0.444885 0.364621 0)
(0.422816 0.391067 0)
(0.39818 0.419904 0)
(0.370526 0.451192 0)
(0.338965 0.485065 0)
(0.301922 0.521533 0)
(0.257471 0.560264 0)
(0.20388 0.600048 0)
(0.133824 0.63834 0)
(0.0565616 0.666374 0)
(2.60721 0.000189312 0)
(1.66074 0.00273414 0)
(0.525565 0.0114963 0)
(0.556753 0.0138507 0)
(0.659966 0.0161358 0)
(0.729604 0.0192296 0)
(0.745147 0.0230803 0)
(0.740159 0.027148 0)
(0.732499 0.031621 0)
(0.726824 0.0363317 0)
(0.724087 0.0412015 0)
(0.722185 0.0462262 0)
(0.71983 0.0514235 0)
(0.716803 0.05681 0)
(0.713266 0.0623921 0)
(0.709353 0.068182 0)
(0.7051 0.0741942 0)
(0.7005 0.0804487 0)
(0.695541 0.0869681 0)
(0.690219 0.0937777 0)
(0.684533 0.100905 0)
(0.678479 0.10838 0)
(0.672053 0.116235 0)
(0.665251 0.124506 0)
(0.658064 0.133231 0)
(0.650483 0.142454 0)
(0.6425 0.152221 0)
(0.634102 0.162583 0)
(0.625275 0.173596 0)
(0.616001 0.185322 0)
(0.606262 0.197831 0)
(0.596033 0.2112 0)
(0.585284 0.225516 0)
(0.573979 0.240876 0)
(0.56207 0.257393 0)
(0.549501 0.275192 0)
(0.536198 0.294406 0)
(0.522057 0.315256 0)
(0.507003 0.337832 0)
(0.490758 0.362381 0)
(0.473071 0.389333 0)
(0.453933 0.418918 0)
(0.432724 0.451616 0)
(0.40864 0.48793 0)
(0.380874 0.528309 0)
(0.347878 0.573482 0)
(0.307008 0.624268 0)
(0.255039 0.681008 0)
(0.180403 0.743068 0)
(0.0832323 0.803221 0)
(2.60911 0.000129656 0)
(1.6655 0.00273631 0)
(0.529091 0.0111537 0)
(0.557408 0.0135027 0)
(0.660981 0.0158867 0)
(0.731463 0.0191812 0)
(0.747569 0.0233553 0)
(0.742971 0.0277779 0)
(0.735709 0.0326512 0)
(0.730266 0.0377509 0)
(0.727702 0.0429889 0)
(0.72598 0.0483733 0)
(0.723829 0.0539325 0)
(0.721021 0.059684 0)
(0.717714 0.065636 0)
(0.714048 0.0717987 0)
(0.710064 0.0781874 0)
(0.705759 0.0848229 0)
(0.701126 0.0917287 0)
(0.696162 0.0989314 0)
(0.690869 0.106459 0)
(0.685247 0.114344 0)
(0.679295 0.12262 0)
(0.673012 0.131325 0)
(0.666393 0.1405 0)
(0.659436 0.150191 0)
(0.652135 0.160446 0)
(0.644484 0.171322 0)
(0.636477 0.18288 0)
(0.628106 0.195186 0)
(0.61936 0.208318 0)
(0.610228 0.222361 0)
(0.600691 0.237413 0)
(0.590734 0.253581 0)
(0.580328 0.271005 0)
(0.569422 0.289864 0)
(0.558035 0.310179 0)
(0.546003 0.332227 0)
(0.533219 0.356395 0)
(0.519858 0.382889 0)
(0.505642 0.412228 0)
(0.490275 0.444848 0)
(0.473503 0.481238 0)
(0.454832 0.522384 0)
(0.433622 0.56946 0)
(0.408699 0.624288 0)
(0.37767 0.689763 0)
(0.336637 0.770963 0)
(0.270966 0.878242 0)
(0.146445 1.04348 0)
(2.61148 7.46955e-05 0)
(1.67127 0.00260147 0)
(0.532765 0.0103463 0)
(0.557895 0.0127824 0)
(0.662099 0.0154041 0)
(0.733788 0.0191595 0)
(0.750716 0.0239568 0)
(0.746669 0.0290151 0)
(0.739939 0.0345309 0)
(0.734786 0.0401972 0)
(0.732453 0.0459243 0)
(0.731 0.0517481 0)
(0.72916 0.057719 0)
(0.72669 0.0638627 0)
(0.723743 0.0701957 0)
(0.720459 0.0767313 0)
(0.71689 0.0834911 0)
(0.713038 0.0905005 0)
(0.7089 0.0977879 0)
(0.704478 0.105383 0)
(0.699778 0.113318 0)
(0.694805 0.121628 0)
(0.689564 0.130347 0)
(0.684059 0.139517 0)
(0.678293 0.14918 0)
(0.67227 0.159384 0)
(0.665994 0.17018 0)
(0.659471 0.181627 0)
(0.652703 0.193788 0)
(0.645699 0.206736 0)
(0.638463 0.220551 0)
(0.631004 0.235323 0)
(0.623323 0.251181 0)
(0.615447 0.268208 0)
(0.60744 0.286497 0)
(0.599073 0.306296 0)
(0.590395 0.327834 0)
(0.581885 0.351294 0)
(0.573403 0.377103 0)
(0.564726 0.405626 0)
(0.555972 0.437211 0)
(0.547226 0.472565 0)
(0.538681 0.512527 0)
(0.53056 0.558382 0)
(0.523408 0.611914 0)
(0.518404 0.675888 0)
(0.518262 0.754766 0)
(0.531196 0.855981 0)
(0.587179 0.990718 0)
(0.657269 1.18543 0)
(2.61399 5.90956e-05 0)
(1.67741 0.00193971 0)
(0.537284 0.00775178 0)
(0.559541 0.0099104 0)
(0.664753 0.0124893 0)
(0.738187 0.0166618 0)
(0.756194 0.0221901 0)
(0.752748 0.028027 0)
(0.746479 0.0343555 0)
(0.741395 0.0407415 0)
(0.739077 0.0471161 0)
(0.737724 0.0535549 0)
(0.736062 0.0601232 0)
(0.733814 0.066847 0)
(0.731118 0.0737376 0)
(0.728121 0.0808098 0)
(0.724883 0.0880874 0)
(0.721413 0.0955986 0)
(0.717712 0.103374 0)
(0.713784 0.111445 0)
(0.709638 0.119846 0)
(0.705283 0.128613 0)
(0.700728 0.137785 0)
(0.695982 0.147404 0)
(0.691056 0.157514 0)
(0.685961 0.168168 0)
(0.68071 0.179418 0)
(0.675318 0.191326 0)
(0.669802 0.203957 0)
(0.664183 0.21739 0)
(0.65848 0.23173 0)
(0.652758 0.246994 0)
(0.646995 0.263299 0)
(0.641117 0.280861 0)
(0.635359 0.299811 0)
(0.629938 0.320284 0)
(0.624745 0.342624 0)
(0.619847 0.367032 0)
(0.615472 0.393696 0)
(0.611779 0.423067 0)
(0.60904 0.455669 0)
(0.60773 0.492154 0)
(0.608519 0.53344 0)
(0.6125 0.580677 0)
(0.621496 0.635527 0)
(0.638829 0.700149 0)
(0.670506 0.77746 0)
(0.725541 0.870897 0)
(0.836733 0.98049 0)
(0.984636 1.09509 0)
(2.61544 7.00331e-05 0)
(1.68096 0.00130248 0)
(0.540146 0.00545077 0)
(0.561296 0.00789764 0)
(0.668111 0.0110849 0)
(0.74396 0.0164431 0)
(0.763414 0.023239 0)
(0.7607 0.0301716 0)
(0.754904 0.0372315 0)
(0.749815 0.0440369 0)
(0.747508 0.0507101 0)
(0.746291 0.0574281 0)
(0.744834 0.0642711 0)
(0.74281 0.0712599 0)
(0.740349 0.0784008 0)
(0.737613 0.0857173 0)
(0.734675 0.0932426 0)
(0.73155 0.101012 0)
(0.72824 0.109058 0)
(0.724755 0.117415 0)
(0.721107 0.126116 0)
(0.717311 0.135198 0)
(0.713382 0.144698 0)
(0.709337 0.154656 0)
(0.705192 0.165115 0)
(0.700969 0.176124 0)
(0.69669 0.187734 0)
(0.692379 0.200012 0)
(0.688072 0.213011 0)
(0.683842 0.226761 0)
(0.679595 0.241374 0)
(0.675364 0.256997 0)
(0.671481 0.27369 0)
(0.667988 0.291615 0)
(0.664801 0.31097 0)
(0.662077 0.331837 0)
(0.65999 0.354387 0)
(0.658714 0.378886 0)
(0.65853 0.405623 0)
(0.659805 0.434942 0)
(0.663009 0.467298 0)
(0.668884 0.503214 0)
(0.678501 0.543346 0)
(0.693335 0.588462 0)
(0.715768 0.639417 0)
(0.749264 0.697054 0)
(0.79941 0.761646 0)
(0.871808 0.832239 0)
(0.984783 0.90388 0)
(1.12049 0.95673 0)
(2.61665 4.64208e-05 0)
(1.68402 -0.00153696 0)
(0.545509 -0.00482794 0)
(0.567274 -0.00303736 0)
(0.675889 0.000990313 0)
(0.754109 0.00903151 0)
(0.774446 0.0185603 0)
(0.771511 0.0278407 0)
(0.765122 0.0364272 0)
(0.759442 0.0442285 0)
(0.756956 0.0517191 0)
(0.755823 0.0591949 0)
(0.754534 0.0667342 0)
(0.752694 0.0743555 0)
(0.750446 0.0820556 0)
(0.747978 0.0898703 0)
(0.745371 0.0978447 0)
(0.742634 0.10602 0)
(0.739766 0.114434 0)
(0.736775 0.123125 0)
(0.733673 0.13213 0)
(0.730478 0.14149 0)
(0.727207 0.151245 0)
(0.723882 0.161436 0)
(0.720526 0.172108 0)
(0.717166 0.183324 0)
(0.713849 0.195103 0)
(0.710597 0.207489 0)
(0.707368 0.220583 0)
(0.704285 0.234463 0)
(0.701564 0.249182 0)
(0.699173 0.264904 0)
(0.697122 0.281719 0)
(0.695581 0.299645 0)
(0.694652 0.318833 0)
(0.694498 0.339443 0)
(0.695341 0.361641 0)
(0.697434 0.385626 0)
(0.701129 0.411625 0)
(0.706864 0.439892 0)
(0.715244 0.470709 0)
(0.727078 0.504406 0)
(0.743504 0.541263 0)
(0.766016 0.581558 0)
(0.796669 0.625375 0)
(0.838156 0.672434 0)
(0.894115 0.72168 0)
(0.967244 0.770522 0)
(1.06848 0.814742 0)
(1.18155 0.840315 0)
(2.61231 0.0023007 0)
(1.674 -0.00678115 0)
(0.550187 -0.0137885 0)
(0.583142 -0.00800901 0)
(0.696196 -0.000391928 0)
(0.777998 0.00987116 0)
(0.79863 0.0200608 0)
(0.794222 0.0297053 0)
(0.785893 0.0382206 0)
(0.778841 0.0460816 0)
(0.775716 0.0537607 0)
(0.774229 0.0614149 0)
(0.772636 0.0690795 0)
(0.770488 0.0767862 0)
(0.767946 0.0845882 0)
(0.765249 0.0925383 0)
(0.76248 0.100681 0)
(0.759643 0.109054 0)
(0.756738 0.11769 0)
(0.753778 0.126623 0)
(0.75078 0.135886 0)
(0.747764 0.14551 0)
(0.744751 0.155531 0)
(0.741768 0.16598 0)
(0.738868 0.176869 0)
(0.736032 0.188254 0)
(0.73326 0.200219 0)
(0.730709 0.21278 0)
(0.728477 0.226004 0)
(0.726548 0.239997 0)
(0.724983 0.254792 0)
(0.72389 0.270415 0)
(0.723354 0.286976 0)
(0.723521 0.30457 0)
(0.724557 0.323297 0)
(0.726641 0.343293 0)
(0.73002 0.364676 0)
(0.734977 0.387595 0)
(0.741885 0.412187 0)
(0.751213 0.4386 0)
(0.763557 0.466965 0)
(0.779691 0.497385 0)
(0.800589 0.529879 0)
(0.827499 0.564332 0)
(0.861949 0.600399 0)
(0.905768 0.637321 0)
(0.961246 0.673759 0)
(1.02999 0.707383 0)
(1.1164 0.735258 0)
(1.20928 0.749014 0)
(2.60402 0.00794415 0)
(1.64374 -0.0735605 0)
(0.585525 -0.0726637 0)
(0.624089 -0.0457803 0)
(0.731494 -0.00581322 0)
(0.809149 0.016461 0)
(0.827182 0.026572 0)
(0.821243 0.0352438 0)
(0.811735 0.0426159 0)
(0.804367 0.0507354 0)
(0.800985 0.059268 0)
(0.799122 0.0677015 0)
(0.797137 0.0759121 0)
(0.794692 0.083981 0)
(0.791964 0.0920439 0)
(0.789129 0.10018 0)
(0.786244 0.108437 0)
(0.783309 0.116858 0)
(0.780325 0.125484 0)
(0.777304 0.134362 0)
(0.774266 0.143541 0)
(0.771239 0.153047 0)
(0.768245 0.162896 0)
(0.765277 0.17314 0)
(0.762407 0.183845 0)
(0.759785 0.195023 0)
(0.757396 0.206726 0)
(0.755237 0.219015 0)
(0.753428 0.23191 0)
(0.752043 0.245467 0)
(0.751159 0.259756 0)
(0.750886 0.274843 0)
(0.751352 0.290789 0)
(0.752709 0.307674 0)
(0.755135 0.325559 0)
(0.75883 0.344528 0)
(0.764041 0.364652 0)
(0.771069 0.386013 0)
(0.780265 0.408678 0)