/*--------------------------------*- C++ -*----------------------------------*\
| =========                 |                                                 |
| \\      /  F ield         | OpenFOAM: The Open Source CFD Toolbox           |
|  \\    /   O peration     | Version:  2412                                  |
|   \\  /    A nd           | Website:  www.openfoam.com                      |
|    \\/     M anipulation  |                                                 |
\*---------------------------------------------------------------------------*/
FoamFile
{
    version     2.0;
    format      ascii;
    arch        "LSB;label=32;scalar=64";
    class       volScalarField;
    location    "24";
    object      Ma;
}
// * * * * * * * * * * * * * * * * * * * * * * * * * * * * * * * * * * * * * //

dimensions      [0 0 0 0 0 0 0];

internalField   nonuniform List<scalar> 
7000
(
2.25599
0.9942
0.300544
0.338439
0.401063
0.44239
0.450597
0.446128
0.439773
0.434863
0.432018
0.429745
0.427146
0.424058
0.420587
0.416812
0.412746
0.408367
0.403657
0.398596
0.393175
0.387377
0.381191
0.374599
0.367586
0.360133
0.352224
0.343838
0.334957
0.325559
0.315625
0.305133
0.294064
0.282395
0.270108
0.257185
0.243611
0.229374
0.214465
0.198883
0.182633
0.165727
0.14819
0.130054
0.111369
0.092193
0.0725911
0.0528472
0.0319232
0.0155245
2.25605
0.994261
0.300342
0.338273
0.400908
0.442242
0.45045
0.445983
0.439635
0.434732
0.431891
0.429622
0.427026
0.423943
0.420476
0.416706
0.412645
0.408273
0.403568
0.398514
0.3931
0.387311
0.381134
0.374551
0.367549
0.360107
0.352211
0.343839
0.334973
0.325592
0.315677
0.305205
0.294157
0.282512
0.270252
0.257358
0.243817
0.229615
0.214746
0.199209
0.183011
0.166165
0.148702
0.130661
0.112103
0.0931176
0.0738194
0.054656
0.0351574
0.0220573
2.25618
0.994458
0.300474
0.338308
0.400938
0.442275
0.450484
0.446023
0.439692
0.434801
0.431973
0.429708
0.427124
0.424046
0.420594
0.416831
0.412786
0.408423
0.403736
0.398694
0.3933
0.387526
0.381373
0.374809
0.367835
0.360418
0.352555
0.344213
0.335387
0.326045
0.316177
0.305753
0.294764
0.283179
0.27099
0.258173
0.244719
0.230615
0.215859
0.200451
0.184404
0.167742
0.1505
0.132745
0.114566
0.096117
0.0776341
0.05984
0.0430411
0.0335724
2.25635
0.994764
0.300745
0.338386
0.401019
0.442374
0.450587
0.44614
0.439823
0.434959
0.432142
0.429897
0.427319
0.424264
0.420822
0.417086
0.413053
0.408719
0.404048
0.39904
0.393666
0.387931
0.381802
0.375286
0.368342
0.36098
0.353156
0.34488
0.336104
0.326839
0.317034
0.306704
0.295794
0.284322
0.272235
0.259554
0.246233
0.232297
0.217718
0.202524
0.186719
0.170347
0.153463
0.136148
0.118555
0.100896
0.0835508
0.0674577
0.053303
0.0461806
2.2566
0.995195
0.301095
0.338455
0.401104
0.442495
0.450716
0.446291
0.439985
0.435163
0.432357
0.430144
0.427575
0.424555
0.421127
0.417429
0.413416
0.409124
0.404478
0.399516
0.394176
0.388493
0.382408
0.37595
0.369064
0.361768
0.354017
0.345818
0.337133
0.327959
0.318269
0.308047
0.29728
0.285939
0.274029
0.261511
0.24841
0.234683
0.220379
0.205465
0.190017
0.174038
0.15764
0.140922
0.124073
0.107409
0.0913721
0.0770295
0.0651085
0.0594945
2.25693
0.995768
0.301538
0.338526
0.4012
0.442641
0.450885
0.446461
0.440215
0.435398
0.432652
0.430437
0.427926
0.424905
0.421541
0.417849
0.413906
0.409624
0.405055
0.400111
0.394858
0.389203
0.383215
0.376798
0.370022
0.362784
0.355158
0.347038
0.338495
0.329428
0.3199
0.309819
0.299238
0.288082
0.276389
0.264111
0.25127
0.237853
0.22387
0.20936
0.194333
0.178894
0.163088
0.147117
0.131166
0.115613
0.100984
0.0882976
0.078188
0.0736199
2.25735
0.996494
0.302081
0.338602
0.401307
0.442818
0.45109
0.446693
0.440476
0.43571
0.432991
0.430822
0.428334
0.425364
0.422029
0.418396
0.414486
0.410274
0.405744
0.400883
0.395675
0.390119
0.384188
0.377889
0.371182
0.364086
0.356547
0.348596
0.340164
0.331298
0.321913
0.312069
0.301674
0.290796
0.279347
0.267395
0.254873
0.241845
0.228281
0.214246
0.199773
0.184939
0.169888
0.154752
0.139834
0.125479
0.112235
0.101078
0.0924447
0.0886252
2.25786
0.997386
0.302733
0.338683
0.401427
0.443029
0.451337
0.446974
0.440795
0.436085
0.433406
0.431284
0.428836
0.425918
0.422631
0.419057
0.415204
0.411059
0.406598
0.401814
0.396692
0.391224
0.385399
0.379203
0.372628
0.365653
0.358276
0.350469
0.342239
0.333544
0.324407
0.314773
0.304682
0.294066
0.282987
0.271367
0.259291
0.246692
0.233666
0.220192
0.206375
0.192283
0.178049
0.163896
0.150054
0.136958
0.125074
0.115263
0.107843
0.104623
2.25848
0.998455
0.303503
0.338771
0.401563
0.443274
0.451633
0.447303
0.441185
0.436525
0.433906
0.43183
0.429441
0.426575
0.423354
0.419842
0.416065
0.411993
0.407621
0.402924
0.397906
0.392546
0.386843
0.38078
0.37435
0.367538
0.360335
0.352729
0.344706
0.33626
0.327371
0.318044
0.308251
0.298016
0.287296
0.27615
0.264519
0.252502
0.240041
0.227276
0.214188
0.200956
0.187671
0.174547
0.161896
0.150028
0.139452
0.130889
0.124493
0.121716
2.2592
0.999715
0.3044
0.338868
0.401717
0.443563
0.451981
0.447704
0.441637
0.437057
0.434486
0.432484
0.430145
0.427359
0.424199
0.420777
0.417072
0.413102
0.408818
0.404239
0.399329
0.394107
0.388538
0.382638
0.376372
0.369755
0.362755
0.355382
0.347609
0.339444
0.330863
0.321875
0.312464
0.302637
0.292392
0.281737
0.270696
0.259275
0.247545
0.235513
0.223321
0.211
0.198786
0.186794
0.175338
0.164784
0.155439
0.147991
0.14249
0.140145
2.26004
1.00118
0.305433
0.338977
0.401892
0.443895
0.452393
0.44816
0.442186
0.437664
0.435181
0.433233
0.430984
0.42826
0.4252
0.421852
0.418261
0.41438
0.410225
0.405757
0.400996
0.395911
0.390518
0.384786
0.37873
0.372321
0.36557
0.358454
0.35098
0.343131
0.334912
0.326314
0.317339
0.307993
0.298278
0.288216
0.277817
0.267127
0.256172
0.245038
0.23378
0.222546
0.211438
0.200703
0.190517
0.181223
0.173164
0.166807
0.162134
0.160099
2.261
1.00285
0.306611
0.3391
0.402093
0.444283
0.452868
0.448712
0.442808
0.438392
0.43597
0.434122
0.431937
0.429324
0.42634
0.423115
0.419614
0.415873
0.411829
0.407522
0.402899
0.398003
0.392779
0.387271
0.381423
0.37528
0.368787
0.361989
0.354834
0.347366
0.339541
0.331401
0.322914
0.314121
0.305008
0.295614
0.285956
0.276073
0.266027
0.255858
0.245697
0.235598
0.225771
0.216327
0.207539
0.199607
0.192763
0.187489
0.18363
0.182024
2.26209
1.00475
0.30794
0.339243
0.402322
0.444723
0.453421
0.449338
0.443551
0.43922
0.436902
0.435131
0.433056
0.430529
0.427669
0.424545
0.421185
0.417563
0.413682
0.40952
0.405089
0.400368
0.395373
0.39008
0.384506
0.378626
0.372461
0.365986
0.359225
0.352154
0.344804
0.337153
0.32924
0.321048
0.31263
0.303976
0.295158
0.286181
0.277141
0.268076
0.259096
0.250315
0.24183
0.233865
0.226514
0.220065
0.214645
0.210544
0.207568
0.206265
2.2633
1.00687
0.309424
0.339397
0.402595
0.44522
0.454056
0.450068
0.4444
0.440184
0.437963
0.436299
0.434325
0.431919
0.429172
0.426186
0.422957
0.419496
0.415769
0.411797
0.407551
0.403058
0.398287
0.393267
0.387964
0.382413
0.376579
0.3705
0.364144
0.357551
0.350698
0.343624
0.336322
0.328829
0.32116
0.313352
0.305449
0.297498
0.289565
0.281731
0.274077
0.266729
0.259804
0.253421
0.247779
0.242929
0.239022
0.236288
0.234366
0.233712
2.26463
1.00921
0.311063
0.339557
0.40292
0.445779
0.454785
0.450911
0.445377
0.441293
0.439177
0.437632
0.43577
0.433496
0.430879
0.42804
0.424962
0.42167
0.418125
0.414351
0.410325
0.406067
0.401563
0.396823
0.391846
0.386631
0.381194
0.37552
0.369647
0.363546
0.35728
0.350807
0.344215
0.337462
0.33065
0.323755
0.316884
0.310054
0.303364
0.296885
0.290716
0.284969
0.279764
0.275236
0.271479
0.268667
0.266694
0.265722
0.26519
0.265156
2.26609
1.01178
0.312867
0.339754
0.403285
0.446425
0.455629
0.451882
0.446526
0.442563
0.440583
0.439146
0.437429
0.435277
0.432822
0.430122
0.42723
0.424103
0.420775
0.417201
0.413431
0.409416
0.405216
0.400775
0.396159
0.391312
0.386304
0.381085
0.375724
0.370185
0.36453
0.358751
0.352894
0.346994
0.341075
0.335223
0.329447
0.32388
0.318543
0.313584
0.309074
0.305153
0.301926
0.299522
0.29808
0.297581
0.298078
0.299507
0.301151
0.302676
2.26767
1.01457
0.314827
0.339982
0.403704
0.447177
0.456611
0.453016
0.447862
0.444033
0.442194
0.440877
0.43931
0.437296
0.43501
0.43247
0.429768
0.426834
0.423725
0.420386
0.416873
0.413146
0.409251
0.405161
0.40091
0.39649
0.391922
0.38722
0.382392
0.377479
0.372477
0.367452
0.362403
0.357408
0.352492
0.347731
0.343198
0.338957
0.335149
0.33183
0.329178
0.327313
0.326392
0.326516
0.327916
0.330656
0.334522
0.339628
0.344727
0.348725
2.26935
1.01757
0.316931
0.340247
0.404192
0.448063
0.457761
0.454361
0.449407
0.445756
0.444036
0.442875
0.441438
0.439601
0.437461
0.435122
0.432591
0.429889
0.426989
0.423923
0.420667
0.417263
0.413684
0.409977
0.406115
0.402151
0.398061
0.393901
0.389663
0.385398
0.381122
0.376878
0.372718
0.368677
0.364849
0.361269
0.358063
0.355308
0.353122
0.351686
0.351062
0.351508
0.3532
0.356411
0.36133
0.368069
0.376901
0.387634
0.399369
0.409973
2.27112
1.02072
0.319155
0.340563
0.404773
0.449108
0.459118
0.455938
0.451216
0.44774
0.446152
0.44514
0.443854
0.442189
0.440226
0.43808
0.435758
0.433279
0.430631
0.427829
0.424878
0.421789
0.418579
0.415248
0.411833
0.408322
0.40477
0.401162
0.39757
0.393979
0.390478
0.387064
0.383835
0.380823
0.378121
0.37582
0.373998
0.372844
0.372423
0.372924
0.374588
0.377706
0.382628
0.389496
0.398923
0.411251
0.426947
0.447107
0.47099
0.498597
2.27294
1.02396
0.321435
0.340942
0.405482
0.450369
0.460763
0.457826
0.453391
0.450059
0.448618
0.447723
0.446609
0.44509
0.443326
0.441351
0.439258
0.436993
0.434617
0.432082
0.429454
0.426695
0.423869
0.420946
0.417986
0.414973
0.411963
0.408962
0.406017
0.403166
0.400444
0.39793
0.395651
0.393732
0.392205
0.391243
0.390884
0.391313
0.392698
0.395385
0.399591
0.405687
0.413893
0.425054
0.43962
0.459159
0.485083
0.520596
0.571928
0.664906
2.27502
1.0277
0.323967
0.341215
0.406281
0.451968
0.462916
0.460351
0.456264
0.45316
0.451878
0.451205
0.450306
0.449064
0.447545
0.445884
0.444078
0.442179
0.44015
0.438048
0.43584
0.433595
0.431277
0.428964
0.426618
0.424329
0.422065
0.419923
0.417884
0.416055
0.414437
0.413144
0.412216
0.411774
0.411916
0.412688
0.41425
0.417016
0.421207
0.426898
0.43459
0.44456
0.457832
0.474818
0.497605
0.527612
0.569594
0.631149
0.729826
0.88148
2.27723
1.03167
0.326977
0.342166
0.408011
0.454836
0.466505
0.46432
0.460552
0.457506
0.456266
0.455683
0.454945
0.453879
0.45258
0.451145
0.449621
0.448018
0.44635
0.444623
0.442863
0.441078
0.439304
0.437548
0.435857
0.434237
0.432755
0.431415
0.430307
0.429439
0.428932
0.428801
0.429165
0.430047
0.431684
0.434272
0.437986
0.442904
0.449469
0.457793
0.468593
0.482306
0.499813
0.522623
0.551794
0.591357
0.643914
0.718036
0.828981
0.967139
2.27852
1.03399
0.32885
0.343226
0.410174
0.458582
0.47123
0.469543
0.466103
0.463077
0.461873
0.461408
0.460835
0.459948
0.458837
0.457609
0.456319
0.454982
0.453614
0.452224
0.450839
0.449476
0.448166
0.44693
0.445808
0.444827
0.444036
0.443474
0.443205
0.443293
0.443751
0.444655
0.44624
0.448646
0.451867
0.456155
0.46159
0.46858
0.477195
0.488163
0.501496
0.518494
0.539212
0.56577
0.599044
0.641714
0.697371
0.767755
0.864169
0.967482
2.27967
1.0361
0.332163
0.346924
0.415039
0.464997
0.47824
0.476424
0.472634
0.469261
0.467982
0.467621
0.467211
0.4665
0.465594
0.464597
0.463592
0.462565
0.461554
0.460542
0.459579
0.458659
0.457836
0.457113
0.456548
0.456158
0.456013
0.456126
0.456543
0.457354
0.458727
0.460709
0.463358
0.466847
0.47124
0.476842
0.483681
0.49227
0.502619
0.515406
0.530887
0.549719
0.572839
0.600701
0.635325
0.677096
0.728928
0.790947
0.86887
0.949912
2.27611
1.0297
0.334303
0.356825
0.427461
0.479822
0.493323
0.490524
0.485522
0.481274
0.479617
0.479062
0.478489
0.47762
0.47656
0.475467
0.474404
0.47338
0.472404
0.471492
0.470667
0.469957
0.469379
0.468981
0.468785
0.468823
0.469095
0.469764
0.470843
0.472446
0.47454
0.477328
0.480776
0.485172
0.490483
0.497078
0.504978
0.514558
0.526085
0.539791
0.556356
0.575912
0.599482
0.627365
0.660592
0.700053
0.746336
0.800703
0.864207
0.928786
2.28204
1.02256
0.358755
0.38236
0.448479
0.498372
0.510284
0.506531
0.500789
0.496406
0.494705
0.494016
0.493316
0.492367
0.491302
0.490225
0.489193
0.488197
0.487259
0.486379
0.485603
0.484929
0.484416
0.484033
0.483903
0.484059
0.484605
0.48547
0.486861
0.488708
0.491259
0.494405
0.498489
0.503354
0.509465
0.516591
0.525359
0.535462
0.54771
0.561825
0.578647
0.598176
0.62106
0.647787
0.678647
0.714591
0.755562
0.802434
0.855627
0.909186
1.87634
0.772021
0.273276
0.344118
0.417751
0.441224
0.441131
0.43715
0.433506
0.433412
0.435587
0.438475
0.441475
0.444518
0.447657
0.450905
0.454223
0.457566
0.460905
0.464221
0.467495
0.470675
0.473818
0.476958
0.480151
0.483332
0.486623
0.489944
0.493567
0.497376
0.501678
0.506369
0.511804
0.517901
0.525024
0.533159
0.54261
0.553548
0.566087
0.580726
0.597303
0.616691
0.63846
0.663787
0.692064
0.724537
0.760524
0.800997
0.845805
0.890548
1.8689
0.771411
0.282179
0.35535
0.428332
0.44779
0.443318
0.435958
0.4303
0.428406
0.428317
0.428721
0.429321
0.430225
0.431573
0.433354
0.435612
0.438219
0.441296
0.444722
0.448606
0.452674
0.45715
0.461795
0.466828
0.471982
0.477522
0.48325
0.489342
0.495667
0.5024
0.509471
0.517032
0.525167
0.533965
0.543713
0.554315
0.566336
0.579529
0.594599
0.611247
0.630227
0.651268
0.675025
0.701362
0.73067
0.762982
0.798107
0.836508
0.874184
1.86794
0.770098
0.284312
0.365063
0.443617
0.463692
0.457506
0.448131
0.441125
0.438393
0.437494
0.436896
0.436308
0.435905
0.435818
0.436089
0.436719
0.437722
0.439255
0.441238
0.443726
0.446643
0.450162
0.454164
0.458798
0.463941
0.469668
0.47592
0.482712
0.490082
0.497958
0.506546
0.515635
0.525587
0.536007
0.547451
0.559509
0.572781
0.586949
0.602624
0.619551
0.638283
0.6587
0.6812
0.705735
0.732543
0.761584
0.792786
0.826399
0.858928
1.86943
0.77338
0.290106
0.367278
0.443688
0.464289
0.459067
0.450548
0.443969
0.441606
0.441131
0.440952
0.440736
0.440625
0.44071
0.441015
0.441604
0.442511
0.4437
0.445182
0.446985
0.44922
0.45186
0.455072
0.458757
0.463138
0.46805
0.47377
0.480043
0.48724
0.494985
0.503745
0.51305
0.523421
0.534433
0.546566
0.559476
0.573575
0.588572
0.604827
0.622189
0.640928
0.661013
0.682662
0.705845
0.730692
0.757139
0.785234
0.815022
0.843671
1.87254
0.780061
0.297788
0.361236
0.429065
0.450304
0.448018
0.441952
0.436343
0.434469
0.434506
0.435037
0.435624
0.436339
0.437231
0.438403
0.439863
0.441548
0.443418
0.445526
0.44787
0.450533
0.453491
0.456861
0.460598
0.464875
0.469591
0.475
0.480926
0.487698
0.495077
0.5034
0.512438
0.522483
0.533352
0.545263
0.558088
0.572005
0.586943
0.603044
0.62027
0.638754
0.658398
0.679342
0.701462
0.724935
0.749544
0.775268
0.802283
0.82812
1.88112
0.786641
0.300038
0.349026
0.412196
0.441239
0.44421
0.439523
0.434371
0.432089
0.431845
0.432367
0.433086
0.434006
0.435102
0.436435
0.438031
0.439887
0.442
0.444397
0.447072
0.450078
0.453388
0.457088
0.461125
0.465643
0.470549
0.476049
0.48201
0.488684
0.495929
0.503986
0.512753
0.52241
0.532896
0.544362
0.556738
0.570157
0.584551
0.600042
0.616556
0.634204
0.652903
0.672754
0.693654
0.715638
0.738561
0.762385
0.787203
0.810852
2.26309
1.10602
0.407204
0.399184
0.459366
0.508061
0.519351
0.51446
0.507537
0.501489
0.497972
0.495501
0.49339
0.491372
0.489344
0.487372
0.485648
0.484159
0.483011
0.482164
0.481736
0.481687
0.482141
0.483075
0.484555
0.48662
0.489305
0.492665
0.496706
0.501516
0.507074
0.513487
0.520731
0.528924
0.538018
0.548145
0.559233
0.571402
0.584576
0.59886
0.61415
0.630545
0.64792
0.666329
0.685684
0.705974
0.727099
0.748978
0.77169
0.793298
2.27251
1.12791
0.391681
0.37713
0.449995
0.51071
0.529108
0.528226
0.524004
0.5202
0.518758
0.518383
0.518367
0.518328
0.517913
0.517284
0.516612
0.515983
0.515416
0.514941
0.514574
0.51438
0.514378
0.514651
0.515234
0.516205
0.517601
0.519533
0.521997
0.525149
0.528935
0.53355
0.538908
0.545193
0.552332
0.560462
0.569557
0.579711
0.590909
0.603181
0.616553
0.630975
0.646472
0.66295
0.680379
0.69869
0.717791
0.737587
0.758144
0.77771
2.29744
1.17663
0.434261
0.383996
0.447092
0.503384
0.521862
0.52289
0.521064
0.51988
0.520299
0.52153
0.523325
0.525126
0.526534
0.527734
0.528858
0.530006
0.531154
0.532335
0.533521
0.534766
0.536059
0.537461
0.538975
0.540673
0.542571
0.544743
0.547235
0.550114
0.553447
0.557285
0.561726
0.5668
0.572628
0.579217
0.586689
0.595028
0.604333
0.614579
0.625812
0.638002
0.651177
0.665322
0.680409
0.696409
0.713223
0.730696
0.748918
0.766301
1.90075
0.805033
0.305814
0.316891
0.374007
0.414892
0.429172
0.432999
0.435822
0.439473
0.444405
0.450151
0.456589
0.463084
0.469262
0.475259
0.481224
0.487187
0.493131
0.499016
0.504839
0.510578
0.516252
0.521839
0.527376
0.532838
0.538294
0.543714
0.549192
0.554716
0.56036
0.566168
0.572204
0.578536
0.585214
0.59234
0.599938
0.608129
0.616902
0.626392
0.636555
0.647528
0.659224
0.671747
0.684984
0.69895
0.713583
0.728908
0.744923
0.760238
2.30594
1.19377
0.449604
0.386641
0.440666
0.492237
0.509238
0.509298
0.506152
0.503675
0.502417
0.502232
0.502687
0.503083
0.503407
0.503911
0.504737
0.506013
0.507709
0.509867
0.51244
0.515481
0.518944
0.52287
0.527184
0.531942
0.537027
0.54253
0.54829
0.554426
0.560811
0.567552
0.574531
0.58187
0.589462
0.597446
0.605735
0.614463
0.623568
0.633165
0.643223
0.653825
0.664954
0.676645
0.688905
0.701717
0.715089
0.728932
0.743334
0.757053
2.31118
1.20374
0.432904
0.369734
0.438375
0.500632
0.522085
0.523497
0.521278
0.519808
0.519935
0.521067
0.522797
0.524301
0.525326
0.526173
0.527007
0.527956
0.529031
0.53032
0.531829
0.533643
0.535751
0.538235
0.541084
0.544359
0.548054
0.552208
0.556821
0.561905
0.567461
0.573475
0.579954
0.586873
0.594266
0.60207
0.61034
0.618998
0.628124
0.637625
0.647602
0.657947
0.668783
0.679986
0.691676
0.70373
0.716242
0.729076
0.742357
0.754959
2.31391
1.20957
0.437081
0.371775
0.441502
0.505355
0.527731
0.529412
0.527248
0.5259
0.526372
0.527889
0.53016
0.532353
0.534072
0.535601
0.537128
0.538759
0.540491
0.542353
0.544341
0.546488
0.548809
0.551338
0.554106
0.55714
0.560481
0.564143
0.568179
0.572588
0.577427
0.582683
0.588414
0.594587
0.601256
0.608382
0.616008
0.62409
0.632659
0.641677
0.651156
0.661071
0.671412
0.682168
0.693301
0.704821
0.716662
0.728838
0.741341
0.753231
2.31689
1.21729
0.463451
0.387832
0.447099
0.506226
0.528785
0.532016
0.531137
0.530767
0.531659
0.533588
0.536126
0.538424
0.540451
0.542354
0.544312
0.546354
0.548531
0.550813
0.553243
0.555794
0.55852
0.561392
0.564469
0.567728
0.571231
0.574957
0.57897
0.583255
0.587873
0.592818
0.598139
0.603836
0.60994
0.616458
0.623403
0.630795
0.638624
0.646913
0.655631
0.664806
0.674389
0.684406
0.694794
0.70557
0.716662
0.72807
0.739814
0.750991
1.90563
0.813586
0.324716
0.323678
0.37648
0.414372
0.427259
0.430302
0.432593
0.435933
0.440704
0.446615
0.453341
0.460159
0.466868
0.473529
0.480262
0.487057
0.493922
0.5008
0.507698
0.514576
0.521453
0.528302
0.535146
0.541975
0.548813
0.555659
0.562538
0.569459
0.57644
0.583512
0.590686
0.598004
0.605472
0.613142
0.621009
0.62913
0.637494
0.646142
0.655066
0.664293
0.673806
0.68363
0.69374
0.704145
0.714821
0.725757
0.737003
0.747678
2.31199
1.2086
0.464968
0.403502
0.466206
0.52739
0.549317
0.550244
0.5461
0.542268
0.540061
0.538689
0.538095
0.537698
0.536965
0.536243
0.535678
0.535525
0.535713
0.536401
0.537514
0.539127
0.541209
0.543797
0.546856
0.550413
0.554427
0.558922
0.563843
0.569211
0.574973
0.581133
0.587641
0.594508
0.601693
0.609202
0.617006
0.625109
0.633489
0.642154
0.651091
0.660304
0.669785
0.679532
0.689529
0.699764
0.710226
0.720889
0.731817
0.742179
2.29404
1.16959
0.460071
0.422692
0.4858
0.546196
0.566081
0.56612
0.562399
0.559163
0.558406
0.55881
0.559896
0.56116
0.562032
0.562671
0.563262
0.56392
0.564656
0.56548
0.566401
0.567464
0.568717
0.570201
0.571949
0.574007
0.576391
0.579134
0.582252
0.585768
0.589683
0.594021
0.598785
0.603983
0.609613
0.615671
0.622149
0.629038
0.636325
0.643994
0.652028
0.660406
0.66911
0.678122
0.687438
0.697025
0.70688
0.716967
0.727337
0.73719
1.88783
0.805073
0.34078
0.355366
0.406343
0.443122
0.452857
0.452685
0.45175
0.452602
0.455915
0.460539
0.466079
0.472144
0.478233
0.484354
0.490571
0.496891
0.503267
0.509655
0.516017
0.522342
0.528619
0.534848
0.541025
0.547158
0.553259
0.55935
0.565452
0.571596
0.577807
0.584106
0.590527
0.597087
0.603817
0.61073
0.617853
0.625195
0.632773
0.640589
0.648664
0.656991
0.665583
0.674419
0.6835
0.692814
0.702346
0.712086
0.722073
0.731566
1.87402
0.796328
0.339524
0.356661
0.398325
0.426967
0.434881
0.434835
0.433827
0.433316
0.434048
0.435682
0.438239
0.441447
0.444939
0.448771
0.453027
0.457745
0.462906
0.468488
0.474452
0.480775
0.487412
0.494341
0.501516
0.508913
0.516491
0.52423
0.532094
0.540071
0.548134
0.556295
0.564525
0.572845
0.581233
0.589719
0.598285
0.606963
0.615748
0.624645
0.633652
0.642788
0.652053
0.661459
0.671004
0.680697
0.690533
0.700507
0.710659
0.720271
1.88891
0.806048
0.345023
0.373649
0.430941
0.466894
0.473623
0.469569
0.464488
0.461385
0.460434
0.460404
0.460996
0.461961
0.463
0.464174
0.465606
0.467367
0.469493
0.471995
0.474898
0.478209
0.481959
0.486141
0.490772
0.495838
0.501347
0.507269
0.513607
0.520322
0.527418
0.534848
0.542611
0.550663
0.558995
0.567564
0.576364
0.585356
0.594531
0.603878
0.613391
0.623049
0.632848
0.642765
0.652804
0.662943
0.67319
0.683522
0.694006
0.7039
2.34072
1.12429
0.469032
0.447567
0.513134
0.574874
0.595491
0.594882
0.589583
0.58428
0.58127
0.57936
0.577795
0.576424
0.574871
0.573138
0.571365
0.569652
0.568043
0.566565
0.565242
0.56411
0.563196
0.562548
0.562193
0.562183
0.562534
0.563307
0.564493
0.566132
0.568253
0.570863
0.573988
0.577608
0.581751
0.586385
0.591528
0.597143
0.60324
0.609771
0.616737
0.624093
0.631822
0.639916
0.64833
0.657048
0.666033
0.675269
0.684766
0.693824
1.88937
0.807238
0.34616
0.363473
0.415822
0.456083
0.468554
0.469558
0.469009
0.468988
0.471275
0.474793
0.479
0.483734
0.488558
0.493369
0.498209
0.503138
0.508113
0.513124
0.518114
0.52309
0.528015
0.532914
0.537756
0.542579
0.547358
0.552136
0.556913
0.561721
0.566565
0.57148
0.576465
0.581573
0.5868
0.592202
0.597766
0.603548
0.609529
0.615765
0.622226
0.628963
0.635949
0.643194
0.650687
0.658439
0.66643
0.674659
0.683142
0.691247
1.8891
0.807386
0.347472
0.36454
0.416095
0.454586
0.465035
0.463971
0.461096
0.458537
0.45807
0.458912
0.460497
0.462704
0.465124
0.467714
0.470582
0.47381
0.477403
0.481346
0.485612
0.490184
0.495039
0.500161
0.505527
0.511112
0.516897
0.522856
0.528972
0.535244
0.541647
0.54818
0.554831
0.561592
0.568457
0.575422
0.58249
0.589659
0.596936
0.60432
0.611821
0.619434
0.627173
0.635033
0.643029
0.651153
0.659418
0.667809
0.676375
0.684509
2.34275
1.12798
0.472716
0.449633
0.516388
0.580626
0.603074
0.603176
0.598097
0.593028
0.590245
0.58869
0.587563
0.586712
0.58571
0.584545
0.58332
0.582195
0.581158
0.5803
0.579562
0.579051
0.578707
0.578647
0.578805
0.579287
0.580051
0.581139
0.582567
0.584341
0.586471
0.588956
0.591796
0.594988
0.598534
0.602431
0.606672
0.611251
0.616157
0.621383
0.626915
0.632745
0.638856
0.645242
0.651882
0.658773
0.665893
0.673236
0.680806
0.688047
1.88982
0.808781
0.35343
0.381413
0.439687
0.479634
0.489592
0.487911
0.484866
0.483481
0.484907
0.487582
0.49093
0.494764
0.498664
0.502614
0.506677
0.510905
0.515268
0.51975
0.524312
0.528945
0.533627
0.538358
0.543128
0.547931
0.552772
0.55765
0.562574
0.567548
0.572581
0.577688
0.582868
0.588144
0.593515
0.599002
0.604601
0.610332
0.616192
0.622193
0.628343
0.634649
0.641113
0.647738
0.654527
0.661482
0.6686
0.675873
0.683328
0.690427
1.87526
0.799751
0.351157
0.378102
0.427535
0.459447
0.467094
0.465965
0.464283
0.46357
0.464096
0.465295
0.467195
0.46948
0.471831
0.474313
0.47702
0.480004
0.483272
0.486821
0.490642
0.494729
0.499071
0.503663
0.508493
0.513551
0.518823
0.524298
0.529961
0.5358
0.541803
0.547953
0.554255
0.560686
0.567256
0.573941
0.580756
0.587683
0.594732
0.601887
0.609158
0.616528
0.624009
0.631588
0.639278
0.647062
0.654956
0.662944
0.671076
0.678776
1.87423
0.799385
0.351681
0.37535
0.422433
0.454101
0.462314
0.461852
0.460735
0.460115
0.460385
0.46121
0.462693
0.464529
0.466377
0.468279
0.470335
0.472591
0.475064
0.477754
0.480671
0.483818
0.487205
0.490833
0.494709
0.498831
0.503204
0.507821
0.512688
0.517796
0.523148
0.528734
0.534553
0.540593
0.54685
0.55331
0.55997
0.566813
0.573839
0.581035
0.588399
0.59592
0.603598
0.611415
0.619366
0.627441
0.635648
0.643979
0.652465
0.660522
1.88906
0.809114
0.354857
0.362659
0.413295
0.452094
0.463036
0.462622
0.460833
0.459587
0.459623
0.460433
0.461973
0.463876
0.465703
0.46751
0.469428
0.47152
0.473805
0.47628
0.478946
0.481804
0.484861
0.488116
0.491576
0.495241
0.499117
0.503203
0.507505
0.51202
0.516754
0.521705
0.526876
0.532263
0.537868
0.543687
0.549719
0.555961
0.56241
0.56906
0.575906
0.58294
0.590156
0.59755
0.605122
0.612865
0.620767
0.62882
0.637045
0.644867
2.31232
1.20466
0.485418
0.431474
0.492571
0.5568
0.582789
0.586281
0.583617
0.580885
0.579597
0.579282
0.579772
0.580602
0.58114
0.581431
0.581664
0.581946
0.582323
0.58279
0.583357
0.58402
0.584797
0.585692
0.586723
0.587891
0.589215
0.590696
0.592351
0.594182
0.596205
0.598421
0.600845
0.603477
0.606332
0.609406
0.612715
0.616252
0.620032
0.624047
0.628308
0.632806
0.637551
0.642532
0.647758
0.653212
0.658897
0.664789
0.670921
0.676815
2.32253
1.22875
0.466099
0.405366
0.48144
0.557499
0.588665
0.593343
0.59071
0.587847
0.586859
0.587313
0.588603
0.590418
0.5921
0.593497
0.594828
0.596241
0.597794
0.599474
0.601277
0.603188
0.605217
0.607357
0.609619
0.611996
0.614499
0.617121
0.619873
0.622749
0.625759
0.628898
0.632177
0.635591
0.639151
0.642852
0.646706
0.650707
0.654866
0.659178
0.663655
0.668289
0.673093
0.67806
0.683198
0.688498
0.693965
0.699586
0.705384
0.710923
2.31272
1.20617
0.486666
0.432537
0.494351
0.559807
0.586868
0.591018
0.588966
0.586854
0.586285
0.586941
0.58845
0.59044
0.592239
0.593832
0.595406
0.597089
0.598918
0.600892
0.603001
0.605246
0.607623
0.610141
0.612797
0.615598
0.618541
0.621631
0.624865
0.628249
0.631778
0.635458
0.639284
0.643263
0.647388
0.651667
0.656092
0.660671
0.665395
0.670275
0.675299
0.680477
0.685798
0.691273
0.696888
0.702656
0.70856
0.714611
0.720818
0.726757
1.88895
0.809181
0.356062
0.364305
0.416386
0.457004
0.469103
0.469121
0.467535
0.46652
0.467165
0.468791
0.471274
0.47423
0.477164
0.48013
0.483238
0.486566
0.490109
0.493871
0.497825
0.501979
0.506314
0.510841
0.51554
0.520421
0.525465
0.530683
0.536053
0.541588
0.547266
0.5531
0.559069
0.565185
0.571428
0.577811
0.584314
0.59095
0.597698
0.604574
0.611557
0.618662
0.625868
0.63319
0.640606
0.648135
0.655755
0.66349
0.671352
0.678839
1.87422
0.800022
0.355297
0.380473
0.428585
0.460132
0.467652
0.466485
0.464743
0.463861
0.464079
0.46493
0.466472
0.468353
0.470186
0.472037
0.474001
0.47614
0.478451
0.480945
0.48361
0.48646
0.489487
0.492707
0.49611
0.499711
0.5035
0.50749
0.511671
0.516054
0.520628
0.525405
0.530371
0.535538
0.540892
0.546443
0.552176
0.558101
0.564203
0.57049
0.576947
0.58358
0.590376
0.597339
0.604455
0.611729
0.619146
0.626713
0.634438
0.6418
1.87704
0.803104
0.359369
0.395141
0.451553
0.484556
0.490478
0.486946
0.482762
0.480815
0.480804
0.4816
0.483011
0.484676
0.486274
0.487895
0.489639
0.491552
0.493627
0.495864
0.498256
0.50081
0.503522
0.506402
0.509444
0.512659
0.516041
0.519598
0.523326
0.527232
0.531311
0.535571
0.540006
0.544621
0.549412
0.554385
0.559531
0.564858
0.570358
0.576036
0.581884
0.587907
0.594095
0.600453
0.606971
0.613652
0.620486
0.627472
0.634617
0.641429
1.19155
1.04886
0.497553
0.190554
0.010815
0.108725
0.160226
0.208571
0.230167
0.234531
0.222838
0.211374
0.201052
0.191517
0.179481
0.165027
0.147695
0.127762
0.105941
0.0827974
0.0589749
0.035262
0.0158704
0.0232575
0.0469816
0.0712803
0.0954232
0.119128
0.142445
0.165347
0.187847
0.209922
0.231556
0.252697
0.272705
0.291807
0.311344
0.331716
0.351679
0.370844
0.389355
0.407349
0.424866
0.441916
0.458487
0.47458
0.490184
0.505302
0.51992
0.534039
0.547643
0.560728
0.573274
0.585273
0.596698
0.607536
0.617754
0.627335
0.636241
0.64445
0.651922
0.658632
0.664541
0.669627
0.673856
0.677221
0.679707
0.681333
0.682108
0.682283
0.682107
0.68155
0.68022
0.677719
0.674342
0.670736
0.66706
0.663342
0.659655
0.656077
0.652712
0.649628
0.646899
0.644555
0.642631
0.641123
0.640036
0.639342
0.639017
0.638993
0.639153
0.639493
0.64013
0.641223
0.64261
0.644127
0.645675
0.647346
0.648986
0.653761
1.12192
1.036
0.806138
0.549218
0.502237
0.431262
0.381342
0.340595
0.310315
0.291756
0.260403
0.230136
0.210563
0.208818
0.215956
0.226508
0.238967
0.252882
0.268011
0.283867
0.300244
0.316715
0.333039
0.349212
0.365944
0.382927
0.400089
0.417187
0.434283
0.451213
0.468064
0.484692
0.501188
0.517421
0.533077
0.547992
0.562989
0.578707
0.594571
0.609793
0.62451
0.63888
0.652959
0.666733
0.680186
0.6933
0.706069
0.71848
0.730526
0.742194
0.753475
0.764352
0.774813
0.784837
0.794407
0.803498
0.812087
0.820148
0.827653
0.834571
0.840873
0.846528
0.851504
0.855775
0.859315
0.862107
0.864144
0.865425
0.865985
0.865999
0.865704
0.86504
0.863692
0.861311
0.858096
0.854621
0.851071
0.847505
0.84399
0.840598
0.837417
0.834519
0.831965
0.829788
0.828013
0.826642
0.82567
0.825071
0.824843
0.824871
0.825048
0.825384
0.825953
0.82692
0.828129
0.82947
0.830792
0.832206
0.833397
0.837197
1.07464
1.07547
1.00806
0.899631
0.831163
0.780889
0.744969
0.714875
0.690058
0.671966
0.656864
0.64253
0.632531
0.627399
0.62588
0.626136
0.627641
0.630048
0.63343
0.637697
0.642812
0.648584
0.654945
0.661777
0.669332
0.67749
0.686259
0.695412
0.704983
0.714785
0.724897
0.735144
0.745634
0.756179
0.766564
0.776506
0.78658
0.79736
0.808725
0.819818
0.830627
0.841243
0.851759
0.862154
0.87243
0.882537
0.89248
0.902214
0.911748
0.92104
0.930098
0.938877
0.947382
0.955566
0.96343
0.970924
0.978047
0.984746
0.991015
0.996801
1.0021
1.00684
1.01104
1.01463
1.01761
1.01994
1.02162
1.02263
1.02298
1.02287
1.02251
1.02183
1.02052
1.01831
1.01535
1.01211
1.00877
1.00542
1.00214
0.999003
0.996073
0.993423
0.991094
0.989129
0.987536