/*--------------------------------*- C++ -*----------------------------------*\
| =========                 |                                                 |
| \\      /  F ield         | OpenFOAM: The Open Source CFD Toolbox           |
|  \\    /   O peration     | Version:  2412                                  |
|   \\  /    A nd           | Website:  www.openfoam.com                      |
|    \\/     M anipulation  |                                                 |
\*---------------------------------------------------------------------------*/
FoamFile
{
    version     2.0;
    format      ascii;
    arch        "LSB;label=32;scalar=64";
    class       volScalarField;
    location    "24";
    object      p;
}
// * * * * * * * * * * * * * * * * * * * * * * * * * * * * * * * * * * * * * //

dimensions      [1 -1 -2 0 0 0 0];

internalField   nonuniform List<scalar> 
7000
(
1.63884
3.75678
11.4556
11.5282
11.0977
10.6882
10.5695
10.5841
10.6251
10.6648
10.6866
10.7004
10.7149
10.7326
10.753
10.7752
10.799
10.8244
10.8516
10.8806
10.9115
10.9441
10.9787
11.015
11.0532
11.0933
11.1352
11.1788
11.2242
11.2713
11.3199
11.37
11.4214
11.474
11.5275
11.5818
11.6363
11.691
11.7452
11.7986
11.8506
11.9006
11.9481
11.9922
12.0325
12.0681
12.0984
12.1229
12.1405
12.1535
1.63914
3.75549
11.4552
11.5276
11.0972
10.6878
10.5691
10.5837
10.6247
10.6644
10.6861
10.6999
10.7144
10.7321
10.7524
10.7746
10.7984
10.8238
10.851
10.88
10.9108
10.9434
10.9779
11.0142
11.0524
11.0924
11.1343
11.1779
11.2232
11.2703
11.3189
11.3689
11.4203
11.4729
11.5264
11.5806
11.6352
11.6898
11.744
11.7975
11.8495
11.8996
11.9471
11.9914
12.0318
12.0675
12.098
12.1226
12.1402
12.1533
1.63903
3.75455
11.4533
11.5267
11.0965
10.6871
10.5684
10.583
10.6239
10.6635
10.6852
10.6989
10.7133
10.731
10.7513
10.7734
10.7971
10.8225
10.8496
10.8785
10.9092
10.9417
10.9761
11.0124
11.0504
11.0903
11.1321
11.1756
11.2208
11.2677
11.3161
11.366
11.4173
11.4697
11.5231
11.5771
11.6316
11.6861
11.7402
11.7935
11.8455
11.8955
11.943
11.9873
12.0276
12.0634
12.0938
12.1185
12.136
12.149
1.63891
3.75327
11.45
11.5257
11.0956
10.686
10.5672
10.5818
10.6226
10.662
10.6836
10.6972
10.7116
10.7292
10.7494
10.7714
10.795
10.8203
10.8473
10.876
10.9066
10.9391
10.9733
11.0094
11.0473
11.087
11.1285
11.1718
11.2169
11.2635
11.3117
11.3614
11.4124
11.4646
11.5177
11.5715
11.6257
11.68
11.7339
11.787
11.8389
11.8888
11.9362
11.9803
12.0207
12.0564
12.0868
12.1114
12.1289
12.1418
1.63873
3.75139
11.4452
11.5243
11.0943
10.6844
10.5655
10.58
10.6207
10.66
10.6814
10.6949
10.7092
10.7267
10.7467
10.7686
10.7921
10.8172
10.844
10.8726
10.903
10.9353
10.9693
11.0051
11.0428
11.0823
11.1235
11.1665
11.2112
11.2576
11.3055
11.3548
11.4055
11.4573
11.51
11.5634
11.6173
11.6712
11.7248
11.7776
11.8292
11.8789
11.9261
11.9702
12.0104
12.0461
12.0765
12.1011
12.1185
12.1315
1.63851
3.74887
11.4389
11.5225
11.0927
10.6823
10.5633
10.5777
10.6183
10.6573
10.6786
10.6919
10.706
10.7233
10.7432
10.7649
10.7882
10.8131
10.8397
10.8681
10.8983
10.9302
10.964
10.9995
11.0369
11.076
11.1169
11.1595
11.2038
11.2497
11.2971
11.346
11.3962
11.4475
11.4997
11.5526
11.606
11.6594
11.7125
11.7649
11.8161
11.8655
11.9124
11.9563
11.9964
12.032
12.0624
12.0871
12.1044
12.1175
1.63825
3.74564
11.431
11.5202
11.0906
10.6796
10.5604
10.5747
10.6151
10.6539
10.6749
10.6881
10.702
10.7191
10.7388
10.7603
10.7833
10.8079
10.8343
10.8624
10.8922
10.9238
10.9572
10.9924
11.0293
11.068
11.1084
11.1505
11.1943
11.2397
11.2865
11.3348
11.3843
11.435
11.4865
11.5388
11.5914
11.6442
11.6967
11.7485
11.7992
11.848
11.8946
11.9382
11.978
12.0135
12.0439
12.0685
12.0859
12.0992
1.63793
3.74164
11.4214
11.5175
11.0881
10.6764
10.5568
10.5711
10.6112
10.6497
10.6705
10.6834
10.6971
10.7139
10.7333
10.7545
10.7773
10.8016
10.8276
10.8553
10.8848
10.916
10.9489
10.9836
11.02
11.0582
11.098
11.1395
11.1826
11.2273
11.2734
11.3209
11.3696
11.4194
11.4701
11.5215
11.5733
11.6253
11.6769
11.728
11.7778
11.8261
11.8721
11.9152
11.9547
11.99
12.0202
12.0449
12.0623
12.0758
1.63756
3.73684
11.4098
11.5142
11.0851
10.6726
10.5525
10.5666
10.6065
10.6446
10.6651
10.6777
10.6911
10.7076
10.7267
10.7476
10.77
10.7939
10.8195
10.8468
10.8758
10.9065
10.9389
10.973
11.0088
11.0463
11.0854
11.1262
11.1685
11.2123
11.2575
11.304
11.3518
11.4006
11.4502
11.5005
11.5513
11.6021
11.6527
11.7027
11.7516
11.7989
11.8441
11.8866
11.9256
11.9606
11.9906
12.0153
12.0327
12.0465
1.63713
3.73117
11.3962
11.5103
11.0816
10.6681
10.5473
10.5613
10.6008
10.6386
10.6586
10.6709
10.684
10.7002
10.7189
10.7394
10.7613
10.7848
10.8099
10.8367
10.8651
10.8952
10.927
10.9604
10.9955
11.0322
11.0705
11.1103
11.1517
11.1945
11.2386
11.284
11.3305
11.3781
11.4264
11.4754
11.5248
11.5742
11.6235
11.6721
11.7197
11.7659
11.81
11.8515
11.8898
11.9242
11.9538
11.9785
11.9959
12.01
1.63664
3.72458
11.3805
11.5058
11.0775
10.6628
10.5413
10.5551
10.5942
10.6315
10.6511
10.663
10.6757
10.6915
10.7097
10.7297
10.7512
10.7741
10.7987
10.8249
10.8527
10.8821
10.9131
10.9458
10.98
11.0157
11.053
11.0918
11.132
11.1736
11.2164
11.2605
11.3056
11.3516
11.3984
11.4457
11.4934
11.5411
11.5886
11.6356
11.6815
11.726
11.7687
11.8089
11.846
11.8795
11.9086
11.9329
11.9502
11.9649
1.63609
3.71705
11.3625
11.5007
11.0728
10.6568
10.5344
10.5479
10.5864
10.6233
10.6424
10.6538
10.6661
10.6813
10.6991
10.7186
10.7394
10.7618
10.7857
10.8112
10.8383
10.8669
10.8971
10.9288
10.962
10.9967
11.0328
11.0703
11.1092
11.1494
11.1907
11.2331
11.2765
11.3207
11.3656
11.411
11.4566
11.5022
11.5475
11.5923
11.636
11.6784
11.719
11.7573
11.7928
11.8249
11.853
11.8768
11.8939
11.9089
1.63547
3.70852
11.3421
11.4948
11.0674
10.6499
10.5264
10.5396
10.5775
10.6138
10.6324
10.6433
10.655
10.6697
10.6869
10.7057
10.726
10.7477
10.7708
10.7955
10.8218
10.8495
10.8786
10.9093
10.9413
10.9748
11.0096
11.0457
11.0831
11.1216
11.1611
11.2017
11.2431
11.2851
11.3278
11.3707
11.4138
11.4568
11.4994
11.5413
11.5823
11.6218
11.6596
11.6952
11.7282
11.7582
11.7845
11.8071
11.8237
11.8394
1.6348
3.69895
11.3195
11.488
11.0612
10.6421
10.5173
10.5301
10.5673
10.6029
10.6209
10.6312
10.6423
10.6564
10.673
10.6911
10.7106
10.7316
10.7539
10.7777
10.803
10.8297
10.8577
10.8872
10.9179
10.95
10.9833
11.0177
11.0533
11.0899
11.1274
11.1658
11.2048
11.2444
11.2843
11.3244
11.3645
11.4043
11.4435
11.4819
11.5191
11.5548
11.5887
11.6205
11.6498
11.6765
11.7
11.7206
11.7358
11.7517
1.63407
3.68832
11.2945
11.4804
11.0543
10.6335
10.5071
10.5194
10.5557
10.5905
10.6078
10.6175
10.6279
10.6414
10.6572
10.6746
10.6933
10.7134
10.7348
10.7576
10.7818
10.8073
10.8341
10.8622
10.8915
10.922
10.9535
10.9861
11.0197
11.0541
11.0893
11.1251
11.1615
11.1981
11.2349
11.2716
11.308
11.3438
11.3788
11.4127
11.4452
11.4759
11.5045
11.5309
11.5547
11.5759
11.5944
11.6112
11.6239
11.6401
1.63328
3.67671
11.267
11.4721
11.0466
10.6238
10.4955
10.5073
10.5425
10.5764
10.593
10.602
10.6117
10.6244
10.6394
10.656
10.6738
10.6929
10.7133
10.735
10.758
10.7822
10.8077
10.8342
10.8619
10.8906
10.9202
10.9507
10.982
11.014
11.0465
11.0795
11.1126
11.1459
11.179
11.2116
11.2437
11.2748
11.3047
11.3329
11.3592
11.3833
11.4047
11.4233
11.4389
11.4517
11.4622
11.4716
11.4789
11.4938
1.63243
3.66417
11.2372
11.463
11.0382
10.613
10.4826
10.4936
10.5275
10.5605
10.5763
10.5846
10.5935
10.6053
10.6195
10.6351
10.652
10.6701
10.6894
10.7099
10.7315
10.7544
10.7782
10.8031
10.8289
10.8557
10.8831
10.9113
10.9401
10.9693
10.9988
11.0285
11.0581
11.0874
11.1162
11.1442
11.1711
11.1965
11.2201
11.2414
11.2599
11.2751
11.2868
11.2945
11.2976
11.2969
11.2935
11.2892
11.2852
11.2959
1.63152
3.65079
11.2054
11.4532
11.0291
10.6011
10.4679
10.4782
10.5106
10.5425
10.5575
10.5649
10.573
10.584
10.5972
10.6118
10.6277
10.6446
10.6627
10.6819
10.7022
10.7234
10.7456
10.7687
10.7925
10.817
10.8421
10.8677
10.8937
10.9198
10.9459
10.9719
10.9975
11.0224
11.0463
11.0689
11.0897
11.1084
11.1244
11.137
11.1459
11.1497
11.1481
11.1411
11.1262
11.1043
11.0764
11.0457
11.0155
11.0118
1.63059
3.63677
11.1719
11.4427
11.0192
10.5878
10.4516
10.4609
10.4915
10.5223
10.5365
10.5431
10.5503
10.5603
10.5725
10.5862
10.6009
10.6166
10.6334
10.6511
10.6698
10.6894
10.7097
10.7308
10.7524
10.7746
10.7971
10.8199
10.8427
10.8654
10.8879
10.9097
10.9308
10.9507
10.9691
10.9855
10.9994
11.0102
11.0173
11.0193
11.0164
11.0069
10.9875
10.9584
10.9176
10.8634
10.7941
10.7122
10.6216
10.5662
1.62963
3.62237
11.1377
11.4316
11.0084
10.573
10.4329
10.441
10.4696
10.4992
10.5126
10.5184
10.5247
10.5338
10.545
10.5575
10.5711
10.5855
10.6009
10.6172
10.6342
10.652
10.6703
10.6892
10.7085
10.7281
10.7478
10.7674
10.7869
10.8059
10.8242
10.8416
10.8577
10.8721
10.8842
10.8937
10.8999
10.9013
10.8986
10.8896
10.8711
10.8429
10.8021
10.7457
10.6689
10.5658
10.4279
10.2469
10.0131
9.75871
1.62883
3.60407
11.097
11.4184
10.9947
10.5537
10.408
10.4146
10.4404
10.4687
10.4813
10.4862
10.4914
10.4991
10.509
10.5202
10.5322
10.5451
10.5587
10.573
10.588
10.6034
10.6192
10.6354
10.6517
10.6679
10.684
10.6998
10.715
10.7293
10.7424
10.754
10.7638
10.7711
10.7752
10.7752
10.7723
10.7634
10.7454
10.7186
10.6809
10.6288
10.5581
10.4619
10.331
10.1486
9.88556
9.48035
8.782
7.25978
1.62803
3.58458
11.0539
11.4011
10.9756
10.5254
10.3718
10.3764
10.399
10.4264
10.4389
10.4433
10.4476
10.4542
10.4628
10.4725
10.483
10.494
10.5057
10.5177
10.5302
10.5429
10.5558
10.5686
10.5813
10.5937
10.6055
10.6166
10.6266
10.6352
10.6422
10.647
10.6488
10.6479
10.6437
10.6337
10.6167
10.5923
10.5585
10.5129
10.4523
10.3721
10.2656
10.1233
9.93026
9.66259
9.27875
8.70981
7.86752
6.48124
1.62757
3.57331
11.0291
11.3895
10.9601
10.4971
10.3327
10.3349
10.3537
10.3809
10.3934
10.3972
10.4002
10.4055
10.4127
10.421
10.4298
10.439
10.4485
10.4583
10.4682
10.4781
10.4879
10.4974
10.5064
10.5147
10.5221
10.5284
10.5331
10.5359
10.5361
10.5346
10.5298
10.5196
10.5041
10.4828
10.4538
10.4157
10.366
10.302
10.2196
10.1137
9.9764
9.79772
9.56237
9.24917
8.82891
8.26138
7.52953
6.55656
1.62694
3.5641
11.0058
11.3682
10.9321
10.4516
10.2777
10.2799
10.3002
10.3309
10.3449
10.3484
10.3506
10.3549
10.3611
10.3681
10.3754
10.3828
10.3902
10.3977
10.405
10.4121
10.4188
10.4249
10.4302
10.4345
10.4376
10.4389
10.4385
10.4364
10.4311
10.4216
10.4082
10.3899
10.3657
10.3345
10.2946
10.2442
10.1807
10.1013
10.0019
9.87733
9.72085
9.52365
9.27457
8.95981
8.56476
8.07368
7.49335
6.7643
1.62766
3.59847
11.0672
11.3655
10.9046
10.386
10.2007
10.206
10.2342
10.272
10.2885
10.292
10.2938
10.2974
10.303
10.3092
10.3153
10.3211
10.3268
10.3323
10.3374
10.3419
10.3458
10.3488
10.3508
10.3512
10.3506
10.3482
10.3431
10.3349
10.3235
10.3083
10.2884
10.2631
10.2312
10.1916
10.1425
10.0822
10.0084
9.91807
9.80783
9.67327
9.50907
9.30893
9.06555
8.77119
8.41862
8.00065
7.51973
6.96871
1.58995
3.70893
11.0721
11.2743
10.8238
10.3045
10.1316
10.1417
10.1783
10.2182
10.2346
10.2384
10.2404
10.2441
10.2489
10.2538
10.2583
10.2623
10.2659
10.269
10.2715
10.2732
10.2741
10.2738
10.2727
10.2699
10.2646
10.2573
10.2475
10.2346
10.2181
10.1975
10.172
10.1406
10.1023
10.0558
9.99979
9.93237
9.85156
9.75484
9.63934
9.50162
9.33782
9.14361
8.91455
8.64619
8.33519
7.97888
7.57924
7.13159
1.55512
4.81615
11.2232
10.9533
10.3122
10.0552
10.0509
10.0775
10.1249
10.1514
10.1611
10.1653
10.1695
10.1746
10.1797
10.1843
10.1881
10.1912
10.1937
10.1952
10.1958
10.1956
10.1946
10.1921
10.1876
10.1817
10.1739
10.1638
10.1508
10.1342
10.1138
10.0887
10.0586
10.0223
9.97907
9.92768
9.86689
9.79509
9.71052
9.61113
9.49464
9.35849
9.19992
9.01606
8.8042
8.56189
8.28769
7.98157
7.6449
7.27042
1.55602
4.82312
11.173
10.8842
10.2396
10.0002
10.0104
10.0529
10.1014
10.1231
10.1291
10.1316
10.1346
10.1379
10.1405
10.142
10.1427
10.1426
10.142
10.1402
10.1371
10.1331
10.1282
10.1219
10.114
10.1041
10.0918
10.0771
10.0596
10.0388
10.0144
9.98579
9.95206
9.91219
9.86524
9.81037
9.74636
9.67196
9.58579
9.4862
9.37144
9.23963
9.08884
8.91714
8.7229
8.5047
8.26185
7.99383
7.70694
7.39091
1.56617
4.84224
11.2355
10.9041
10.1833
9.9228
9.93791
9.99265
10.05
10.0744
10.0808
10.0835
10.0868
10.0902
10.0925
10.0935
10.0934
10.0924
10.09
10.0859
10.0807
10.0744
10.0667
10.0574
10.0462
10.0329
10.0174
9.99928
9.97831
9.95405
9.92584
9.89304
9.8551
9.8116
9.76181
9.7047
9.63933
9.56427
9.47832
9.38023
9.26883
9.14265
9.0005
8.84106
8.66336
8.4667
8.25141
8.01729
7.76818
7.49776
1.55649
4.82043
11.1596
10.8523
10.1592
9.89802
9.91009
9.95938
10.0156
10.0398
10.0454
10.0469
10.0489
10.0507
10.0514
10.051
10.0494
10.046
10.0412
10.0353
10.0282
10.0197
10.0096
9.9978
9.98398
9.96798
9.94954
9.92844
9.90431
9.87682
9.84544
9.80975
9.76928
9.72331
9.67122
9.61207
9.54517
9.46971
9.38487
9.28956
9.18287
9.06354
8.93056
8.78313
8.62095
8.44396
8.25235
8.04552
7.82712
7.59239
1.52731
4.76281
10.9521
10.7277
10.1507
9.90261
9.90354
9.93296
9.98162
10.0049
10.0106
10.0114
10.012
10.0123
10.0118
10.0101
10.0065
10.0014
9.99513
9.98773
9.9789
9.96852
9.95637
9.94237
9.92626
9.90796
9.88713
9.86363
9.837
9.80702
9.77331
9.73541
9.69286
9.6451
9.59162
9.53176
9.46487
9.39024
9.30715
9.21478
9.1123
8.99919
8.87491
8.73901
8.59098
8.43052
8.25774
8.07479
7.88208
7.6761
1.51124
4.7173
10.8689
10.7327
10.2339
9.9412
9.88943
9.90777
9.94722
9.97131
9.97803
9.97775
9.97658
9.97427
9.97137
9.96755
9.96246
9.95609
9.94844
9.93946
9.92897
9.91688
9.90301
9.88727
9.86942
9.84935
9.82671
9.80139
9.77298
9.74126
9.70589
9.66647
9.62269
9.57401
9.51997
9.46005
9.39378
9.32059
9.23991
9.1511
9.05363
8.94702
8.83088
8.70487
8.56888
8.423
8.26756
8.10324
7.93127
7.74868
1.66809
3.29272
10.5073
11.0129
10.597
10.0772
9.88909
9.89305
9.91832
9.95137
9.96208
9.96091
9.95695
9.9506
9.94476
9.93882
9.93191
9.92366
9.91401
9.90293
9.89037
9.87616
9.86014
9.84233
9.82244
9.80031
9.77563
9.7483
9.71797
9.68444
9.6474
9.6065
9.56138
9.51168
9.457
9.39699
9.33132
9.25953
9.18118
9.09585
9.00305
8.90246
8.79384
8.67693
8.55174
8.4184
8.27721
8.12868
7.97396
7.81057
1.676
3.16912
10.4415
11.1647
10.7159
10.1121
9.86731
9.85447
9.87222
9.90439
9.91482
9.91295
9.90695
9.89759
9.88996
9.88343
9.87648
9.86827
9.8586
9.84746
9.83477
9.82043
9.80427
9.78612
9.76586
9.74328
9.71811
9.69024
9.65934
9.62528
9.58772
9.54648
9.50129
9.45187
9.39798
9.3392
9.27512
9.20539
9.12973
9.0477
8.95909
8.86373
8.76158
8.65277
8.53714
8.41476
8.28582
8.15077
8.01059
7.86314
1.64117
3.0546
9.91274
11.0086
10.6486
10.1097
9.88658
9.86573
9.8767
9.89502
9.89668
9.89273
9.88257
9.86921
9.85803
9.84833
9.83853
9.82777
9.81579
9.80256
9.78799
9.77196
9.75428
9.73479
9.71332
9.68968
9.66368
9.63507
9.6036
9.56908
9.53132
9.4901
9.44516
9.39625
9.34308
9.28535
9.2228
9.15516
9.0822
9.0038
8.91987
8.83018
8.73453
8.63277
8.52482
8.41103
8.29225
8.16878
8.04109
7.90724
1.43604
4.54908
10.3366
10.5122
10.2197
9.92508
9.8171
9.81448
9.82275
9.83326
9.83317
9.82964
9.82059
9.80862
9.79837
9.78924
9.77975
9.76913
9.75723
9.74403
9.72947
9.71342
9.6957
9.67614
9.65463
9.63095
9.60497
9.57642
9.54513
9.51102
9.47383
9.4333
9.38924
9.34144
9.28967
9.23369
9.17331
9.10832
9.03857
8.96391
8.88423
8.7994
8.70936
8.61413
8.5141
8.40935
8.29979
8.18563
8.06788
7.94509
1.63351
3.00313
9.72766
10.8964
10.5815
10.0813
9.8618
9.82754
9.83289
9.83937
9.83661
9.82746
9.81078
9.79497
9.78137
9.7688
9.75598
9.74214
9.72711
9.71102
9.69383
9.67534
9.65537
9.63376
9.61032
9.58495
9.55746
9.52781
9.49584
9.46122
9.42376
9.38325
9.33955
9.29248
9.24184
9.1874
9.12897
9.0664
8.99955
8.9283
8.85256
8.77229
8.6875
8.59823
8.50462
8.4068
8.3049
8.19933
8.09067
7.97768
1.64237
2.93502
9.72906
11.0213
10.64
10.049
9.79179
9.75829
9.76844
9.78409
9.783
9.77586
9.7599
9.7428
9.72896
9.71683
9.70458
9.69149
9.67737
9.66199
9.64522
9.62701
9.60726
9.58585
9.56266
9.53752
9.5103
9.48085
9.44904
9.41467
9.37762
9.33775
9.29487
9.24877
9.1993
9.14636
9.08983
9.02959
8.96552
8.89755
8.82561
8.74965
8.66966
8.58572
8.49789
8.40631
8.31119
8.21299
8.11212
8.00733
1.64068
2.91572
9.67456
10.9998
10.6149
10.0089
9.74233
9.70723
9.71837
9.73669
9.73619
9.72995
9.71497
9.69737
9.68325
9.67118
9.65909
9.64603
9.63175
9.61621
9.59932
9.58103
9.56122
9.53978
9.51659
9.49151
9.46441
9.43517
9.40366
9.36975
9.33329
9.29416
9.25221
9.2073
9.15929
9.10808
9.05359
8.99573
8.93442
8.8696
8.80122
8.72923
8.65366
8.57458
8.49208
8.40632
8.31737
8.22558
8.1314
8.03369
1.62632
2.92427
9.50647
10.8593
10.5493
9.99832
9.74273
9.69486
9.69956
9.70785
9.70553
9.69699
9.67977
9.66305
9.64872
9.63563
9.62241
9.60836
9.59325
9.577
9.55955
9.54078
9.52058
9.49883
9.47541
9.45019
9.42307
9.39392
9.36263
9.32908
9.29312
9.25465
9.21354
9.16972
9.12311
9.07362
9.02113
8.96555
8.90682
8.84492
8.7798
8.71146
8.63991
8.56521
8.48746
8.40678
8.32341
8.23743
8.14916
8.05757
1.39428
4.48172
10.0357
10.3045
10.0238
9.73621
9.62835
9.6192
9.6246
9.63118
9.63011
9.62489
9.61356
9.60085
9.58939
9.57854
9.56718
9.55473
9.541
9.52594
9.50953
9.4917
9.47237
9.45145
9.42886
9.40447
9.37819
9.34991
9.31956
9.28704
9.25224
9.21507
9.17542
9.13323
9.0884
9.04087
8.99054
8.93735
8.88128
8.82229
8.7604
8.69562
8.62794
8.5574
8.48404
8.40796
8.32936
8.24832
8.16518
8.079
1.63154
2.94796
9.59374
10.8426
10.4985
9.90971
9.63623
9.59388
9.60418
9.62462
9.6262
9.62153
9.60913
9.59181
9.57689
9.56376
9.55054
9.53628
9.52072
9.50381
9.48569
9.46617
9.44528
9.42301
9.39931
9.37404
9.34705
9.31824
9.28751
9.25474
9.21993
9.18305
9.14401
9.10271
9.05907
9.01299
8.96442
8.9133
8.85956
8.80315
8.74404
8.68223
8.61776
8.55069
8.48111
8.40913
8.33487
8.2584
8.17995
8.09861
1.64179
3.07742
9.86656
10.7745
10.3921
9.78018
9.51829
9.49814
9.51546
9.54826
9.55772
9.55505
9.54669
9.53246
9.51997
9.50909
9.49802
9.48572
9.47196
9.45683
9.44048
9.42284
9.40371
9.38296
9.36049
9.33629
9.31033
9.28258
9.25297
9.22146
9.18799
9.15246
9.11479
9.07492
9.03277
8.98831
8.94148
8.89224
8.84057
8.78645
8.7299
8.67095
8.60962
8.54586
8.47976
8.41139
8.34085
8.26825
8.19381
8.11664
1.40443
4.54563
10.1044
10.1594
9.85367
9.54631
9.44675
9.45206
9.47144
9.49142
9.49715
9.49563
9.49059
9.48113
9.47179
9.46272
9.45295
9.44184
9.42926
9.41524
9.39979
9.38287
9.36441
9.34432
9.32258
9.29917
9.27405
9.24717
9.21846
9.18788
9.15541
9.12101
9.08461
9.04615
9.00558
8.96285
8.91792
8.87076
8.82135
8.76967
8.71572
8.65947
8.60099
8.54034
8.47755
8.41268
8.34579
8.27692
8.20626
8.133
1.38838
4.55535
10.0007
10.0256
9.78377
9.55154
9.46915
9.46651
9.47268
9.48209
9.48377
9.4817
9.47575
9.46571
9.4554
9.44499
9.43378
9.42139
9.4077
9.39273
9.37646
9.35888
9.33993
9.31954
9.29766
9.27424
9.24923
9.22259
9.19428
9.16426
9.13242
9.09872
9.0631
9.02552
8.98593
8.94431
8.9006
8.85475
8.80686
8.75699
8.7051
8.65111
8.59504
8.53691
8.47676
8.41459
8.35051
8.28463
8.2171
8.14716
1.42152
4.5688
10.2126
10.1824
9.79845
9.46305
9.3699
9.38186
9.41307
9.43753
9.44445
9.44308
9.43847
9.42986
9.4209
9.41179
9.40182
9.39053
9.37778
9.36358
9.34795
9.33084
9.31227
9.29222
9.27067
9.24758
9.22292
9.19666
9.16879
9.13925
9.108
9.07499
9.04017
9.00354
8.96509
8.9248
8.88266
8.83869
8.79277
8.74483
8.69489
8.64301
8.5892
8.53348
8.47588
8.41642
8.35518
8.29221
8.2276
8.16053
1.53228
3.3522
9.8889
10.7069
10.3191
9.67687
9.39302
9.3672
9.38484
9.4207
9.43486
9.43382
9.42917
9.41939
9.40893
9.39893
9.38848
9.37684
9.36375
9.34923
9.33332
9.31605
9.29739
9.27728
9.25569
9.23258
9.20784
9.18149
9.15363
9.12413
9.09297
9.06009
9.02555
8.98931
8.95136
8.91167
8.87025
8.82705
8.78207
8.73528
8.68672
8.63642
8.58426
8.5303
8.47463
8.4173
8.35837
8.29786
8.23589
8.17177
1.39674
4.53412
10.0662
10.0952
9.79214
9.46707
9.34508
9.34352
9.35493
9.37639
9.38521
9.38451
9.381
9.37333
9.36437
9.35562
9.34643
9.33607
9.32427
9.31102
9.29635
9.28028
9.26278
9.24381
9.22333
9.20132
9.17775
9.15261
9.12593
9.09769
9.06786
9.03645
9.00341
8.96869
8.93223
8.89405
8.85414
8.8125
8.76911
8.72398
8.6771
8.62846
8.57819
8.5263
8.4728
8.41769
8.36103
8.30287
8.24334
8.18191
1.39413
4.53123
10.0488
10.0823
9.77556
9.44769
9.32748
9.32779
9.34036
9.36311
9.3725
9.37162
9.36756
9.35897
9.3493
9.33981
9.32985
9.31874
9.30623
9.29234
9.27714
9.26063
9.24281
9.22366
9.20314
9.18123
9.15794
9.13324
9.10704
9.07928
9.04993
9.01898
8.98646
8.95237
8.91672
8.87948
8.84063
8.80014
8.75802
8.71427
8.66888
8.62188
8.57329
8.52312
8.47139
8.41813
8.36337
8.30715
8.24955
8.19011
1.53046
3.3402
9.84945
10.6878
10.3015
9.63707
9.33327
9.29755
9.3141
9.3489
9.3641
9.36321
9.35864
9.34879
9.33797
9.32801
9.31795
9.3069
9.29447
9.2807
9.26559
9.24918
9.23144
9.21236
9.19188
9.16993
9.14666
9.12195
9.09575
9.06805
9.03884
9.00811
8.97588
8.94217
8.90696
8.87021
8.83194
8.79213
8.75078
8.70789
8.66347
8.61753
8.57008
8.52114
8.47073
8.4189
8.36566
8.31106
8.25522
8.19771
1.40814
4.54767
10.1186
10.0923
9.70682
9.35397
9.24381
9.25306
9.28235
9.31132
9.32092
9.31999
9.3161
9.30804
9.29939
9.29091
9.28187
9.27166
9.26008
9.24716
9.23294
9.21743
9.20061
9.18247
9.16298
9.14212
9.11988
9.09624
9.07117
9.04465
9.01666
8.98724
8.95637
8.92402
8.89018
8.85484
8.818
8.77966
8.73984
8.6985
8.65563
8.61123
8.56534
8.51797
8.46916
8.41892
8.36727
8.31428
8.26006
8.2042
1.39309
4.55546
10.0077
9.98187
9.66882
9.38846
9.29999
9.303
9.31517
9.32598
9.32652
9.32402
9.31742
9.30732
9.29729
9.28737
9.27685
9.2653
9.2526
9.23874
9.2237
9.20751
9.19015
9.17158
9.15178
9.13073
9.10839
9.08477
9.05982
9.03355
9.00594
8.97695
8.94653
8.91467
8.88136
8.84659
8.81035
8.77265
8.73349
8.69289
8.65087
8.60744
8.56257
8.51629
8.46861
8.41953
8.36913
8.31737
8.26431
8.20948
1.38512
4.54773
9.959
9.94761
9.65894
9.38721
9.29494
9.29426
9.30042
9.30812
9.30818
9.30592
9.29977
9.28987
9.27993
9.27013
9.25978
9.24848
9.23609
9.22261
9.20802
9.1923
9.17539
9.15729
9.13795
9.11737
9.09551
9.07237
9.04791
9.02213
8.995
8.96651
8.93663
8.90536
8.8727
8.83864
8.8032
8.76635
8.72808
8.68839
8.64728
8.60475
8.56082
8.51549
8.46882
8.42085
8.37154
8.32086
8.26885
8.21504
1.37722
4.50925
9.91946
10.0315
9.73123
9.40335
9.28211
9.27809
9.28669
9.29904
9.30114
9.29878
9.2921
9.28104
9.27033
9.26019
9.24971
9.2383
9.22577
9.21213
9.19737
9.1815
9.16448
9.1463
9.12693
9.10635
9.08454
9.06149
9.03718
9.01158
8.98469
8.95649
8.92696
8.8961
8.86388
8.83032
8.79539
8.75909
8.72142
8.68237
8.64196
8.6002
8.55711
8.5127
8.46695
8.41983
8.3714
8.32169
8.27076
8.21823
1.62613
2.96905
9.52183
10.6176
10.2731
9.64741
9.33796
9.27215
9.27971
9.29792
9.30536
9.3031
9.29556
9.28118
9.26799
9.25667
9.2458
9.23426
9.22162
9.20784
9.19297
9.17704
9.16001
9.14185
9.12253
9.10203
9.08033
9.05739
9.03321
9.00777
8.98105
8.95303
8.9237
8.89306
8.86108
8.82777
8.79312
8.75712
8.71978
8.6811
8.64108
8.59974
8.55707
8.51311
8.46784
8.4213
8.37355
8.32465
8.27465
8.22326
1.63545
2.8538
9.48422
10.8212
10.4148
9.67672
9.30961
9.23167
9.24222
9.26819
9.28283
9.28162
9.27548
9.26209
9.24797
9.23639
9.22595
9.21504
9.20296
9.18965
9.17521
9.1597
9.1431
9.12539
9.10653
9.08651
9.06529
9.04286
9.01921
8.99431
8.96816
8.94073
8.91201
8.882
8.85067
8.81804
8.78408
8.7488
8.7122
8.67427
8.63502
8.59445
8.55258
8.50938
8.4649
8.41917
8.37222
8.32409
8.27487
8.2243
1.62645
2.96229
9.50635
10.6081
10.2636
9.63132
9.31379
9.24617
9.25455
9.27516
9.28532
9.28344
9.27639
9.26197
9.24811
9.2364
9.22544
9.21394
9.20137
9.18768
9.17293
9.15717
9.14037
9.1225
9.10353
9.08344
9.06219
9.03978
9.01617
8.99136
8.96531
8.93803
8.90948
8.87967
8.84858
8.81619
8.78251
8.74753
8.71125
8.67365
8.63476
8.59456
8.55308
8.51031
8.46627
8.42097
8.37445
8.32671
8.27782
8.22739
1.37419
4.50587
9.90004
10.0119
9.70742
9.36533
9.23665
9.2322
9.24172
9.25627
9.2594
9.25717
9.25067
9.23969
9.22909
9.21915
9.20896
9.1979
9.18578
9.1726
9.15838
9.14314
9.12686
9.1095
9.09104
9.07145
9.05073
9.02884
9.00577
8.98149
8.956
8.92927
8.9013
8.87206
8.84155
8.80976
8.77668
8.7423
8.70662
8.66964
8.63136
8.59177
8.55088
8.5087
8.46525
8.42054
8.37457
8.32734
8.27884
8.22859
1.37996
4.54111
9.92453
9.90707
9.60722
9.33016
9.24227
9.24457
9.25528
9.26525
9.26549
9.2629
9.25594
9.24511
9.2345
9.22422
9.21352
9.20192
9.18933
9.17573
9.16115
9.14556
9.12895
9.11129
9.09256
9.07272
9.05177
9.02967
9.00642
8.98199
8.95636
8.92952
8.90146
8.87215
8.8416
8.80978
8.7767
8.74234
8.7067
8.66978
8.63158
8.59209
8.55134
8.50931
8.46603
8.4215
8.37575
8.32877
8.28059
8.2309
1.40415
4.56237
10.055
9.98756
9.59222
9.27617
9.19336
9.20497
9.23469
9.2551
9.25765
9.255
9.24797
9.23759
9.22764
9.21795
9.20768
9.19641
9.18408
9.17072
9.15636
9.14098
9.12458
9.10712
9.08858
9.06895
9.04819
9.02629
9.00323
8.97899
8.95356
8.92692
8.89905
8.86994
8.83958
8.80796
8.77507
8.74091
8.70547
8.66874
8.63073
8.59144
8.55088
8.50905
8.46596
8.42163
8.37607
8.32932
8.28142
8.23214
3.04424
2.45903
3.00452
4.18107
4.1271
4.11021
4.04933
4.01165
3.99875
4.00152
4.02918
4.07283
4.10995
4.14064
4.17462
4.21732
4.26898
4.32706
4.3887
4.45159
4.514
4.57473
4.63327
4.69019
4.74116
4.78649
4.82615
4.86055
4.88967
4.91369
4.93264
4.94672
4.95603
4.96079
4.9612
4.95957
4.95424
4.94295
4.92752
4.90976
4.88975
4.86742
4.84291
4.81647
4.78839
4.75892
4.72832
4.69683
4.66469
4.63211
4.59933
4.56653
4.53393
4.50173
4.47014
4.43934
4.40954
4.38094
4.35374
4.32812
4.30429
4.28243
4.26272
4.24534
4.23042
4.21811
4.20847
4.20156
4.19735
4.19588
4.1961
4.19719
4.20022
4.20694
4.21869
4.23173
4.2451
4.25866
4.27225
4.28558
4.29831
4.3101
4.3207
4.32994
4.33769
4.34391
4.3486
4.35181
4.35363
4.35424
4.35416
4.35378
4.35273
4.35042
4.34648
4.3421
4.33758
4.33289
4.32785
4.32343
4.09674
3.55487
3.75747
4.23563
4.15278
4.09608
4.03674
3.99631
3.98467
3.9969
4.03809
4.08856
4.12035
4.14225
4.17127
4.21219
4.26347
4.32149
4.383
4.4458
4.50812
4.56899
4.62781
4.68447
4.73551
4.78085
4.82063
4.85516
4.88441
4.90856
4.92763
4.94181
4.95119
4.95598
4.95621
4.95503
4.95076
4.94077
4.9238
4.90542
4.88557
4.86358
4.83932
4.81305
4.78508
4.75572
4.72524
4.69386
4.66182
4.62935
4.59665
4.56394
4.53142
4.49929
4.46776
4.43702
4.40727
4.37871
4.35153
4.32595
4.30214
4.2803
4.26061
4.24325
4.22836
4.21609
4.20652
4.19971
4.19572
4.19475
4.19504
4.1962
4.19924
4.20584
4.21767
4.23102
4.24475
4.25859
4.27238
4.28588
4.29874
4.31065
4.32135
4.33065
4.33843
4.34466
4.34933
4.35249
4.35427
4.35478
4.35469
4.3543
4.35326
4.35099
4.34694
4.34243
4.33784
4.33322
4.32842
4.32561
5.22624
4.46525
4.23718
4.26893
4.24965
4.19709
4.11494
4.06189
4.04186
4.04435
4.05689
4.0862
4.12147
4.1529
4.18598
4.22662
4.27559
4.33115
4.39053
4.45146
4.51221
4.57166
4.62896
4.68347
4.73365
4.77849
4.81785
4.85191
4.88073
4.90447
4.92318
4.937
4.94603
4.95039
4.95032
4.94923
4.94558
4.93696
4.91968
4.90031
4.87986
4.85776
4.83362
4.8075
4.77966
4.75041
4.72002
4.68876
4.65684
4.62448
4.59191
4.55931
4.52689
4.49487
4.46343
4.43278
4.40312
4.37464
4.34755
4.32204
4.2983
4.27653
4.25692
4.23964
4.22486
4.21271
4.20331
4.19678
4.19323
4.1929
4.19326
4.19455
4.19773
4.20451
4.21629
4.22989
4.24412
4.2585
4.27275
4.2866
4.29975
4.31188
4.32273
4.33213
4.33997
4.34619
4.35081
4.35388
4.35555
4.35586
4.35574
4.35529
4.35417
4.35177
4.34761
4.34296
4.33826
4.3337
4.32911
4.32804
5.82969
5.09666
4.66425
4.46762
4.42882
4.36292
4.27059
4.19016
4.13833
4.11806
4.12038
4.13149
4.15774
4.19473
4.22823
4.26309
4.30396
4.35171
4.40478
4.46086
4.5179
4.57443
4.6292
4.6815
4.72992
4.77367
4.81225
4.84555
4.87368
4.8968
4.91496
4.92826
4.93681
4.9406
4.94043
4.9393
4.93593
4.92815
4.91227
4.89218
4.87084
4.8483
4.82415
4.79823
4.77066
4.74168
4.71155
4.68054
4.64888
4.61677
4.58444
4.55208
4.5199
4.48809
4.45687
4.42643
4.39697
4.36869
4.34179
4.31647
4.29291
4.27133
4.2519
4.23481
4.22023
4.20831
4.1992
4.1931
4.19023
4.1903
4.19084
4.19241
4.19601
4.20341
4.21491
4.22857
4.24328
4.25833
4.27321
4.28756
4.30108
4.31347
4.32451
4.33401
4.34189
4.34809
4.35263
4.35561
4.35711
4.35714
4.35697
4.35642
4.3551
4.35238
4.34821
4.34351
4.33871
4.3342
4.32984
4.32992
6.23267
5.59773
5.12329
4.83415
4.68534
4.57238
4.46094
4.3594
4.28191
4.23444
4.21468
4.21564
4.22198
4.23846
4.27097
4.30374
4.34001
4.38131
4.42746
4.47721
4.52903
4.58132
4.63266
4.6819
4.728
4.77
4.80731
4.83946
4.8666
4.88889
4.90625
4.91882
4.92673
4.92975
4.92949
4.92825
4.92489
4.91744
4.90239
4.88265
4.86087
4.83776
4.81332
4.78741
4.76005
4.73135
4.70154
4.67085
4.63949
4.6077
4.57566
4.5436
4.51172
4.48022
4.44929
4.41915
4.38998
4.36199
4.33538
4.31034
4.28708
4.26579
4.24666
4.22986
4.21561
4.20405
4.19542
4.18982
4.18771
4.18789
4.18866
4.19062
4.19483
4.2031
4.21436
4.22791
4.2429
4.25848
4.27395
4.28883
4.30272
4.31537
4.32656
4.33613
4.34402
4.35017
4.35463
4.35748
4.35867
4.35862
4.35832
4.35755
4.35588
4.35277
4.34865
4.34396
4.33911
4.33462
4.33062
4.33092
6.53972
6.00467
5.5501
5.20639
4.97343
4.80702
4.66991
4.55063
4.45254
4.38045
4.33519
4.31334
4.31328
4.31647
4.32716
4.35033
4.3827
4.41869
4.45747
4.49938
4.54404
4.5903
4.6367
4.68197
4.72495
4.76463
4.80019
4.83111
4.85719
4.87854
4.89497
4.90678
4.91402
4.91625
4.91592
4.91457
4.91112
4.90371
4.8891
4.87019
4.84853
4.8251
4.80033
4.77432
4.7471
4.71872
4.6893
4.65902
4.62808
4.5967
4.56508
4.53343
4.50196
4.47087
4.44037
4.41065
4.38191
4.35435
4.32818
4.30358
4.28076
4.25991
4.24122
4.22487
4.2111
4.20008
4.19201
4.18695
4.18566
4.18593
4.18692
4.18931
4.19432
4.20315
4.21454
4.22805
4.24309
4.2589
4.27474
4.28997
4.30417
4.31701
4.32831
4.33791
4.34577
4.35186
4.35624
4.35895
4.3598
4.35969
4.35928
4.35828
4.3562
4.35287
4.3487
4.34401
4.33915
4.3347
4.33099
4.3314
6.78393
6.33345
5.9159
5.55684
5.27629
5.06455
4.89681
4.75683
4.63972
4.54624
4.4776
4.43289
4.40944
4.40371
4.40536
4.41207
4.42788
4.45634
4.48814
4.52339
4.56139
4.60125
4.64194
4.68248
4.72175
4.75862
4.79209
4.82149
4.84641
4.86673
4.8824
4.89344
4.89995
4.9014
4.901
4.89953
4.89591
4.88828
4.87413
4.85589
4.83463
4.81122
4.78631
4.76023
4.73311
4.705
4.67597
4.64615
4.6157
4.58481
4.55369
4.52254
4.49158
4.46101
4.43103
4.40185
4.37366
4.34666
4.32104
4.29702
4.27478
4.25452
4.23643
4.22075
4.20758
4.19715
4.18967
4.18522
4.18474
4.18509
4.1863
4.18912
4.19495
4.2043
4.21592
4.2294
4.24431
4.26004
4.2759
4.29121
4.30549
4.31841
4.32973
4.33933
4.34715
4.35319
4.35744
4.35999
4.36054
4.3604