/*--------------------------------*- C++ -*----------------------------------*\
| =========                 |                                                 |
| \\      /  F ield         | OpenFOAM: The Open Source CFD Toolbox           |
|  \\    /   O peration     | Version:  2412                                  |
|   \\  /    A nd           | Website:  www.openfoam.com                      |
|    \\/     M anipulation  |                                                 |
\*---------------------------------------------------------------------------*/
FoamFile
{
    version     2.0;
    format      ascii;
    arch        "LSB;label=32;scalar=64";
    class       volScalarField;
    location    "24";
    object      T;
}
// * * * * * * * * * * * * * * * * * * * * * * * * * * * * * * * * * * * * * //

dimensions      [0 0 0 1 0 0 0];

internalField   nonuniform List<scalar> 
7000
(
1.31911
2.65686
2.71979
2.66983
2.66466
2.64798
2.64457
2.64731
2.64936
2.65156
2.65281
2.65382
2.65495
2.65631
2.6578
2.65943
2.66116
2.66302
2.66499
2.66709
2.6693
2.67165
2.67412
2.67671
2.67942
2.68226
2.6852
2.68827
2.69143
2.69471
2.69807
2.70152
2.70504
2.70863
2.71224
2.7159
2.71953
2.72317
2.72672
2.73022
2.73357
2.73678
2.73976
2.74253
2.74498
2.74714
2.74889
2.75029
2.75123
2.75177
1.31917
2.65707
2.72003
2.66993
2.66479
2.64811
2.64469
2.64743
2.64948
2.65167
2.65293
2.65393
2.65507
2.65641
2.65791
2.65954
2.66127
2.66312
2.66508
2.66718
2.6694
2.67174
2.6742
2.67679
2.6795
2.68233
2.68527
2.68833
2.69149
2.69476
2.69812
2.70157
2.70507
2.70865
2.71226
2.71591
2.71953
2.72316
2.7267
2.73018
2.73352
2.73671
2.73969
2.74243
2.74488
2.74699
2.74875
2.75004
2.75098
2.75132
1.31915
2.65698
2.71993
2.66992
2.66475
2.64805
2.64463
2.64739
2.64939
2.65162
2.65283
2.65387
2.65496
2.65635
2.6578
2.65947
2.66114
2.66304
2.66495
2.6671
2.66926
2.67165
2.67405
2.67669
2.67933
2.68221
2.68509
2.68819
2.6913
2.6946
2.69791
2.70139
2.70486
2.70846
2.71204
2.7157
2.71932
2.72294
2.7265
2.72996
2.73332
2.73649
2.7395
2.74218
2.74466
2.74674
2.74849
2.74984
2.75067
2.75109
1.31913
2.65681
2.71975
2.66991
2.6647
2.64794
2.64453
2.64724
2.64931
2.65146
2.65274
2.6537
2.65486
2.65616
2.65769
2.65926
2.66103
2.66282
2.66483
2.66685
2.66912
2.67138
2.67391
2.67639
2.67918
2.68189
2.68492
2.68784
2.6911
2.69422
2.69769
2.70096
2.7046
2.70799
2.71174
2.71519
2.71896
2.72241
2.72608
2.72945
2.73285
2.73604
2.73898
2.74183
2.74411
2.74633
2.748
2.74926
2.75027
2.75046
1.31909
2.65658
2.71952
2.66993
2.66466
2.64781
2.64442
2.64703
2.64924
2.65123
2.65265
2.65345
2.65475
2.6559
2.65756
2.65898
2.66087
2.66252
2.66464
2.66654
2.66889
2.67104
2.67363
2.67604
2.67885
2.68152
2.68453
2.68747
2.69065
2.69384
2.69716
2.70059
2.704
2.70762
2.71107
2.71482
2.71821
2.72201
2.72524
2.72896
2.73197
2.73538
2.7382
2.74099
2.74361
2.74541
2.74739
2.74865
2.7493
2.74988
1.31905
2.6563
2.71922
2.66997
2.6646
2.64768
2.64423
2.64702
2.64889
2.6512
2.65226
2.65341
2.65434
2.65584
2.65711
2.65891
2.66038
2.66243
2.66411
2.66642
2.66832
2.67089
2.67301
2.67584
2.67817
2.68125
2.6838
2.68712
2.68987
2.69339
2.69635
2.70002
2.70318
2.70692
2.71026
2.71398
2.71747
2.72104
2.72463
2.72787
2.73143
2.73413
2.73746
2.73981
2.74249
2.74474
2.74609
2.74767
2.7486
2.74858
1.319
2.65594
2.71886
2.67003
2.66454
2.64748
2.64403
2.64676
2.64871
2.65091
2.65206
2.65307
2.65413
2.65547
2.65689
2.65849
2.66016
2.66196
2.66388
2.6659
2.66808
2.6703
2.67276
2.67518
2.67791
2.6805
2.68351
2.68625
2.68954
2.6924
2.69593
2.6989
2.70263
2.7057
2.70954
2.71271
2.71654
2.71978
2.72345
2.72673
2.73005
2.73334
2.73591
2.73892
2.7409
2.74327
2.74516
2.74615
2.74686
2.7476
1.31894
2.6555
2.71842
2.6701
2.66446
2.64724
2.64378
2.64645
2.64847
2.65056
2.65177
2.6527
2.6538
2.65506
2.65652
2.65805
2.65973
2.66148
2.66338
2.66538
2.66751
2.66975
2.67211
2.67459
2.67716
2.6799
2.68266
2.68565
2.68856
2.6918
2.69483
2.69831
2.70137
2.70505
2.7081
2.71191
2.71495
2.71874
2.72178
2.72535
2.72842
2.73154
2.73471
2.73702
2.73973
2.74144
2.74309
2.74487
2.7457
2.74546
1.31887
2.65499
2.7179
2.67018
2.66437
2.64696
2.64346
2.64617
2.64809
2.65023
2.65135
2.65233
2.65334
2.65465
2.65601
2.65759
2.65918
2.66096
2.66278
2.66479
2.66685
2.66908
2.67138
2.67383
2.67636
2.67902
2.68177
2.68462
2.6876
2.69061
2.6938
2.69693
2.70034
2.70348
2.7071
2.71016
2.71392
2.7168
2.7206
2.72329
2.72688
2.7295
2.73247
2.7354
2.73716
2.73986
2.74127
2.74219
2.74291
2.74392
1.31879
2.65438
2.71729
2.67028
2.66427
2.64662
2.64311
2.6457
2.64776
2.64972
2.65097
2.65177
2.65291
2.65404
2.65553
2.65692
2.65863
2.66024
2.66216
2.664
2.66615
2.66822
2.67059
2.67288
2.67546
2.67797
2.68075
2.68347
2.68643
2.68934
2.69245
2.69553
2.69876
2.70198
2.70525
2.70859
2.7118
2.71524
2.71821
2.72171
2.72427
2.72771
2.72984
2.73283
2.73527
2.7365
2.73876
2.74031
2.7411
2.74058
1.31869
2.65368
2.71659
2.6704
2.66415
2.64625
2.64267
2.64536
2.64718
2.64932
2.65033
2.65131
2.65221
2.65352
2.65477
2.65634
2.65781
2.65958
2.66127
2.66326
2.66517
2.66737
2.66951
2.67192
2.67427
2.67687
2.67944
2.68221
2.68498
2.68791
2.69085
2.69389
2.69699
2.70011
2.70331
2.70644
2.7097
2.71277
2.71601
2.7189
2.72203
2.72456
2.72747
2.72943
2.73208
2.73435
2.73508
2.73612
2.7368
2.73819
1.31859
2.65287
2.71578
2.67053
2.66401
2.64579
2.64219
2.64472
2.64675
2.64861
2.64984
2.65053
2.65165
2.65268
2.65414
2.65542
2.6571
2.65857
2.66047
2.66216
2.66427
2.66616
2.66849
2.67058
2.67312
2.6754
2.67812
2.68059
2.68347
2.6861
2.68912
2.6919
2.69501
2.69791
2.70104
2.70403
2.70708
2.71016
2.713
2.71614
2.71863
2.72168
2.72378
2.72635
2.72792
2.72981
2.73211
2.73329
2.73396
2.73305
1.31846
2.65195
2.71487
2.67069
2.66384
2.6453
2.64161
2.64421
2.64603
2.64801
2.64904
2.64987
2.65077
2.65194
2.65318
2.6546
2.65604
2.65767
2.65931
2.66115
2.66299
2.66504
2.66706
2.66932
2.67153
2.67398
2.67635
2.67897
2.68149
2.68427
2.68691
2.68981
2.69253
2.69553
2.69827
2.70133
2.70401
2.70704
2.70966
2.71247
2.71507
2.71737
2.72008
2.72174
2.72416
2.72539
2.72599
2.72688
2.7274
2.72925
1.31833
2.65095
2.71379
2.67105
2.66346
2.64474
2.64096
2.6435
2.64532
2.6472
2.64825
2.64897
2.64991
2.65095
2.65223
2.65351
2.655
2.65646
2.65817
2.65981
2.66173
2.66355
2.66567
2.66766
2.66996
2.67211
2.67459
2.67689
2.6795
2.68193
2.68464
2.6872
2.68994
2.69259
2.69531
2.69802
2.70068
2.70332
2.70591
2.70832
2.71077
2.71288
2.71479
2.71682
2.71786
2.72
2.72156
2.72238
2.72271
2.72109
1.3182
2.64988
2.71252
2.67176
2.66276
2.6441
2.64022
2.64266
2.64452
2.64626
2.64735
2.64794
2.64891
2.64983
2.65112
2.6523
2.65377
2.65514
2.65679
2.65837
2.66019
2.66198
2.66393
2.66593
2.668
2.67021
2.67236
2.67477
2.67697
2.67956
2.68178
2.6845
2.68672
2.68949
2.6917
2.6944
2.69663
2.6991
2.70132
2.7035
2.70557
2.70751
2.70925
2.71058
2.71193
2.71185
2.71225
2.7124
2.71296
2.71468
1.31805
2.64866
2.71116
2.67235
2.66211
2.6434
2.63937
2.64186
2.64348
2.64533
2.64619
2.64692
2.64765
2.6487
2.64974
2.65106
2.65226
2.65378
2.65513
2.65686
2.65836
2.66029
2.66192
2.66403
2.66579
2.66804
2.66993
2.67228
2.67429
2.67668
2.67883
2.68117
2.68345
2.68566
2.68804
2.69003
2.69241
2.69417
2.6963
2.69788
2.6995
2.70079
2.70202
2.70303
2.70356
2.70491
2.70454
2.70451
2.7032
2.70083
1.31788
2.64732
2.70971
2.6729
2.66142
2.64261
2.6384
2.64094
2.64232
2.64426
2.64493
2.64573
2.64628
2.6474
2.64826
2.64961
2.65066
2.65217
2.6534
2.65505
2.65647
2.65825
2.65985
2.66172
2.6635
2.66543
2.66737
2.66932
2.6714
2.67334
2.67551
2.67742
2.67958
2.68146
2.68348
2.68536
2.68707
2.68892
2.69021
2.6918
2.69275
2.69353
2.69384
2.69393
2.69327
2.69146
2.69076
2.6886
2.68795
2.68784
1.3177
2.64587
2.70815
2.67347
2.66069
2.64169
2.63735
2.63972
2.6412
2.64287
2.64369
2.64422
2.64493
2.64575
2.64679
2.64782
2.64905
2.65021
2.65163
2.65292
2.6545
2.65592
2.65764
2.65916
2.661
2.66262
2.66452
2.66622
2.66813
2.6699
2.67174
2.67356
2.67523
2.67703
2.67847
2.68009
2.68129
2.68246
2.68351
2.68389
2.68469
2.6846
2.68423
2.68326
2.68206
2.68041
2.67613
2.67255
2.66672
2.6607
1.31751
2.64433
2.70651
2.67405
2.65987
2.64067
2.63615
2.6384
2.63986
2.64138
2.64222
2.64262
2.64332
2.64402
2.64502
2.64596
2.64709
2.6482
2.64945
2.65073
2.65208
2.6535
2.65492
2.65648
2.65794
2.65961
2.66107
2.66282
2.66426
2.66602
2.66742
2.6691
2.67043
2.67188
2.67313
2.67416
2.67525
2.67561
2.67624
2.67608
2.67522
2.67447
2.67204
2.66993
2.66528
2.65992
2.65476
2.64502
2.63538
2.62274
1.3173
2.64274
2.70482
2.67463
2.65894
2.63956
2.63477
2.63708
2.63819
2.63987
2.64044
2.641
2.64143
2.64231
2.64299
2.6441
2.64493
2.64617
2.64713
2.64849
2.64956
2.651
2.65217
2.65365
2.6549
2.65637
2.65767
2.65907
2.66041
2.66166
2.66298
2.66401
2.66523
2.66595
2.66695
2.66725
2.66791
2.66779
2.66743
2.66657
2.6655
2.66283
2.66061
2.65531
2.65066
2.64068
2.62785
2.61094
2.58208
2.51104
1.31729
2.64181
2.70046
2.67514
2.65754
2.63781
2.6327
2.63481
2.63593
2.63732
2.63803
2.6383
2.63886
2.63938
2.64024
2.64096
2.64197
2.64278
2.64392
2.64481
2.64605
2.647
2.64831
2.64928
2.65062
2.65157
2.65289
2.65378
2.65501
2.65579
2.6568
2.6574
2.65805
2.65836
2.65857
2.65825
2.65766
2.65676
2.65486
2.65282
2.64871
2.64512
2.63748
2.6314
2.61844
2.60621
2.58348
2.54736
2.48961
2.36404
1.31727
2.64082
2.69574
2.67532
2.65563
2.63544
2.62983
2.63191
2.63278
2.63421
2.63483
2.63512
2.63551
2.63605
2.6367
2.63743
2.63818
2.639
2.63982
2.64072
2.64158
2.64252
2.64338
2.64434
2.64514
2.64608
2.64677
2.64764
2.64815
2.64886
2.64909
2.64959
2.64955
2.64937
2.64889
2.64832
2.64679
2.64552
2.6424
2.63997
2.63488
2.62895
2.62129
2.60788
2.59492
2.56853
2.54179
2.49173
2.41722
2.318
1.31724
2.64016
2.69327
2.67516
2.65405
2.63315
2.62692
2.62876
2.62952
2.63095
2.63153
2.63177
2.63206
2.63251
2.63306
2.63369
2.63434
2.63504
2.63574
2.63649
2.63722
2.63799
2.6387
2.63944
2.64009
2.64072
2.64123
2.64166
2.64193
2.64208
2.64192
2.64153
2.64099
2.6398
2.63856
2.63622
2.63412
2.63021
2.62709
2.6208
2.61616
2.60615
2.59868
2.58345
2.5668
2.54293
2.50653
2.46403
2.39208
2.31851
1.31712
2.63902
2.69246
2.67397
2.65211
2.63035
2.62366
2.6256
2.62644
2.62795
2.62848
2.62854
2.62864
2.62891
2.62916
2.62961
2.62992
2.63041
2.63075
2.63127
2.63165
2.63218
2.63257
2.63309
2.63347
2.63393
2.63424
2.63464
2.63475
2.63482
2.63471
2.63437
2.63378
2.63249
2.63122
2.62843
2.6261
2.62118
2.61681
2.60953
2.60134
2.59131
2.57734
2.56328
2.54112
2.5183
2.48442
2.44401
2.39091
2.32899
1.31689
2.64021
2.70397
2.67061
2.65209
2.62872
2.62151
2.62424
2.6252
2.62705
2.62753
2.62747
2.62744
2.62747
2.62755
2.62766
2.62772
2.62775
2.62774
2.6277
2.62762
2.62745
2.62729
2.62695
2.62667
2.6262
2.62583
2.62502
2.62454
2.62345
2.6228
2.62134
2.62047
2.61844
2.61714
2.61431
2.61179
2.60795
2.6028
2.59717
2.58814
2.5788
2.5647
2.54881
2.52839
2.50258
2.47341
2.43471
2.39202
2.34482
1.30178
2.58661
2.69853
2.67706
2.65966
2.63614
2.62925
2.63215
2.63321
2.63474
2.6346
2.63417
2.63349
2.63295
2.63236
2.63183
2.6312
2.63064
2.62998
2.62943
2.62875
2.62823
2.6275
2.62701
2.62612
2.62558
2.62434
2.62343
2.62157
2.62025
2.6176
2.61578
2.61227
2.61002
2.60554
2.60277
2.59708
2.59355
2.58642
2.58092
2.57196
2.56267
2.55066
2.53537
2.51801
2.49463
2.46888
2.43591
2.39829
2.35811
1.72049
2.469
2.72875
2.70693
2.68436
2.67406
2.67459
2.67613
2.67753
2.67781
2.67662
2.67516
2.67353
2.67175
2.66978
2.66758
2.66517
2.66256
2.65973
2.65677
2.65355
2.6503
2.64675
2.64329
2.6393
2.63539
2.63096
2.62786
2.62401
2.62145
2.61778
2.61509
2.6108
2.60714
2.60192
2.59688
2.59074
2.58377
2.57683
2.56744
2.55926
2.54693
2.53639
2.52033
2.50556
2.48452
2.46327
2.43569
2.40598
2.3732
1.73238
2.46209
2.72325
2.70219
2.67742
2.66844
2.67233
2.67403
2.67672
2.67754
2.67774
2.6776
2.67734
2.67704
2.67636
2.67575
2.67443
2.67347
2.67144
2.67012
2.66739
2.66567
2.66226
2.65997
2.65604
2.65342
2.64901
2.64487
2.63924
2.63382
2.62723
2.62106
2.61487
2.60887
2.60317
2.59614
2.59013
2.58137
2.57386
2.56305
2.55341
2.54031
2.52776
2.51212
2.4958
2.47695
2.4561
2.43321
2.40779
2.38172
1.72914
2.46764
2.72523
2.70249
2.67385
2.66438
2.66921
2.67165
2.67482
2.67593
2.67628
2.67642
2.67658
2.67656
2.67647
2.67621
2.67562
2.67522
2.6743
2.67358
2.67201
2.67094
2.66871
2.667
2.66414
2.66149
2.65808
2.65443
2.6503
2.64537
2.64066
2.63413
2.62808
2.61908
2.61182
2.60171
2.59375
2.58348
2.57489
2.56368
2.55334
2.54051
2.52747
2.51227
2.49617
2.47789
2.45811
2.43632
2.41282
2.38988
1.73184
2.46093
2.72069
2.697
2.67078
2.66113
2.66569
2.66794
2.67111
2.67236
2.67277
2.67305
2.67338
2.67369
2.67395
2.67399
2.6739
2.67365
2.67322
2.67252
2.67184
2.67053
2.66956
2.66755
2.66623
2.66353
2.66173
2.65803
2.65564
2.65072
2.64762
2.64137
2.63709
2.62957
2.62344
2.61425
2.6057
2.59433
2.58351
2.57071
2.55815
2.54442
2.5305
2.5152
2.4991
2.48151
2.46334
2.44329
2.42225
2.40155
1.74101
2.44277
2.70916
2.68464
2.66705
2.65768
2.66063
2.66234
2.66542
2.66648
2.66714
2.66722
2.66745
2.66757
2.6677
2.6677
2.66765
2.66747
2.66729
2.66682
2.66648
2.66568
2.6651
2.66384
2.6629
2.66085
2.65947
2.65649
2.65455
2.65054
2.64763
2.64269
2.63859
2.63262
2.62694
2.61964
2.61222
2.60318
2.5935
2.58227
2.57013
2.55618
2.54156
2.52547
2.50915
2.4914
2.47317
2.45388
2.43386
2.41436
1.73596
2.43634
2.70581
2.67712
2.66926
2.65602
2.65614
2.65814
2.66114
2.66225
2.66332
2.66342
2.6637
2.66389
2.66405
2.66413
2.66411
2.664
2.66385
2.6635
2.6632
2.66253
2.66202
2.66091
2.66012
2.6584
2.65723
2.65473
2.65298
2.64968
2.64696
2.64277
2.63877
2.63364
2.62846
2.62207
2.61543
2.60753
2.59924
2.58963
2.5794
2.56767
2.55513
2.54098
2.5259
2.50943
2.49219
2.47384
2.45473
2.4361
1.35699
2.46744
2.67923
2.66853
2.64652
2.62388
2.61684
2.62088
2.62285
2.62573
2.62716
2.62819
2.62899
2.63
2.63072
2.63181
2.63247
2.63344
2.63395
2.63478
2.6351
2.63584
2.63596
2.63615
2.63616
2.63605
2.63582
2.63524
2.63466
2.63346
2.63228
2.63039
2.62839
2.62541
2.62217
2.61758
2.61255
2.60616
2.59925
2.59098
2.58229
2.57219
2.56156
2.5497
2.53697
2.52306
2.50824
2.49237
2.47558
2.45911
1.36041
2.477
2.68635
2.67711
2.65249
2.62351
2.61389
2.61471
2.61669
2.61866
2.61947
2.61956
2.61977
2.6198
2.62006
2.6204
2.62077
2.62109
2.62143
2.62166
2.62193
2.62202
2.62219
2.6221
2.62194
2.62155
2.62116
2.62029
2.6196
2.61811
2.61697
2.61476
2.61284
2.60989
2.60707
2.60353
2.59988
2.59542
2.59047
2.58481
2.5781
2.57052
2.56151
2.5516
2.54076
2.52909
2.51672
2.50351
2.48941
2.47561
1.34961
2.41268
2.66942
2.66957
2.65016
2.62377
2.614
2.61406
2.61476
2.61532
2.61499
2.61412
2.61337
2.61233
2.61167
2.61097
2.61047
2.60982
2.60934
2.6087
2.60822
2.60758
2.60709
2.60642
2.60586
2.60508
2.60436
2.60353
2.60264
2.60156
2.60018
2.59864
2.59662
2.59446
2.59165
2.5887
2.58502
2.58115
2.5765
2.57143
2.5657
2.55961
2.55292
2.54563
2.53756
2.5282
2.51767
2.50659
2.49479
2.48343
1.74167
2.39663
2.67501
2.66132
2.65253
2.63862
2.63346
2.63371
2.63346
2.63318
2.63238
2.63115
2.62974
2.62808
2.62647
2.62489
2.62321
2.62149
2.61964
2.61778
2.61578
2.61381
2.61167
2.6096
2.60732
2.6052
2.60281
2.60071
2.59823
2.59581
2.59324
2.59061
2.5878
2.58476
2.58157
2.57794
2.57419
2.5698
2.56533
2.56004
2.55466
2.54835
2.54199
2.53465
2.52707
2.51906
2.51094
2.50192
2.49219
2.48261
1.34701
2.39564
2.66021
2.66583
2.64949
2.62421
2.61561
2.61427
2.61553
2.6158
2.61552
2.61517
2.61429
2.61337
2.61272
2.61187
2.61114
2.61008
2.60914
2.6078
2.60667
2.6053
2.60414
2.60264
2.60137
2.5995
2.59792
2.59541
2.5934
2.59068
2.58833
2.58525
2.58245
2.57889
2.57566
2.57173
2.56802
2.56362
2.55928
2.55429
2.54914
2.54336
2.53723
2.53059
2.52341
2.51583
2.50769
2.49928
2.49032
2.48171
1.34834
2.40653
2.6674
2.67129
2.65098
2.62225
2.61099
2.6108
2.61177
2.61248
2.61235
2.61166
2.6109
2.60991
2.60931
2.60857
2.60797
2.60708
2.60627
2.60514
2.60399
2.60233
2.60065
2.59849
2.59632
2.59382
2.5913
2.5885
2.58559
2.58249
2.57919
2.5758
2.57223
2.56867
2.56472
2.5608
2.55639
2.55211
2.54724
2.54254
2.5372
2.53207
2.5262
2.5205
2.51403
2.50764
2.50045
2.49317
2.48534
2.478
1.34776
2.40219
2.66463
2.66933
2.64838
2.61896
2.60695
2.60681
2.60761
2.60852
2.60824
2.60739
2.60657
2.60546
2.60475
2.604
2.60337
2.60257
2.6018
2.60087
2.5999
2.59875
2.59747
2.59599
2.59428
2.59237
2.59016
2.58779
2.58504
2.58216
2.57886
2.57546
2.57163
2.56776
2.56346
2.55909
2.55425
2.54929
2.54394
2.53842
2.5326
2.52658
2.52033
2.5138
2.50714
2.50014
2.49311
2.48562
2.47807
2.47069
1.34492
2.37918
2.64747
2.66156
2.64241
2.61458
2.60277
2.60133
2.60163
2.60187
2.60121
2.60044
2.5991
2.59801
2.59693
2.59606
2.59502
2.59409
2.59294
2.5919
2.59064
2.58951
2.58814
2.5869
2.58538
2.58396
2.58222
2.5805
2.57844
2.57634
2.57388
2.57127
2.56829
2.56504
2.56142
2.5575
2.55329
2.54872
2.54388
2.5386
2.53312
2.52717
2.52105
2.51446
2.50773
2.50057
2.49333
2.48582
2.4782
2.47086
1.75128
2.37312
2.64568
2.64175
2.62829
2.61419
2.60931
2.60956
2.60954
2.60942
2.60884
2.60818
2.60695
2.60581
2.60453
2.60341
2.60204
2.60073
2.59915
2.5976
2.59582
2.59405
2.59206
2.59007
2.58789
2.58568
2.58329
2.58083
2.5782
2.57547
2.57266
2.56969
2.56663
2.56331
2.55987
2.55608
2.55216
2.54782
2.54328
2.53832
2.5331
2.5275
2.52171
2.51558
2.50926
2.50262
2.49574
2.48858
2.48108
2.47394
1.34702
2.3888
2.65261
2.65982
2.63928
2.60894
2.59761
2.59625
2.59788
2.5992
2.59904
2.59853
2.59795
2.59668
2.59601
2.5948
2.59406
2.59258
2.59163
2.5899
2.58837
2.58652
2.5847
2.58257
2.5805
2.57826
2.57618
2.57389
2.57174
2.56928
2.56675
2.56386
2.5609
2.55763
2.55428
2.55065
2.54691
2.54292
2.53883
2.5345
2.52998
2.52517
2.52008
2.51463
2.50888
2.50282
2.49649
2.48996
2.48311
2.47656
1.35071
2.41206
2.65482
2.64886
2.62691
2.59635
2.5856
2.58586
2.58765
2.58957
2.58991
2.58967
2.58921
2.58843
2.58792
2.5874
2.58694
2.58632
2.58566
2.58486
2.58397
2.58295
2.58181
2.58049
2.579
2.57717
2.57508
2.57268
2.57006
2.56718
2.56418
2.56099
2.55766
2.55414
2.55047
2.54662
2.5426
2.5384
2.53402
2.52948
2.52474
2.51985
2.51484
2.50972
2.50437
2.49888
2.49312
2.48716
2.48091
2.47495
1.77119
2.37219
2.63847
2.61753
2.6112
2.59591
2.59317
2.59393
2.59504
2.59632
2.59606
2.59558
2.59522
2.59456
2.59398
2.59341
2.59282
2.59215
2.59142
2.5906
2.58972
2.58872
2.58763
2.5864
2.58507
2.58356
2.58189
2.58
2.57792
2.57552
2.57278
2.56976
2.56642
2.56283
2.55895
2.55485
2.5505
2.54595
2.54118
2.53624
2.53106
2.5257
2.52004
2.51422
2.50823
2.5021
2.49589
2.48958
2.48315
2.47702
1.79771
2.35516
2.62646
2.60587
2.60269
2.59276
2.58938
2.5896
2.58985
2.59041
2.59015
2.58953
2.58889
2.58786
2.58684
2.58571
2.58453
2.5832
2.5818
2.58027
2.57868
2.57697
2.57528
2.5735
2.57174
2.5699
2.56807
2.56616
2.56424
2.56228
2.5604
2.55836
2.55638
2.55418
2.55196
2.54946
2.54687
2.54391
2.54059
2.53691
2.53301
2.52883
2.52443
2.51972
2.51478
2.50954
2.50402
2.49818
2.49209
2.48618
1.76254
2.38164
2.65008
2.61928
2.6135
2.59935
2.59618
2.59829
2.59977
2.6006
2.60033
2.59985
2.59879
2.59759
2.59631
2.595
2.59356
2.59205
2.59041
2.58871
2.5869
2.58506
2.58297
2.58078
2.57833
2.5758
2.57303
2.57021
2.56716
2.56409
2.5608
2.55755
2.55409
2.55058
2.54688
2.54315
2.53921
2.5353
2.53141
2.52748
2.5234
2.51922
2.51486
2.51043
2.50584
2.50117
2.4963
2.49132
2.48609
2.48116
1.28618
2.49456
2.64472
2.64202
2.61675
2.58404
2.57199
2.57243
2.57507
2.57745
2.57871
2.57893
2.57916
2.57913
2.57907
2.57899
2.57884
2.57853
2.57807
2.57741
2.57658
2.57554
2.57439
2.57304
2.57157
2.56987
2.56814
2.566
2.56376
2.56137
2.55875
2.55597
2.55287
2.54967
2.54617
2.5426
2.53874
2.53482
2.53064
2.52644
2.52199
2.51753
2.51303
2.5083
2.50344
2.49837
2.49318
2.48779
2.48228
2.47701
1.7718
2.36721
2.63951
2.61693
2.61064
2.59523
2.59028
2.5912
2.59162
2.5932
2.59283
2.59226
2.5918
2.59101
2.59026
2.5894
2.58863
2.58766
2.58673
2.58558
2.58447
2.58313
2.58182
2.58026
2.57872
2.57691
2.57512
2.57301
2.5707
2.56809
2.5653
2.56222
2.55913
2.55581
2.55249
2.54888
2.54525
2.54129
2.53732
2.533
2.52868
2.52398
2.51911
2.51405
2.50889
2.50354
2.4981
2.49248
2.48675
2.48128
1.77321
2.36541
2.63742
2.61501
2.60877
2.59348
2.58852
2.58963
2.59068
2.59178
2.59231
2.59181
2.59138
2.59058
2.58973
2.58879
2.58781
2.58666
2.58542
2.58404
2.58256
2.58097
2.57928
2.57749
2.5756
2.57363
2.57154
2.56943
2.56737
2.56521
2.56303
2.5607
2.5582
2.55549
2.55259
2.54954
2.54631
2.54294
2.53938
2.53568
2.53177
2.52774
2.5235
2.51913
2.51454
2.50983
2.50491
2.49988
2.49462
2.48953
1.28558
2.49095
2.64203
2.63935
2.61361
2.57896
2.56603
2.56553
2.56806
2.57012
2.57107
2.57101
2.57088
2.57049
2.57018
2.56971
2.56942
2.56879
2.56835
2.56746
2.56681
2.56565
2.56477
2.56334
2.56222
2.56059
2.55896
2.55719
2.55529
2.55328
2.55115
2.54894
2.54662
2.5442
2.54167
2.53901
2.5362
2.53325
2.53015
2.52688
2.52346
2.51986
2.51612
2.51219
2.50814
2.50389
2.49953
2.49498
2.49031
2.48577
1.76674
2.37286
2.64061
2.60987
2.60345
2.58748
2.58443
2.5866
2.5875
2.58962
2.58938
2.58883
2.58837
2.58753
2.58675
2.58586
2.58499
2.58395
2.58289
2.58167
2.58041
2.57902
2.57756
2.57599
2.57432
2.57256
2.57066
2.56867
2.56654
2.56431
2.56192
2.55931
2.55656
2.55359
2.5505
2.5472
2.5438
2.5402
2.53651
2.53271
2.52881
2.52479
2.52064
2.51637
2.51197
2.50744
2.50278
2.49799
2.49306
2.48833
1.79462
2.35597
2.62402
2.59592
2.5919
2.58019
2.57692
2.57812
2.57843
2.57914
2.57896
2.57856
2.5781
2.57735
2.57664
2.57588
2.57508
2.57417
2.57319
2.5721
2.57093
2.56966
2.56831
2.56686
2.56532
2.56368
2.56196
2.56014
2.55823
2.55623
2.55414
2.55209
2.54991
2.54775
2.54543
2.54311
2.5406
2.53801
2.53518
2.53223
2.52903
2.52573
2.52223
2.51864
2.51485
2.51096
2.50687
2.50269
2.49827
2.4941
1.79923
2.35073
2.619
2.59273
2.58909
2.57784
2.57402
2.5747
2.57488
2.57527
2.57513
2.57472
2.57422
2.57347
2.57269
2.57191
2.57104
2.57011
2.56907
2.56795
2.56671
2.56539
2.56395
2.56242
2.56076
2.55902
2.55714
2.55518
2.55307
2.55088
2.54855
2.54612
2.54357
2.54092
2.53815
2.53529
2.53231
2.5293
2.52618
2.52303
2.51976
2.51641
2.51293
2.50935
2.50564
2.50183
2.49789
2.49383
2.48962
2.48562
1.77978
2.35596
2.61657
2.603
2.59364
2.57719
2.57216
2.57264
2.57325
2.57387
2.57385
2.57338
2.57286
2.57203
2.57122
2.57044
2.56959
2.56868
2.56766
2.56656
2.56537
2.56409
2.5627
2.56123
2.55964
2.55796
2.55615
2.55425
2.55223
2.5501
2.54784
2.54547
2.54297
2.54035
2.5376
2.53473
2.53173
2.5286
2.52535
2.52198
2.51849
2.51488
2.51115
2.50731
2.50335
2.49927
2.49507
2.49075
2.48631
2.48206
1.34476
2.37986
2.638
2.63737
2.61518
2.58173
2.56752
2.56514
2.56645
2.56756
2.56751
2.56726
2.56656
2.56556
2.56466
2.56387
2.56304
2.56216
2.56116
2.5601
2.55891
2.55765
2.55627
2.55481
2.55322
2.55154
2.54972
2.54782
2.54577
2.54363
2.54133
2.53895
2.5364
2.53377
2.53097
2.52807
2.52501
2.52186
2.51853
2.51512
2.51152
2.50784
2.50398
2.50004
2.49592
2.49173
2.48737
2.48294
2.47834
2.47396
1.34602
2.38747
2.65288
2.65699
2.63096
2.59246
2.57493
2.57257
2.57422
2.5755
2.57595
2.5756
2.57477
2.57377
2.57271
2.57184
2.57096
2.57005
2.56902
2.56793
2.56673
2.56547
2.5641
2.56267
2.56112
2.55952
2.55778
2.55598
2.55405
2.55206
2.54992
2.54771
2.54536
2.54293
2.54035
2.53769
2.53488
2.53197
2.52892
2.52577
2.52245
2.51905
2.51548
2.51181
2.50798
2.50405
2.49996
2.49578
2.49144
2.48726
1.3451
2.37934
2.63633
2.63635
2.61343
2.5801
2.56494
2.56295
2.5643
2.56522
2.56563
2.5652
2.5645
2.56346
2.56253
2.5617
2.5609
2.56002
2.55907
2.55803
2.55692
2.55572
2.55446
2.55309
2.55167
2.55013
2.54853
2.54681
2.54502
2.54311
2.54113
2.53902
2.53684
2.53453
2.53214
2.52961
2.527
2.52425
2.52142
2.51844
2.51539
2.51217
2.50888
2.50543
2.5019
2.4982
2.49444
2.4905
2.48648
2.48256
1.78106
2.35423
2.61405
2.5997
2.59004
2.57216
2.56708
2.56744
2.56803
2.56907
2.56891
2.56837
2.56788
2.567
2.56624
2.56543
2.56465
2.56372
2.56279
2.5617
2.56061
2.55936
2.55811
2.55669
2.55527
2.55368
2.55207
2.5503
2.54851
2.54655
2.54456
2.5424
2.54021
2.53784
2.53544
2.53286
2.53024
2.52744
2.5246
2.52158
2.51851
2.51526
2.51196
2.50847
2.50494
2.50121
2.49744
2.49347
2.48943
2.48549
1.80128
2.34723
2.6146
2.58738
2.58384
2.57258
2.56908
2.57016
2.57046
2.57089
2.57075
2.57023
2.56968
2.56878
2.56796
2.56707
2.56619
2.56517
2.56412
2.56293
2.56171
2.56034
2.55895
2.55741
2.55583
2.5541
2.55232
2.55039
2.54841
2.54628
2.54409
2.54174
2.53933
2.53676
2.53414
2.53134
2.52849
2.52547
2.52238
2.51913
2.51581
2.51232
2.50877
2.50505
2.50125
2.4973
2.49327
2.48909
2.48481
2.48068
1.78825
2.36085
2.62702
2.59539
2.58877
2.57466
2.57218
2.57421
2.5757
2.57662
2.57659
2.57608
2.57554
2.57471
2.57394
2.57312
2.57227
2.5713
2.57028
2.56914
2.56795
2.56664
2.56528
2.5638
2.56226
2.56059
2.55887
2.55701
2.55508
2.55302
2.55089
2.54862
2.54627
2.54379
2.54123
2.53852
2.53574
2.53281
2.52979
2.52663
2.52338
2.51998
2.51649
2.51286
2.50913
2.50526
2.5013
2.49719
2.49299
2.48893
2.17223
2.34544
2.76268
2.86057
2.8568
2.81572
2.81422
2.81373
2.8066
2.80553
2.80867
2.81022
2.81165
2.81252
2.81438
2.81575
2.8179
2.81973
2.82138
2.82242
2.8229
2.82306
2.82195
2.82113
2.81824
2.81583
2.81196
2.80813
2.80332
2.79837
2.79273
2.78688
2.78053
2.77398
2.76729
2.76034
2.75329
2.74552
2.73747
2.72937
2.72127
2.71309
2.70489
2.69665
2.68844
2.68023
2.67212
2.66405
2.65612
2.64828
2.64063
2.63311
2.62583
2.61874
2.61193
2.60536
2.59914
2.59321
2.58769
2.58252
2.57781
2.57353
2.56978
2.5665
2.56379
2.56161
2.56003
2.55897
2.5585
2.55838
2.5585
2.55885
2.55972
2.56118
2.56324
2.56547
2.56769
2.56996
2.57216
2.57433
2.57632
2.57818
2.57979
2.58121
2.58234
2.58326
2.58389
2.58433
2.58453
2.58458
2.58447
2.58423
2.58388
2.58316
2.58242
2.58137
2.58052
2.57937
2.57845
2.5754
2.1804
2.26043
2.45056
2.62854
2.69729
2.73274
2.75926
2.7837
2.79766
2.81031
2.81821
2.82819
2.83368
2.83329
2.82942
2.82419
2.81683
2.80959
2.80048
2.7918
2.78175
2.77232
2.76194
2.75229
2.74154
2.73141
2.72036
2.71001
2.69889
2.68845
2.67737
2.66694
2.65596
2.64562
2.63503
2.62514
2.61494
2.60466
2.59399
2.58366
2.57356
2.56366
2.55388
2.54429
2.53484
2.5256
2.51655
2.50771
2.49909
2.4907
2.48255
2.47467
2.46706
2.45974
2.45272
2.44604
2.43971
2.43375
2.4282
2.42306
2.41838
2.41417
2.41046
2.40727
2.40463
2.40255
2.40104
2.40009
2.39969
2.3997
2.39997
2.40053
2.40166
2.40343
2.4059
2.40857
2.41131
2.41406
2.41676
2.41937
2.4218
2.42402
2.42597
2.42763
2.42898
2.43002
2.43075
2.43121
2.43137
2.43135
2.43121
2.4309
2.43053
2.42974
2.42897
2.42785
2.42699
2.42581
2.42504
2.42217
2.22679
2.21302
2.27124
2.35864
2.4109
2.46085
2.4945
2.52178
2.54284
2.55869
2.57053
2.57966
2.58638
2.58888
2.58818
2.58651
2.58265
2.57821
2.57277
2.56688
2.56023
2.55347
2.54617
2.53902
2.53125
2.52364
2.51543
2.50752
2.4991
2.49107
2.48255
2.47447
2.46592
2.45784
2.44953
2.44191
2.43399
2.42598
2.41737
2.40904
2.40087
2.39291
2.38498
2.3772
2.36945
2.36189
2.35438
2.34709
2.33988
2.33289
2.32602
2.3194
2.31293
2.30674
2.30074
2.29505
2.28959
2.2845
2.27968
2.27527
2.27119
2.26757
2.26432
2.26159
2.25927
2.2575
2.25618
2.25543
2.25513
2.25523
2.25555
2.25606
2.25709
2.25872
2.261
2.26348
2.26605
2.2686
2.27112
2.2735
2.27575
2.27776
2.27955
2.28103
2.28226
2.28317
2.28382
2.28418
2.28431
2.28426
2.28413
2.28386
2.28352
2.2828
2.28213
2.28112
2.28038
2.27937
2.27888
2.27648
2.25964
2.22038
2.21602
2.24107
2.27158
2.29411
2.30934
2.32117
2.33171
2.34098
2.34863
2.35475
2.35949
2.3631
2.36464
2.3649
2.36485
2.36475
2.36456
2.36429
2.36379
2.36314
2.36239
2.3611
2.35956
2.35776
2.35545
2.35293
2.34995
2.34682
2.34325
2.33957
2.33545
2.33129
2.32692
2.32282
2.31844
2.31368
2.30823
2.3027
2.29712
2.29165
2.28606
2.2805
2.27481
2.26919
2.26347
2.25786
2.25219
2.24667
2.24113
2.23578
2.23044
2.22534
2.2203
2.21553
2.21088
2.20655
2.20238
2.1986
2.19503
2.19189
2.18903
2.18665
2.18459
2.18306
2.1819
2.18129
2.18108
2.18124
2.18157
2.18208
2.1831
2.18463
2.18675
2.18905
2.19153
2.19394
2.19636
2.1986
2.20073
2.20258
2.20426
2.20561
2.20675
2.20756
2.20816
2.20844
2.20856
2.20848
2.20838
2.20815
2.20786
2.20721
2.20664
2.20573
2.20513
2.20426
2.20401
2.20194
2.27511
2.24098
2.21929
2.21182
2.21888
2.22351
2.22556
2.22616
2.22717
2.22903
2.23187
2.23417
2.23624
2.23807
2.24082
2.24311
2.24533
2.24777
2.25046
2.2533
2.25621
2.25898
2.26161
2.26384
2.26578
2.26714
2.2681
2.26858
2.2683
2.26775
2.26665
2.2652
2.26319
2.26093
2.25841
2.25597
2.25318
2.2499
2.24587
2.24155
2.23706
2.23256
2.22792
2.22324
2.2184
2.21354
2.20856
2.2036
2.19857
2.19361
2.18861
2.18374
2.17887
2.17417
2.16954
2.16512
2.16081
2.15678
2.15291
2.14936
2.14604
2.14309
2.14042
2.13819
2.13628
2.13486
2.13379
2.1333
2.13319
2.13339
2.13369
2.13426
2.13528
2.13681
2.13878
2.14097
2.14336
2.14573
2.14807
2.15025
2.15229
2.15408
2.15566
2.15694
2.158
2.15876
2.15929
2.15953
2.15961
2.15953
2.15942
2.15917
2.15887
2.1582
2.15771
2.15681
2.15628
2.15546
2.15533
2.15333
2.29857
2.25476
2.23055
2.21068
2.20091
2.19404
2.1883
2.18221
2.17738
2.17359
2.17188
2.1714
2.17202
2.17239
2.17349
2.17572
2.17829
2.18147
2.18443
2.18805
2.19143
2.19529
2.19862
2.20213
2.20489
2.2076
2.20939
2.21102
2.21173
2.21229
2.21206
2.2114
2.21022
2.20871
2.20697
2.20523
2.20313
2.20052
2.19718
2.19348
2.18955
2.1855
2.18133
2.17708
2.17272
2.16827
2.16374
2.15916
2.15453
2.14991
2.14528
2.1407
2.13616
2.13173
2.12739
2.1232
2.11915
2.11532
2.11168
2.1083
2.10518
2.10237
2.09987
2.09775
2.09597
2.09463
2.09371
2.09331
2.09328
2.09346
2.09379
2.0944
2.09545
2.09697
2.09883
2.10093
2.10321
2.10552
2.10779
2.10992
2.11188
2.11361
2.11511
2.11635
2.11734
2.11805
2.11854
2.11876
2.1188
2.11872
2.11861
2.11832
2.11801
2.11733
2.11688
2.116
2.11552
2.11474
2.11468
2.11273
2.32219
2.28219
2.24853
2.22372
2.20328
2.18833
2.17593
2.16544
2.15594
2.14848
2.14261
2.13912
2.13701
2.13664
2.1367
2.13727
2.13915
2.14199
2.14522
2.1486
2.15226
2.15604
2.15982
2.16352
2.16695
2.17007
2.17266
2.17484
2.17638
2.1775
2.17795
2.17807
2.17747
2.17655
2.17549
2.17432
2.17282
2.17075
2.16804
2.16489
2.16149
2.15786
2.15413
2.15025
2.1463
2.14223
2.13809
2.13385
2.12958
2.12526
2.12094
2.11663
2.11238
2.10817
2.10408
2.10009
2.09627
2.09261
2.08917
2.08594
2.08299
2.08031
2.07795
2.07592
2.07428
2.07304
2.07223
2.07191
2.07195
2.07212
2.07247
2.07312
2.07421
2.07573
2.07754
2.07956
2.08174
2.08398
2.08617
2.08825
2.09015
2.09183
2.09327
2.09446
2.09541
2.0961
2.09656
2.09676
2.09677
2.0967
2.09658
2.09626