/*--------------------------------*- C++ -*----------------------------------*\
| =========                 |                                                 |
| \\      /  F ield         | OpenFOAM: The Open Source CFD Toolbox           |
|  \\    /   O peration     | Version:  2412                                  |
|   \\  /    A nd           | Website:  www.openfoam.com                      |
|    \\/     M anipulation  |                                                 |
\*---------------------------------------------------------------------------*/
FoamFile
{
    version     2.0;
    format      ascii;
    arch        "LSB;label=32;scalar=64";
    class       volVectorField;
    location    "24";
    object      U;
}
// * * * * * * * * * * * * * * * * * * * * * * * * * * * * * * * * * * * * * //

dimensions      [0 1 -1 0 0 0 0];

internalField   nonuniform List<vector> 
7000
(
(2.59106 -7.24868e-05 0)
(1.62053 0.000178368 0)
(0.49565 0.000208969 0)
(0.552995 0.000350753 0)
(0.654685 0.000446551 0)
(0.719883 0.000524591 0)
(0.732765 0.000592434 0)
(0.725872 0.000662729 0)
(0.715809 0.000741191 0)
(0.708112 0.000831607 0)
(0.703644 0.00093025 0)
(0.700076 0.00103346 0)
(0.695991 0.00114042 0)
(0.691135 0.00125209 0)
(0.685671 0.00136948 0)
(0.679724 0.00149317 0)
(0.673312 0.00162344 0)
(0.666401 0.00176064 0)
(0.658956 0.00190518 0)
(0.650951 0.00205763 0)
(0.642363 0.00221857 0)
(0.633169 0.00238869 0)
(0.623345 0.00256868 0)
(0.612861 0.00275933 0)
(0.60169 0.00296144 0)
(0.589802 0.0031759 0)
(0.577163 0.00340361 0)
(0.563741 0.00364554 0)
(0.549501 0.00390265 0)
(0.534406 0.00417592 0)
(0.518419 0.00446634 0)
(0.501503 0.00477477 0)
(0.483619 0.0051021 0)
(0.464729 0.00544896 0)
(0.444799 0.00581593 0)
(0.423794 0.00620312 0)
(0.401684 0.00661055 0)
(0.378446 0.00703742 0)
(0.354062 0.00748278 0)
(0.328525 0.00794446 0)
(0.301839 0.00842007 0)
(0.274021 0.00890551 0)
(0.245107 0.00939685 0)
(0.21515 0.00988773 0)
(0.184223 0.0103736 0)
(0.152419 0.0108475 0)
(0.119821 0.0113135 0)
(0.0868496 0.0117555 0)
(0.0514913 0.0123442 0)
(0.0221146 0.0131963 0)
(2.59119 -4.80891e-05 0)
(1.62069 0.00034746 0)
(0.495338 0.000828079 0)
(0.552733 0.00113975 0)
(0.654446 0.00137487 0)
(0.719657 0.00159691 0)
(0.73254 0.00180492 0)
(0.725651 0.00202022 0)
(0.715598 0.00225773 0)
(0.707909 0.00252751 0)
(0.703448 0.00282031 0)
(0.699884 0.00312655 0)
(0.695802 0.00344406 0)
(0.690951 0.00377512 0)
(0.685493 0.00412235 0)
(0.679551 0.00448715 0)
(0.673145 0.00487023 0)
(0.66624 0.0052723 0)
(0.658802 0.00569444 0)
(0.650803 0.0061379 0)
(0.642223 0.00660421 0)
(0.633036 0.00709485 0)
(0.623219 0.00761155 0)
(0.612744 0.00815594 0)
(0.601582 0.00872995 0)
(0.589702 0.00933528 0)
(0.577073 0.00997396 0)
(0.563661 0.0106476 0)
(0.54943 0.0113581 0)
(0.534345 0.0121066 0)
(0.518367 0.0128949 0)
(0.501459 0.0137232 0)
(0.483582 0.0145924 0)
(0.464698 0.0155013 0)
(0.444772 0.0164492 0)
(0.423767 0.0174326 0)
(0.401654 0.0184482 0)
(0.378407 0.0194891 0)
(0.354008 0.0205482 0)
(0.328447 0.0216141 0)
(0.301726 0.0226742 0)
(0.273862 0.0237121 0)
(0.244887 0.02471 0)
(0.214852 0.0256467 0)
(0.183828 0.0265018 0)
(0.151907 0.0272555 0)
(0.119164 0.0279056 0)
(0.0860643 0.028426 0)
(0.0505456 0.0290767 0)
(0.0211886 0.0298266 0)
(2.59132 4.76366e-05 0)
(1.62099 0.000392372 0)
(0.495545 0.001605 0)
(0.552786 0.00198056 0)
(0.654488 0.00230476 0)
(0.7197 0.00267038 0)
(0.732582 0.00303981 0)
(0.725705 0.00341865 0)
(0.715672 0.00382876 0)
(0.708005 0.00428668 0)
(0.703558 0.00478136 0)
(0.700004 0.00529999 0)
(0.695932 0.00583964 0)
(0.691092 0.00640318 0)
(0.685646 0.00699457 0)
(0.679719 0.00761582 0)
(0.673326 0.00826858 0)
(0.666436 0.0089539 0)
(0.659013 0.00967403 0)
(0.651032 0.0104309 0)
(0.642469 0.0112274 0)
(0.633301 0.0120659 0)
(0.623505 0.0129497 0)
(0.613051 0.0138815 0)
(0.601912 0.014865 0)
(0.590057 0.0159029 0)
(0.577454 0.0169992 0)
(0.564069 0.0181565 0)
(0.549866 0.0193786 0)
(0.53481 0.0206677 0)
(0.518862 0.022027 0)
(0.501984 0.0234573 0)
(0.484137 0.0249605 0)
(0.465282 0.0265352 0)
(0.445381 0.0281804 0)
(0.4244 0.0298914 0)
(0.402304 0.0316621 0)
(0.379068 0.033483 0)
(0.354671 0.0353406 0)
(0.329099 0.0372185 0)
(0.302353 0.0390936 0)
(0.274446 0.0409413 0)
(0.245407 0.0427287 0)
(0.215284 0.0444241 0)
(0.184144 0.0459905 0)
(0.152084 0.0473929 0)
(0.11917 0.0486189 0)
(0.085928 0.0496291 0)
(0.05027 0.0506814 0)
(0.0207491 0.0516742 0)
(2.59149 5.41184e-05 0)
(1.62143 0.000535861 0)
(0.495972 0.00235103 0)
(0.552909 0.00281439 0)
(0.65461 0.00323707 0)
(0.719842 0.00375708 0)
(0.73273 0.00430341 0)
(0.725867 0.00485935 0)
(0.715864 0.00545208 0)
(0.708229 0.00610432 0)
(0.703804 0.00680583 0)
(0.700267 0.00754271 0)
(0.696212 0.00831119 0)
(0.691392 0.00911436 0)
(0.685968 0.00995679 0)
(0.680063 0.0108414 0)
(0.673695 0.0117703 0)
(0.66683 0.0127455 0)
(0.659434 0.0137699 0)
(0.651481 0.0148466 0)
(0.642949 0.0159792 0)
(0.633814 0.0171717 0)
(0.624052 0.0184281 0)
(0.613636 0.019753 0)
(0.602537 0.0211509 0)
(0.590724 0.0226267 0)
(0.578165 0.0241849 0)
(0.564827 0.0258306 0)
(0.550673 0.0275681 0)
(0.535668 0.0294021 0)
(0.519773 0.0313355 0)
(0.502948 0.033372 0)
(0.485154 0.035512 0)
(0.466352 0.0377568 0)
(0.446501 0.0401025 0)
(0.425566 0.0425459 0)
(0.40351 0.0450764 0)
(0.380305 0.0476839 0)
(0.355926 0.0503478 0)
(0.330357 0.0530474 0)
(0.303595 0.0557506 0)
(0.275647 0.0584212 0)
(0.24654 0.0610169 0)
(0.216317 0.0634864 0)
(0.185044 0.0657855 0)
(0.152817 0.0678579 0)
(0.119701 0.069675 0)
(0.0862758 0.0711832 0)
(0.0504193 0.0726083 0)
(0.0206052 0.0737642 0)
(2.59174 6.77528e-05 0)
(1.62207 0.000716405 0)
(0.496524 0.00310379 0)
(0.553019 0.00367975 0)
(0.654737 0.00421147 0)
(0.720014 0.00488557 0)
(0.732916 0.00560896 0)
(0.726071 0.00634906 0)
(0.716104 0.00713317 0)
(0.708511 0.00798595 0)
(0.704119 0.00889952 0)
(0.700608 0.00986101 0)
(0.69658 0.0108656 0)
(0.691789 0.0119169 0)
(0.686397 0.0130192 0)
(0.680526 0.0141767 0)
(0.674193 0.0153916 0)
(0.667366 0.0166676 0)
(0.66001 0.0180074 0)
(0.6521 0.0194162 0)
(0.643613 0.0208976 0)
(0.634528 0.0224579 0)
(0.624818 0.0241014 0)
(0.614458 0.0258351 0)
(0.603418 0.0276638 0)
(0.591668 0.0295951 0)
(0.579176 0.031634 0)
(0.565908 0.0337882 0)
(0.551828 0.0360624 0)
(0.5369 0.0384636 0)
(0.521084 0.0409955 0)
(0.50434 0.0436631 0)
(0.486628 0.0464675 0)
(0.467905 0.04941 0)
(0.448132 0.0524867 0)
(0.427268 0.0556926 0)
(0.405277 0.0590165 0)
(0.382123 0.0624422 0)
(0.35778 0.0659482 0)
(0.332227 0.0695026 0)
(0.305453 0.0730706 0)
(0.277461 0.0765989 0)
(0.248272 0.080036 0)
(0.217926 0.0833117 0)
(0.186486 0.0863599 0)
(0.15405 0.0891151 0)
(0.120672 0.0915182 0)
(0.0869961 0.0934923 0)
(0.0508511 0.0952299 0)
(0.0206231 0.0964784 0)
(2.59208 8.00421e-05 0)
(1.62291 0.000900517 0)
(0.497223 0.00385563 0)
(0.553134 0.00455771 0)
(0.65488 0.00520472 0)
(0.720224 0.00603322 0)
(0.733153 0.00693917 0)
(0.726334 0.00786848 0)
(0.716411 0.00885261 0)
(0.708867 0.00991477 0)
(0.704518 0.0110488 0)
(0.701043 0.0122427 0)
(0.69705 0.013492 0)
(0.692298 0.0147998 0)
(0.686947 0.0161712 0)
(0.681121 0.0176106 0)
(0.674836 0.0191212 0)
(0.668058 0.0207071 0)
(0.660755 0.0223726 0)
(0.652901 0.0241231 0)
(0.644475 0.0259644 0)
(0.635454 0.027903 0)
(0.625814 0.0299457 0)
(0.615528 0.0320997 0)
(0.604567 0.0343729 0)
(0.592902 0.0367729 0)
(0.580499 0.0393082 0)
(0.567326 0.0419862 0)
(0.553347 0.0448157 0)
(0.538523 0.0478029 0)
(0.522815 0.0509554 0)
(0.506182 0.0542772 0)
(0.488583 0.0577728 0)
(0.469972 0.0614418 0)
(0.450308 0.0652827 0)
(0.429547 0.0692876 0)
(0.407648 0.0734456 0)
(0.384573 0.0777356 0)
(0.360286 0.0821329 0)
(0.334765 0.0865978 0)
(0.307987 0.0910855 0)
(0.279952 0.0955367 0)
(0.250668 0.0998799 0)
(0.220172 0.104033 0)
(0.188521 0.107901 0)
(0.155814 0.111394 0)
(0.122104 0.114432 0)
(0.0880673 0.116902 0)
(0.0515119 0.118952 0)
(0.0207745 0.120272 0)
(2.59251 9.27073e-05 0)
(1.62399 0.0010868 0)
(0.498079 0.00461527 0)
(0.553255 0.00545123 0)
(0.655039 0.00621999 0)
(0.720476 0.00720663 0)
(0.733444 0.00830263 0)
(0.726656 0.00942572 0)
(0.716788 0.0106167 0)
(0.709304 0.0118967 0)
(0.705007 0.0132593 0)
(0.701578 0.0146931 0)
(0.697631 0.0161949 0)
(0.692928 0.0177676 0)
(0.687631 0.0194167 0)
(0.681861 0.0211467 0)
(0.675635 0.0229623 0)
(0.66892 0.0248676 0)
(0.661684 0.0268686 0)
(0.653901 0.0289712 0)
(0.645551 0.031183 0)
(0.636613 0.0335111 0)
(0.62706 0.0359646 0)
(0.616868 0.0385515 0)
(0.606008 0.041282 0)
(0.59445 0.0441649 0)
(0.582162 0.0472109 0)
(0.56911 0.0504293 0)
(0.555258 0.0538304 0)
(0.540568 0.057423 0)
(0.525 0.0612158 0)
(0.508511 0.0652155 0)
(0.491058 0.0694269 0)
(0.472594 0.0738522 0)
(0.453074 0.0784892 0)
(0.432452 0.0833307 0)
(0.410679 0.088364 0)
(0.387714 0.0935666 0)
(0.363513 0.0989087 0)
(0.338042 0.104345 0)
(0.311275 0.109822 0)
(0.283197 0.115266 0)
(0.253811 0.120594 0)
(0.223137 0.125703 0)
(0.191232 0.130476 0)
(0.158187 0.134794 0)
(0.124045 0.138537 0)
(0.0895424 0.141559 0)
(0.052419 0.143968 0)
(0.0210219 0.145392 0)
(2.59304 0.000105489 0)
(1.62531 0.0012736 0)
(0.499106 0.00538071 0)
(0.553384 0.00635431 0)
(0.655215 0.00724841 0)
(0.720772 0.0083974 0)
(0.733794 0.00968602 0)
(0.727048 0.0110101 0)
(0.717246 0.0124162 0)
(0.709831 0.013922 0)
(0.705597 0.0155208 0)
(0.702225 0.0172025 0)
(0.698335 0.0189647 0)
(0.693693 0.0208108 0)
(0.688461 0.0227462 0)
(0.68276 0.0247761 0)
(0.676607 0.0269056 0)
(0.669969 0.02914 0)
(0.662815 0.0314861 0)
(0.65512 0.0339511 0)
(0.646864 0.0365436 0)
(0.638026 0.0392727 0)
(0.628582 0.0421482 0)
(0.618506 0.0451806 0)
(0.60777 0.0483811 0)
(0.596345 0.0517612 0)
(0.584198 0.0553327 0)
(0.571296 0.0591078 0)
(0.557603 0.0630982 0)
(0.543079 0.0673155 0)
(0.527684 0.0717699 0)
(0.511375 0.0764706 0)
(0.494106 0.0814245 0)
(0.475827 0.0866346 0)
(0.456492 0.0921018 0)
(0.436046 0.097818 0)
(0.41444 0.103771 0)
(0.391621 0.109937 0)
(0.36754 0.116284 0)
(0.34215 0.12276 0)
(0.315413 0.129304 0)
(0.287301 0.135831 0)
(0.257804 0.142237 0)
(0.22693 0.148405 0)
(0.194717 0.154185 0)
(0.161264 0.159425 0)
(0.126584 0.163976 0)
(0.0914603 0.167637 0)
(0.053616 0.170464 0)
(0.0214116 0.172026 0)
(2.59368 0.000118337 0)
(1.62689 0.00146002 0)
(0.500318 0.00614929 0)
(0.553526 0.00726287 0)
(0.655413 0.00828553 0)
(0.721119 0.00960106 0)
(0.734212 0.011088 0)
(0.727519 0.0126185 0)
(0.717795 0.0142469 0)
(0.710461 0.0159865 0)
(0.7063 0.0178295 0)
(0.702997 0.0197672 0)
(0.699177 0.0217981 0)
(0.694609 0.023926 0)
(0.689454 0.0261563 0)
(0.683836 0.0284947 0)
(0.677769 0.0309468 0)
(0.671224 0.0335192 0)
(0.664168 0.0362194 0)
(0.656579 0.0390562 0)
(0.648437 0.0420393 0)
(0.63972 0.0451792 0)
(0.630406 0.0484875 0)
(0.62047 0.0519764 0)
(0.609884 0.0556591 0)
(0.598619 0.0595489 0)
(0.586644 0.0636602 0)
(0.573923 0.068007 0)
(0.560423 0.0726039 0)
(0.546102 0.0774644 0)
(0.530919 0.0826021 0)
(0.51483 0.0880277 0)
(0.497787 0.0937517 0)
(0.479739 0.0997786 0)
(0.460632 0.106112 0)
(0.44041 0.112745 0)
(0.419015 0.119667 0)
(0.396388 0.126853 0)
(0.372467 0.134269 0)
(0.347195 0.141862 0)
(0.320517 0.14956 0)
(0.292389 0.157273 0)
(0.262782 0.164875 0)
(0.231682 0.172224 0)
(0.199115 0.179149 0)
(0.165163 0.185447 0)
(0.129835 0.190925 0)
(0.0939377 0.195332 0)
(0.0551453 0.198669 0)
(0.0219194 0.200424 0)
(2.59443 0.000131113 0)
(1.62876 0.0016448 0)
(0.501731 0.00691592 0)
(0.553683 0.00817089 0)
(0.655638 0.0093243 0)
(0.721525 0.0108099 0)
(0.734707 0.0124991 0)
(0.728077 0.014242 0)
(0.718447 0.0161003 0)
(0.711208 0.0180819 0)
(0.707132 0.0201775 0)
(0.70391 0.0223796 0)
(0.700172 0.0246876 0)
(0.69569 0.0271055 0)
(0.690628 0.0296392 0)
(0.685106 0.0322945 0)
(0.679142 0.0350779 0)
(0.672706 0.0379968 0)
(0.665766 0.0410599 0)
(0.658301 0.0442772 0)
(0.650292 0.0476599 0)
(0.641719 0.0512199 0)
(0.63256 0.0549708 0)
(0.622789 0.0589263 0)
(0.612381 0.0631019 0)
(0.601307 0.0675131 0)
(0.589535 0.0721766 0)
(0.577032 0.077109 0)
(0.563761 0.0823277 0)
(0.549683 0.0878491 0)
(0.534756 0.0936898 0)
(0.518934 0.099864 0)
(0.502166 0.106385 0)
(0.484399 0.113261 0)
(0.465575 0.120498 0)
(0.445632 0.128093 0)
(0.424505 0.136036 0)
(0.402123 0.144306 0)
(0.378416 0.152866 0)
(0.353308 0.161665 0)
(0.326731 0.170622 0)
(0.298613 0.179639 0)
(0.268906 0.188576 0)
(0.237571 0.197264 0)
(0.2046 0.205499 0)
(0.170063 0.213036 0)
(0.133931 0.219622 0)
(0.0970633 0.224932 0)
(0.0571064 0.228893 0)
(0.0226248 0.230899 0)
(2.5953 0.000143691 0)
(1.63092 0.00182617 0)
(0.503357 0.00767324 0)
(0.553858 0.00907093 0)
(0.655894 0.0103574 0)
(0.721997 0.0120153 0)
(0.735289 0.0139118 0)
(0.728738 0.0158719 0)
(0.719218 0.017967 0)
(0.712085 0.0201992 0)
(0.708107 0.0225564 0)
(0.704979 0.0250314 0)
(0.701338 0.0276249 0)
(0.696957 0.0303414 0)
(0.692002 0.0331867 0)
(0.686592 0.0361671 0)
(0.680747 0.0392899 0)
(0.674436 0.0425632 0)
(0.667632 0.0459973 0)
(0.660312 0.0496031 0)
(0.652458 0.0533934 0)
(0.644052 0.0573819 0)
(0.635073 0.0615839 0)
(0.625496 0.0660152 0)
(0.615296 0.0706932 0)
(0.604444 0.0756362 0)
(0.592911 0.0808632 0)
(0.580664 0.0863938 0)
(0.567665 0.0922484 0)
(0.553875 0.0984469 0)
(0.539252 0.105009 0)
(0.523748 0.111954 0)
(0.507311 0.119297 0)
(0.489884 0.127054 0)
(0.471406 0.135231 0)
(0.451807 0.143834 0)
(0.431016 0.152854 0)
(0.40895 0.162277 0)
(0.385524 0.172065 0)
(0.360648 0.182169 0)
(0.334227 0.192507 0)
(0.30617 0.202971 0)
(0.276386 0.213412 0)
(0.244813 0.223634 0)
(0.211401 0.233399 0)
(0.176186 0.242402 0)
(0.139116 0.25032 0)
(0.101045 0.25675 0)
(0.0595848 0.26152 0)
(0.0235146 0.263877 0)
(2.5963 0.00015577 0)
(1.6334 0.0020021 0)
(0.505212 0.00841013 0)
(0.554059 0.00995386 0)
(0.656188 0.0113765 0)
(0.722543 0.0132056 0)
(0.735968 0.0153131 0)
(0.729512 0.0174956 0)
(0.720122 0.0198358 0)
(0.713112 0.0223278 0)
(0.709246 0.0249559 0)
(0.706226 0.0277129 0)
(0.702695 0.0306004 0)
(0.69843 0.0336236 0)
(0.693597 0.0367885 0)
(0.688316 0.0401017 0)
(0.682606 0.0435712 0)
(0.67644 0.0472064 0)
(0.66979 0.0510183 0)
(0.662636 0.0550196 0)
(0.654962 0.0592245 0)
(0.646748 0.0636485 0)
(0.637976 0.0683086 0)
(0.628623 0.0732231 0)
(0.618663 0.0784116 0)
(0.608071 0.0838948 0)
(0.596816 0.0896947 0)
(0.584865 0.0958341 0)
(0.572184 0.102337 0)
(0.558732 0.109226 0)
(0.544467 0.116527 0)
(0.529339 0.124262 0)
(0.513296 0.132453 0)
(0.496278 0.141119 0)
(0.478218 0.150276 0)
(0.459042 0.159932 0)
(0.438668 0.170088 0)
(0.417004 0.180735 0)
(0.393949 0.191842 0)
(0.369391 0.203363 0)
(0.343212 0.215221 0)
(0.315286 0.227301 0)
(0.285485 0.239449 0)
(0.253697 0.251444 0)
(0.219823 0.263013 0)
(0.183838 0.273802 0)
(0.145636 0.283387 0)
(0.106104 0.291243 0)
(0.0627947 0.297062 0)
(0.0247286 0.299902 0)
(2.59742 0.000165162 0)
(1.63621 0.00217207 0)
(0.507306 0.00910902 0)
(0.554292 0.0108071 0)
(0.656524 0.0123736 0)
(0.72317 0.0143649 0)
(0.736757 0.0166881 0)
(0.730417 0.0190995 0)
(0.72118 0.0216936 0)
(0.714309 0.0244557 0)
(0.710568 0.0273645 0)
(0.70767 0.0304126 0)
(0.704265 0.0336029 0)
(0.700132 0.036941 0)
(0.695436 0.0404332 0)
(0.690301 0.0440865 0)
(0.684745 0.0479096 0)
(0.678743 0.0519129 0)
(0.672269 0.0561088 0)
(0.665303 0.0605114 0)
(0.657832 0.0651365 0)
(0.649838 0.0700014 0)
(0.641303 0.0751252 0)
(0.632205 0.0805283 0)
(0.622522 0.0862329 0)
(0.612226 0.0922625 0)
(0.60129 0.0986421 0)
(0.589683 0.105398 0)
(0.577369 0.112558 0)
(0.56431 0.12015 0)
(0.550462 0.128202 0)
(0.535777 0.136745 0)
(0.520199 0.145805 0)
(0.503667 0.155409 0)
(0.486112 0.165579 0)
(0.467451 0.176335 0)
(0.447596 0.187685 0)
(0.426441 0.19963 0)
(0.40387 0.212152 0)
(0.379749 0.225213 0)
(0.353928 0.238746 0)
(0.326246 0.25264 0)
(0.296521 0.266739 0)
(0.264583 0.28081 0)
(0.230262 0.294537 0)
(0.193462 0.307504 0)
(0.153971 0.319195 0)
(0.112634 0.328926 0)
(0.0669415 0.336195 0)
(0.0262951 0.339742 0)
(2.59868 0.000170485 0)
(1.63935 0.0023339 0)
(0.509638 0.00975615 0)
(0.554566 0.0116125 0)
(0.656902 0.0133282 0)
(0.723879 0.0154724 0)
(0.737666 0.0180217 0)
(0.731465 0.0206684 0)
(0.722407 0.0235251 0)
(0.715694 0.026568 0)
(0.712092 0.0297681 0)
(0.709331 0.033117 0)
(0.706067 0.0366187 0)
(0.702082 0.0402796 0)
(0.697542 0.0441062 0)
(0.692569 0.048106 0)
(0.687186 0.0522882 0)
(0.681368 0.0566647 0)
(0.675091 0.0612489 0)
(0.668339 0.0660568 0)
(0.661097 0.0711055 0)
(0.653351 0.0764148 0)
(0.645084 0.0820052 0)
(0.636276 0.0879002 0)
(0.626906 0.094124 0)
(0.616949 0.100704 0)
(0.606378 0.107667 0)
(0.595163 0.115044 0)
(0.583272 0.122867 0)
(0.570665 0.131169 0)
(0.557301 0.139983 0)
(0.543132 0.149346 0)
(0.528101 0.159293 0)
(0.512145 0.169858 0)
(0.495192 0.181074 0)
(0.477157 0.192971 0)
(0.457941 0.205572 0)
(0.437429 0.218889 0)
(0.415486 0.232925 0)
(0.391958 0.247656 0)
(0.36666 0.263035 0)
(0.339387 0.278966 0)
(0.309903 0.295301 0)
(0.277944 0.311812 0)
(0.24325 0.328162 0)
(0.205598 0.343872 0)
(0.164652 0.358296 0)
(0.121175 0.370556 0)
(0.072509 0.379859 0)
(0.028495 0.38447 0)
(2.60008 0.00017811 0)
(1.64282 0.00247653 0)
(0.512206 0.0103557 0)
(0.554885 0.0123513 0)
(0.657328 0.0141995 0)
(0.724678 0.016512 0)
(0.738716 0.0192861 0)
(0.732675 0.0221784 0)
(0.723827 0.0253144 0)
(0.717292 0.028651 0)
(0.713844 0.032153 0)
(0.711233 0.0358127 0)
(0.708126 0.0396351 0)
(0.704306 0.0436273 0)
(0.699937 0.0477957 0)
(0.695145 0.0521483 0)
(0.689953 0.0566952 0)
(0.68434 0.0614493 0)
(0.678284 0.0664254 0)
(0.671769 0.0716412 0)
(0.664784 0.0771155 0)
(0.657317 0.0828701 0)
(0.649351 0.0889278 0)
(0.640869 0.0953144 0)
(0.631852 0.102057 0)
(0.622277 0.109186 0)
(0.61212 0.116732 0)
(0.601352 0.12473 0)
(0.589942 0.133216 0)
(0.577854 0.142229 0)
(0.565047 0.151809 0)
(0.551475 0.161999 0)
(0.537082 0.172843 0)
(0.521805 0.184385 0)
(0.50557 0.19667 0)
(0.488289 0.209743 0)
(0.469857 0.223643 0)
(0.450151 0.238404 0)
(0.42902 0.254051 0)
(0.406287 0.270587 0)
(0.381737 0.287994 0)
(0.355112 0.306209 0)
(0.326111 0.325113 0)
(0.294381 0.344498 0)
(0.259517 0.364034 0)
(0.22113 0.383206 0)
(0.17864 0.401245 0)
(0.132608 0.417051 0)
(0.0800915 0.42939 0)
(0.031527 0.435738 0)
(2.60161 0.000187962 0)
(1.64663 0.00259393 0)
(0.515038 0.0108869 0)
(0.555252 0.012995 0)
(0.657826 0.0149555 0)
(0.72561 0.017454 0)
(0.739936 0.0204578 0)
(0.734098 0.0236076 0)
(0.725491 0.0270397 0)
(0.71915 0.0306841 0)
(0.715869 0.0344996 0)
(0.713422 0.0384792 0)
(0.710487 0.0426294 0)
(0.706846 0.0469586 0)
(0.702664 0.051473 0)
(0.698069 0.0561813 0)
(0.693087 0.0610946 0)
(0.687699 0.0662272 0)
(0.681885 0.0715956 0)
(0.675633 0.077219 0)
(0.668932 0.0831182 0)
(0.661772 0.0893168 0)
(0.654141 0.09584 0)
(0.646022 0.102716 0)
(0.637399 0.109975 0)
(0.628252 0.11765 0)
(0.618559 0.125775 0)
(0.608294 0.134391 0)
(0.597429 0.143537 0)
(0.58593 0.153258 0)
(0.57376 0.163601 0)
(0.560874 0.174617 0)
(0.54722 0.18636 0)
(0.532737 0.198886 0)
(0.51735 0.212255 0)
(0.500974 0.226527 0)
(0.483499 0.241764 0)
(0.464797 0.258026 0)
(0.444708 0.275367 0)
(0.423034 0.293832 0)
(0.399532 0.313446 0)
(0.373896 0.334206 0)
(0.345751 0.356046 0)
(0.314635 0.378816 0)
(0.279979 0.402278 0)
(0.241126 0.425898 0)
(0.197196 0.44879 0)
(0.148339 0.469682 0)
(0.0910096 0.486698 0)
(0.0361562 0.496108 0)
(2.60326 0.00019423 0)
(1.65077 0.00268374 0)
(0.518119 0.0112991 0)
(0.555672 0.0135032 0)
(0.658412 0.01557 0)
(0.726704 0.0182548 0)
(0.741367 0.0215118 0)
(0.73577 0.0249357 0)
(0.727442 0.0286809 0)
(0.72131 0.0326543 0)
(0.718206 0.0368032 0)
(0.715935 0.0411195 0)
(0.713184 0.0456118 0)
(0.709737 0.0502891 0)
(0.705757 0.0551586 0)
(0.701376 0.0602292 0)
(0.696622 0.065513 0)
(0.691479 0.0710255 0)
(0.68593 0.0767851 0)
(0.679965 0.0828125 0)
(0.673576 0.089131 0)
(0.666755 0.095766 0)
(0.659493 0.102746 0)
(0.651776 0.1101 0)
(0.64359 0.117864 0)
(0.634918 0.126072 0)
(0.625741 0.134764 0)
(0.616038 0.143982 0)
(0.605784 0.153773 0)
(0.59495 0.164188 0)
(0.583501 0.17528 0)
(0.571398 0.18711 0)
(0.558593 0.199741 0)
(0.54503 0.213243 0)
(0.530639 0.227693 0)
(0.515336 0.24317 0)
(0.499018 0.259761 0)
(0.481555 0.277559 0)
(0.462785 0.296658 0)
(0.4425 0.317157 0)
(0.420442 0.33913 0)
(0.396264 0.362688 0)
(0.369516 0.387859 0)
(0.339675 0.41452 0)
(0.305953 0.442715 0)
(0.267304 0.472032 0)
(0.222423 0.501634 0)
(0.170703 0.530076 0)
(0.107365 0.554885 0)
(0.0434832 0.570065 0)
(2.60501 0.000196876 0)
(1.65518 0.00273477 0)
(0.521427 0.0115423 0)
(0.556157 0.0138276 0)
(0.659108 0.0159954 0)
(0.728003 0.0188684 0)
(0.743061 0.0223971 0)
(0.737747 0.0261128 0)
(0.729739 0.0301888 0)
(0.723837 0.0345044 0)
(0.720921 0.0389938 0)
(0.718836 0.0436493 0)
(0.71628 0.0484836 0)
(0.713038 0.0535077 0)
(0.709274 0.0587307 0)
(0.70512 0.0641619 0)
(0.700609 0.0698147 0)
(0.695728 0.0757058 0)
(0.690464 0.0818553 0)
(0.684808 0.0882855 0)
(0.678757 0.0950216 0)
(0.672305 0.10209 0)
(0.665444 0.109523 0)
(0.658166 0.11735 0)
(0.650459 0.12561 0)
(0.64231 0.134341 0)
(0.633704 0.143586 0)
(0.624624 0.153393 0)
(0.61505 0.163811 0)
(0.604957 0.174899 0)
(0.594319 0.186718 0)
(0.583101 0.199337 0)
(0.571263 0.212831 0)
(0.558757 0.227284 0)
(0.545523 0.24279 0)
(0.531485 0.259452 0)
(0.51655 0.277384 0)
(0.5006 0.296719 0)
(0.483483 0.317589 0)
(0.464985 0.340205 0)
(0.444876 0.364632 0)
(0.422807 0.391072 0)
(0.398169 0.419904 0)
(0.370516 0.451185 0)
(0.338953 0.485053 0)
(0.301909 0.521515 0)
(0.257458 0.560239 0)
(0.203861 0.600013 0)
(0.133823 0.638294 0)
(0.0565605 0.666335 0)
(2.60685 0.000195353 0)
(1.65983 0.00273571 0)
(0.524928 0.011543 0)
(0.556732 0.0138937 0)
(0.659949 0.0161697 0)
(0.72955 0.0192589 0)
(0.745075 0.0231086 0)
(0.740087 0.0271758 0)
(0.732435 0.0316489 0)
(0.726771 0.0363601 0)
(0.724041 0.0412306 0)
(0.722143 0.0462562 0)
(0.719791 0.0514551 0)
(0.716768 0.0568419 0)
(0.713234 0.0624254 0)
(0.709324 0.0682164 0)
(0.705074 0.0742304 0)
(0.700477 0.0804867 0)
(0.695521 0.0870081 0)
(0.690201 0.0938196 0)
(0.684517 0.100949 0)
(0.678465 0.108425 0)
(0.672041 0.116282 0)
(0.66524 0.124555 0)
(0.658055 0.133282 0)
(0.650476 0.142506 0)
(0.642494 0.152273 0)
(0.634096 0.162635 0)
(0.62527 0.173648 0)
(0.615997 0.185374 0)
(0.606259 0.197881 0)
(0.59603 0.211249 0)
(0.585281 0.225562 0)
(0.573976 0.24092 0)
(0.562067 0.257434 0)
(0.549497 0.275229 0)
(0.536194 0.294438 0)
(0.522052 0.315285 0)
(0.506996 0.337855 0)
(0.490749 0.362398 0)
(0.47306 0.389345 0)
(0.453922 0.418923 0)
(0.432712 0.451616 0)
(0.408627 0.487923 0)
(0.380859 0.528295 0)
(0.347862 0.57346 0)
(0.306993 0.624239 0)
(0.255016 0.680967 0)
(0.180394 0.743011 0)
(0.0832312 0.803169 0)
(2.60874 0.000141685 0)
(1.6646 0.00273058 0)
(0.528522 0.0112097 0)
(0.55742 0.0135551 0)
(0.660996 0.0159247 0)
(0.731448 0.0192125 0)
(0.747541 0.0233853 0)
(0.742946 0.0278075 0)
(0.735693 0.0326813 0)
(0.730262 0.0377816 0)
(0.727706 0.0430204 0)
(0.725989 0.0484058 0)
(0.723839 0.0539664 0)
(0.721032 0.0597193 0)
(0.717727 0.0656728 0)
(0.714061 0.071837 0)
(0.710078 0.0782275 0)
(0.705773 0.0848647 0)
(0.701139 0.0917723 0)
(0.696174 0.0989765 0)
(0.69088 0.106506 0)
(0.685256 0.114393 0)
(0.679303 0.12267 0)
(0.673017 0.131376 0)
(0.666397 0.140552 0)
(0.659438 0.150243 0)
(0.652135 0.1605 0)
(0.644483 0.171376 0)
(0.636476 0.182933 0)
(0.628104 0.195238 0)
(0.619357 0.208369 0)
(0.610223 0.222411 0)
(0.600687 0.237461 0)
(0.590729 0.253626 0)
(0.580323 0.271046 0)
(0.569415 0.289902 0)
(0.558029 0.310212 0)
(0.545996 0.332256 0)
(0.53321 0.35642 0)
(0.519848 0.382908 0)
(0.50563 0.412241 0)
(0.490261 0.444854 0)
(0.473488 0.481237 0)
(0.454816 0.522375 0)
(0.433604 0.569444 0)
(0.408678 0.624264 0)
(0.377649 0.689729 0)
(0.336608 0.770915 0)
(0.270945 0.878172 0)
(0.14644 1.0434 0)
(2.61111 8.11512e-05 0)
(1.67038 0.00260043 0)
(0.532274 0.0103847 0)
(0.557938 0.0128201 0)
(0.662137 0.0154346 0)
(0.733803 0.0191871 0)
(0.750724 0.0239847 0)
(0.74668 0.0290438 0)
(0.739962 0.034561 0)
(0.734823 0.0402287 0)
(0.732499 0.0459574 0)
(0.731052 0.0517828 0)
(0.729217 0.0577555 0)
(0.726751 0.0639022 0)
(0.723807 0.0702377 0)
(0.720526 0.0767763 0)
(0.716958 0.0835387 0)
(0.713106 0.0905506 0)
(0.708968 0.0978404 0)
(0.704545 0.105438 0)
(0.699842 0.113375 0)
(0.694866 0.121686 0)
(0.689622 0.130407 0)
(0.684112 0.139578 0)
(0.678341 0.149242 0)
(0.672313 0.159446 0)
(0.666032 0.170242 0)
(0.659503 0.181688 0)
(0.652731 0.193848 0)
(0.645721 0.206794 0)
(0.638481 0.220607 0)
(0.631016 0.235377 0)
(0.623331 0.251232 0)
(0.615452 0.268256 0)
(0.607441 0.28654 0)
(0.599071 0.306336 0)
(0.590392 0.32787 0)
(0.581881 0.351324 0)
(0.573397 0.37713 0)
(0.564715 0.405647 0)
(0.555958 0.437224 0)
(0.547209 0.472572 0)
(0.538661 0.512526 0)
(0.530539 0.558373 0)
(0.523385 0.611896 0)
(0.518375 0.67586 0)
(0.51823 0.754726 0)
(0.531154 0.855924 0)
(0.587125 0.990635 0)
(0.6572 1.18531 0)
(2.61362 5.93532e-05 0)
(1.67652 0.00194243 0)
(0.536796 0.007764 0)
(0.559572 0.00992451 0)
(0.664781 0.0125058 0)
(0.738193 0.0166806 0)
(0.756192 0.0222111 0)
(0.752749 0.0280509 0)
(0.746492 0.0343819 0)
(0.741421 0.0407701 0)
(0.739114 0.047147 0)
(0.737768 0.0535885 0)
(0.736113 0.0601597 0)
(0.733871 0.0668871 0)
(0.731181 0.0737814 0)
(0.728189 0.0808576 0)
(0.724956 0.0881391 0)
(0.72149 0.0956542 0)
(0.717792 0.103433 0)
(0.713866 0.111508 0)
(0.70972 0.119913 0)
(0.705365 0.128683 0)
(0.700809 0.137857 0)
(0.696061 0.147478 0)
(0.691132 0.15759 0)
(0.686033 0.168244 0)
(0.680777 0.179495 0)
(0.67538 0.191402 0)
(0.669858 0.204032 0)
(0.664233 0.217463 0)
(0.658523 0.231801 0)
(0.652794 0.247061 0)
(0.647024 0.263361 0)
(0.641139 0.280919 0)
(0.635376 0.299864 0)
(0.62995 0.320332 0)
(0.624752 0.342667 0)
(0.619849 0.367068 0)
(0.61547 0.393724 0)
(0.611771 0.42309 0)
(0.609027 0.455684 0)
(0.607713 0.492163 0)
(0.608498 0.533441 0)
(0.612474 0.580667 0)
(0.621465 0.635507 0)
(0.63879 0.700118 0)
(0.670457 0.777415 0)
(0.725476 0.870834 0)
(0.836626 0.980401 0)
(0.984481 1.09496 0)
(2.61508 7.0191e-05 0)
(1.68008 0.00130455 0)
(0.539653 0.00545788 0)
(0.56132 0.00790944 0)
(0.668132 0.0111022 0)
(0.743957 0.0164647 0)
(0.763402 0.0232623 0)
(0.76069 0.0301967 0)
(0.754903 0.0372573 0)
(0.749826 0.0440632 0)
(0.747529 0.0507376 0)
(0.746319 0.0574576 0)
(0.744869 0.0643035 0)
(0.742851 0.0712956 0)
(0.740397 0.0784404 0)
(0.737667 0.0857611 0)
(0.734735 0.093291 0)
(0.731614 0.101065 0)
(0.72831 0.109116 0)
(0.724828 0.117478 0)
(0.721183 0.126184 0)
(0.71739 0.13527 0)
(0.713463 0.144774 0)
(0.709418 0.154736 0)
(0.705273 0.165199 0)
(0.701049 0.17621 0)
(0.696768 0.187821 0)
(0.692453 0.2001 0)
(0.688143 0.213099 0)
(0.683908 0.226846 0)
(0.679654 0.241458 0)
(0.675416 0.257078 0)
(0.671528 0.273766 0)
(0.668029 0.291687 0)
(0.664834 0.311037 0)
(0.662103 0.331897 0)
(0.660007 0.35444 0)
(0.658724 0.37893 0)
(0.658534 0.405659 0)
(0.659804 0.43497 0)
(0.663001 0.46732 0)
(0.668871 0.503227 0)
(0.678478 0.54335 0)
(0.693302 0.588455 0)
(0.71573 0.639399 0)
(0.749214 0.697023 0)
(0.799344 0.7616 0)
(0.871719 0.832175 0)
(0.984647 0.903792 0)
(1.12029 0.95662 0)
(2.61628 3.7163e-05 0)
(1.68315 -0.00152836 0)
(0.545015 -0.00484949 0)
(0.56729 -0.00305237 0)
(0.6759 0.000995276 0)
(0.754092 0.00904968 0)
(0.774414 0.0185837 0)
(0.771478 0.0278677 0)
(0.765094 0.0364537 0)
(0.759426 0.0442546 0)
(0.75695 0.0517464 0)
(0.755825 0.0592243 0)
(0.754543 0.0667663 0)
(0.75271 0.0743918 0)
(0.750468 0.082096 0)
(0.748006 0.0899149 0)
(0.745405 0.0978938 0)
(0.742674 0.106074 0)
(0.739812 0.114493 0)
(0.736825 0.123189 0)
(0.733728 0.1322 0)
(0.730537 0.141565 0)
(0.727269 0.151325 0)
(0.723947 0.16152 0)
(0.720593 0.172197 0)
(0.717234 0.183416 0)
(0.713919 0.195197 0)
(0.710666 0.207584 0)
(0.707434 0.220679 0)
(0.704351 0.23456 0)
(0.701627 0.249278 0)
(0.699231 0.264998 0)
(0.697176 0.28181 0)
(0.695629 0.299731 0)
(0.694693 0.318914 0)
(0.694533 0.339516 0)
(0.695366 0.361706 0)
(0.697449 0.385683 0)
(0.70114 0.411673 0)
(0.706867 0.439931 0)
(0.715238 0.470739 0)
(0.727064 0.504425 0)
(0.74348 0.541271 0)
(0.765981 0.581557 0)
(0.796622 0.625362 0)
(0.838094 0.672409 0)
(0.894031 0.72164 0)
(0.967129 0.770466 0)
(1.06831 0.814669 0)
(1.18133 0.840224 0)
(2.61196 0.00228867 0)
(1.67312 -0.00676407 0)
(0.549545 -0.0137856 0)
(0.583066 -0.00801625 0)
(0.696128 -0.000388171 0)
(0.777886 0.00988787 0)
(0.79849 0.0200815 0)
(0.794067 0.0297276 0)
(0.785735 0.0382401 0)
(0.778692 0.0460998 0)
(0.775578 0.0537799 0)
(0.774098 0.0614366 0)
(0.772514 0.0691044 0)
(0.770375 0.0768151 0)
(0.76784 0.0846216 0)
(0.765153 0.0925766 0)
(0.762393 0.100725 0)
(0.759567 0.109103 0)
(0.756673 0.117745 0)
(0.753723 0.126684 0)
(0.750736 0.135953 0)
(0.74773 0.145583 0)
(0.744727 0.15561 0)
(0.741754 0.166064 0)
(0.738864 0.176957 0)
(0.736036 0.188348 0)
(0.73327 0.200317 0)
(0.730727 0.212881 0)
(0.728502 0.226107 0)
(0.726578 0.240102 0)
(0.725017 0.254898 0)
(0.723925 0.270519 0)
(0.72339 0.287078 0)
(0.723558 0.304667 0)
(0.72459 0.32339 0)
(0.726668 0.34338 0)
(0.730044 0.364755 0)
(0.734995 0.387667 0)
(0.741897 0.412249 0)
(0.751218 0.438653 0)
(0.763553 0.467007 0)
(0.779677 0.497417 0)
(0.800562 0.5299 0)
(0.827461 0.564342 0)
(0.861895 0.600397 0)
(0.905697 0.637305 0)
(0.961151 0.673731 0)
(1.02986 0.70734 0)
(1.11622 0.735207 0)
(1.20905 0.748955 0)
(2.60369 0.0079046 0)
(1.64293 -0.0735119 0)
(0.58485 -0.0725472 0)
(0.623929 -0.045759 0)
(0.731376 -0.00576051 0)
(0.808996 0.0165302 0)
(0.826993 0.0266299 0)
(0.821032 0.0352874 0)
(0.811517 0.0426509 0)
(0.804157 0.0507649 0)
(0.800784 0.0592942 0)
(0.798926 0.0677256 0)
(0.796945 0.0759355 0)
(0.794503 0.0840039 0)
(0.791779 0.0920677 0)
(0.788948 0.100206 0)
(0.786069 0.108466 0)
(0.783141 0.11689 0)
(0.780164 0.12552 0)
(0.777151 0.134403 0)
(0.774122 0.143588 0)
(0.771105 0.153098 0)
(0.768121 0.162952 0)
(0.765163 0.173201 0)
(0.762307 0.183913 0)
(0.759698 0.195095 0)
(0.75732 0.206803 0)
(0.755173 0.219097 0)
(0.753376 0.231996 0)
(0.752003 0.245556 0)
(0.751129 0.259848 0)
(0.750865 0.274937 0)
(0.751338 0.290884 0)
(0.752703 0.307769 0)
(0.755135 0.325651 0)
(0.758831 0.344618 0)
(0.764043 0.364738 0)
(0.771071 0.386092 0)
(0.780264 0.40875 0)
(0.792071 0.432761 0)