/*--------------------------------*- C++ -*----------------------------------*\
| =========                 |                                                 |
| \\      /  F ield         | OpenFOAM: The Open Source CFD Toolbox           |
|  \\    /   O peration     | Version:  2412                                  |
|   \\  /    A nd           | Website:  www.openfoam.com                      |
|    \\/     M anipulation  |                                                 |
\*---------------------------------------------------------------------------*/
FoamFile
{
    version     2.0;
    format      ascii;
    arch        "LSB;label=32;scalar=64";
    class       volScalarField;
    location    "11";
    object      Ma;
}
// * * * * * * * * * * * * * * * * * * * * * * * * * * * * * * * * * * * * * //

dimensions      [0 0 0 0 0 0 0];

internalField   nonuniform List<scalar> 
7000
(
2.30005
1.07462
0.353388
0.337734
0.401648
0.44772
0.458111
0.453972
0.447663
0.442476
0.439458
0.437146
0.434589
0.431522
0.428083
0.424339
0.420317
0.416005
0.411316
0.406136
0.400427
0.394267
0.387641
0.380548
0.373047
0.36512
0.356747
0.347929
0.338678
0.328972
0.318724
0.307902
0.296571
0.284752
0.272328
0.259215
0.245501
0.231289
0.216534
0.20118
0.184587
0.166565
0.148033
0.129153
0.109823
0.0898311
0.0693673
0.0495557
0.0297315
0.0143718
2.30007
1.07465
0.353074
0.337442
0.401372
0.447448
0.457834
0.453689
0.44738
0.442194
0.439175
0.436862
0.434299
0.431226
0.427778
0.424019
0.419975
0.415645
0.41095
0.405789
0.400115
0.393986
0.387385
0.380319
0.372848
0.364955
0.356623
0.347848
0.338639
0.328973
0.318762
0.307975
0.296678
0.284892
0.2725
0.25942
0.245743
0.231575
0.216874
0.201593
0.185107
0.167248
0.148958
0.130421
0.111553
0.0921413
0.0722796
0.0529867
0.0339663
0.0208359
2.3002
1.07484
0.353198
0.337473
0.401391
0.447465
0.457852
0.453717
0.447427
0.442261
0.439255
0.436953
0.434401
0.431338
0.427902
0.424155
0.420123
0.415808
0.411127
0.405981
0.400323
0.394212
0.387631
0.380587
0.373139
0.365272
0.356968
0.348226
0.339057
0.329434
0.319271
0.308537
0.297299
0.285578
0.273259
0.260262
0.246681
0.232624
0.218054
0.202931
0.186656
0.169076
0.151155
0.133095
0.114835
0.0961917
0.077265
0.0591579
0.0422367
0.0321461
2.30036
1.07516
0.353488
0.337571
0.401483
0.447574
0.45797
0.45385
0.447586
0.44245
0.439463
0.437178
0.434638
0.43159
0.428169
0.424437
0.420424
0.416129
0.411472
0.406351
0.40072
0.394637
0.388087
0.381075
0.373663
0.365838
0.357582
0.348891
0.339778
0.33022
0.320133
0.309485
0.298341
0.286724
0.274522
0.261659
0.248229
0.234347
0.219977
0.205094
0.18912
0.171916
0.154463
0.136981
0.119438
0.1017
0.0839197
0.067314
0.052638
0.044705
2.30058
1.07559
0.353851
0.337651
0.401566
0.447693
0.458109
0.454006
0.447777
0.442679
0.439721
0.43746
0.434942
0.431915
0.428516
0.424807
0.42082
0.416555
0.411931
0.406847
0.401255
0.395215
0.388712
0.381752
0.374398
0.366639
0.358455
0.349842
0.340812
0.331346
0.321365
0.310836
0.299827
0.28836
0.276327
0.263652
0.250435
0.236794
0.222698
0.208134
0.192555
0.175819
0.158926
0.142119
0.12539
0.10867
0.0921738
0.0771688
0.0645372
0.0581347
2.30088
1.07617
0.354307
0.337727
0.401653
0.447833
0.458278
0.454199
0.448012
0.442962
0.440041
0.437813
0.435324
0.432326
0.428957
0.42528
0.421328
0.417103
0.412527
0.407495
0.401955
0.395971
0.389534
0.382644
0.375367
0.367692
0.359599
0.351085
0.342162
0.33282
0.322983
0.312618
0.301789
0.290521
0.27871
0.266283
0.253342
0.240013
0.226271
0.212111
0.197024
0.180854
0.164619
0.148584
0.132765
0.117152
0.10201
0.0886008
0.0777413
0.0724802
2.30126
1.07691
0.354863
0.337805
0.401741
0.447994
0.458481
0.454433
0.448299
0.443306
0.44043
0.438245
0.435793
0.432833
0.429501
0.425865
0.421957
0.417781
0.413265
0.408297
0.402815
0.396898
0.390538
0.383732
0.37655
0.368984
0.361016
0.352636
0.343858
0.334671
0.325007
0.314839
0.304231
0.293213
0.281686
0.269575
0.256985
0.244049
0.230744
0.217077
0.202585
0.187083
0.171596
0.156425
0.1416
0.127159
0.113389
0.101487
0.0921545
0.0877737
2.30173
1.07781
0.35553
0.337886
0.401834
0.448181
0.458723
0.454714
0.448643
0.443716
0.440893
0.43876
0.436351
0.433432
0.430137
0.426535
0.422657
0.418522
0.414066
0.409182
0.403792
0.397967
0.391708
0.385013
0.377953
0.370521
0.362696
0.354476
0.345876
0.336894
0.327462
0.317549
0.307216
0.296503
0.285317
0.273589
0.261423
0.248957
0.236175
0.223091
0.209298
0.19457
0.179921
0.165704
0.15195
0.138719
0.126303
0.115798
0.107756
0.10408
2.30229
1.0789
0.356315
0.337972
0.401937
0.448397
0.459008
0.455048
0.449053
0.444203
0.441444
0.439372
0.437019
0.434154
0.430912
0.427363
0.423539
0.419465
0.415085
0.410291
0.405003
0.399286
0.393147
0.386582
0.379662
0.372385
0.364728
0.356691
0.348296
0.339552
0.330397
0.320792
0.310793
0.300446
0.289669
0.278392
0.266721
0.254803
0.24263
0.230217
0.217226
0.203384
0.189656
0.176468
0.163842
0.151849
0.140745
0.131529
0.124607
0.121505
2.30295
1.08017
0.357228
0.338065
0.402051
0.448646
0.459343
0.455443
0.449538
0.444776
0.442089
0.44009
0.437804
0.435005
0.431828
0.428346
0.4246
0.420609
0.416321
0.411633
0.406452
0.400849
0.394841
0.388422
0.38167
0.374586
0.367139
0.359325
0.351172
0.342701
0.333858
0.324602
0.314985
0.305061
0.294761
0.284015
0.272921
0.261637
0.250163
0.238516
0.226444
0.213591
0.200872
0.188806
0.177381
0.166655
0.156839
0.148815
0.142872
0.140229
2.3037
1.08165
0.35828
0.338163
0.40218
0.448935
0.459734
0.455904
0.450105
0.445441
0.442837
0.440921
0.438713
0.435988
0.432881
0.429468
0.425789
0.421878
0.41769
0.413133
0.408106
0.402655
0.396812
0.39057
0.384009
0.377141
0.369935
0.362382
0.354513
0.346361
0.337884
0.329035
0.319862
0.310425
0.300669
0.290524
0.280084
0.269515
0.25883
0.248052
0.237014
0.225275
0.213651
0.202767
0.192594
0.18316
0.174627
0.167752
0.162722
0.160501
2.30454
1.08335
0.359463
0.338266
0.402337
0.449263
0.460186
0.456443
0.450767
0.446215
0.443705
0.441883
0.439765
0.437126
0.434104
0.430775
0.427188
0.423376
0.4193
0.414876
0.410002
0.404709
0.399042
0.392995
0.386657
0.380049
0.373132
0.365888
0.358346
0.350551
0.342477
0.334083
0.325415
0.316543
0.307423
0.297973
0.288274
0.278505
0.268707
0.258907
0.249017
0.238498
0.228081
0.21851
0.209707
0.201647
0.194413
0.188676
0.184498
0.182697
2.30552
1.08526
0.360784
0.338392
0.4025
0.449643
0.460713
0.457073
0.451537
0.447109
0.444704
0.442987
0.440973
0.438432
0.435504
0.432269
0.428774
0.425064
0.421111
0.416841
0.412157
0.407066
0.401615
0.395794
0.389692
0.383356
0.376751
0.369854
0.362688
0.355304
0.347689
0.339802
0.331687
0.323436
0.315023
0.30636
0.297505
0.288642
0.279845
0.271145
0.262515
0.253365
0.244269
0.236097
0.228766
0.222178
0.216372
0.211882
0.208639
0.207189
2.30662
1.08738
0.362252
0.33853
0.402681
0.450081
0.461325
0.457809
0.452434
0.448143
0.445855
0.444254
0.442359
0.43993
0.437112
0.433987
0.430607
0.427022
0.423207
0.4191
0.414603
0.409714
0.404494
0.398929
0.393099
0.387066
0.380807
0.374295
0.367551
0.360632
0.353533
0.346213
0.338714
0.331143
0.323499
0.315699
0.307783
0.29994
0.292269
0.284802
0.277568
0.26996
0.262365
0.255792
0.250139
0.24524
0.241015
0.237857
0.235706
0.234872
2.30783
1.08973
0.363865
0.338681
0.402886
0.450588
0.462035
0.458664
0.453471
0.44933
0.447172
0.445697
0.443937
0.441632
0.438938
0.435934
0.432672
0.429213
0.425549
0.421627
0.417348
0.412685
0.40772
0.402441
0.396913
0.391214
0.38533
0.379237
0.372956
0.366554
0.360042
0.35337
0.346568
0.339755
0.332962
0.326108
0.31922
0.31249
0.306056
0.299946
0.294233
0.288357
0.282461
0.277667
0.273931
0.270988
0.268735
0.267468
0.266703
0.266532
2.30914
1.09229
0.365613
0.338844
0.40312
0.45117
0.462856
0.459657
0.454671
0.450697
0.44868
0.447342
0.445731
0.443562
0.441003
0.438131
0.434994
0.431667
0.428163
0.42444
0.420401
0.415997
0.411319
0.406364
0.401178
0.395847
0.390376
0.38474
0.378953
0.373091
0.367191
0.361215
0.355179
0.349197
0.343336
0.337532
0.331786
0.326289
0.321218
0.316611
0.312572
0.308698
0.304846
0.302132
0.300703
0.300221
0.30048
0.301523
0.302947
0.30426
2.31054
1.09502
0.367484
0.339026
0.403395
0.451857
0.46382
0.460822
0.45607
0.452275
0.450409
0.449217
0.447774
0.445758
0.443341
0.44061
0.437609
0.434428
0.431093
0.427575
0.4238
0.41967
0.415269
0.410649
0.405831
0.400902
0.395879
0.390745
0.385516
0.38026
0.375039
0.369825
0.364616
0.359542
0.354696
0.35002
0.345501
0.341346
0.337757
0.334797
0.33259
0.330978
0.329457
0.329166
0.330568
0.333189
0.336914
0.341794
0.346692
0.3505
2.31201
1.0979
0.369453
0.339224
0.403719
0.452658
0.464946
0.462182
0.457695
0.454093
0.452386
0.451351
0.450088
0.448238
0.44597
0.443386
0.44053
0.437494
0.434322
0.43101
0.427511
0.423715
0.419641
0.415389
0.410978
0.406486
0.401954
0.397357
0.392704
0.388077
0.383554
0.379133
0.374814
0.370722
0.366963
0.363537
0.360424
0.35769
0.355716
0.354594
0.354428
0.355249
0.356646
0.359309
0.364164
0.370975
0.379664
0.390056
0.401578
0.411962
2.31352
1.10085
0.371479
0.339445
0.404113
0.45361
0.466278
0.463786
0.459593
0.456189
0.454644
0.453776
0.452701
0.45103
0.448919
0.446491
0.443794
0.440927
0.43794
0.434847
0.431621
0.42817
0.424433
0.420535
0.416517
0.412471
0.408444
0.404443
0.400443
0.396503
0.39273
0.38914
0.385744
0.382668
0.380048
0.377913
0.376317
0.375258
0.374975
0.375749
0.377803
0.381411
0.386233
0.392497
0.401719
0.413974
0.429689
0.449703
0.47351
0.500917
2.31501
1.10379
0.373486
0.339698
0.404625
0.454789
0.467915
0.465747
0.461878
0.458665
0.457277
0.45658
0.455695
0.454204
0.45224
0.449965
0.44743
0.444725
0.441915
0.439028
0.436062
0.432965
0.429641
0.426149
0.422579
0.418985
0.415475
0.412057
0.408731
0.405534
0.402559
0.399856
0.397429
0.395385
0.393918
0.393105
0.39301
0.393621
0.39519
0.398142
0.402885
0.40944
0.417923
0.428476
0.442847
0.462125
0.488101
0.523399
0.574831
0.667492
2.31672
1.10713
0.375776
0.340059
0.405408
0.456503
0.470298
0.468595
0.465136
0.462154
0.460966
0.460498
0.459875
0.458655
0.456911
0.45486
0.45257
0.450112
0.447572
0.444974
0.442356
0.439707
0.436959
0.434058
0.431088
0.428147
0.425305
0.422676
0.42025
0.418073
0.41622
0.414766
0.413739
0.413198
0.413337
0.41427
0.416054
0.418963
0.423367
0.429439
0.43748
0.448208
0.461671
0.478599
0.500842
0.530665
0.572603
0.634421
0.73346
0.88563
2.31829
1.11022
0.378196
0.341091
0.407145
0.459564
0.474314
0.473132
0.469927
0.46709
0.466007
0.46566
0.465198
0.464191
0.462616
0.460718
0.458632
0.4564
0.454096
0.451754
0.449424
0.447146
0.444904
0.442632
0.440317
0.438059
0.435956
0.434068
0.432506
0.431275
0.430487
0.430213
0.430502
0.431364
0.432956
0.435545
0.43949
0.444876
0.45178
0.460516
0.471592
0.485914
0.504126
0.52693
0.556128
0.594869
0.647423
0.721499
0.833312
0.972819
2.31876
1.11112
0.379206
0.342329
0.409468
0.46361
0.479591
0.47903
0.475983
0.473271
0.472301
0.472088
0.471775
0.470978
0.469567
0.467786
0.465862
0.463828
0.461709
0.459589
0.45751
0.455527
0.453671
0.451919
0.450272
0.44862
0.447107
0.445866
0.44509
0.444708
0.444905
0.445703
0.447056
0.449217
0.452461
0.456907
0.462696
0.470018
0.479105
0.490344
0.50408
0.521397
0.543098
0.570116
0.60395
0.646614
0.701902
0.772297
0.869273
0.974295
2.31833
1.11014
0.380835
0.347289
0.41568
0.471177
0.487797
0.48724
0.483881
0.480762
0.479594
0.479354
0.479088
0.478372
0.477065
0.475412
0.473657
0.47188
0.470051
0.468199
0.466395
0.464709
0.463197
0.461892
0.460805
0.459925
0.459284
0.458809
0.458696
0.45902
0.459943
0.461519
0.464036
0.467537
0.47206
0.477789
0.484924
0.493813
0.504583
0.517791
0.533605
0.552619
0.576278
0.604778
0.640238
0.682608
0.734859
0.796696
0.875135
0.957053
2.31307
1.09965
0.381483
0.358965
0.430172
0.487707
0.504689
0.503724
0.499676
0.495674
0.493967
0.493348
0.492689
0.49158
0.489903
0.487907
0.485861
0.483828
0.481814
0.479886
0.478093
0.476483
0.475106
0.473983
0.47312
0.472566
0.472317
0.472397
0.472856
0.473753
0.475346
0.477833
0.481225
0.485547
0.490966
0.497664
0.505858
0.515738
0.527747
0.541991
0.559234
0.579076
0.603221
0.631602
0.665619
0.70592
0.753044
0.80818
0.872033
0.93726
2.31957
1.08648
0.409256
0.395001
0.456642
0.509155
0.524493
0.522951
0.518314
0.513737
0.511594
0.510603
0.509593
0.508178
0.506393
0.504395
0.502316
0.500208
0.498109
0.49609
0.49422
0.492542
0.491091
0.489897
0.488991
0.48844
0.488189
0.488251
0.488897
0.49022
0.492305
0.495175
0.498927
0.503699
0.509728
0.516974
0.525888
0.536277
0.548932
0.563548
0.580962
0.601301
0.624586
0.652176
0.683593
0.720643
0.762303
0.810669
0.864472
0.919062
1.88149
0.788805
0.306019
0.344796
0.402154
0.430596
0.434048
0.430011
0.425748
0.424622
0.426527
0.429826
0.433612
0.437507
0.441447
0.445437
0.449442
0.453399
0.457252
0.460994
0.464647
0.468207
0.471717
0.475144
0.47858
0.481946
0.485343
0.488871
0.492605
0.496528
0.500865
0.505641
0.511145
0.517345
0.524671
0.533002
0.542808
0.554037
0.566977
0.582143
0.599174
0.619384
0.64175
0.667863
0.696813
0.730248
0.7672
0.808933
0.855024
0.901011
1.87189
0.784873
0.310198
0.359005
0.416677
0.438179
0.437018
0.430404
0.423429
0.419868
0.418697
0.41861
0.419072
0.420023
0.421522
0.423557
0.426137
0.429184
0.43263
0.436466
0.440683
0.445207
0.449994
0.455026
0.460447
0.466069
0.472082
0.478236
0.484863
0.491657
0.498869
0.506447
0.514442
0.523055
0.532274
0.542607
0.55367
0.566333
0.580008
0.595774
0.612988
0.632677
0.654501
0.678982
0.706122
0.736207
0.769387
0.80557
0.845077
0.883945
1.87139
0.783904
0.31236
0.370796
0.436011
0.458524
0.455976
0.448086
0.439786
0.435407
0.433421
0.432156
0.431071
0.430262
0.429778
0.429786
0.430259
0.431203
0.43264
0.434548
0.436921
0.439864
0.443386
0.44743
0.452057
0.457349
0.463212
0.469819
0.47691
0.484796
0.493091
0.502213
0.511816
0.522396
0.533393
0.545492
0.558148
0.572141
0.586998
0.603392
0.621071
0.640579
0.661798
0.685212
0.710505
0.738244
0.768046
0.800266
0.834904
0.868359
1.87152
0.785121
0.315633
0.372467
0.436383
0.459036
0.457047
0.449653
0.441893
0.438076
0.436625
0.435893
0.435354
0.434984
0.434908
0.435184
0.435763
0.43664
0.437915
0.439534
0.441441
0.443709
0.446418
0.449616
0.453329
0.457663
0.462626
0.468384
0.474818
0.482204
0.490243
0.499353
0.509071
0.519993
0.531519
0.544396
0.557971
0.572798
0.588572
0.605598
0.623707
0.643258
0.664113
0.686701
0.710706
0.736577
0.763946
0.792833
0.823686
0.853199
1.87186
0.787869
0.319079
0.363191
0.418139
0.440805
0.440936
0.43497
0.428467
0.42532
0.424485
0.424609
0.425098
0.425862
0.426971
0.428397
0.430198
0.432358
0.43479
0.437452
0.440339
0.443458
0.446851
0.450581
0.454691
0.459224
0.464238
0.469864
0.476062
0.483082
0.490735
0.499413
0.508774
0.519284
0.530618
0.54316
0.556653
0.571299
0.587048
0.604046
0.62216
0.641545
0.662009
0.683845
0.706838
0.731115
0.756683
0.783138
0.811046
0.837675
1.88164
0.794182
0.321535
0.348411
0.39935
0.430498
0.436082
0.43174
0.425979
0.422328
0.421184
0.421377
0.422032
0.422913
0.424087
0.425629
0.427606
0.429927
0.432521
0.4354
0.438576
0.442056
0.445828
0.449944
0.454441
0.459322
0.464633
0.470472
0.476808
0.483843
0.491438
0.499908
0.509056
0.519158
0.530151
0.542145
0.555253
0.569372
0.584583
0.60096
0.618337
0.637003
0.656669
0.677537
0.699567
0.722488
0.746412
0.771159
0.796793
0.821296
2.28934
1.15522
0.445303
0.410222
0.467041
0.518168
0.532119
0.528726
0.522492
0.516205
0.512692
0.51054
0.508652
0.506762
0.504736
0.502645
0.500559
0.498542
0.496632
0.494864
0.493343
0.49209
0.491306
0.490931
0.491117
0.491952
0.493452
0.495721
0.498817
0.50279
0.507677
0.513571
0.520425
0.528361
0.537378
0.54749
0.558869
0.571407
0.585063
0.600022
0.615991
0.633155
0.651449
0.670721
0.691125
0.71251
0.734673
0.757694
0.781407
0.803963
2.30026
1.18089
0.427007
0.383198
0.455495
0.520239
0.541867
0.542571
0.538953
0.535025
0.533554
0.533201
0.533046
0.532937
0.532566
0.531942
0.531193
0.530423
0.529651
0.528871
0.528115
0.527412
0.526807
0.526374
0.526165
0.52626
0.526729
0.527677
0.529167
0.531326
0.534206
0.537873
0.542518
0.54806
0.554704
0.562481
0.571347
0.581545
0.592801
0.605395
0.619061
0.633878
0.64993
0.66709
0.685273
0.704483
0.724542
0.745337
0.766952
0.787451
2.3206
1.22668
0.467107
0.387914
0.449018
0.50726
0.527624
0.529654
0.528221
0.52698
0.527468
0.528803
0.530525
0.53231
0.53383
0.53516
0.536427
0.537705
0.539014
0.540329
0.541643
0.542957
0.544312
0.545714
0.5472
0.54878
0.550479
0.552379
0.554502
0.55693
0.559787
0.563061
0.566967
0.571441
0.576726
0.582845
0.589833
0.597954
0.607109
0.617417
0.628916
0.64136
0.654836
0.669336
0.684849
0.701503
0.719032
0.737376
0.756473
0.774733
1.90466
0.811609
0.318515
0.309004
0.36201
0.399996
0.412353
0.414977
0.416779
0.419434
0.423738
0.429141
0.435386
0.442043
0.448743
0.455531
0.462471
0.469537
0.476684
0.483905
0.491162
0.498388
0.505577
0.512714
0.519743
0.526684
0.533492
0.540175
0.546804
0.553281
0.559824
0.566324
0.57297
0.579719
0.586693
0.594039
0.601661
0.609861
0.618592
0.628109
0.638457
0.649574
0.661559
0.67433
0.688035
0.70245
0.717756
0.733725
0.750461
0.766527
2.32885
1.2419
0.481855
0.391463
0.442729
0.495696
0.514675
0.516213
0.513976
0.512278
0.511747
0.511884
0.512622
0.513377
0.513877
0.514225
0.51459
0.515097
0.515845
0.516889
0.518323
0.520197
0.522521
0.525401
0.528839
0.532792
0.537332
0.542342
0.547903
0.553847
0.560276
0.567167
0.574351
0.581971
0.589839
0.598159
0.606613
0.615582
0.624864
0.634516
0.644718
0.655415
0.666716
0.678483
0.690941
0.704002
0.717663
0.731923
0.746866
0.761214
2.33324
1.25091
0.461939
0.371819
0.440145
0.504949
0.52808
0.530162
0.527934
0.526411
0.5266
0.527771
0.529553
0.531306
0.532671
0.533815
0.534893
0.536013
0.537205
0.538505
0.539947
0.541525
0.543272
0.54526
0.547552
0.550194
0.553265
0.556751
0.560756
0.565229
0.57022
0.575776
0.581848
0.588605
0.595752
0.603548
0.611753
0.620454
0.629638
0.639273
0.649336
0.659711
0.67066
0.681899
0.69339
0.705416
0.71784
0.73081
0.744186
0.75704
2.33522
1.25527
0.465752
0.375326
0.444261
0.50992
0.533245
0.534872
0.532042
0.529991
0.530105
0.531422
0.533441
0.535599
0.53747
0.539192
0.540921
0.542742
0.544681
0.546765
0.549024
0.551406
0.553939
0.556634
0.559483
0.562545
0.565855
0.569419
0.573247
0.577437
0.581942
0.586844
0.592136
0.598011
0.604351
0.611202
0.618576
0.626476
0.634959
0.643809
0.65336
0.663325
0.673693
0.684588
0.695795
0.707224
0.71882
0.730682
0.742869
0.75449
2.33403
1.25443
0.49066
0.39533
0.449127
0.507444
0.531646
0.535562
0.533943
0.532609
0.53244
0.533287
0.534993
0.537054
0.53908
0.541147
0.543325
0.545675
0.548209
0.550919
0.553821
0.556873
0.560084
0.563447
0.566988
0.570738
0.574688
0.578837
0.583101
0.587591
0.592223
0.597143
0.602319
0.607852
0.613742
0.620031
0.626745
0.633875
0.64155
0.649536
0.658149
0.667266
0.676803
0.686867
0.697282
0.70815
0.719204
0.730503
0.742129
0.753054
1.91041
0.813103
0.325917
0.320083
0.371575
0.408293
0.420856
0.423565
0.424632
0.425674
0.427931
0.43104
0.435162
0.439912
0.445074
0.450645
0.456565
0.462876
0.469598
0.476773
0.484399
0.492443
0.500771
0.50929
0.517973
0.526757
0.535651
0.544586
0.553491
0.562346
0.571067
0.579647
0.588045
0.596456
0.604826
0.61321
0.621695
0.630226
0.638917
0.647708
0.65669
0.665966
0.675507
0.685418
0.695579
0.706098
0.716899
0.727879
0.739144
0.749779
2.32947
1.24646
0.492372
0.412914
0.473864
0.53496
0.557516
0.559752
0.556846
0.553912
0.552244
0.55151
0.551552
0.551792
0.551886
0.551971
0.552101
0.55229
0.552488
0.552783
0.553171
0.553725
0.554568
0.555788
0.557454
0.559578
0.562291
0.565541
0.569496
0.574053
0.579181
0.584895
0.591018
0.597653
0.60466
0.612065
0.619874
0.627884
0.636231
0.644836
0.653624
0.662615
0.671865
0.681444
0.691323
0.701405
0.711752
0.722318
0.733209
0.743606
2.31
1.202
0.484453
0.432142
0.492311
0.552018
0.571901
0.571281
0.565697
0.560099
0.557743
0.557078
0.557225
0.557998
0.558963
0.560239
0.561937
0.564009
0.566322
0.56873
0.57115
0.573583
0.576034
0.578493
0.581025
0.583647
0.586379
0.589205
0.592191
0.595426
0.598917
0.602828
0.607061
0.611728
0.616772
0.622179
0.628097
0.634406
0.641121
0.648223
0.655754
0.663692
0.671876
0.680378
0.689189
0.698307
0.707814
0.717547
0.72761
0.737268
1.90334
0.820688
0.361278
0.358683
0.408308
0.443698
0.450719
0.44692
0.441967
0.439553
0.440034
0.442018
0.444818
0.447906
0.451189
0.455072
0.459773
0.465465
0.472193
0.479549
0.487338
0.495484
0.503917
0.512576
0.521408
0.53036
0.539348
0.548248
0.556991
0.565561
0.573889
0.582011
0.589902
0.597653
0.605373
0.612986
0.620607
0.628161
0.63579
0.643503
0.651413
0.659548
0.667737
0.676157
0.684754
0.693617
0.702621
0.711915
0.721485
0.730555
1.89807
0.819371
0.364709
0.362966
0.402828
0.429141
0.434375
0.433225
0.43184
0.431832
0.432843
0.434387
0.436251
0.437716
0.438881
0.440184
0.441846
0.444215
0.44738
0.450976
0.455052
0.459687
0.464976
0.471148
0.478289
0.486293
0.495009
0.504308
0.514127
0.524365
0.53483
0.545393
0.555987
0.566475
0.576689
0.586678
0.596586
0.606251
0.615719
0.625091
0.634244
0.643459
0.652641
0.66189
0.671133
0.68051
0.690024
0.699579
0.70945
0.718746
1.90258
0.817957
0.3576
0.378031
0.433644
0.473731
0.483124
0.480851
0.475914
0.472267
0.47113
0.471224
0.471779
0.472662
0.473723
0.474761
0.475894
0.477261
0.478705
0.480148
0.481492
0.482769
0.48426
0.486078
0.488291
0.490946
0.494188
0.498204
0.50299
0.508508
0.514875
0.522312
0.530942
0.540592
0.550732
0.56093
0.571111
0.581355
0.591656
0.60167
0.61106
0.620554
0.63035
0.640118
0.649919
0.659927
0.670049
0.68027
0.690689
0.700587
2.34839
1.13891
0.47988
0.452236
0.517802
0.580783
0.60331
0.60367
0.598294
0.592564
0.589472
0.587941
0.586833
0.586158
0.585762
0.58552
0.585584
0.586185
0.587103
0.588105
0.589044
0.589788
0.590277
0.590509
0.590396
0.589918
0.589247
0.588307
0.586998
0.585498
0.583853
0.582236
0.581052
0.581137
0.582266
0.584047
0.586979
0.590995
0.595973
0.601688
0.607787
0.614284
0.621462
0.62893
0.636459
0.644596
0.653506
0.66293
0.67273
0.682325
1.89747
0.814756
0.353843
0.36632
0.417826
0.45695
0.467605
0.467221
0.464771
0.462508
0.462186
0.463034
0.464286
0.465995
0.467978
0.470188
0.472884
0.476316
0.480766
0.48607
0.491987
0.498433
0.505302
0.512549
0.520072
0.527711
0.535319
0.542678
0.549551
0.555814
0.561399
0.566313
0.570596
0.57444
0.577973
0.581348
0.585026
0.589415
0.594493
0.599784
0.605127
0.610927
0.617219
0.623826
0.63076
0.638161
0.646083
0.654501
0.663448
0.672227
1.89615
0.816077
0.35801
0.368963
0.420703
0.461616
0.473893
0.474507
0.472555
0.47045
0.470202
0.47099
0.471915
0.472956
0.473987
0.47492
0.475893
0.477256
0.479062
0.48093
0.482876
0.484987
0.487409
0.490445
0.494289
0.498978
0.504432
0.510521
0.517099
0.524056
0.531238
0.538411
0.545505
0.552319
0.558666
0.564867
0.570786
0.576604
0.582792
0.589445
0.596448
0.603654
0.610976
0.618322
0.625665
0.633195
0.641069
0.649403
0.658146
0.666665
2.34691
1.13612
0.47922
0.452461
0.518138
0.582224
0.604974
0.605615
0.601023
0.59701
0.595338
0.595051
0.59537
0.595913
0.596235
0.596367
0.596697
0.597437
0.598471
0.599783
0.601212
0.602444
0.603263
0.603458
0.602937
0.601787
0.600027
0.597793
0.595568
0.59357
0.591453
0.589354
0.587691
0.586895
0.586933
0.587779
0.589239
0.591382
0.594418
0.598389
0.603178
0.608526
0.614298
0.620531
0.627281
0.634457
0.642005
0.650031
0.658459
0.666673
1.88465
0.808548
0.357765
0.383916
0.441378
0.481014
0.490537
0.487773
0.483681
0.481347
0.481
0.481328
0.482279
0.483669
0.485066
0.486841
0.489277
0.492073
0.495353
0.499331
0.504312
0.510429
0.5173
0.524511
0.531745
0.538777
0.545504
0.551651
0.556947
0.561726
0.566032
0.569803
0.573153
0.576609
0.580729
0.585014
0.589285
0.593641
0.598156
0.602902
0.607962
0.613405
0.619254
0.625463
0.632008
0.638939
0.646263
0.654047
0.662256
0.670289
1.86104
0.791954
0.350762
0.379331
0.429238
0.46286
0.472949
0.47337
0.472343
0.471656
0.472078
0.473136
0.47462
0.476239
0.47774
0.479324
0.480824
0.482081
0.483468
0.485339
0.487716
0.49038
0.493295
0.496563
0.500362
0.504816
0.509959
0.515662
0.52186
0.528395
0.535128
0.541955
0.548745
0.555707
0.563087
0.570556
0.577912
0.585154
0.592296
0.599379
0.606422
0.613408
0.620395
0.62749
0.634728
0.64228
0.650155
0.65832
0.666819
0.675075
1.85581
0.788111
0.349186
0.376758
0.425804
0.460092
0.471204
0.47197
0.471076
0.470457
0.470913
0.472266
0.474079
0.475851
0.4774
0.478698
0.479707
0.480394
0.481083
0.482105
0.483095
0.483862
0.484586
0.485503
0.48695
0.489473
0.493323
0.498248
0.504065
0.510642
0.517835
0.525509
0.53362
0.542061
0.55051
0.559011
0.5677
0.576499
0.585276
0.593925
0.602447
0.61095
0.619453
0.627949
0.636453
0.644985
0.653658
0.662592
0.671747
0.680457
1.87503
0.801147
0.352
0.364636
0.417289
0.458885
0.472816
0.473881
0.472987
0.472557
0.473466
0.475662
0.478361
0.480455
0.481809
0.482687
0.483349
0.483695
0.484306
0.485483
0.486306
0.486718
0.487128
0.48804
0.489749
0.492419
0.495996
0.500394
0.505556
0.51141
0.517928
0.525202
0.533101
0.541093
0.549265
0.557852
0.56671
0.575704
0.584826
0.594106
0.603441
0.612679
0.621762
0.630802
0.639963
0.649175
0.658366
0.667598
0.676895
0.685636
2.30901
1.1982
0.480334
0.429288
0.49188
0.557694
0.584364
0.588211
0.586258
0.584746
0.584406
0.585513
0.58771
0.589601
0.590781
0.591543
0.59211
0.59263
0.593125
0.593543
0.593801
0.593888
0.593792
0.593453
0.592877
0.592158
0.591286
0.590605
0.590735
0.591389
0.591964
0.592537
0.593397
0.594752
0.596535
0.598747
0.601826
0.605687
0.610239
0.615364
0.62091
0.626915
0.633438
0.640237
0.647301
0.654593
0.662092
0.669812
0.677774
0.685366
2.31693
1.21707
0.458734
0.404931
0.48007
0.555202
0.585913
0.590695
0.588412
0.58637
0.585783
0.586628
0.589011
0.591306
0.592691
0.59376
0.595056
0.596578
0.598175
0.599759
0.601292
0.602764
0.604224
0.60554
0.606521
0.607349
0.608126
0.608816
0.609308
0.609677
0.609909
0.61002
0.610156
0.61055
0.611241
0.61222
0.613717
0.615685
0.618071
0.620903
0.624187
0.627963
0.632261
0.637055
0.642382
0.64823
0.654575
0.661411
0.668727
0.675859
2.30806
1.19728
0.47932
0.429882
0.491304
0.555962
0.582461
0.586839
0.585183
0.583747
0.58345
0.584792
0.587251
0.589412
0.591001
0.592399
0.593938
0.595893
0.598056
0.600177
0.602175
0.603995
0.605653
0.607158
0.608035
0.60811
0.608013
0.607818
0.607558
0.607345
0.607247
0.6072
0.607235
0.607925
0.609514
0.611184
0.613046
0.615184
0.617562
0.620145
0.623001
0.626206
0.629851
0.633955
0.638562
0.643699
0.649355
0.655565
0.662312
0.668958
1.89002
0.81355
0.357089
0.366336
0.42049
0.463792
0.477843
0.478723
0.477668
0.477029
0.478163
0.481144
0.484468
0.487549
0.490938
0.49417
0.49718
0.500148
0.503294
0.506724
0.510527
0.514768
0.519913
0.525733
0.531446
0.537087
0.542795
0.548292
0.553571
0.559052
0.564775
0.570711
0.576705
0.582888
0.589434
0.596013
0.602484
0.608846
0.615091
0.621255
0.627324
0.633369
0.639418
0.645514
0.651708
0.658042
0.66455
0.671268
0.678247
0.684918
1.87124
0.802331
0.358802
0.38332
0.433096
0.467987
0.477935
0.477523
0.476595
0.476628
0.478208
0.480939
0.483352
0.485747
0.488737
0.49104
0.492469
0.493446
0.493969
0.494288
0.495043
0.496078
0.498433
0.502277
0.506224
0.510454
0.515295
0.521041
0.527406
0.534029
0.54143
0.549581
0.558277
0.567351
0.576626
0.585928
0.595087
0.60402
0.612856
0.621571
0.629918
0.637949
0.645703
0.653201
0.660522
0.667717
0.674849
0.681991
0.689211
0.696015
1.87429
0.804774
0.361108
0.395579
0.452656
0.488174
0.496539
0.49441
0.492174
0.491427
0.492229
0.494474
0.496648
0.49805
0.499837
0.501608
0.502409
0.502503
0.502114
0.50126
0.500575
0.499997
0.500408
0.502396
0.504666
0.507355
0.510844
0.515488
0.520974
0.527074
0.534459
0.54296
0.552278
0.56215
0.572377
0.582708
0.59289
0.602988
0.612921
0.62238
0.63136
0.639896
0.64803
0.655814
0.663328
0.670665
0.677884
0.685084
0.692341
0.699167
1.19952
1.06287
0.501989
0.194307
0.0249019
0.129461
0.185346
0.232525
0.252358
0.255304
0.243175
0.232601
0.222772
0.212585
0.199268
0.182917
0.163401
0.141326
0.117469
0.0925079
0.0670093
0.0415288
0.0198572
0.0189943
0.0436369
0.0682576
0.0929708
0.117098
0.140724
0.163884
0.186561
0.20874
0.230414
0.251301
0.271074
0.2904
0.310446
0.330691
0.350223
0.369086
0.387489
0.405478
0.423064
0.440304
0.457102
0.473542
0.489577
0.50522
0.520488
0.535339
0.549779
0.563799
0.577355
0.590435
0.603012
0.615042
0.626485
0.637343
0.647531
0.657007
0.665833
0.673821
0.681061
0.687434
0.692995
0.697689
0.701374
0.704255
0.706417
0.708104
0.709359
0.709699
0.709286
0.7082
0.706706
0.70503
0.703062
0.701035
0.698798
0.696616
0.694618
0.692824
0.691371
0.690022
0.688844
0.688165
0.688244
0.688882
0.689655
0.690562
0.691734
0.693096
0.69461
0.696184
0.697837
0.699425
0.700959
0.702425
0.703675
0.707324
1.13144
1.04806
0.811143
0.544458
0.495283
0.418873
0.364643
0.318948
0.286552
0.263625
0.228179
0.197529
0.183455
0.186659
0.196996
0.210317
0.225587
0.242201
0.2597
0.277678
0.295828
0.313895
0.331466
0.348539
0.365882
0.383249
0.40062
0.417962
0.435213
0.452357
0.46935
0.486151
0.502644
0.518602
0.533831
0.548498
0.563331
0.578528
0.593329
0.607561
0.62134
0.634737
0.647844
0.660726
0.673422
0.685924
0.698226
0.710301
0.722128
0.733698
0.744993
0.75597
0.766629
0.776949
0.786888
0.796412
0.805521
0.814168
0.822288
0.829883
0.836955
0.843418
0.849336
0.854627
0.859482
0.863511
0.867009
0.869818
0.872031
0.874038
0.875712
0.876823
0.87729
0.877251
0.876937
0.876427
0.875873
0.875311
0.874744
0.874217
0.873812
0.873678
0.873748
0.873886
0.873993
0.874254
0.874972
0.875946
0.876886
0.87777
0.878735
0.879702
0.880752
0.881736
0.882926
0.883841
0.884924
0.88566
0.886368
0.888882
1.08438
1.08636
1.01602
0.902138
0.830016
0.775998
0.736325
0.701979
0.674328
0.654079
0.63537
0.620041
0.609717
0.605272
0.604405
0.606063
0.609523
0.614427
0.620611
0.627888
0.636013
0.644671
0.653623
0.662861
0.672563
0.68266
0.693059
0.703585
0.714174
0.724835
0.735569
0.746331
0.757194
0.767947
0.778283
0.788267
0.798468
0.809244
0.82004
0.830323
0.840216
0.849838
0.859328
0.868716
0.877965
0.887023
0.895847
0.904418
0.912789
0.92096
0.928911
0.936636
0.944032
0.951112
0.957767
0.964088
0.969897
0.975362
0.980255
0.984753
0.9887
0.992247
0.995306
0.99794
1.00035
1.00217
1.00359
1.00468
1.00531
1.0059
1.0065
1.00664
1.00624
1.00534
1.00433
1.00326
1.00212
1.00094
0.999962
0.999225
0.998737
0.998652
0.998948