/*--------------------------------*- C++ -*----------------------------------*\
| =========                 |                                                 |
| \\      /  F ield         | OpenFOAM: The Open Source CFD Toolbox           |
|  \\    /   O peration     | Version:  2412                                  |
|   \\  /    A nd           | Website:  www.openfoam.com                      |
|    \\/     M anipulation  |                                                 |
\*---------------------------------------------------------------------------*/
FoamFile
{
    version     2.0;
    format      ascii;
    arch        "LSB;label=32;scalar=64";
    class       volScalarField;
    location    "11";
    object      p;
}
// * * * * * * * * * * * * * * * * * * * * * * * * * * * * * * * * * * * * * //

dimensions      [1 -1 -2 0 0 0 0];

internalField   nonuniform List<scalar> 
7000
(
1.6173
3.40787
10.6147
11.325
10.9248
10.4788
10.334
10.3448
10.3809
10.4212
10.4441
10.4584
10.4733
10.4917
10.5129
10.536
10.5608
10.5873
10.6159
10.6466
10.6799
10.7156
10.7537
10.7939
10.8362
10.8804
10.9263
10.9739
11.023
11.0736
11.1255
11.1786
11.2324
11.2867
11.3408
11.3948
11.4483
11.5012
11.5528
11.6036
11.6526
11.7003
11.7462
11.7895
11.8293
11.8646
11.8945
11.9186
11.9357
11.9476
1.61772
3.40634
10.6145
11.3243
10.9243
10.4785
10.3337
10.3445
10.3805
10.4208
10.4436
10.4579
10.4728
10.4911
10.5123
10.5354
10.5602
10.5866
10.6152
10.646
10.6792
10.7149
10.7529
10.7932
10.8354
10.8796
10.9255
10.973
11.0221
11.0726
11.1245
11.1775
11.2314
11.2856
11.3397
11.3936
11.4472
11.5001
11.5517
11.6025
11.6516
11.6994
11.7453
11.7887
11.8286
11.8641
11.8941
11.9184
11.9356
11.9478
1.61762
3.40553
10.6127
11.3235
10.9237
10.4778
10.3331
10.3439
10.3797
10.4198
10.4425
10.4568
10.4716
10.4899
10.5111
10.5341
10.5588
10.5852
10.6137
10.6445
10.6776
10.7132
10.7512
10.7913
10.8335
10.8776
10.9234
10.9708
11.0197
11.0702
11.1219
11.1748
11.2285
11.2825
11.3365
11.3903
11.4437
11.4964
11.5479
11.5986
11.6477
11.6953
11.7412
11.7845
11.8244
11.8599
11.8901
11.9146
11.932
11.9444
1.61751
3.40448
10.6095
11.3226
10.9229
10.4769
10.3321
10.3427
10.3785
10.4184
10.4409
10.4551
10.4698
10.488
10.5091
10.532
10.5567
10.583
10.6114
10.642
10.6751
10.7106
10.7484
10.7884
10.8305
10.8744
10.92
10.9672
11.016
11.0662
11.1178
11.1704
11.2238
11.2776
11.3314
11.3849
11.4381
11.4905
11.5418
11.5923
11.6412
11.6887
11.7345
11.7776
11.8174
11.853
11.8833
11.9081
11.9257
11.9383
1.61735
3.40291
10.6049
11.3214
10.9219
10.4756
10.3305
10.3411
10.3767
10.4163
10.4386
10.4526
10.4672
10.4853
10.5063
10.5291
10.5536
10.5799
10.6082
10.6386
10.6715
10.7068
10.7445
10.7843
10.8262
10.8699
10.9153
10.9622
11.0107
11.0606
11.1118
11.1641
11.2171
11.2705
11.3239
11.3772
11.43
11.482
11.5329
11.5831
11.6318
11.6791
11.7247
11.7676
11.8073
11.8429
11.8734
11.8984
11.9162
11.9291
1.61715
3.40079
10.5988
11.3199
10.9207
10.4738
10.3285
10.339
10.3742
10.4136
10.4356
10.4494
10.4639
10.4818
10.5026
10.5253
10.5497
10.5758
10.6039
10.6341
10.6668
10.7019
10.7394
10.7789
10.8205
10.8639
10.909
10.9556
11.0037
11.0532
11.104
11.1557
11.2083
11.2611
11.3141
11.3668
11.4191
11.4705
11.5209
11.5708
11.6191
11.6662
11.7114
11.7541
11.7936
11.8292
11.8598
11.885
11.9029
11.9162
1.61691
3.39804
10.5911
11.3181
10.9192
10.4717
10.3259
10.3362
10.3712
10.4101
10.4319
10.4454
10.4596
10.4774
10.498
10.5205
10.5447
10.5706
10.5985
10.6285
10.661
10.6958
10.7329
10.7721
10.8133
10.8563
10.901
10.9472
10.9948
11.0438
11.094
11.1451
11.197
11.2492
11.3015
11.3535
11.4051
11.4559
11.5056
11.5549
11.6029
11.6493
11.6942
11.7366
11.7759
11.8113
11.8419
11.8672
11.8853
11.8989
1.61664
3.39463
10.5817
11.3158
10.9173
10.469
10.3226
10.3328
10.3674
10.4059
10.4273
10.4405
10.4544
10.4719
10.4924
10.5146
10.5386
10.5643
10.5919
10.6217
10.6538
10.6882
10.7249
10.7638
10.8045
10.8471
10.8912
10.9368
10.9839
11.0322
11.0816
11.132
11.1831
11.2345
11.2859
11.3371
11.3877
11.4376
11.4865
11.5351
11.5827
11.6281
11.6725
11.7144
11.7533
11.7886
11.819
11.8444
11.8625
11.8764
1.61631
3.39053
10.5704
11.3131
10.9151
10.4659
10.3188
10.3287
10.3628
10.4008
10.4218
10.4347
10.4483
10.4655
10.4856
10.5076
10.5314
10.5568
10.5841
10.6135
10.6452
10.6792
10.7155
10.7538
10.794
10.836
10.8795
10.9244
10.9707
11.0182
11.0668
11.1162
11.1663
11.2166
11.2671
11.3172
11.3667
11.4154
11.4633
11.511
11.558
11.6019
11.6457
11.687
11.7254
11.7602
11.7903
11.8157
11.8338
11.8479
1.61595
3.38571
10.5572
11.3098
10.9124
10.4622
10.3142
10.3239
10.3574
10.3949
10.4153
10.4278
10.441
10.4579
10.4777
10.4994
10.5229
10.548
10.5749
10.6039
10.6352
10.6687
10.7043
10.742
10.7816
10.8229
10.8656
10.9098
10.9552
11.0017
11.0492
11.0975
11.1464
11.1955
11.2446
11.2934
11.3415
11.3888
11.4355
11.4821
11.5281
11.5703
11.613
11.6533
11.6909
11.7251
11.7547
11.7798
11.7979
11.8123
1.61554
3.38013
10.5419
11.306
10.9094
10.4579
10.3089
10.3182
10.3511
10.3879
10.4079
10.4198
10.4326
10.4491
10.4686
10.49
10.5131
10.5378
10.5643
10.5929
10.6235
10.6564
10.6914
10.7284
10.7672
10.8076
10.8495
10.8927
10.9371
10.9824
11.0287
11.0757
11.1231
11.1707
11.2183
11.2654
11.3118
11.3575
11.4027
11.4476
11.492
11.5324
11.5735
11.6125
11.6488
11.6821
11.711
11.7356
11.7535
11.7682
1.61511
3.37383
10.5245
11.3017
10.9059
10.453
10.3027
10.3117
10.3438
10.3799
10.3993
10.4107
10.423
10.4391
10.4582
10.4792
10.5019
10.5262
10.5522
10.5803
10.6102
10.6424
10.6767
10.7128
10.7507
10.7901
10.831
10.873
10.9162
10.9602
11.005
11.0504
11.0961
11.142
11.1876
11.2327
11.2772
11.3209
11.3642
11.4069
11.4489
11.4873
11.5262
11.5632
11.5976
11.6294
11.657
11.6809
11.6984
11.7134
1.61459
3.36661
10.5048
11.2969
10.9019
10.4474
10.2957
10.3042
10.3355
10.3709
10.3895
10.4004
10.4122
10.4277
10.4464
10.4669
10.4892
10.513
10.5385
10.5659
10.5952
10.6266
10.6599
10.695
10.7319
10.7702
10.8098
10.8506
10.8923
10.9348
10.9779
11.0214
11.0652
11.1089
11.1523
11.1951
11.2371
11.2785
11.3191
11.3589
11.3979
11.4338
11.4698
11.5039
11.5358
11.565
11.5907
11.6132
11.6299
11.6453
1.61401
3.35854
10.483
11.2916
10.8974
10.4411
10.2878
10.2958
10.3261
10.3606
10.3786
10.3888
10.4
10.415
10.4331
10.4532
10.475
10.4982
10.5231
10.5498
10.5782
10.6087
10.641
10.675
10.7106
10.7477
10.7859
10.8251
10.8652
10.9059
10.9471
10.9885
11.0299
11.0712
11.112
11.152
11.1912
11.2294
11.2667
11.3029
11.3382
11.3706
11.4027
11.4327
11.4606
11.4861
11.5087
11.5289
11.5441
11.5596
1.61338
3.34966
10.4591
11.2858
10.8926
10.4341
10.2789
10.2864
10.3156
10.3491
10.3663
10.3759
10.3864
10.4008
10.4183
10.4379
10.4591
10.4817
10.5059
10.5318
10.5593
10.5887
10.6198
10.6526
10.6868
10.7223
10.759
10.7965
10.8346
10.8733
10.9122
10.9512
10.99
11.0284
11.0661
11.1029
11.1386
11.1731
11.2063
11.2379
11.2684
11.2963
11.3229
11.3473
11.3695
11.3894
11.4068
11.4226
11.435
11.4506
1.6127
3.34003
10.4331
11.2796
10.8874
10.4265
10.2691
10.2759
10.3038
10.3363
10.3527
10.3614
10.3712
10.3849
10.4018
10.4208
10.4414
10.4634
10.4868
10.5117
10.5382
10.5664
10.5962
10.6275
10.6602
10.694
10.7288
10.7644
10.8004
10.8367
10.8731
10.9094
10.9451
10.9802
11.0144
11.0473
11.0788
11.1087
11.1369
11.163
11.1875
11.2096
11.2276
11.2445
11.2582
11.2694
11.2784
11.2867
11.2935
11.3076
1.61199
3.32974
10.4053
11.2731
10.8818
10.4182
10.2582
10.2643
10.2906
10.322
10.3375
10.3454
10.3544
10.3673
10.3836
10.4019
10.4219
10.4431
10.4656
10.4894
10.515
10.5417
10.57
10.5997
10.6307
10.6626
10.6954
10.7287
10.7623
10.796
10.8295
10.8626
10.8949
10.9262
10.9563
10.9848
11.0113
11.0358
11.0578
11.0772
11.0941
11.1079
11.1156
11.1214
11.1226
11.1206
11.1151
11.1094
11.1047
11.1143
1.61124
3.31896
10.3762
11.2663
10.876
10.4092
10.2462
10.2513
10.276
10.3061
10.3207
10.3277
10.3358
10.3479
10.3634
10.3811
10.4002
10.4206
10.4422
10.465
10.4891
10.5143
10.5411
10.569
10.598
10.6278
10.6583
10.6891
10.72
10.7508
10.7811
10.8106
10.8391
10.8661
10.8914
10.9147
10.9356
10.9535
10.9682
10.9792
10.9863
10.9885
10.9843
10.9745
10.9576
10.934
10.9041
10.8718
10.8411
10.8361
1.61048
3.30795
10.3465
11.2595
10.8701
10.3994
10.2328
10.2369
10.2596
10.2884
10.3021
10.3081
10.3153
10.3264
10.3412
10.3582
10.3765
10.396
10.4165
10.438
10.4606
10.4845
10.5094
10.5353
10.5621
10.5896
10.6175
10.6456
10.6735
10.701
10.7278
10.7534
10.7775
10.7997
10.8197
10.8371
10.8514
10.8615
10.8677
10.8681
10.8642
10.8529
10.8306
10.7995
10.757
10.7009
10.6299
10.5463
10.4554
10.3984
1.60975
3.29705
10.3172
11.2527
10.864
10.3888
10.2178
10.2206
10.2409
10.2684
10.2812
10.2864
10.2924
10.3026
10.3165
10.3329
10.3502
10.3688
10.3881
10.4083
10.4295
10.4517
10.4745
10.4984
10.5228
10.5477
10.5728
10.5979
10.6225
10.6464
10.6692
10.6905
10.7097
10.7267
10.7408
10.7515
10.7581
10.7594
10.7563
10.7461
10.7259
10.696
10.6539
10.5942
10.5163
10.4116
10.2732
10.0906
9.85747
9.60161
1.60887
3.28491
10.2839
11.2452
10.8566
10.375
10.1977
10.1988
10.2161
10.2423
10.2542
10.2582
10.2627
10.2715
10.2844
10.2997
10.3161
10.3333
10.3512
10.3698
10.389
10.4088
10.4294
10.4504
10.4719
10.4935
10.515
10.5362
10.5566
10.5759
10.5936
10.6093
10.6224
10.6325
10.639
10.6405
10.6383
10.6301
10.6123
10.5839
10.5443
10.4913
10.419
10.3212
10.1891
10.006
9.74377
9.33898
8.64541
7.13498
1.60814
3.27349
10.2536
11.2357
10.8458
10.3541
10.1679
10.1655
10.1809
10.2063
10.2177
10.221
10.2244
10.2314
10.2431
10.2574
10.2729
10.2887
10.3049
10.3216
10.3386
10.356
10.3735
10.3913
10.4091
10.4267
10.4439
10.4603
10.4756
10.4892
10.5008
10.5098
10.5156
10.5172
10.5153
10.5084
10.4932
10.4684
10.4339
10.3874
10.326
10.2452
10.1377
9.99457
9.80087
9.53226
9.14825
8.58165
7.74243
6.36335
1.608
3.26996
10.2458
11.2312
10.8376
10.3327
10.1357
10.1282
10.1429
10.1681
10.1793
10.1819
10.184
10.189
10.1989
10.2119
10.2262
10.2404
10.2549
10.2695
10.2843
10.2991
10.3137
10.3281
10.3425
10.3556
10.3685
10.3801
10.3901
10.398
10.4033
10.4052
10.404
10.3989
10.3872
10.367
10.3386
10.3005
10.2508
10.1866
10.1039
9.99734
9.85952
9.68003
9.4439
9.12989
8.70885
8.14115
7.4094
6.4372
1.60833
3.27193
10.2552
11.2123
10.8113
10.2902
10.0844
10.077
10.0931
10.1227
10.1365
10.1396
10.1415
10.1458
10.1545
10.1663
10.1791
10.1919
10.2046
10.2172
10.2297
10.2418
10.2535
10.2646
10.275
10.2845
10.2929
10.2992
10.3041
10.3062
10.3056
10.3023
10.294
10.2786
10.2568
10.2271
10.1883
10.1386
10.0755
9.99603
9.89623
9.77113
9.61414
9.41598
9.16569
8.84947
8.45265
7.9593
7.37739
6.64364
1.61051
3.31123
10.3516
11.2115
10.7877
10.2325
10.0156
10.0125
10.032
10.0691
10.0869
10.0909
10.0925
10.0963
10.1041
10.1147
10.1259
10.1371
10.1482
10.1591
10.1696
10.1796
10.1887
10.1969
10.204
10.2098
10.214
10.2163
10.2161
10.2143
10.209
10.1979
10.1817
10.1597
10.1309
10.0934
10.046
9.9867
9.91331
9.82297
9.71228
9.57705
9.41189
9.21041
8.96539
8.66896
8.31381
7.89228
7.40702
6.852
1.55926
3.4724
10.4099
11.0727
10.6769
10.154
9.94978
9.9515
9.97593
10.0185
10.0396
10.0456
10.0484
10.0531
10.0603
10.0689
10.0781
10.0872
10.096
10.1046
10.1125
10.1196
10.1258
10.1308
10.1343
10.1363
10.1364
10.135
10.1311
10.1229
10.1108
10.0945
10.0732
10.0457
10.011
9.96718
9.91313
9.84689
9.76681
9.66991
9.55375
9.41501
9.2498
9.05383
8.82267
8.5519
8.23821
7.87977
7.47526
7.02195
1.48794
4.68806
10.7173
10.6323
10.1962
9.91005
9.85752
9.87712
9.92063
9.95287
9.96822
9.97561
9.98212
9.98919
9.99743
10.0059
10.0142
10.0222
10.0298
10.0367
10.0429
10.048
10.0519
10.0545
10.0553
10.0548
10.0527
10.0478
10.0394
10.0277
10.0121
9.99199
9.96671
9.93487
9.89575
9.84763
9.78933
9.71921
9.63552
9.53618
9.41904
9.28162
9.12125
8.93508
8.7205
8.47505
8.19719
7.8862
7.54539
7.16618
1.49307
4.70749
10.7047
10.5619
10.0948
9.8559
9.83978
9.86419
9.91339
9.94286
9.95504
9.96042
9.96493
9.96984
9.97461
9.979
9.98301
9.98663
9.98978
9.9923
9.99407
9.99486
9.99462
9.99344
9.99078
9.98551
9.97824
9.9683
9.95519
9.93893
9.91915
9.89528
9.86649
9.83132
9.78853
9.7373
9.67636
9.60428
9.51957
9.42054
9.3055
9.17251
9.01983
8.84552
8.64812
8.42623
8.17931
7.90658
7.61541
7.29442
1.50802
4.73087
10.7976
10.6045
10.0517
9.78492
9.77969
9.81057
9.8708
9.90446
9.91707
9.92263
9.92745
9.9326
9.93717
9.94086
9.94356
9.94557
9.94665
9.94665
9.9461
9.94443
9.94099
9.93624
9.92972
9.921
9.90978
9.89607
9.87935
9.85941
9.83587
9.80799
9.77489
9.73602
9.69077
9.63779
9.57573
9.5032
9.41908
9.32202
9.21078
9.08394
8.94029
8.77862
8.59807
8.39816
8.17954
7.93963
7.68508
7.40872
1.50175
4.71985
10.7506
10.5688
10.0312
9.7669
9.76004
9.79026
9.84965
9.88272
9.89468
9.89936
9.90311
9.90665
9.90935
9.91077
9.911
9.91051
9.90895
9.90588
9.90213
9.89738
9.8912
9.88337
9.87372
9.86187
9.8474
9.83035
9.81011
9.78672
9.75954
9.72827
9.69222
9.65085
9.60313
9.54808
9.48508
9.41302
9.33089
9.23747
9.13149
9.01174
8.87747
8.72803
8.56298
8.38214
8.18534
7.97457
7.7513
7.51067
1.4734
4.67559
10.5607
10.4478
10.0204
9.78038
9.75822
9.78213
9.8312
9.86134
9.8731
9.87737
9.87986
9.88187
9.88283
9.88257
9.88125
9.87819
9.87376
9.86852
9.86243
9.85519
9.84649
9.83601
9.82348
9.80872
9.79133
9.77125
9.74798
9.72156
9.69137
9.65728
9.61862
9.5749
9.5255
9.46963
9.40661
9.33548
9.25533
9.16512
9.06425
8.95198
8.82762
8.69045
8.54001
8.37609
8.1992
8.01162
7.81377
7.60181
1.46001
4.63489
10.4955
10.4768
10.1218
9.82959
9.75408
9.76908
9.80651
9.83825
9.8517
9.85495
9.85535
9.85524
9.85461
9.85276
9.84893
9.84374
9.83756
9.83044
9.82225
9.81279
9.80178
9.78896
9.77407
9.75692
9.7372
9.71476
9.6891
9.66031
9.62782
9.59145
9.55082
9.50543
9.45489
9.3986
9.33588
9.26607
9.1885
9.10238
9.00701
8.90175
8.78607
8.65956
8.52216
8.37388
8.21512
8.04668
7.86992
7.68167
1.6429
3.14016
10.0329
10.8746
10.51
9.97718
9.76727
9.76742
9.78885
9.82946
9.84797
9.84963
9.84817
9.84483
9.84092
9.83668
9.83121
9.82464
9.81684
9.80784
9.79757
9.78583
9.77234
9.75695
9.73938
9.71945
9.69704
9.67179
9.64344
9.61189
9.5767
9.53786
9.49484
9.44748
9.39537
9.33805
9.27502
9.20589
9.13015
9.04722
8.95667
8.85785
8.75034
8.63379
8.50805
8.3733
8.22977
8.07798
7.91917
7.75075
1.65045
3.01198
9.96443
11.0784
10.663
10.0312
9.76209
9.74102
9.75912
9.79621
9.81275
9.81232
9.80902
9.80205
9.79487
9.78843
9.78179
9.77426
9.76558
9.75579
9.7448
9.73258
9.71896
9.70356
9.68607
9.66614
9.64361
9.61826
9.58964
9.55762
9.52198
9.48251
9.43897
9.39119
9.33899
9.28212
9.22033
9.15311
9.08001
9.00053
8.91415
8.82045
8.71918
8.61075
8.4953
8.37251
8.24219
8.10486
7.96151
7.80995
1.62555
2.89422
9.44871
10.8954
10.5728
10.0252
9.79067
9.76564
9.77725
9.7998
9.80557
9.80278
9.79505
9.78337
9.77273
9.76321
9.75379
9.74375
9.73269
9.72068
9.70767
9.69355
9.67811
9.66102
9.64201
9.62083
9.5972
9.57088
9.54154
9.50896
9.47288
9.43301
9.3893
9.34149
9.28948
9.23307
9.17201
9.10603
9.03485
8.95821
8.87595
8.78799
8.69416
8.5939
8.4867
8.37288
8.25315
8.12771
7.99761
7.86064
1.38678
4.4811
10.0033
10.3536
10.0932
9.82362
9.72573
9.72369
9.73147
9.74253
9.74381
9.74104
9.73361
9.72276
9.71241
9.70284
9.69346
9.6837
9.6734
9.66234
9.65011
9.63662
9.62165
9.60501
9.58646
9.5658
9.54275
9.51701
9.48834
9.45647
9.42117
9.38221
9.33945
9.29273
9.24192
9.18688
9.1275
9.06361
8.99511
8.92182
8.84358
8.76028
8.67168
8.57754
8.47811
8.37358
8.26391
8.14949
8.03066
7.90585
1.61719
2.8533
9.28472
10.7778
10.5028
9.99808
9.76757
9.72659
9.73173
9.74128
9.73998
9.73424
9.72198
9.70772
9.69493
9.68366
9.67285
9.66176
9.65002
9.63738
9.6236
9.60844
9.59163
9.57312
9.55286
9.53062
9.50616
9.4792
9.44948
9.41679
9.38091
9.34179
9.29911
9.25272
9.20253
9.14847
9.09045
9.02835
8.96208
8.89154
8.81666
8.7373
8.65347
8.56516
8.47251
8.37548
8.2743
8.16905
8.06009
7.94612
1.62852
2.78828
9.30827
10.9364
10.5801
9.96927
9.69595
9.65588
9.66606
9.68455
9.6842
9.67877
9.66576
9.64949
9.63606
9.62493
9.61456
9.60409
9.5931
9.58135
9.56862
9.55478
9.53967
9.52293
9.50427
9.48343
9.46025
9.43452
9.40604
9.37461
9.33999
9.30202
9.26056
9.21547
9.16663
9.114
9.05759
8.99739
8.9334
8.86565
8.79412
8.71881
8.6396
8.55655
8.46957
8.37865
8.28423
8.18675
8.0866
7.98203
1.62749
2.77465
9.26896
10.9101
10.5477
9.92247
9.63988
9.59865
9.61046
9.63354
9.63694
9.63296
9.62233
9.60738
9.59453
9.58351
9.57297
9.5621
9.55062
9.53834
9.52515
9.51089
9.49534
9.47827
9.4594
9.43854
9.41551
9.39013
9.36217
9.33145
9.29773
9.26082
9.22057
9.17688
9.12963
9.07877
9.0243
8.96628
8.90474
8.83974
8.77136
8.69963
8.6246
8.54634
8.465
8.38076
8.29372
8.20355
8.11046
8.01347
1.61621
2.80545
9.15667
10.72
10.4486
9.91926
9.65
9.59047
9.59533
9.60689
9.60721
9.6032
9.59272
9.57737
9.56328
9.55051
9.53816
9.52566
9.51277
9.4993
9.48509
9.46995
9.45365
9.43598
9.41669
9.39557
9.37242
9.34703
9.31924
9.28884
9.25567
9.21949
9.18022
9.13761
9.09179
9.04262
8.99008
8.9342
8.8751
8.81283
8.74751
8.67934
8.60842
8.53479
8.45848
8.37925
8.29797
8.21419
8.12805
8.03836
1.38524
4.4356
9.8513
10.1392
9.87882
9.62047
9.52874
9.52719
9.53578
9.5483
9.54973
9.54649
9.53875
9.5265
9.5142
9.50148
9.48844
9.47507
9.46131
9.44714
9.43245
9.41708
9.40075
9.38317
9.36406
9.3432
9.32038
9.29549
9.26834
9.23878
9.20664
9.17176
9.13397
9.0931
9.04904
9.00178
8.95137
8.89789
8.84132
8.78193
8.71982
8.65517
8.58802
8.51853
8.44679
8.3733
8.29696
8.21926
8.13973
8.05676
1.62072
2.82591
9.23773
10.7273
10.4198
9.83895
9.57294
9.53121
9.53969
9.55692
9.5583
9.55403
9.54282
9.5262
9.51035
9.49484
9.47901
9.46276
9.44619
9.42933
9.41218
9.39452
9.37602
9.35634
9.33511
9.31215
9.28736
9.26068
9.23204
9.20129
9.16835
9.13299
9.09499
9.05429
9.0107
8.96428
8.91502
8.86295
8.8082
8.75084
8.69109
8.62905
8.56482
8.49865
8.43086
8.36156
8.29083
8.21748
8.14297
8.06586
1.62762
2.9789
9.55996
10.6681
10.3143
9.70479
9.43878
9.41896
9.44035
9.48467
9.50235
9.5011
9.49451
9.48082
9.46588
9.45057
9.43422
9.41675
9.39855
9.37995
9.36131
9.34252
9.32317
9.30312
9.2821
9.2599
9.23625
9.21094
9.18372
9.15437
9.12266
9.0885
9.05184
9.0125
8.97045
8.92544
8.87751
8.82687
8.7737
8.71818
8.66048
8.60081
8.53957
8.47669
8.41231
8.34651
8.2794
8.21122
8.14103
8.06881
1.35347
4.47509
9.8259
10.0701
9.79564
9.49307
9.3959
9.40377
9.42924
9.45486
9.46229
9.46142
9.45636
9.44548
9.43255
9.41793
9.40162
9.38374
9.3651
9.34571
9.3263
9.30667
9.28663
9.26592
9.24419
9.22131
9.19704
9.17119
9.14353
9.11389
9.08211
9.04815
9.01175
8.97262
8.93095
8.88675
8.84002
8.79084
8.73934
8.68554
8.6298
8.57232
8.5133
8.45294
8.39117
8.32836
8.26464
8.20012
8.13501
8.06757
1.33431
4.47096
9.72078
9.93811
9.72275
9.49906
9.42965
9.43255
9.44141
9.45116
9.45142
9.45045
9.44542
9.43543
9.42407
9.4101
9.39356
9.37541
9.35529
9.33418
9.3126
9.29075
9.26863
9.24594
9.22266
9.19851
9.17324
9.14665
9.1185
9.08857
9.05665
9.02248
8.98582
8.94663
8.90467
8.86013
8.8132
8.76417
8.71304
8.66001
8.60526
8.54896
8.49109
8.43219
8.3727
8.31246
8.25159
8.19018
8.12819
8.06493
1.39659
4.51765
10.0517
10.0739
9.7472
9.40406
9.30197
9.31472
9.35114
9.3891
9.40801
9.41246
9.41153
9.40698
9.39716
9.38453
9.36963
9.35277
9.3339
9.31366
9.29256
9.27089
9.24871
9.22591
9.20232
9.17758
9.15173
9.12438
9.09548
9.06488
9.03245
8.9981
8.96139
8.92262
8.88108
8.83748
8.79103
8.74266
8.69177
8.63903
8.58436
8.52872
8.47191
8.41443
8.35722
8.29917
8.24084
8.1822
8.12313
8.06276
1.52582
3.29989
9.73303
10.6348
10.2707
9.63486
9.34835
9.32244
9.34308
9.38751
9.4114
9.41119
9.4066
9.39638
9.38466
9.37263
9.35928
9.34396
9.32539
9.30516
9.28325
9.26116
9.23774
9.21414
9.18998
9.16464
9.13946
9.11244
9.08428
9.05441
9.02271
8.98907
8.95131
8.91377
8.87155
8.82703
8.78054
8.73158
8.68037
8.62732
8.57291
8.51835
8.46285
8.40611
8.34987
8.293
8.23588
8.17834
8.12105
8.06288
1.38084
4.50078
9.95525
10.0402
9.73993
9.41565
9.30026
9.3027
9.31895
9.34295
9.35359
9.35312
9.35088
9.34538
9.33654
9.32584
9.31322
9.2974
9.28017
9.26066
9.24016
9.21898
9.19723
9.17495
9.15214
9.12854
9.10422
9.07865
9.05175
9.02316
8.99249
8.95985
8.92423
8.88678
8.84646
8.80346
8.75797
8.71073
8.66164
8.61086
8.55865
8.50585
8.45161
8.39662
8.34164
8.28669
8.23177
8.17751
8.12242
8.06658
1.37231
4.49558
9.91869
10.0124
9.71157
9.3843
9.26569
9.2679
9.28492
9.3133
9.32821
9.33144
9.32972
9.32512
9.31595
9.30481
9.29198
9.27818
9.26188
9.24378
9.22409
9.20296
9.18066
9.15728
9.13328
9.10856
9.08329
9.05708
9.03
9.0015
8.97121
8.93913
8.90494
8.86784
8.82858
8.78666
8.74254
8.69596
8.64906
8.5992
8.54829
8.49623
8.44384
8.39102
8.33824
8.28544
8.23223
8.17895
8.12586
8.07232
1.52747
3.30765
9.75362
10.6349
10.2574
9.5955
9.28687
9.23973
9.25321
9.28253
9.29559
9.29489
9.29089
9.28164
9.27193
9.26267
9.2529
9.24108
9.22664
9.21079
9.19244
9.17287
9.15183
9.13105
9.10909
9.08702
9.0646
9.04017
9.01623
8.98928
8.96023
8.92915
8.8954
8.85901
8.81984
8.77804
8.73401
8.68823
8.64059
8.59135
8.54109
8.49003
8.43865
8.38709
8.33528
8.28363
8.23235
8.18102
8.12993
8.07855
1.39454
4.53935
10.04
10.0203
9.64616
9.28708
9.17105
9.1806
9.21112
9.23887
9.2469
9.24511
9.23936
9.23143
9.22308
9.21647
9.20689
9.1949
9.18088
9.16548
9.14762
9.12838
9.10789
9.08669
9.06481
9.04248
9.02021
8.99663
8.97245
8.94759
8.9211
8.89245
8.86175
8.82907
8.79396
8.75549
8.71498
8.67241
8.62765
8.58117
8.53331
8.48449
8.43504
8.38514
8.33523
8.2853
8.23552
8.186
8.13681
8.08725
1.37981
4.56763
9.95522
9.92147
9.60932
9.3236
9.22474
9.22301
9.22997
9.23891
9.23904
9.23519
9.22692
9.21818
9.20845
9.20049
9.19003
9.17816
9.16347
9.14706
9.12905
9.10984
9.08967
9.06856
9.04674
9.02449
9.00201
8.97901
8.95573
8.93151
8.90629
8.87932
8.85011
8.81938
8.78668
8.75
8.71138
8.67023
8.62697
8.58172
8.53503
8.48681
8.43836
8.38938
8.33987
8.29086
8.24207
8.19368
8.14516
8.09649
1.37292
4.57201
9.92822
9.90037
9.60347
9.32417
9.21983
9.21385
9.21966
9.22564
9.22452
9.21834
9.20658
9.19562
9.18409
9.1737
9.16186
9.14905
9.13588
9.12104
9.10444
9.08666
9.06795
9.04804
9.02777
9.00706
8.98591
8.96437
8.94247
8.91992
8.89628
8.87128
8.84443
8.81591
8.78396
8.75026
8.71349
8.67418
8.63219
8.588
8.54229
8.49531
8.44762
8.39936
8.3508
8.30221
8.25395
8.20582
8.15783
8.10956
1.37226
4.531
9.91977
9.98572
9.67898
9.35133
9.22315
9.2117
9.2177
9.22315
9.22092
9.21327
9.19878
9.18526
9.17328
9.16176
9.14944
9.13537
9.12223
9.10666
9.08963
9.0718
9.05331
9.03386
9.01402
8.99394
8.97359
8.95309
8.93243
8.91113
8.88893
8.86595
8.84166
8.81368
8.78477
8.75294
8.71822
8.68068
8.64088
8.59881
8.5547
8.50878
8.46183
8.414
8.36613
8.3175
8.26911
8.22083
8.17271
8.12429
1.62831
2.98711
9.56936
10.6195
10.2686
9.6221
9.29943
9.22443
9.22833
9.2382
9.23677
9.22867
9.20983
9.18855
9.17241
9.15787
9.14325
9.12773
9.11133
9.09389
9.07586
9.05736
9.03933
9.02036
9.00187
8.98329
8.9649
8.94542
8.92802
8.90783
8.88726
8.86605
8.84237
8.81836
8.78982
8.76032
8.72788
8.69245
8.65439
8.61382
8.5704
8.52618
8.48015
8.43256
8.3844
8.33577
8.28692
8.238
8.1892
8.14024
1.63873
2.88661
9.56375
10.785
10.3664
9.6384
9.27767
9.19755
9.20486
9.22239
9.2225
9.21548
9.19635
9.17007
9.15033
9.13606
9.12119
9.10418
9.08572
9.06659
9.04733
9.02791
9.00946
8.99054
8.97183
8.95424
8.93677
8.91968
8.90248
8.8858
8.86787
8.8495
8.82945
8.80827
8.78444
8.75824
8.7295
8.69762
8.66283
8.62504
8.58443
8.54151
8.49643
8.44981
8.40207
8.35351
8.3044
8.255
8.20551
8.15573
1.62934
2.98797
9.57448
10.5995
10.2445
9.61581
9.30305
9.23043
9.23451
9.24433
9.24211
9.23152
9.20736
9.17919
9.15462
9.13186
9.11002
9.08889
9.06682
9.04512
9.02412
9.00351
8.98412
8.96597
8.94677
8.93021
8.91501
8.9001
8.88611
8.87233
8.85833
8.84339
8.82647
8.81037
8.78957
8.76629
8.74053
8.7115
8.67886
8.64273
8.60342
8.56126
8.51666
8.47008
8.42196
8.37269
8.32262
8.27205
8.22129
8.17028
1.37321
4.50739
9.92548
10.0398
9.72965
9.3744
9.23204
9.21824
9.22376
9.22503
9.21924
9.20225
9.17388
9.14907
9.12685
9.10413
9.08127
9.05783
9.0342
9.01014
8.98808
8.96602
8.9481
8.92886
8.91115
8.89548
8.88287
8.86987
8.85945
8.84983
8.84008
8.82996
8.81803
8.80471
8.78902
8.7693
8.74647
8.71998
8.68972
8.65551
8.6177
8.57664
8.53275
8.48649
8.43832
8.38869
8.33796
8.2865
8.23471
8.18261
1.37201
4.54707
9.93419
9.92744
9.63157
9.33324
9.22751
9.22567
9.23033
9.2294
9.22056
9.20042
9.17438
9.15138
9.12786
9.10239
9.07636
9.05246
9.02544
9.00143
8.97779
8.95226
8.93419
8.91378
8.89604
8.88173
8.86929
8.86037
8.85065
8.84265
8.83573
8.82772
8.81826
8.80685
8.79277
8.77531
8.75405
8.72874
8.70046
8.66707
8.62999
8.58947
8.54582
8.49952
8.45106
8.4009
8.34946
8.29714
8.24438
8.19128
1.39857
4.56817
10.0653
10.0079
9.62055
9.28929
9.18954
9.19569
9.21273
9.21573
9.20852
9.18944
9.16072
9.13319
9.11244
9.08632
9.06026
9.03461
9.00843
8.98299
8.95944
8.93537
8.91704
8.89913
8.88262
8.86959
8.85817
8.8511
8.84214
8.83644
8.8312
8.82474
8.81703
8.80722
8.79473
8.77866
8.75806
8.73494
8.70638
8.67366
8.63705
8.59676
8.55318
8.50681
8.45816
8.40769
8.35584
8.30303
8.24972
8.19602
2.96983
2.37178
2.90265
4.07538
4.01215
3.98745
3.92321
3.89127
3.88243
3.89256
3.92722
3.97354
4.01379
4.0515
4.09587
4.15063
4.21433
4.28389
4.35613
4.42857
4.49941
4.5675
4.63148
4.69362
4.74826
4.79671
4.83812
4.87345
4.90302
4.92705
4.94578
4.95938
4.96798
4.97171
4.97122
4.96815
4.9602
4.94568
4.92797
4.90757
4.88452
4.85906
4.83153
4.80217
4.77139
4.7395
4.70685
4.67373
4.64041
4.60713
4.57406
4.54137
4.50919
4.47765
4.44685
4.41691
4.38794
4.36008
4.33349
4.30835
4.28488
4.26329
4.24377
4.22654
4.21177
4.19975
4.19076
4.18486
4.18152
4.18129
4.18172
4.18338
4.18748
4.19618
4.20631
4.21728
4.22893
4.24067
4.25176
4.2615
4.26928
4.27488
4.27842
4.27946
4.27926
4.27822
4.27522
4.26877
4.26006
4.25072
4.24045
4.22931
4.21773
4.20596
4.1943
4.18305
4.17247
4.16272
4.15361
4.14583
3.99451
3.44005
3.64157
4.12008
4.03255
3.97282
3.91307
3.87757
3.87416
3.89176
3.93996
3.98944
4.02019
4.04895
4.08918
4.14274
4.20638
4.27608
4.34846
4.42105
4.49207
4.56033
4.62515
4.68737
4.74246
4.79081
4.83246
4.86795
4.89765
4.92177
4.94053
4.95413
4.96275
4.96642
4.96603
4.96361
4.95682
4.94254
4.92382
4.90327
4.8806
4.85558
4.8284
4.79937
4.76883
4.73717
4.70473
4.67178
4.63858
4.60537
4.57233
4.53964
4.50742
4.47582
4.44494
4.41491
4.38585
4.35789
4.33122
4.30601
4.28248
4.26085
4.24132
4.22405
4.20929
4.19724
4.18821
4.18241
4.17931
4.17921
4.17965
4.18133
4.18562
4.19465
4.20516
4.21621
4.22783
4.23958
4.25075
4.26063
4.26857
4.27424
4.27792
4.27897
4.27879
4.27779
4.275
4.26887
4.26002
4.25062
4.24036
4.22927
4.21767
4.20584
4.19409
4.18274
4.17215
4.16248
4.15377
4.14726
5.10609
4.34403
4.12042
4.15288
4.13184
4.07575
3.99328
3.94355
3.92967
3.93422
3.95163
3.98825
4.02504
4.06121
4.10363
4.15529
4.21575
4.2825
4.35248
4.4233
4.49294
4.56023
4.62427
4.68483
4.73965
4.78803
4.82994
4.86558
4.89516
4.91888
4.93707
4.95
4.95793
4.96087
4.96043
4.95828
4.95244
4.93978
4.92015
4.89885
4.87605
4.85125
4.82432
4.79551
4.76526
4.73384
4.70161
4.66882
4.63573
4.60259
4.56959
4.53688
4.50462
4.47293
4.44195
4.41181
4.38264
4.35457
4.32783
4.30255
4.27897
4.25741
4.23788
4.22054
4.206
4.19395
4.1849
4.17929
4.17664
4.17667
4.17726
4.17921
4.18369
4.19276
4.20317
4.21432
4.22603
4.23786
4.24915
4.2592
4.26737
4.27314
4.27686
4.27785
4.27769
4.27678
4.27419
4.26844
4.25949
4.24998
4.23977
4.22869
4.21712
4.20522
4.19337
4.1819
4.17122
4.16155
4.15289
4.14803
5.70688
4.97438
4.54431
4.34858
4.31128
4.24488
4.15313
4.07566
4.02894
4.0151
4.01902
4.03384
4.06665
4.10696
4.14666
4.1908
4.24186
4.29993
4.36313
4.42911
4.49483
4.55935
4.62129
4.67935
4.73273
4.78028
4.82154
4.85665
4.88575
4.90905
4.9268
4.93925
4.9467
4.94903
4.9486
4.94672
4.94174
4.93088
4.91167
4.89005
4.86704
4.84236
4.81582
4.78755
4.75779
4.72686
4.69501
4.6626
4.62984
4.59695
4.56412
4.53152
4.4993
4.46762
4.43661
4.4064
4.37716
4.34902
4.32221
4.29689
4.2733
4.25166
4.23219
4.21503
4.20046
4.18843
4.17937
4.1741
4.17199
4.1722
4.1731
4.17548
4.18056
4.18953
4.19989
4.21109
4.22288
4.23484
4.24635
4.25664
4.26522
4.27112
4.27504
4.27597
4.27591
4.27511
4.27274
4.26742
4.2585
4.24892
4.23876
4.22775
4.2162
4.20433
4.19236
4.18086
4.16991
4.16025
4.15067
4.14749
6.11218
5.47646
5.00343
4.71649
4.57078
4.46002
4.3505
4.25184
4.1786
4.13592
4.12102
4.12323
4.13284
4.15569
4.19423
4.23524
4.27957
4.32904
4.38382
4.4425
4.50269
4.56263
4.62076
4.67593
4.72708
4.77302
4.81309
4.84744
4.87586
4.89854
4.91572
4.92757
4.93443
4.936
4.93553
4.93374
4.9292
4.91947
4.90162
4.88039
4.85726
4.83248
4.80609
4.77817
4.74889
4.71847
4.68716
4.65521
4.62284
4.59027
4.5577
4.52529
4.49323
4.46164
4.43069
4.40052
4.3713
4.3432
4.31641
4.29114
4.26761
4.24604
4.22667
4.20964
4.19535
4.18354
4.17482
4.16975
4.16803
4.16826
4.16927
4.1719
4.17742
4.18638
4.19662
4.20766
4.21928
4.23112
4.24258
4.25302
4.26179
4.26814
4.27221
4.27331
4.2732
4.27242
4.27024
4.26543
4.25681
4.2473
4.2369
4.22618
4.21448
4.20278
4.19083
4.1794
4.16811
4.15862
4.14787
4.14542
6.42429
5.88716
5.43343
5.09261
4.86409
4.70166
4.56802
4.45205
4.35784
4.29014
4.24887
4.23173
4.2326
4.23857
4.25473
4.28778
4.3257
4.36751
4.41318
4.46254
4.51445
4.56755
4.62029
4.6712
4.71901
4.76262
4.8011
4.83422
4.86166
4.88357
4.90013
4.91147
4.9179
4.9188
4.9183
4.9165
4.91216
4.90304
4.88675
4.86653
4.84376
4.81911
4.79292
4.76537
4.73665
4.70688
4.67625
4.64494
4.61317
4.58113
4.54901
4.51699
4.48525
4.45393
4.4232
4.39322
4.36417
4.33623
4.3096
4.2845
4.26114
4.23975
4.22052
4.20373
4.18965
4.17829
4.16999
4.16469
4.1637
4.16389
4.16495
4.1677
4.17351
4.18252
4.1926
4.20338
4.21467
4.22618
4.23739
4.24775
4.25659
4.26318
4.26755
4.26904
4.26894
4.26827
4.26629
4.26192
4.25347
4.24452
4.23414
4.22358
4.21211
4.20058
4.18873
4.17737
4.16628
4.15638
4.14523
4.14212
6.67456
6.22141
5.80438
5.44856
5.17235
4.96594
4.80319
4.66753
4.55461
4.46533
4.40082
4.36028
4.33958
4.33834
4.34114
4.35101
4.37307
4.40724
4.44549
4.48622
4.52935
4.57453
4.62058
4.66612
4.70977
4.75028
4.78664
4.81822
4.84464
4.86594
4.88171
4.89261
4.89879
4.89922
4.89868
4.89688
4.89265
4.88388
4.86892
4.84993
4.82796
4.80379
4.77795
4.75084
4.72265
4.69354
4.66364
4.63308
4.60203
4.57065
4.53913
4.50765
4.47638
4.44549
4.41514
4.38552
4.3568
4.32919
4.30288
4.27809
4.25505
4.23397
4.21519
4.19874
4.18495
4.17392
4.16597
4.1608
4.16009
4.16032
4.1614
4.16418
4.17013
4.17917
4.18898
4.19936
4.21016
4.2211
4.23179
4.24172
4.25035
4.25696
4.26149
4.26335
4.2633