/*--------------------------------*- C++ -*----------------------------------*\
| =========                 |                                                 |
| \\      /  F ield         | OpenFOAM: The Open Source CFD Toolbox           |
|  \\    /   O peration     | Version:  2412                                  |
|   \\  /    A nd           | Website:  www.openfoam.com                      |
|    \\/     M anipulation  |                                                 |
\*---------------------------------------------------------------------------*/
FoamFile
{
    version     2.0;
    format      ascii;
    arch        "LSB;label=32;scalar=64";
    class       surfaceScalarField;
    location    "11";
    object      phi;
}
// * * * * * * * * * * * * * * * * * * * * * * * * * * * * * * * * * * * * * //

dimensions      [1 0 -1 0 0 0 0];

oriented        oriented;

internalField   nonuniform List<scalar> 
13790
(
0.00292531
-2.74409e-07
0.00274051
9.80081e-07
0.00279589
2.50095e-06
0.00279685
5.21481e-06
0.00279091
6.35395e-06
0.00278331
6.95451e-06
0.00277528
7.64445e-06
0.00276644
8.5012e-06
0.00275673
9.48298e-06
0.00274637
1.06126e-05
0.00273476
1.1786e-05
0.00272216
1.29541e-05
0.00270816
1.41524e-05
0.00269277
1.53998e-05
0.00267593
1.67385e-05
0.00265738
1.81879e-05
0.00263729
1.97645e-05
0.00261516
2.14864e-05
0.00259013
2.33961e-05
0.00256145
2.53916e-05
0.00252958
2.7592e-05
0.00249489
2.99417e-05
0.00245731
3.24446e-05
0.00241717
3.51025e-05
0.00237465
3.79254e-05
0.0023295
4.09136e-05
0.00228159
4.40729e-05
0.00223101
4.7418e-05
0.00217768
5.09701e-05
0.00212091
5.47424e-05
0.00206001
5.8729e-05
0.00199518
6.29392e-05
0.00192682
6.74116e-05
0.00185416
7.21589e-05
0.00177613
7.71301e-05
0.00169305
8.23003e-05
0.00160599
8.77389e-05
0.0015147
9.35103e-05
0.00141764
9.95347e-05
0.00131251
0.000105655
0.00119492
0.000111555
0.001073
0.0001172
0.00094867
0.000123269
0.000820237
0.000129414
0.000686585
0.00013462
0.000548631
0.000137798
0.000410035
0.000138627
0.00027319
0.000137016
0.000137181
0.000135811
0.00013648
0.00303366
-3.40456e-10
0.00284199
6.73274e-07
0.00289744
7.75738e-06
0.00289816
1.08292e-05
0.00289247
1.24894e-05
0.00288483
1.3915e-05
0.00287654
1.5545e-05
0.00286732
1.73714e-05
0.00285717
1.94118e-05
0.00284639
2.1684e-05
0.00283431
2.40436e-05
0.00282124
2.64286e-05
0.00280667
2.88708e-05
0.00279064
3.14294e-05
0.00277306
3.41671e-05
0.00275364
3.71271e-05
0.0027326
4.03444e-05
0.00270955
4.38454e-05
0.00268369
4.76605e-05
0.00265426
5.17559e-05
0.00262152
5.61636e-05
0.00258575
6.08898e-05
0.00254688
6.59326e-05
0.00250533
7.12983e-05
0.00246134
7.70132e-05
0.00241467
8.30813e-05
0.00236517
8.95153e-05
0.00231291
9.6342e-05
0.00225779
0.000103602
0.00219908
0.000111317
0.00213607
0.000119472
0.00206897
0.000128082
0.00199816
0.000137223
0.00192288
0.000146921
0.00184199
0.000157072
0.00175584
0.000167622
0.00166556
0.000178703
0.00157093
0.000190433
0.00147037
0.000202654
0.00136152
0.000215045
0.00123989
0.00022693
0.00111398
0.000238221
0.000986021
0.000250129
0.000854416
0.000262038
0.000717836
0.000272225
0.000576586
0.000278915
0.000433489
0.000281763
0.000289686
0.000281012
0.000145073
0.000280232
0.000280833
0.00314642
9.51039e-08
0.00294728
9.43832e-07
0.00300502
1.28655e-05
0.00300564
1.67633e-05
0.00299981
1.87894e-05
0.00299204
2.09917e-05
0.00298353
2.36517e-05
0.00297401
2.65449e-05
0.00296353
2.96944e-05
0.00295238
3.31445e-05
0.00293991
3.67154e-05
0.0029264
4.03438e-05
0.00291134
4.40722e-05
0.00289477
4.79859e-05
0.00287659
5.21732e-05
0.0028565
5.66954e-05
0.00283475
6.16125e-05
0.00281091
6.69615e-05
0.00278415
7.27591e-05
0.00275371
7.90045e-05
0.00271981
8.5704e-05
0.00268279
9.28879e-05
0.00264256
0.000100558
0.00259956
0.000108725
0.00255401
0.000117431
0.00250568
0.000126685
0.00245443
0.000136506
0.00240035
0.000146936
0.00234332
0.000158034
0.00228258
0.000169832
0.00221735
0.000182306
0.00214788
0.000195479
0.00207458
0.000209463
0.00199663
0.000224296
0.00191286
0.000239824
0.00182362
0.000255959
0.00173011
0.000272892
0.00163209
0.000290789
0.00152796
0.000309413
0.00141529
0.000328264
0.00128946
0.000346288
0.00115927
0.000363292
0.00102722
0.000380977
0.000891721
0.000398557
0.000751213
0.000413816
0.000605504
0.000424564
0.000456927
0.000430416
0.000306235
0.00043193
0.000153539
0.000432764
0.00043365
0.00326339
1.17349e-07
0.0030569
1.3274e-06
0.00311708
1.77795e-05
0.00311777
2.28658e-05
0.00311175
2.53238e-05
0.00310379
2.82384e-05
0.00309509
3.19571e-05
0.0030853
3.59839e-05
0.00307452
4.03043e-05
0.00306303
4.49783e-05
0.00305018
4.97952e-05
0.00303624
5.47005e-05
0.00302069
5.97558e-05
0.00300357
6.50697e-05
0.00298477
7.07515e-05
0.00296402
7.68847e-05
0.00294155
8.35525e-05
0.00291694
9.0806e-05
0.00288929
9.86511e-05
0.00285785
0.000107119
0.00282282
0.000116191
0.00278454
0.000125917
0.00274294
0.000136304
0.00269846
0.000147367
0.00265138
0.000159165
0.00260142
0.00017171
0.00254845
0.00018503
0.00249252
0.000199179
0.00243355
0.000214236
0.00237076
0.00023025
0.00230337
0.000247191
0.00223158
0.000265088
0.00215579
0.000284089
0.00207519
0.000304244
0.00198855
0.00032535
0.00189622
0.000347284
0.00179945
0.00037029
0.00169803
0.000394587
0.00159028
0.000419849
0.00147374
0.000445398
0.00134354
0.000469801
0.00120876
0.000492684
0.00107214
0.000516231
0.000932114
0.000539603
0.000786824
0.000560267
0.000635731
0.000575645
0.000480986
0.000585271
0.000323038
0.000590146
0.00016222
0.000593452
0.00059515
0.00338462
1.44326e-07
0.00317062
1.71638e-06
0.00323318
2.26837e-05
0.00323399
2.90623e-05
0.00322781
3.20297e-05
0.00321967
3.56594e-05
0.00321079
4.04586e-05
0.00320079
4.56572e-05
0.00318975
5.12133e-05
0.00317797
5.71551e-05
0.00316476
6.32531e-05
0.00315042
6.94704e-05
0.0031344
7.58932e-05
0.00311674
8.26517e-05
0.00309735
8.98766e-05
0.00307593
9.76673e-05
0.00305278
0.000106135
0.00302742
0.000115341
0.00299894
0.000125288
0.0029665
0.000136058
0.00293036
0.000147567
0.00289086
0.000159909
0.00284793
0.000173097
0.00280204
0.000187145
0.00275348
0.000202131
0.00270197
0.000218072
0.00264733
0.000235003
0.00258961
0.000252989
0.00252872
0.000272131
0.00246391
0.000292496
0.00239436
0.000314054
0.00232027
0.000336841
0.00224207
0.000361036
0.00215888
0.000386707
0.00206943
0.000413602
0.00197403
0.000441563
0.001874
0.000470882
0.00176913
0.000501833
0.00165768
0.000534012
0.00153718
0.000566557
0.00140242
0.000597662
0.00126269
0.00062669
0.001121
0.000656363
0.00097574
0.000685842
0.000824914
0.000712298
0.000667661
0.00073299
0.00050586
0.000747255
0.000340257
0.000756078
0.00017105
0.000762591
0.000765535
0.00351034
1.63394e-07
0.00328857
2.13108e-06
0.00335356
2.75662e-05
0.00335455
3.5332e-05
0.00334829
3.88835e-05
0.00333997
4.32443e-05
0.00333092
4.91425e-05
0.00332071
5.55415e-05
0.00330947
6.23843e-05
0.00329744
6.96399e-05
0.00328392
7.70564e-05
0.00326921
8.46209e-05
0.00325274
9.24491e-05
0.00323457
0.000100694
0.00321461
0.000109504
0.00319257
0.000118996
0.00316875
0.000129305
0.00314269
0.000140505
0.00311346
0.000152625
0.00308006
0.000165743
0.00304284
0.000179758
0.00300216
0.000194793
0.00295796
0.000210864
0.00291071
0.000227988
0.00286071
0.000246258
0.00280765
0.000265699
0.00275134
0.000286353
0.00269183
0.000308294
0.00262906
0.000331641
0.00256232
0.000356487
0.00249074
0.000382805
0.00241449
0.000410637
0.00233396
0.000440197
0.00224827
0.000471576
0.00215606
0.00050448
0.00205761
0.00053871
0.00195431
0.000574604
0.00184598
0.000612494
0.00173079
0.000651906
0.00160626
0.000691815
0.00146678
0.000730037
0.00132174
0.000765628
0.0011745
0.000801824
0.00102339
0.000837888
0.000866175
0.000870757
0.000701933
0.00089735
0.00053247
0.000916912
0.000358279
0.000930639
0.00018025
0.000940621
0.000945168
0.00364071
1.8638e-07
0.00341092
2.53073e-06
0.00347843
3.24615e-05
0.0034796
4.16516e-05
0.00347328
4.58337e-05
0.00346484
5.09595e-05
0.00345566
5.79796e-05
0.0034453
6.56097e-05
0.00343392
7.37763e-05
0.00342168
8.23862e-05
0.0034079
9.11614e-05
0.00339285
0.000100104
0.00337597
0.00010938
0.00335731
0.00011915
0.0033368
0.000129587
0.00331417
0.000140826
0.00328972
0.000153011
0.00326301
0.000166251
0.00323309
0.000180621
0.00319873
0.0001961
0.00316037
0.00021271
0.0031185
0.000230514
0.00307302
0.000249545
0.00302441
0.000269825
0.00297303
0.000291468
0.0029186
0.00031451
0.00286083
0.000338989
0.0027997
0.000364993
0.00273516
0.000392665
0.00266649
0.000422121
0.00259286
0.000453339
0.00251443
0.000486364
0.00243164
0.000521447
0.00234357
0.000558714
0.00224876
0.000597846
0.00214741
0.000638597
0.00204094
0.000681343
0.0019292
0.000726479
0.00181028
0.000773485
0.00168171
0.000821184
0.00153742
0.000867047
0.0013867
0.000909797
0.0012334
0.000953034
0.00107579
0.000996337
0.000911468
0.00103632
0.000739342
0.00106968
0.000561197
0.00109532
0.000377962
0.00111435
0.000190072
0.00112865
0.00113467
0.0037759
2.09556e-07
0.00353783
2.92431e-06
0.00360794
3.73475e-05
0.00360931
4.79928e-05
0.00360301
5.28438e-05
0.0035945
5.87635e-05
0.00358522
6.69303e-05
0.00357475
7.58166e-05
0.00356328
8.53395e-05
0.0035509
9.53445e-05
0.0035369
0.000105519
0.00352158
0.000115899
0.00350429
0.000126672
0.00348511
0.000138028
0.00346398
0.00015015
0.00344058
0.000163184
0.00341531
0.000177291
0.00338787
0.000192608
0.00335735
0.000209237
0.00332236
0.000227151
0.00328317
0.000246376
0.00324027
0.000266994
0.00319363
0.000289041
0.00314377
0.000312541
0.00309108
0.000337625
0.00303521
0.000364336
0.00297591
0.000392717
0.00291319
0.000422872
0.00284706
0.000454973
0.00277678
0.000489173
0.00270143
0.000525455
0.00262106
0.000563853
0.00253614
0.000604642
0.00244579
0.000647995
0.00234847
0.00069358
0.00224431
0.00074111
0.00213473
0.000790987
0.00201964
0.000843688
0.00189702
0.000898677
0.0017644
0.00095465
0.00161534
0.0010088
0.00145858
0.0010594
0.00129884
0.00111038
0.00113422
0.0011617
0.000962031
0.00120975
0.000781237
0.00125069
0.000593434
0.00128333
0.000399642
0.00130864
0.000201066
0.0013273
0.00133525
0.0039161
2.32043e-07
0.00366948
3.30529e-06
0.00374228
4.22047e-05
0.00374389
5.43166e-05
0.00373768
5.98617e-05
0.00372914
6.65995e-05
0.00371984
7.59348e-05
0.00370932
8.61011e-05
0.00369785
9.70077e-05
0.00368539
0.000108442
0.00367124
0.000120057
0.0036557
0.000131912
0.00363807
0.000144228
0.00361848
0.000157216
0.00359683
0.000171072
0.00357283
0.000185946
0.0035469
0.000202022
0.00351883
0.000219463
0.00348769
0.000238385
0.00345205
0.000258768
0.00341206
0.000280634
0.00336823
0.000304096
0.00332055
0.000329201
0.00326953
0.000355973
0.0032156
0.000384566
0.00315839
0.000415035
0.0030976
0.000447412
0.00303332
0.000481808
0.00296565
0.000518428
0.00289392
0.000557473
0.00281709
0.000598943
0.00273508
0.00064286
0.00264831
0.000689521
0.00255592
0.000739155
0.00245629
0.000791438
0.00234943
0.000846022
0.00223683
0.000903327
0.00211846
0.000963937
0.00199217
0.00102734
0.00185549
0.00109213
0.00170184
0.00115533
0.00153864
0.00121467
0.00137194
0.00127421
0.00119967
0.00133455
0.00101886
0.0013918
0.000828346
0.00144168
0.000629735
0.00148222
0.000424466
0.00151449
0.000213644
0.00153842
0.00154851
0.00406147
2.52136e-07
0.00380605
3.66398e-06
0.00388166
4.69985e-05
0.00388355
6.05829e-05
0.00387751
6.68103e-05
0.00386901
7.4393e-05
0.00385975
8.49138e-05
0.00384928
9.63812e-05
0.00383788
0.000108696
0.00382543
0.000121592
0.00381121
0.000134685
0.00379552
0.000148051
0.00377763
0.000161953
0.00375768
0.000176608
0.0037356
0.000192234
0.00371116
0.000208988
0.00368476
0.00022706
0.00365621
0.00024666
0.00362455
0.000267917
0.00358822
0.000290785
0.00354727
0.000315368
0.00350241
0.000341721
0.00345366
0.000369929
0.00340156
0.000400022
0.00334664
0.000432184
0.00328844
0.000466479
0.0032265
0.00050293
0.0031609
0.000541649
0.00309183
0.000582866
0.00301874
0.00062684
0.00294053
0.0006736
0.00285698
0.000723155
0.00276854
0.000775825
0.00267438
0.000831911
0.00257277
0.000891109
0.00246355
0.000953015
0.00234819
0.00101805
0.00222674
0.00108692
0.00209697
0.00115919
0.00195638
0.00123346
0.00179842
0.00130667
0.00162846
0.00137563
0.00145459
0.00144477
0.00127431
0.00151527
0.00108426
0.00158306
0.000883105
0.00164329
0.000672174
0.00169341
0.000453348
0.00173399
0.000228156
0.00176404
0.0017762
0.00421219
2.71891e-07
0.00394778
4.0038e-06
0.00402625
5.17518e-05
0.00402837
6.65408e-05
0.00402276
7.37041e-05
0.00401436
8.20701e-05
0.00400522
9.37673e-05
0.00399488
0.000106553
0.00398366
0.000120301
0.0039713
0.000134697
0.00395708
0.000149308
0.00394136
0.000164241
0.00392327
0.000179774
0.003903
0.000196149
0.00388048
0.000213589
0.00385546
0.000232256
0.00382841
0.00025236
0.00379933
0.000274129
0.0037673
0.000297716
0.00373078
0.000323133
0.00368938
0.000350431
0.00364384
0.000379696
0.00359428
0.000411036
0.00354123
0.000444478
0.00348533
0.000480234
0.00342617
0.000518403
0.00336321
0.000558996
0.00329646
0.000602108
0.00322621
0.000647987
0.00315204
0.00069695
0.00307279
0.000749077
0.00298808
0.000804377
0.00289828
0.000863197
0.00280264
0.000925921
0.00269932
0.000992281
0.002588
0.00106179
0.0024701
0.00113484
0.00234582
0.00121231
0.00221284
0.00129394
0.00206864
0.00137838
0.00190691
0.00146261
0.00173008
0.0015424
0.00154836
0.00162224
0.00135928
0.00170435
0.00115903
0.00178433
0.000946178
0.00185666
0.00072161
0.00191817
0.000487588
0.00196859
0.000245651
0.00200621
0.0020218
0.00436834
2.99013e-07
0.00409482
4.42808e-06
0.00417606
5.60911e-05
0.00417905
7.25211e-05
0.00417365
8.01869e-05
0.0041654
8.94302e-05
0.00415652
0.000102353
0.00414646
0.00011648
0.00413555
0.000131698
0.00412339
0.00014763
0.00410928
0.000163798
0.00409361
0.000180339
0.00407541
0.000197553
0.00405492
0.000215684
0.00403206
0.000234984
0.00400666
0.000255619
0.0039792
0.000277788
0.00394972
0.000301753
0.00391729
0.000327687
0.00388042
0.000355665
0.00383845
0.000385684
0.00379219
0.000417882
0.00374181
0.000452361
0.00368797
0.000489155
0.00363146
0.000528509
0.00357183
0.000570571
0.0035083
0.000615347
0.00344074
0.000662908
0.00336951
0.000713502
0.00329436
0.000767498
0.0032142
0.000825027
0.00312859
0.000886113
0.00303793
0.000951144
0.00294149
0.00102063
0.00283721
0.00109438
0.00272437
0.0011718
0.00260435
0.00125321
0.00247758
0.00133968
0.00234182
0.00143121
0.00219442
0.00152657
0.00202925
0.00162288
0.00184583
0.00171464
0.00165648
0.00180645
0.00145863
0.00190186
0.00124762
0.00199629
0.00102151
0.00208335
0.000781137
0.00215852
0.000528771
0.00222171
0.00026708
0.00226842
0.00228841
0.00453038
3.20603e-07
0.00424729
4.76621e-06
0.0043317
6.02351e-05
0.00433545
7.80452e-05
0.00433036
8.63109e-05
0.00432249
9.63763e-05
0.00431403
0.000110527
0.0043044
0.000126012
0.00429392
0.000142735
0.00428205
0.000160244
0.00426815
0.000178014
0.00425267
0.000196215
0.00423449
0.000215164
0.00421387
0.000235107
0.00419077
0.000256317
0.00416495
0.000278958
0.00413701
0.000303228
0.0041071
0.000329407
0.00407442
0.000357697
0.00403757
0.00038821
0.00399559
0.000420969
0.00394914
0.00045609
0.00389831
0.000493712
0.00384376
0.000533858
0.00378653
0.000576789
0.0037264
0.000622715
0.00366248
0.000671661
0.00359445
0.000723685
0.00352266
0.000779031
0.00344695
0.000838107
0.00336624
0.000901091
0.00327997
0.000968
0.00318864
0.00103924
0.00309175
0.00111548
0.00298715
0.00119668
0.00287362
0.00128221
0.00275228
0.0013723
0.00262372
0.00146817
0.00248589
0.00157017
0.00233602
0.00167719
0.00216814
0.0017866
0.00197863
0.00189222
0.00178124
0.00199744
0.00157399
0.00210797
0.00135159
0.00221929
0.00111155
0.00232381
0.000853621
0.00241673
0.000580041
0.00249553
0.000293085
0.00255549
0.00258088
0.00469842
3.3773e-07
0.00440538
5.05128e-06
0.00449323
6.39222e-05
0.00449783
8.30008e-05
0.00449328
9.18587e-05
0.004486
0.000102725
0.00447815
0.000118097
0.00446913
0.000134952
0.00445921
0.000153218
0.00444776
0.000172352
0.00443418
0.000191779
0.00441903
0.000211696
0.00440101
0.000232441
0.00438041
0.000254245
0.00435721
0.000277415
0.0043312
0.000302113
0.00430304
0.000328513
0.0042729
0.000356916
0.00424003
0.000387561
0.00420307
0.000420612
0.00416086
0.000456104
0.00411414
0.000494109
0.00406309
0.000534837
0.00400819
0.000578317
0.00395057
0.0006248
0.00389021
0.00067455
0.00382622
0.000727621
0.00375816
0.000784071
0.00368631
0.000844148
0.00361058
0.000908307
0.00352985
0.000976789
0.0034434
0.00104959
0.00335181
0.00112709
0.00325486
0.00121009
0.00315041
0.00129876
0.00303689
0.00139248
0.00291512
0.00149142
0.0027858
0.00159698
0.00264702
0.00170985
0.00249585
0.00182915
0.00232653
0.00195263
0.00213238
0.00207383
0.00192794
0.0021942
0.00171193
0.00232208
0.001478
0.00245342
0.0012221
0.00257991
0.000943322
0.00269475
0.000644476
0.00279442
0.000327835
0.00287206
0.00290811
0.00487266
3.50991e-07
0.00456935
5.27615e-06
0.00466086
6.69698e-05
0.00466654
8.71728e-05
0.00466277
9.65743e-05
0.00465634
0.000108226
0.00464931
0.000124826
0.00464107
0.000143069
0.00463185
0.000162933
0.00462096
0.000183762
0.00460782
0.000204915
0.00459318
0.000226621
0.0045755
0.000249227
0.00455508
0.000272972
0.00453191
0.000298151
0.00450573
0.000324941
0.00447729
0.000353485
0.00444693
0.000384101
0.00441406
0.0004171
0.00437732
0.000452701
0.0043352
0.000490871
0.00428846
0.000531742
0.00423741
0.000575546
0.00418244
0.000622331
0.00412467
0.000672319
0.00406431
0.000725827
0.00400049
0.000782949
0.00393271
0.000843738
0.00386129
0.000908436
0.0037863
0.00097756
0.00370652
0.00105145
0.00362092
0.00113011
0.00352997
0.00121388
0.00343378
0.00130363
0.00333034
0.00139977
0.00321764
0.00150178
0.00309621
0.0016097
0.002967
0.00172507
0.00282832
0.00184904
0.00267704
0.00198104
0.00250773
0.00211942
0.00231059
0.00225806
0.00209975
0.00239603
0.0018755
0.00254346
0.00163035
0.00269822
0.00135909
0.00285108
0.00105879
0.00299498
0.000728765
0.00312476
0.000372402
0.00322828
0.00327964
0.00505333
3.58514e-07
0.00473943
5.42903e-06
0.00483486
6.91452e-05
0.00484188
9.02748e-05
0.00483917
0.000100149
0.00483391
0.00011258
0.00482798
0.000130424
0.00482078
0.000150104
0.00481247
0.000171647
0.0048023
0.000194256
0.00478976
0.000217225
0.00477577
0.000240795
0.00475859
0.000265349
0.00473846
0.000291132
0.00471546
0.000318379
0.00468918
0.000347297
0.00466049
0.000378
0.00462989
0.000410834
0.00459712
0.000446179
0.00456086
0.000484275
0.00451929
0.00052504
0.00447294
0.00056875
0.0044224
0.000615521
0.00436786
0.000665518
0.00431036
0.000718919
0.00425036
0.000776082
0.0041871
0.000837144
0.00411988
0.000902165
0.00404898
0.000971364
0.00397476
0.00104529
0.00389623
0.0011244
0.00381217
0.00120878
0.00372275
0.00129866
0.00362833
0.00139502
0.00352713
0.00149853
0.00341674
0.00160875
0.00329717
0.00172562
0.0031696
0.00185077
0.0030327
0.00198582
0.00288324
0.00213069
0.00271642
0.0022844
0.00252056
0.00244212
0.00230548
0.00260012
0.00207536
0.00276936
0.00182078
0.00295196
0.00153401
0.00313766
0.00120866
0.00331928
0.000843375
0.00348918
0.000437249
0.00363405
0.00371556
0.00524065
3.61856e-07
0.00491585
5.47219e-06
0.00501555
7.01282e-05
0.0050243
9.19017e-05
0.0050231
0.000102159
0.00501944
0.000115377
0.00501488
0.000134535
0.00500891
0.000155736
0.00500166
0.000179099
0.00499237
0.000203632
0.00498057
0.000228529
0.00496746
0.000254067
0.00495109
0.000280668
0.00493138
0.00030857
0.00490868
0.00033797
0.00488242
0.000369027
0.00485358
0.000401914
0.00482286
0.000436956
0.00479027
0.000474581
0.00475462
0.000515047
0.00471395
0.000558468
0.00466777
0.000604913
0.0046176
0.000654534
0.00456365
0.000707601
0.00450677
0.000764281
0.00444756
0.000824946
0.00438537
0.000889794
0.0043195
0.000958873
0.00425007
0.00103239
0.00417759
0.00111088
0.00410131
0.00119496
0.00401971
0.00128478
0.00393284
0.00138052
0.00384138
0.00148327
0.00374363
0.0015939
0.00363678
0.00171213
0.00352049
0.001838
0.00339628
0.0019725
0.00326303
0.00211838
0.00311752
0.00227599
0.00295547
0.00244522
0.00276539
0.00262344
0.00254915
0.00280238
0.00231747
0.00299526
0.00205817
0.00320898
0.00175982
0.00343451
0.00141226
0.00366587
0.0010046
0.00389613
0.000530209
0.0041069
0.00424363
0.00543488
3.552e-07
0.00509886
5.38746e-06
0.00520317
6.94978e-05
0.00521415
9.15253e-05
0.00521507
0.000102081
0.00521345
0.000116146
0.00521063
0.000136759
0.00520618
0.000159669
0.00520024
0.00018507
0.005192
0.000211713
0.00518114
0.000238676
0.00516909
0.000266288
0.0051537
0.000295033
0.00513455
0.000325139
0.00511225
0.000356772
0.00508615
0.00039001
0.00505714
0.000425073
0.00502615
0.000462302
0.00499357
0.000502135
0.00495859
0.00054493
0.00491951
0.000590912
0.00487464
0.000639933
0.00482556
0.000692275
0.00477283
0.000748221
0.00471716
0.000807953
0.00465933
0.000871879
0.00459878
0.000940281
0.00453452
0.00101323
0.00446673
0.00109083
0.0043961
0.0011736
0.00432228
0.00126224
0.00424387
0.00135701
0.00416072
0.00145815
0.00407352
0.00156676
0.00398105
0.00168394
0.00388084
0.00180981
0.00377012
0.00194424
0.00365116
0.0020882
0.00352429
0.0022439
0.00338596
0.00241398
0.00323312
0.00259676
0.00305832
0.00279236
0.0028468
0.00299895
0.00261658
0.00321738
0.00235816
0.00346398
0.0020572
0.00373477
0.00169307
0.00402791
0.00124725
0.00433979
0.000689967
0.00466233
0.00493082
0.00563628
3.3644e-07
0.00528869
5.13529e-06
0.00539814
6.67021e-05
0.00541198
8.84058e-05
0.00541584
9.92181e-05
0.00541685
0.000114306
0.00541617
0.000136677
0.00541359
0.000161594
0.0054091
0.000189417
0.00540206
0.000218378
0.00539233
0.000247533
0.00538147
0.000277319
0.00536715
0.000308283
0.00534865
0.000340678
0.00532684
0.00037458
0.00530112
0.000410006
0.00527225
0.000447293
0.00524132
0.000486689
0.00520889
0.000528691
0.00517469
0.000573722
0.0051372
0.000622025
0.005094
0.000673496
0.0050458
0.000728493
0.00499388
0.000787072
0.00493926
0.000849582
0.00488295
0.00091642
0.00482476
0.000987994
0.00476356
0.00106447
0.00469874
0.0011459
0.00463103
0.00123267
0.00456048
0.00132551
0.00448587
0.00142479
0.00440705
0.00153073
0.00432499
0.00164435
0.00423894
0.00176712
0.00414689
0.00189949
0.00404646
0.00204171
0.00393552
0.00219441
0.00381834
0.00235856
0.00369442
0.00253645
0.00355438
0.00273527
0.00339161
0.00295128
0.00319705
0.00317842
0.00298264
0.00342242
0.00273992
0.00370165
0.00245327
0.00401855
0.00209682
0.00438233
0.00162963
0.00480469
0.000982775
0.00530647
0.00591002
0.00584513
3.13724e-07
0.00548558
4.63138e-06
0.00560077
6.12169e-05
0.00561867
8.12666e-05
0.00562679
9.25048e-05
0.00563119
0.000108918
0.00563316
0.000133644
0.0056327
0.000161198
0.00562977
0.000192031
0.00562407
0.000223527
0.00561572
0.000255084
0.00560617
0.000287189
0.00559296
0.000320399
0.00557514
0.000355176
0.00555382
0.00039138
0.00552873
0.000429076
0.00549993
0.000468513
0.0054689
0.000510036
0.00543636
0.000554104
0.00540267
0.000601161
0.00536664
0.000651547
0.00532627
0.000705475
0.00528026
0.000762763
0.00523042
0.000823837
0.00517749
0.000888881
0.00512284
0.000958279
0.00506698
0.00103253
0.00500899
0.00111195
0.00494815
0.00119667
0.0048847
0.00128698
0.00481881
0.00138353
0.0047494
0.00148682
0.00467591
0.00159704
0.00459968
0.00171492
0.00452097
0.00184209
0.00443794
0.00197982
0.00434949
0.00212734
0.00425524
0.00228436
0.00415297
0.00245719
0.00403923
0.00264771
0.00391788
0.00285544
0.00378116
0.00308358
0.00361904
0.0033309
0.00343188
0.0035961
0.0032248
0.00390128
0.00298401
0.00425534
0.002681
0.00468345
0.00226313
0.00521964
0.00161924
0.00594736
0.00752501
0.0084495
2.18108e-07
0.00793077
3.52635e-06
0.00810259
4.63783e-05
0.00813729
6.28637e-05
0.00815694
7.47608e-05
0.00816953
9.45282e-05
0.00817777
0.000123452
0.00818064
0.000156769
0.00818011
0.000191752
0.00817532
0.000227404
0.00816664
0.000262833
0.00815596
0.000298417
0.0081402
0.00033482
0.0081174
0.000372637
0.00808958
0.000412003
0.00805694
0.000452862
0.00801847
0.000495209
0.00797656
0.000539556
0.0079324
0.000586291
0.00788705
0.000635879
0.00784035
0.000688752
0.00779016
0.00074518
0.00773332
0.000805267
0.0076697
0.0008692
0.00760143
0.000937057
0.0075302
0.0010093
0.007458
0.00108636
0.00738503
0.00116872
0.00731011
0.00125669
0.00723323
0.00135052
0.00715462
0.00145078
0.00707335
0.00155801
0.00698783
0.00167252
0.0068989
0.00179476
0.00680923
0.00192541
0.00671981
0.00206476
0.00662643
0.00221671
0.00652253
0.00238338
0.00641273
0.00256211
0.00630123
0.00275438
0.00618963
0.00296526
0.00606984
0.0032001
0.00593189
0.00345615
0.00577907
0.00373311
0.00562515
0.00404004
0.00548402
0.00438467
0.00539295
0.00477312
0.00541131
0.00519637
0.00580445
0.00554829
0.0053807
0.00794122
0.00844868
4.94164e-08
0.00793194
1.22456e-06
0.00811676
1.63568e-05
0.00816634
2.95711e-05
0.00819834
4.48584e-05
0.00821954
7.11244e-05
0.00823339
0.000107331
0.00823969
0.000148394
0.00824161
0.000189014
0.00823853
0.000229568
0.00823151
0.000268999
0.00822221
0.000308078
0.00820833
0.000347592
0.00818744
0.000388295
0.00816131
0.00043061
0.00813096
0.000474084
0.00809563
0.000518967
0.008056
0.000565756
0.00801391
0.00061474
0.00797057
0.000666372
0.00792697
0.000721098
0.00788244
0.000779344
0.00783483
0.000841359
0.00778137
0.000907196
0.00772307
0.000977138
0.00766172
0.00105138
0.00759884
0.00113012
0.00753573
0.00121397
0.00747252
0.00130375
0.00740905
0.00139927
0.00734588
0.00150145
0.0072823
0.00161068
0.00721711
0.00172658
0.00715318
0.00184888
0.00708979
0.00198073
0.00702354
0.00212484
0.00695757
0.00227915
0.0068934
0.00244339
0.00683011
0.00262013
0.00676832
0.00281038
0.00671407
0.00301508
0.0066729
0.00324014
0.00663734
0.00348495
0.00661124
0.00374585
0.0066159
0.00402046
0.00668277
0.00430258
0.00686687
0.00457797
0.00725141
0.0048085
0.0078529
0.00494237
0.00459739
0.00862965
0.00844846
-1.95313e-07
0.00793205
-1.72472e-06
0.00813299
-3.16487e-05
0.0082042
-2.55698e-05
0.00825536
-4.2458e-06
0.00828819
3.64545e-05
0.0083077
8.48807e-05
0.00831811
0.000134796
0.00832197
0.00018399
0.00832074
0.000229817
0.00831579
0.000273208
0.0083078
0.000315966
0.00829492
0.000359065
0.00827559
0.000402685
0.00825073
0.000447274
0.00822206
0.000493137
0.00818933
0.000540481
0.0081515
0.000589441
0.0081111
0.000640426
0.00806974
0.000693737
0.00802847
0.000749805
0.00798764
0.000809115
0.00794639
0.00087208
0.00790282
0.000938969
0.00785461
0.00101008
0.00779989
0.00108509
0.00774364
0.00116487
0.00768845
0.00124932
0.00763499
0.00133933
0.00758307
0.00143487
0.00753417
0.00153682
0.00748837
0.00164431
0.00744433
0.00175912
0.00739896
0.00188395
0.00735475
0.00201646
0.00731639
0.00215608
0.00728508
0.00230546
0.00725853
0.00246547
0.00723811
0.00263566
0.00722427
0.00281756
0.00722399
0.00300912
0.00724858
0.00321272
0.00729906
0.00343096
0.00738071
0.00365525
0.00750361
0.00388513
0.00769236
0.00409756
0.00797015
0.0042842
0.00836797
0.00440025
0.00886801
0.00443808
0.00417693
0.00928255
0.00844699
1.40765e-06
0.00793515
-1.08687e-05
0.00819597
-0.000139718
0.00830485
-0.00011938
0.00836655
-6.43308e-05
0.00839782
3.21179e-06
0.00841268
6.70689e-05
0.00841971
0.00012444
0.00842183
0.000180006
0.00842019
0.000229851
0.00841486
0.000276989
0.00840631
0.000323487
0.00839332
0.00036989
0.00837422
0.000416306
0.00835
0.000462953
0.0083225
0.000510489
0.00829231
0.000559602
0.00825865
0.000610332
0.00822172
0.000662759
0.00818293
0.000717271
0.00814388
0.000774282
0.00810559
0.000834216
0.00806848
0.000897506
0.00803216
0.000964514
0.00799552
0.00103559
0.0079572
0.00111097
0.00791542
0.00119103
0.00786984
0.00127529
0.00782445
0.00136469
0.00778303
0.00145819
0.00774706
0.00155759
0.00771247
0.00166542
0.00767968
0.00178023
0.00765282
0.00190029
0.00763235
0.00202759
0.00761763
0.00216234
0.00761225
0.00230493
0.00761668
0.00245585
0.00763293
0.00261526
0.00766231
0.0027827
0.00770461
0.00295815
0.00777429
0.00313539
0.00787896
0.00332209
0.00802527
0.00350521
0.00821699
0.00368679
0.00845632
0.0038471
0.00874995
0.00397355
0.00908996
0.00404287
0.00951557
0.00400042
0.0038747
0.00981012
0.00844199
1.36386e-05
0.00797037
-7.24982e-05
0.00835751
-0.000370805
0.00856123
-0.000308376
0.00863199
-0.000134743
0.00863841
-6.66492e-06
0.00864194
6.02013e-05
0.00864066
0.000122036
0.00863806
0.000179717
0.00863327
0.000232175
0.00862291
0.000284648
0.00860686
0.000336475
0.00858595
0.000387145
0.00856036
0.000436224
0.0085301
0.000484756
0.00849666
0.000534196
0.0084609
0.00058449
0.00842293
0.000635811
0.00838392
0.000688507
0.00834499
0.000743015
0.0083068
0.000799779
0.00826992
0.000859212
0.00823448
0.000921754
0.00819997
0.000987728
0.00816589
0.00105744
0.00813215
0.00113134
0.00809696
0.00120965
0.0080625
0.00129156
0.00802975
0.0013779
0.00799655
0.0014709
0.00796493
0.00156983
0.0079408
0.00167346
0.0079237
0.00178288
0.00791257
0.00189843
0.00790845
0.00202016
0.00791282
0.00214747
0.00792706
0.00228162
0.00795468
0.00242054
0.00799711
0.00256692
0.00805884
0.00271643
0.0081363
0.00287223
0.00823599
0.00302693
0.00836999
0.00318048
0.00853917
0.00332983
0.0087541
0.00346588
0.00900803
0.0035866
0.00930215
0.00366944
0.0096209
0.00371116
0.00993327
0.00367062
0.00356102
0.0102305
0.00852773
2.32074e-05
0.00827186
-0.000436657
0.00888765
-0.000807057
0.00896889
-0.00037767
0.00894171
-0.000109891
0.00892284
6.63537e-06
0.00890388
7.38757e-05
0.00888906
0.000131452
0.00888582
0.000177835
0.0088775
0.000236521
0.00886155
0.000296971
0.00884031
0.000354149
0.00881594
0.000407978
0.0087881
0.000459887
0.00875656
0.000510705
0.00872231
0.000561433
0.00868554
0.000612627
0.00864646
0.000664515
0.00860612
0.000717381
0.00856586
0.000771776
0.00852646
0.000828166
0.00848808
0.000886946
0.00845069
0.000948532
0.00841413
0.00101317
0.00837857
0.00108134
0.00834467
0.00115304
0.00831108
0.00122799
0.00827787
0.00130766
0.00824529
0.0013924
0.00821787
0.00148093
0.00819735
0.00157441
0.00818247
0.00167302
0.0081745
0.00177687
0.00817476
0.00188533
0.00818406
0.0019997
0.0082032
0.0021178
0.00823311
0.00224172
0.00827625
0.00236824
0.00833631
0.00249938
0.0084123
0.00263249
0.00851252
0.00276546
0.00863027
0.00290036
0.00877507
0.00302528
0.00894954
0.00314669
0.0091584
0.0032486
0.00940016
0.00333685
0.00967198
0.00339074
0.00996782
0.00340658
0.010247
0.00338085