/*--------------------------------*- C++ -*----------------------------------*\
| =========                 |                                                 |
| \\      /  F ield         | OpenFOAM: The Open Source CFD Toolbox           |
|  \\    /   O peration     | Version:  2412                                  |
|   \\  /    A nd           | Website:  www.openfoam.com                      |
|    \\/     M anipulation  |                                                 |
\*---------------------------------------------------------------------------*/
FoamFile
{
    version     2.0;
    format      ascii;
    arch        "LSB;label=32;scalar=64";
    class       volScalarField;
    location    "11";
    object      T;
}
// * * * * * * * * * * * * * * * * * * * * * * * * * * * * * * * * * * * * * //

dimensions      [0 0 0 1 0 0 0];

internalField   nonuniform List<scalar> 
7000
(
1.31456
2.61787
2.6765
2.67487
2.65398
2.63527
2.63012
2.63269
2.63449
2.6357
2.63565
2.63528
2.63473
2.63471
2.63484
2.63529
2.63596
2.63671
2.63811
2.64107
2.64572
2.65089
2.65664
2.66284
2.66866
2.67425
2.67971
2.68484
2.6892
2.69289
2.69694
2.70157
2.70559
2.70867
2.71261
2.71815
2.72299
2.72511
2.72607
2.7289
2.74143
2.76297
2.77594
2.7793
2.77953
2.78228
2.78516
2.78408
2.78397
2.79625
1.31468
2.61819
2.67665
2.67497
2.65411
2.63542
2.63026
2.63283
2.63463
2.63581
2.63575
2.63534
2.63479
2.63478
2.63493
2.63544
2.63622
2.63706
2.63842
2.6411
2.6454
2.65037
2.6561
2.66241
2.66838
2.6741
2.67965
2.68484
2.68923
2.69295
2.697
2.70163
2.70563
2.70869
2.71262
2.71815
2.72297
2.72508
2.72603
2.72884
2.74132
2.76281
2.77572
2.77903
2.77919
2.78175
2.78469
2.78363
2.78348
2.79576
1.31465
2.61807
2.67654
2.6749
2.65404
2.63536
2.63019
2.63276
2.63454
2.6357
2.63563
2.63522
2.63468
2.63467
2.63482
2.63534
2.63612
2.63695
2.6383
2.64097
2.64526
2.65023
2.65594
2.66223
2.66819
2.67393
2.6795
2.68468
2.68905
2.69275
2.6968
2.70143
2.70545
2.70852
2.71244
2.71796
2.72278
2.7249
2.72585
2.72862
2.74099
2.76246
2.77547
2.77889
2.77903
2.78136
2.78434
2.78341
2.78325
2.79548
1.31461
2.61782
2.6764
2.67481
2.65394
2.63526
2.63008
2.63264
2.63441
2.63552
2.63544
2.63502
2.63448
2.63448
2.63463
2.63516
2.63594
2.63677
2.6381
2.64076
2.64503
2.64998
2.65569
2.66199
2.66793
2.67364
2.67917
2.68434
2.68875
2.69245
2.69647
2.70106
2.70507
2.70814
2.71204
2.71753
2.72237
2.7245
2.72543
2.72812
2.74023
2.76167
2.7749
2.77849
2.77856
2.7806
2.78374
2.78289
2.78272
2.79491
1.31457
2.61751
2.6762
2.67468
2.65387
2.63517
2.62996
2.63252
2.63425
2.63531
2.63522
2.63477
2.63425
2.63425
2.63442
2.63496
2.63574
2.63653
2.63784
2.64048
2.64474
2.64969
2.65539
2.66167
2.6676
2.67325
2.67873
2.68389
2.68832
2.69206
2.69609
2.70066
2.70464
2.70767
2.71149
2.71693
2.72177
2.72393
2.72483
2.72739
2.7391
2.76056
2.77404
2.77783
2.77793
2.77972
2.78277
2.78225
2.78207
2.79422
1.3145
2.61709
2.676
2.67456
2.65374
2.63503
2.6298
2.63235
2.63405
2.63504
2.63494
2.63446
2.63395
2.63396
2.63413
2.63469
2.63547
2.63625
2.6375
2.6401
2.64438
2.64934
2.655
2.66125
2.66713
2.67274
2.67821
2.68339
2.68787
2.69163
2.6956
2.70008
2.70399
2.70694
2.71068
2.71606
2.72095
2.72316
2.72404
2.72644
2.73762
2.75908
2.77283
2.77681
2.77687
2.77849
2.78158
2.78096
2.78102
2.79298
1.31443
2.61658
2.6757
2.67439
2.65362
2.63489
2.6296
2.63214
2.63379
2.6347
2.63458
2.63408
2.63358
2.6336
2.63379
2.63435
2.63513
2.63588
2.63706
2.63961
2.64395
2.64897
2.65464
2.6609
2.66678
2.67229
2.6776
2.68266
2.68711
2.6909
2.69492
2.69943
2.70337
2.70628
2.70987
2.71513
2.72001
2.72228
2.72312
2.72532
2.73578
2.75717
2.77132
2.77562
2.77576
2.77723
2.78041
2.78001
2.77969
2.79176
1.31434
2.61596
2.67535
2.6742
2.65346
2.63469
2.62935
2.63188
2.63348
2.63429
2.63416
2.63359
2.6331
2.63313
2.63334
2.63395
2.63486
2.63566
2.63675
2.63902
2.64312
2.64804
2.65367
2.65992
2.6658
2.67134
2.67672
2.68186
2.68635
2.69008
2.69395
2.69834
2.70226
2.70518
2.70869
2.71389
2.71882
2.72117
2.72199
2.72397
2.73361
2.75484
2.76942
2.77397
2.77407
2.77536
2.77839
2.77793
2.77788
2.78993
1.31424
2.61522
2.67494
2.67398
2.65327
2.63445
2.62905
2.63157
2.63309
2.6338
2.63365
2.63304
2.63255
2.63259
2.63282
2.63346
2.63441
2.63524
2.63627
2.6384
2.64232
2.64713
2.65265
2.65884
2.66468
2.6702
2.67564
2.68089
2.68548
2.68918
2.69284
2.69699
2.70076
2.70357
2.70694
2.71208
2.71713
2.71965
2.72048
2.72229
2.73108
2.7519
2.76707
2.77216
2.77244
2.77364
2.77684
2.77651
2.77635
2.78773
1.31412
2.61434
2.67447
2.67372
2.65303
2.63418
2.62869
2.63119
2.63262
2.63323
2.63306
2.63239
2.63192
2.63197
2.63222
2.63288
2.6338
2.63459
2.63557
2.6376
2.64156
2.64645
2.652
2.65818
2.66395
2.66927
2.67454
2.67974
2.68437
2.68808
2.69162
2.69563
2.69933
2.70206
2.70522
2.71016
2.71522
2.71788
2.71869
2.72027
2.72806
2.74844
2.7642
2.76951
2.76961
2.77034
2.77323
2.7731
2.77302
2.78495
1.31399
2.61333
2.6739
2.67348
2.65274
2.63384
2.62827
2.63075
2.63207
2.63258
2.63239
2.63165
2.63116
2.63121
2.63148
2.63219
2.63323
2.63412
2.63502
2.63677
2.64038
2.64513
2.65057
2.65672
2.66253
2.66783
2.67306
2.67827
2.683
2.68674
2.69014
2.69393
2.6975
2.70013
2.70312
2.70791
2.71304
2.71587
2.71671
2.71803
2.72469
2.74403
2.76059
2.76686
2.76746
2.76825
2.77092
2.77073
2.77015
2.78186
1.31385
2.61216
2.67328
2.67325
2.65234
2.63348
2.62778
2.63022
2.63142
2.63183
2.63161
2.63081
2.63032
2.63039
2.63068
2.63142
2.63246
2.63334
2.63421
2.63585
2.6393
2.64402
2.64947
2.65565
2.66141
2.66648
2.67143
2.67652
2.68131
2.68521
2.68867
2.69242
2.69588
2.69827
2.70078
2.70514
2.71023
2.71329
2.7142
2.71528
2.72075
2.73908
2.75633
2.76282
2.76311
2.76349
2.76625
2.76629
2.76622
2.77644
1.31368
2.61086
2.67263
2.6728
2.65198
2.63306
2.62722
2.62961
2.63068
2.63102
2.63078
2.62993
2.62938
2.62944
2.62973
2.63049
2.63162
2.6326
2.63346
2.63491
2.63796
2.64236
2.64757
2.6537
2.65959
2.66468
2.66951
2.67445
2.67923
2.68319
2.68667
2.69044
2.69404
2.69644
2.69858
2.70236
2.70717
2.71029
2.71121
2.71203
2.71634
2.73293
2.75116
2.75891
2.75972
2.76018
2.76203
2.76124
2.76058
2.77261
1.31348
2.60942
2.6719
2.6723
2.65162
2.63258
2.62656
2.62889
2.62985
2.63014
2.62989
2.629
2.62837
2.62841
2.6287
2.62945
2.63057
2.63155
2.6324
2.63377
2.63667
2.641
2.64605
2.65201
2.65789
2.66294
2.66762
2.67236
2.67699
2.68087
2.68425
2.68801
2.69176
2.69436
2.69638
2.69977
2.70428
2.70734
2.70818
2.7086
2.71153
2.72573
2.74448
2.75278
2.75346
2.75319
2.7551
2.75617
2.75498
2.76409
1.31327
2.60783
2.67109
2.67175
2.65123
2.63202
2.62581
2.62807
2.62895
2.6292
2.62894
2.62803
2.62723
2.62724
2.62749
2.62822
2.62941
2.63048
2.63133
2.63255
2.63517
2.63937
2.64429
2.65006
2.65591
2.66098
2.66557
2.67019
2.6747
2.6784
2.6814
2.68475
2.68836
2.69098
2.69281
2.69579
2.70013
2.7034
2.70435
2.70454
2.70632
2.71771
2.73722
2.74695
2.74821
2.74805
2.74878
2.74718
2.7465
2.75735
1.31303
2.6061
2.67022
2.67117
2.65082
2.6314
2.62498
2.62715
2.62792
2.62813
2.62787
2.62694
2.62598
2.62594
2.62615
2.62685
2.62811
2.62933
2.63024
2.63129
2.6335
2.63745
2.64208
2.6475
2.65322
2.65827
2.66278
2.66729
2.67186
2.67572
2.67872
2.6818
2.68517
2.68775
2.68931
2.69164
2.69554
2.69886
2.69989
2.6998
2.70045
2.70815
2.72674
2.73746
2.73899
2.73765
2.73757
2.73805
2.7354
2.7428
1.31278
2.60425
2.66929
2.67053
2.6504
2.63066
2.62405
2.62616
2.62687
2.62706
2.6268
2.62585
2.62462
2.62445
2.62463
2.62529
2.62662
2.62796
2.62897
2.62987
2.63161
2.63534
2.64003
2.64526
2.65086
2.65585
2.66029
2.66463
2.66899
2.67278
2.67556
2.67824
2.68138
2.68376
2.68491
2.68669
2.69033
2.69367
2.69486
2.69467
2.69461
2.6991
2.71622
2.72838
2.72978
2.72856
2.72725
2.72321
2.7207
2.72935
1.31252
2.60229
2.66832
2.6699
2.64992
2.62983
2.62304
2.62509
2.62569
2.62585
2.62556
2.62458
2.62308
2.62277
2.62291
2.62352
2.62489
2.62645
2.6277
2.62859
2.62988
2.63282
2.63717
2.64206
2.64733
2.65221
2.65641
2.66061
2.66502
2.66902
2.67203
2.67465
2.67752
2.67964
2.6804
2.68109
2.68314
2.68691
2.68813
2.6877
2.68697
2.68848
2.70056
2.71436
2.7168
2.71401
2.70969
2.70656
2.69914
2.70152
1.31225
2.60028
2.66733
2.66928
2.64941
2.62893
2.62193
2.62389
2.62436
2.62448
2.62416
2.62312
2.62141
2.62097
2.62109
2.62168
2.62307
2.6247
2.62611
2.62704
2.62801
2.63013
2.63425
2.63912
2.64447
2.64936
2.65349
2.65712
2.66102
2.66492
2.668
2.67069
2.67361
2.67583
2.6765
2.67653
2.6769
2.67894
2.68091
2.68051
2.67901
2.67893
2.6857
2.69898
2.70097
2.69764
2.69074
2.67962
2.66704
2.66247
1.31198
2.59828
2.66638
2.66869
2.64873
2.6279
2.62075
2.62263
2.62297
2.62303
2.62264
2.62146
2.61957
2.61899
2.61908
2.61957
2.6209
2.62267
2.62436
2.62555
2.62636
2.62775
2.6309
2.63528
2.64024
2.6453
2.64946
2.65301
2.65643
2.65984
2.6627
2.66511
2.66788
2.67052
2.67153
2.67134
2.67111
2.67154
2.67186
2.67132
2.66835
2.66625
2.6681
2.67816
2.68082
2.67637
2.66241
2.6456
2.61265
2.549
1.31166
2.59606
2.66531
2.66809
2.64779
2.62655
2.61914
2.62075
2.62102
2.62102
2.62054
2.61921
2.61719
2.61639
2.61645
2.61681
2.61796
2.6198
2.62166
2.62319
2.62412
2.6249
2.62656
2.62998
2.63455
2.63948
2.64426
2.64795
2.6512
2.6541
2.65647
2.65822
2.65998
2.66213
2.66354
2.66335
2.66254
2.66208
2.66142
2.66014
2.65706
2.64999
2.64689
2.64838
2.64733
2.64105
2.62097
2.58203
2.52036
2.39403
1.31139
2.59401
2.6643
2.66724
2.64662
2.62467
2.61693
2.61803
2.6184
2.61836
2.61783
2.61645
2.61453
2.61352
2.61355
2.61383
2.6146
2.61631
2.61827
2.62016
2.62157
2.62233
2.62311
2.62489
2.62812
2.63218
2.6363
2.64026
2.64329
2.64605
2.64798
2.6492
2.65023
2.65145
2.6518
2.65145
2.6501
2.6481
2.64602
2.64401
2.64078
2.63331
2.62398
2.61709
2.61083
2.59853
2.57663
2.52941
2.45068
2.34667
1.31134
2.59355
2.66402
2.66684
2.64597
2.62231
2.61432
2.61477
2.61554
2.61544
2.61483
2.61335
2.6116
2.61051
2.61053
2.61078
2.61137
2.61279
2.61487
2.61686
2.61848
2.61948
2.61997
2.62057
2.62192
2.62539
2.62981
2.63457
2.63775
2.64094
2.6428
2.6436
2.6443
2.64428
2.64383
2.64274
2.64035
2.63699
2.63314
2.62869
2.62486
2.61684
2.60495
2.59137
2.57638
2.55994
2.5334
2.49689
2.42604
2.34802
1.31158
2.59464
2.66366
2.66575
2.64396
2.61951
2.61079
2.61113
2.61211
2.61209
2.61157
2.61024
2.60855
2.60747
2.60746
2.60767
2.60811
2.60882
2.61021
2.61207
2.61392
2.61542
2.61639
2.61687
2.61716
2.61779
2.61913
2.62242
2.62612
2.63005
2.63223
2.63368
2.63415
2.63387
2.63303
2.63149
2.62903
2.62455
2.61986
2.61299
2.60678
2.60047
2.5871
2.57342
2.55068
2.5303
2.50113
2.46946
2.4209
2.36049
1.31263
2.60277
2.66789
2.66835
2.6441
2.61879
2.60945
2.61002
2.61127
2.6117
2.61126
2.61021
2.60893
2.60781
2.60747
2.6075
2.60765
2.60805
2.60883
2.60965
2.61036
2.6109
2.6111
2.61118
2.61139
2.61175
2.61272
2.6145
2.61652
2.61902
2.62176
2.62331
2.62345
2.62306
2.62203
2.62019
2.6172
2.61355
2.60741
2.60102
2.59064
2.58417
2.57093
2.55711
2.53693
2.51177
2.48434
2.44872
2.41227
2.36864
1.29276
2.53459
2.6803
2.67591
2.65454
2.63039
2.62182
2.62298
2.62458
2.62541
2.62492
2.62371
2.62199
2.62008
2.61829
2.61673
2.61544
2.61455
2.61411
2.61381
2.61341
2.61293
2.61244
2.61205
2.61188
2.61188
2.61236
2.61366
2.61506
2.61642
2.61689
2.61678
2.61623
2.61508
2.61234
2.61009
2.60538
2.60203
2.59467
2.58885
2.57932
2.56817
2.5585
2.54239
2.52711
2.50232
2.47855
2.44376
2.41086
2.37268
1.745
2.42498
2.69458
2.66499
2.65762
2.64296
2.63917
2.64027
2.64057
2.64161
2.6409
2.64061
2.64074
2.64156
2.64269
2.64377
2.64428
2.64424
2.64395
2.64331
2.64198
2.64011
2.63744
2.63473
2.63127
2.62798
2.62448
2.6215
2.61926
2.61828
2.61699
2.61595
2.61355
2.61154
2.60724
2.60364
2.59777
2.59208
2.58587
2.57654
2.56949
2.55562
2.54599
2.52988
2.51642
2.49513
2.47435
2.44592
2.41567
2.38269
1.75811
2.42071
2.6912
2.6639
2.6537
2.64047
2.63933
2.63971
2.64083
2.6408
2.64069
2.64099
2.64175
2.6431
2.64485
2.6469
2.64847
2.64979
2.65113
2.65204
2.65211
2.6519
2.65133
2.65027
2.64778
2.6459
2.64218
2.63982
2.63516
2.63146
2.62639
2.62115
2.61649
2.6117
2.60782
2.60092
2.59625
2.58729
2.58127
2.57029
2.56188
2.54909
2.53659
2.52181
2.50613
2.48843
2.46843
2.44539
2.4199
2.39334
1.75253
2.42886
2.69619
2.66687
2.65236
2.63809
2.63919
2.64
2.64179
2.64256
2.64254
2.64285
2.64375
2.64474
2.64675
2.6484
2.65003
2.6516
2.65311
2.65443
2.65571
2.65654
2.65656
2.65631
2.65564
2.65392
2.65222
2.64854
2.6459
2.64068
2.63722
2.6313
2.62673
2.61838
2.61252
2.60342
2.59734
2.58783
2.58027
2.56984
2.5601
2.54783
2.53533
2.51997
2.505
2.48671
2.46885
2.44769
2.42473
2.4026
1.75528
2.42463
2.69234
2.6628
2.64908
2.63519
2.63593
2.63709
2.63915
2.63984
2.64016
2.64084
2.64176
2.64333
2.64515
2.64687
2.64855
2.65035
2.65184
2.65313
2.65447
2.65569
2.65631
2.65628
2.65602
2.65519
2.65421
2.6518
2.64989
2.6457
2.64297
2.63735
2.63387
2.62653
2.62186
2.61246
2.60485
2.59428
2.58415
2.57256
2.56173
2.54926
2.53682
2.52171
2.50681
2.48934
2.47186
2.45311
2.43215
2.41253
1.76708
2.40774
2.67876
2.6507
2.64326
2.63056
2.62902
2.63011
2.63202
2.63218
2.63271
2.63362
2.63502
2.63702
2.6391
2.64131
2.64319
2.64501
2.64676
2.64818
2.64939
2.65059
2.65162
2.65212
2.65209
2.65179
2.65113
2.64945
2.64798
2.64467
2.64238
2.63754
2.63444
2.62866
2.62392
2.61665
2.60958
2.60104
2.59174
2.58053
2.5687
2.55522
2.54199
2.52701
2.51206
2.49617
2.47854
2.46124
2.44233
2.42422
1.75836
2.40525
2.67389
2.64587
2.64114
2.62803
2.62335
2.62429
2.62573
2.62608
2.62691
2.6275
2.62852
2.63035
2.6325
2.63508
2.63738
2.63962
2.64193
2.64396
2.64556
2.64678
2.64794
2.64863
2.64868
2.64851
2.64804
2.64677
2.64557
2.64286
2.64095
2.63701
2.63395
2.62947
2.62474
2.61921
2.61214
2.60477
2.59653
2.58685
2.5772
2.56513
2.55295
2.53892
2.5232
2.50761
2.49082
2.47339
2.45588
2.43824
1.3491
2.41928
2.66994
2.66306
2.64232
2.61809
2.6076
2.61041
2.61103
2.61254
2.61243
2.61194
2.61137
2.61091
2.61075
2.61078
2.61111
2.61159
2.61236
2.61351
2.61461
2.61627
2.61712
2.61858
2.61974
2.62035
2.62099
2.62132
2.62127
2.62091
2.62036
2.61904
2.61795
2.6161
2.61383
2.61125
2.60672
2.60127
2.59529
2.58706
2.57907
2.56963
2.55901
2.54801
2.53493
2.52043
2.50544
2.48872
2.47204
2.45566
1.35139
2.42554
2.68275
2.67808
2.65564
2.62399
2.61188
2.61195
2.61328
2.6154
2.61536
2.61491
2.6142
2.61316
2.61213
2.61123
2.61062
2.61006
2.60967
2.60958
2.60961
2.60969
2.60981
2.60987
2.60999
2.60999
2.60981
2.60931
2.60874
2.60763
2.60636
2.60512
2.60283
2.60093
2.59803
2.59436
2.59078
2.58548
2.58112
2.57528
2.57013
2.56457
2.55711
2.54804
2.53776
2.52593
2.51324
2.49954
2.48464
2.4705
1.34512
2.37348
2.64909
2.66706
2.64709
2.62004
2.60862
2.60827
2.60862
2.60924
2.60881
2.60779
2.60686
2.60561
2.60436
2.60324
2.60224
2.60127
2.6003
2.5995
2.59884
2.59833
2.59774
2.5972
2.59657
2.59599
2.5955
2.59479
2.59418
2.59349
2.59228
2.59138
2.5895
2.58803
2.58552
2.58257
2.57962
2.57499
2.57006
2.56409
2.55684
2.55029
2.54376
2.53729
2.53045
2.52134
2.51121
2.49958
2.48714
2.47484
1.7549
2.37155
2.64356
2.64029
2.62654
2.60943
2.60256
2.60241
2.60247
2.60299
2.60395
2.60521
2.6063
2.60707
2.60818
2.60912
2.60945
2.60942
2.60924
2.6087
2.60779
2.60681
2.60551
2.60383
2.60208
2.59994
2.59786
2.59579
2.59323
2.5914
2.5886
2.58629
2.58328
2.58058
2.57779
2.57432
2.57178
2.56827
2.56485
2.56001
2.5539
2.54749
2.54039
2.53329
2.52479
2.51638
2.50642
2.49599
2.48466
2.47342
1.34159
2.3578
2.63949
2.66102
2.64345
2.61719
2.60573
2.60227
2.60254
2.60218
2.60123
2.60062
2.59947
2.59848
2.59777
2.59739
2.59722
2.59706
2.59674
2.5964
2.59575
2.59497
2.59445
2.59342
2.59205
2.59083
2.58906
2.5877
2.58569
2.58424
2.58199
2.57887
2.57627
2.5727
2.56969
2.56545
2.56285
2.5588
2.5552
2.55184
2.54748
2.54277
2.53701
2.53138
2.5243
2.51646
2.50775
2.49791
2.4867
2.47537
1.34324
2.37016
2.64888
2.66808
2.64652
2.61641
2.60349
2.60171
2.60244
2.60232
2.60173
2.60041
2.59947
2.59826
2.59721
2.5964
2.59595
2.59555
2.59521
2.59479
2.59415
2.59352
2.59291
2.59208
2.59091
2.58942
2.58729
2.58506
2.58211
2.5792
2.57613
2.57263
2.56922
2.56443
2.56077
2.55589
2.55168
2.54725
2.54257
2.53777
2.53293
2.52894
2.52374
2.51944
2.51619
2.51154
2.50595
2.49811
2.48972
2.48081
1.34277
2.36691
2.64717
2.6652
2.64314
2.61201
2.59823
2.59676
2.59776
2.59852
2.59824
2.59706
2.59605
2.59475
2.59376
2.59307
2.59263
2.59228
2.59198
2.59153
2.59066
2.58994
2.58916
2.58834
2.58768
2.58673
2.58527
2.58349
2.58152
2.5788
2.5761
2.57302
2.56991
2.56539
2.5608
2.55592
2.55079
2.54545
2.53946
2.53449
2.52781
2.52154
2.51555
2.50868
2.50219
2.49649
2.49187
2.48731
2.48245
2.47728
1.34139
2.35171
2.62747
2.65305
2.63382
2.60534
2.59418
2.5916
2.59213
2.59188
2.59132
2.58993
2.5888
2.58778
2.58707
2.58649
2.58604
2.58543
2.58461
2.58373
2.58263
2.58173
2.58092
2.5803
2.57961
2.57858
2.57725
2.57565
2.57457
2.57309
2.57204
2.57029
2.56828
2.56538
2.5619
2.55784
2.55324
2.54842
2.54254
2.53759
2.53113
2.52408
2.51714
2.50946
2.50222
2.49427
2.48727
2.4806
2.47372
2.468
1.75063
2.38094
2.6116
2.60471
2.59557
2.59374
2.59348
2.5932
2.59116
2.59067
2.59133
2.59352
2.59422
2.59384
2.59243
2.59065
2.58935
2.58836
2.58758
2.58654
2.585
2.58288
2.58101
2.57965
2.57833
2.577
2.57501
2.57257
2.57001
2.56726
2.56489
2.56293
2.5618
2.55983
2.55764
2.55493
2.55129
2.54752
2.54304
2.53865
2.53394
2.52841
2.52251
2.51554
2.50842
2.50046
2.492
2.48367
2.47537
2.46824
1.34346
2.36018
2.63272
2.65345
2.63116
2.60055
2.59012
2.58903
2.59076
2.59112
2.59036
2.58927
2.58823
2.58732
2.58679
2.58617
2.58536
2.58428
2.58342
2.58218
2.58102
2.57984
2.57825
2.57623
2.57388
2.57168
2.56884
2.56613
2.56224
2.55821
2.55428
2.55018
2.54714
2.5439
2.54117
2.5383
2.53488
2.53231
2.52923
2.52609
2.52333
2.52071
2.51766
2.51339
2.50807
2.5026
2.49673
2.49036
2.48302
2.47574
1.346
2.38183
2.64208
2.64096
2.61906
2.59018
2.57857
2.57901
2.58127
2.58315
2.58288
2.58286
2.5833
2.58309
2.58258
2.58146
2.57974
2.5777
2.57585
2.57465
2.57416
2.57394
2.57371
2.57337
2.57249
2.57118
2.56939
2.56758
2.5656
2.56311
2.56039
2.55632
2.55205
2.54696
2.542
2.53751
2.5323
2.52728
2.52233
2.51755
2.51253
2.50726
2.50292
2.49895
2.49525
2.4916
2.48722
2.48309
2.47839
2.47332
1.76387
2.34889
2.62128
2.61722
2.59348
2.5727
2.57212
2.57825
2.58827
2.59232
2.59207
2.58851
2.58471
2.58341
2.5836
2.58356
2.58309
2.58113
2.57678
2.57279
2.57019
2.56877
2.56806
2.56768
2.56724
2.56635
2.56509
2.56395
2.56301
2.56196
2.56109
2.55998
2.55896
2.55722
2.55391
2.55006
2.54506
2.53994
2.53403
2.52765
2.52027
2.51212
2.50504
2.49807
2.49167
2.48517
2.47949
2.47355
2.46788
2.46306
1.77662
2.33209
2.61618
2.61069
2.58641
2.56874
2.56804
2.57316
2.58477
2.5904
2.59031
2.5863
2.58141
2.5797
2.57965
2.57948
2.57865
2.57533
2.56936
2.56421
2.56034
2.55782
2.55627
2.55376
2.54968
2.54511
2.541
2.53774
2.53491
2.53243
2.531
2.53069
2.53095
2.53186
2.5341
2.53648
2.53697
2.53664
2.53541
2.53281
2.53015
2.52568
2.52029
2.51341
2.50622
2.49827
2.48987
2.48202
2.47332
2.46582
1.75014
2.37173
2.64345
2.61185
2.60241
2.58279
2.58272
2.58637
2.59459
2.60114
2.60309
2.60296
2.60178
2.60081
2.59985
2.59887
2.59721
2.5938
2.59001
2.58609
2.58313
2.58108
2.57752
2.57235
2.56629
2.56025
2.55415
2.54723
2.54047
2.53508
2.53027
2.52384
2.51425
2.50256
2.49271
2.48736
2.48593
2.48624
2.48749
2.4911
2.49886
2.50468
2.50615
2.50563
2.5036
2.4994
2.49371
2.4871
2.47962
2.4721
1.28422
2.48206
2.63615
2.6354
2.61027
2.58145
2.56846
2.56739
2.5695
2.56981
2.56969
2.56988
2.57146
2.57367
2.5747
2.57473
2.57401
2.57165
2.56884
2.56661
2.56548
2.56553
2.56594
2.56589
2.56561
2.56472
2.56203
2.55841
2.55487
2.55099
2.54746
2.54458
2.53959
2.52758
2.51299
2.49995
2.48624
2.47324
2.46184
2.45324
2.44921
2.44904
2.45007
2.45357
2.46038
2.46596
2.46795
2.46763
2.4662
2.46289
1.76481
2.36108
2.63188
2.61167
2.60334
2.58431
2.58358
2.58538
2.58965
2.59468
2.59793
2.59823
2.59819
2.59767
2.59669
2.5958
2.59464
2.59216
2.58658
2.57992
2.57434
2.57034
2.56797
2.56635
2.56477
2.56296
2.56059
2.55803
2.55614
2.55506
2.55453
2.55411
2.55318
2.55088
2.54714
2.54135
2.53057
2.51322
2.49187
2.47222
2.4571
2.44463
2.43465
2.42804
2.42456
2.42292
2.42208
2.42198
2.42242
2.42234
1.7698
2.35249
2.62944
2.61287
2.6038
2.58251
2.58036
2.58197
2.5866
2.59227
2.59601
2.59672
2.59694
2.59704
2.59681
2.59625
2.59496
2.5912
2.5851
2.5798
2.57581
2.5731
2.5711
2.56765
2.56176
2.55407
2.54589
2.53853
2.53277
2.52845
2.52542
2.52405
2.52399
2.52517
2.52771
2.52826
2.52723
2.52356
2.51474
2.50101
2.48413
2.46664
2.45055
2.43761
2.42878
2.42317
2.41957
2.41685
2.41544
2.41435
1.28489
2.48545
2.63485
2.633
2.60839
2.57347
2.56194
2.5608
2.56331
2.56394
2.5636
2.56217
2.56088
2.56045
2.56078
2.56208
2.56332
2.56348
2.56314
2.56194
2.56005
2.55838
2.55738
2.55732
2.55785
2.55782
2.55733
2.55557
2.55049
2.54219
2.53483
2.52972
2.52547
2.51982
2.5139
2.50802
2.50365
2.50013
2.49525
2.48785
2.47845
2.46904
2.46087
2.45379
2.44726
2.44178
2.43791
2.43486
2.43318
2.4319
1.78005
2.35825
2.63067
2.60426
2.59981
2.58734
2.58342
2.58528
2.58558
2.58584
2.58735
2.59062
2.5934
2.59452
2.59422
2.5917
2.58699
2.58345
2.58131
2.57953
2.57575
2.5686
2.56089
2.55493
2.55155
2.55032
2.55031
2.55149
2.55449
2.55646
2.55679
2.55635
2.55454
2.54882
2.53641
2.52209
2.50892
2.4976
2.48827
2.4807
2.4745
2.46925
2.46482
2.46142
2.4592
2.45787
2.45729
2.45671
2.45654
2.45615
1.82224
2.33633
2.61225
2.59069
2.58973
2.5861
2.58246
2.57979
2.57625
2.57502
2.57538
2.57874
2.58308
2.58467
2.5841
2.58109
2.57779
2.57583
2.57302
2.56675
2.55767
2.54881
2.5419
2.53738
2.53448
2.53256
2.53126
2.53103
2.53125
2.53189
2.5326
2.53284
2.53239
2.52973
2.52287
2.51385
2.50482
2.49665
2.48971
2.48411
2.47998
2.47757
2.47686
2.4771
2.47792
2.4783
2.47824
2.47796
2.47736
2.47592
1.83292
2.32901
2.6079
2.58872
2.58875
2.58586
2.58119
2.57764
2.5743
2.57329
2.57374
2.57664
2.57976
2.58093
2.58074
2.5799
2.57887
2.57705
2.57235
2.56289
2.55266
2.54502
2.54
2.53708
2.53434
2.5284
2.5186
2.50822
2.49942
2.49305
2.48929
2.48789
2.48781
2.48857
2.49116
2.49433
2.49647
2.49753
2.49808
2.49875
2.49962
2.50001
2.5
2.49978
2.49934
2.49858
2.49695
2.49387
2.48998
2.4859
1.80351
2.34147
2.6111
2.60092
2.59755
2.58341
2.57618
2.57586
2.57663
2.57853
2.57852
2.57786
2.577
2.57705
2.57768
2.57884
2.57911
2.57806
2.57212
2.55969
2.54901
2.54281
2.53915
2.53435
2.5268
2.51654
2.50544
2.49544
2.48785
2.48331
2.4816
2.48164
2.48346
2.48937
2.49767
2.50567
2.51288
2.51922
2.52403
2.52661
2.52741
2.52741
2.52701
2.52555
2.52207
2.51716
2.51168
2.50561
2.49929
2.49337
1.3457
2.3846
2.63873
2.63511
2.61407
2.57669
2.56222
2.56189
2.56406
2.56462
2.56434
2.56274
2.56015
2.55778
2.55676
2.55637
2.55562
2.55403
2.55182
2.5497
2.54821
2.54722
2.547
2.54746
2.54783
2.54764
2.54669
2.54296
2.53328
2.52065
2.51097
2.50579
2.50386
2.50446
2.50769
2.5133
2.51803
2.52137
2.52331
2.52399
2.52374
2.52232
2.51899
2.51493
2.51021
2.50515
2.50002
2.49477
2.48952
2.48481
1.34708
2.39625
2.65305
2.6496
2.62601
2.58483
2.56835
2.56731
2.56957
2.57048
2.57013
2.56906
2.5668
2.56481
2.56332
2.56196
2.56018
2.55813
2.55622
2.55468
2.55367
2.55325
2.55338
2.55451
2.55727
2.5603
2.56221
2.56264
2.56232
2.561
2.55913
2.55695
2.55411
2.54975
2.54446
2.53907
2.53253
2.52581
2.51983
2.5147
2.51046
2.50685
2.50346
2.5003
2.49697
2.4934
2.48964
2.48556
2.48125
2.4773
1.34593
2.38562
2.637
2.63311
2.613
2.57757
2.56496
2.56293
2.56404
2.56383
2.56306
2.56091
2.55925
2.55856
2.55839
2.55802
2.55649
2.55251
2.54743
2.5431
2.54019
2.53875
2.53851
2.53925
2.54277
2.55019
2.55751
2.56366
2.5685
2.57161
2.57284
2.5728
2.57124
2.56553
2.55403
2.54259
2.53152
2.52109
2.51209
2.50503
2.49964
2.49555
2.49213
2.4893
2.48674
2.48421
2.48171
2.47884
2.47571
2.47278
1.7788
2.34727
2.62339
2.61091
2.60264
2.58304
2.57693
2.57721
2.57853
2.58142
2.58221
2.58255
2.58196
2.57813
2.56933
2.56139
2.55677
2.55535
2.55551
2.55614
2.55637
2.55529
2.5504
2.54361
2.53973
2.53865
2.53929
2.54252
2.54788
2.55226
2.55486
2.55559
2.55527
2.55333
2.54839
2.54231
2.53624
2.53053
2.52539
2.5205
2.51606
2.51169
2.50743
2.50321
2.49893
2.4946
2.49026
2.48585
2.48132
2.47725
1.80735
2.33285
2.62127
2.59975
2.59868
2.59041
2.58064
2.57788
2.57667
2.57826
2.58218
2.58459
2.58412
2.5783
2.56491
2.55485
2.55104
2.55139
2.55484
2.55888
2.55977
2.55787
2.54829
2.53188
2.51973
2.51317
2.51088
2.51117
2.51447
2.52232
2.53047
2.53719
2.5422
2.54564
2.54777
2.54879
2.54896
2.54839
2.54624
2.54214
2.53759
2.53256
2.52711
2.5215
2.51563
2.50968
2.50375
2.49781
2.49194
2.48659
1.79345
2.34936
2.63217
2.60414
2.60066
2.59269
2.58489
2.58284
2.58061
2.58069
2.58263
2.58526
2.58576
2.58323
2.5736
2.56201
2.55574
2.55457
2.55595
2.55909
2.56027
2.55929
2.55244
2.53756
2.52597
2.51961
2.51732
2.51777
2.52172
2.53008
2.53779
2.54401
2.54885
2.55227
2.55416
2.5546
2.55403
2.55175
2.54751
2.54273
2.53759
2.53213
2.52635
2.52042
2.51437
2.5082
2.50214
2.49607
2.49009
2.48467
2.19791
2.36827
2.81625
2.90257
2.93762
2.87355
2.87159
2.86868
2.8617
2.86146
2.86636
2.86851
2.87265
2.87749
2.88123
2.88581
2.88942
2.89344
2.89658
2.89908
2.90049
2.90115
2.90136
2.8987
2.89516
2.89152
2.88676
2.88115
2.87483
2.86776
2.86025
2.8525
2.84431
2.83584
2.82719
2.8184
2.80892
2.79877
2.78847
2.77852
2.76784
2.75667
2.74549
2.73372
2.72262
2.71129
2.70023
2.68935
2.67842
2.66781
2.65736
2.64703
2.63705
2.62731
2.61783
2.60872
2.60007
2.59161
2.5838
2.57675
2.56975
2.56409
2.55891
2.55499
2.55179
2.54951
2.54907
2.54928
2.55003
2.55151
2.55391
2.55809
2.56131
2.56566
2.57187
2.57778
2.58411
2.58969
2.59633
2.60288
2.60899
2.61473
2.61927
2.62333
2.62627
2.6285
2.6304
2.63121
2.63115
2.63074
2.62974
2.62848
2.62692
2.62552
2.62373
2.62226
2.62069
2.61908
2.61795
2.61472
2.20566
2.28467
2.48993
2.67471
2.75366
2.79503
2.82707
2.85177
2.8704
2.88651
2.89585
2.89844
2.8993
2.89946
2.89759
2.89405
2.88716
2.87949
2.8721
2.86586
2.86087
2.85607
2.85066
2.8457
2.8416
2.83795
2.83291
2.82519
2.81511
2.80299
2.78949
2.77507
2.76108
2.74807
2.73482
2.72219
2.71181
2.70219
2.69233
2.68209
2.67213
2.66282
2.65368
2.64419
2.63393
2.62299
2.6115
2.59975
2.58794
2.57613
2.56442
2.55298
2.54167
2.53046
2.51943
2.50861
2.49781
2.48714
2.47685
2.4668
2.45684
2.44741
2.43814
2.42943
2.4202
2.41259
2.40482
2.39789
2.39184
2.3859
2.38111
2.37713
2.37297
2.36936
2.36711
2.36558
2.36378
2.36178
2.36
2.35872
2.35791
2.35687
2.35599
2.35515
2.35438
2.354
2.35391
2.35446
2.35527
2.3564
2.35762
2.35935
2.36106
2.36338
2.36466
2.36725
2.36855
2.37118
2.37258
2.3734
2.25304
2.23771
2.30184
2.39484
2.45366
2.5083
2.54563
2.57701
2.59993
2.61792
2.6317
2.64091
2.64707
2.64644
2.64414
2.63869
2.63098
2.62183
2.61147
2.60032
2.58886
2.57821
2.56836
2.55896
2.5497
2.54088
2.53245
2.52495
2.51827
2.5119
2.50551
2.49913
2.49223
2.48509
2.4779
2.47094
2.4642
2.45764
2.45157
2.44638
2.44179
2.43769
2.4335
2.42907
2.42463
2.42045
2.41671
2.41346
2.41033
2.40726
2.40429
2.40139
2.39898
2.39684
2.39537
2.39395
2.39329
2.39241
2.39223
2.39178
2.39165
2.39105
2.39044
2.38941
2.38698
2.38499
2.38231
2.37867
2.37536
2.37158
2.36729
2.36341
2.35935
2.35595
2.35294
2.34989
2.34692
2.34401
2.34046
2.33645
2.33235
2.32753
2.32212
2.31681
2.31152
2.30433
2.29815
2.29149
2.28475
2.27822
2.27194
2.26619
2.26075
2.25613
2.25174
2.24884
2.24539
2.24403
2.24224
2.24106
2.28739
2.24509
2.24331
2.27117
2.30516
2.33192
2.34972
2.36508
2.37783
2.38858
2.39753
2.40357
2.40757
2.41063
2.41044
2.40958
2.40776
2.40522
2.40289
2.40154
2.39914
2.39753
2.39579
2.39362
2.39095
2.38828
2.38514
2.38177
2.37832
2.37432
2.37052
2.36662
2.36285
2.35944
2.35653
2.35435
2.3516
2.34816
2.34448
2.3412
2.33748
2.33277
2.32708
2.32102
2.31466
2.30818
2.30186
2.29574
2.2901
2.28481
2.2795
2.27447
2.26928
2.26414
2.25945
2.25504
2.25096
2.24771
2.24483
2.24216
2.24044
2.23922
2.23813
2.23792
2.2381
2.23879
2.24007
2.24157
2.24478
2.24808
2.25214
2.2578
2.26351
2.26987
2.27662
2.28316
2.28914
2.29444
2.29887
2.3021
2.30353
2.30364
2.30337
2.30243
2.29964
2.29537
2.29023
2.28559
2.27794
2.27149
2.26261
2.25614
2.2471
2.23889
2.23055
2.22075
2.21469
2.20421
2.19988
2.18826
2.30669
2.26831
2.24685
2.2395
2.24861
2.25476
2.25924
2.26157
2.26491
2.26838
2.27225
2.27458
2.27749
2.27933
2.28181
2.28369
2.28484
2.28677
2.28814
2.29013
2.29213
2.29371
2.2955
2.29682
2.29712
2.29783
2.2975
2.2969
2.29597
2.29475
2.29344
2.29161
2.28946
2.28731
2.28488
2.28243
2.2799
2.27663
2.27247
2.26838
2.26441
2.2607
2.25658
2.25272
2.2491
2.24577
2.24249
2.23891
2.23502
2.23133
2.22715
2.22355
2.21919
2.21515
2.21073
2.20644
2.2024
2.19857
2.19528
2.19225
2.18982
2.18797
2.18629
2.18545
2.18547
2.18585
2.18683
2.18813
2.19103
2.19353
2.19601
2.19964
2.20287
2.20632
2.20996
2.21338
2.21664
2.21984
2.22232
2.22426
2.22599
2.22683
2.22695
2.22687
2.22627
2.22546
2.2236
2.22219
2.21932
2.21594
2.21361
2.20857
2.2058
2.20007
2.197
2.19057
2.1871
2.17955
2.17603
2.16512
2.32066
2.2831
2.2611
2.24074
2.23103
2.22562
2.22013
2.21555
2.21121
2.20913
2.20728
2.20792
2.20851
2.20967
2.21108
2.21392
2.2162
2.21957
2.22244
2.22648
2.2298
2.23338
2.23621
2.23884
2.24058
2.24259
2.24311
2.24375
2.24381
2.24331
2.24227
2.24075
2.23854
2.23613
2.23374
2.23134
2.22877
2.22587
2.22268
2.21951
2.21631
2.21333
2.20973
2.20626
2.20242
2.19889
2.19527
2.19174
2.18801
2.18446
2.1807
2.17724
2.17337
2.16967
2.16545
2.16139
2.15715
2.15314
2.14947
2.14602
2.14322
2.14058
2.13851
2.13701
2.13562
2.13511
2.13527
2.13572
2.13668
2.13876
2.13997
2.14257
2.1455
2.1491
2.15301
2.15741
2.16166
2.16634
2.171
2.17538
2.17943
2.1829
2.18592
2.18856
2.19074
2.19201
2.1923
2.19223
2.19186
2.19048
2.18924
2.18648
2.18478
2.18122
2.17926
2.1752
2.17296
2.1683
2.16587
2.15769
2.33372
2.30278
2.27362
2.25464
2.23393
2.22022
2.2079
2.19842
2.18893
2.18228
2.17642
2.17393
2.17139
2.17173
2.17212
2.17319
2.17514
2.17853
2.1814
2.18542
2.18887
2.19278
2.19641
2.20011
2.20326
2.20616
2.20855
2.21077
2.21193
2.21317
2.21308
2.2125
2.2112
2.20928
2.20721
2.20522
2.20249
2.19925
2.1955
2.19182
2.18813
2.1845
2.18084
2.17705
2.17332
2.16958
2.16584
2.16224
2.15835
2.15472
2.15085
2.14729
2.14371
2.14033
2.13698
2.13382
2.13077
2.12799
2.12524
2.12298
2.12055
2.11858
2.11669
2.11502
2.11384
2.11263
2.11239
2.11252
2.11285
2.11399
2.1149
2.11644
2.11849
2.12112
2.12397
2.12706
2.13014
2.13372
2.13731
2.14074
2.14422
2.14741
2.15049
2.15337
2.15604
2.15826
2.15943
2.15975