/*--------------------------------*- C++ -*----------------------------------*\
| =========                 |                                                 |
| \\      /  F ield         | OpenFOAM: The Open Source CFD Toolbox           |
|  \\    /   O peration     | Version:  2412                                  |
|   \\  /    A nd           | Website:  www.openfoam.com                      |
|    \\/     M anipulation  |                                                 |
\*---------------------------------------------------------------------------*/
FoamFile
{
    version     2.0;
    format      ascii;
    arch        "LSB;label=32;scalar=64";
    class       volVectorField;
    location    "11";
    object      U;
}
// * * * * * * * * * * * * * * * * * * * * * * * * * * * * * * * * * * * * * //

dimensions      [0 1 -1 0 0 0 0];

internalField   nonuniform List<vector> 
7000
(
(2.6371 -9.98757e-05 0)
(1.73871 0.000204294 0)
(0.578141 0.000147545 0)
(0.552363 0.000311309 0)
(0.654325 0.000428925 0)
(0.726805 0.000508944 0)
(0.742946 0.000573236 0)
(0.736592 0.000637675 0)
(0.726606 0.000709418 0)
(0.718351 0.000791858 0)
(0.713444 0.000879291 0)
(0.709641 0.000967043 0)
(0.705415 0.00105603 0)
(0.700434 0.00114819 0)
(0.694869 0.00124671 0)
(0.688851 0.00135346 0)
(0.682408 0.00147004 0)
(0.675503 0.00159824 0)
(0.668066 0.00174189 0)
(0.660022 0.00189388 0)
(0.651316 0.00206301 0)
(0.641923 0.00224421 0)
(0.631817 0.00243701 0)
(0.62098 0.00264127 0)
(0.609403 0.00285685 0)
(0.597076 0.00308395 0)
(0.583978 0.00332326 0)
(0.570086 0.0035759 0)
(0.555377 0.00384321 0)
(0.539827 0.00412667 0)
(0.5234 0.00442795 0)
(0.506058 0.00474891 0)
(0.487792 0.0050912 0)
(0.468613 0.00545578 0)
(0.448485 0.00584344 0)
(0.427316 0.00625569 0)
(0.405056 0.00669457 0)
(0.381741 0.0071616 0)
(0.357433 0.00765614 0)
(0.332235 0.00817704 0)
(0.3055 0.00872953 0)
(0.276709 0.00931841 0)
(0.246438 0.00994405 0)
(0.215054 0.0105701 0)
(0.182758 0.0111222 0)
(0.149397 0.0115113 0)
(0.115175 0.011676 0)
(0.0818695 0.0115929 0)
(0.0482255 0.0116284 0)
(0.0207779 0.0120764 0)
(2.63725 -7.5543e-05 0)
(1.73886 0.000351874 0)
(0.577644 0.000740451 0)
(0.551896 0.00108951 0)
(0.65389 0.00135239 0)
(0.726382 0.00157038 0)
(0.742514 0.00176801 0)
(0.736152 0.00196683 0)
(0.726162 0.00218583 0)
(0.717905 0.00243238 0)
(0.712993 0.00269228 0)
(0.709183 0.00295515 0)
(0.704948 0.00322269 0)
(0.699955 0.00350093 0)
(0.694376 0.00379728 0)
(0.688339 0.00411685 0)
(0.681873 0.00446332 0)
(0.674948 0.00483953 0)
(0.667493 0.00525134 0)
(0.659441 0.00568988 0)
(0.650743 0.00616685 0)
(0.641371 0.00667636 0)
(0.6313 0.00721827 0)
(0.620512 0.00779281 0)
(0.608993 0.00839982 0)
(0.59673 0.00903949 0)
(0.583698 0.00971284 0)
(0.569868 0.0104215 0)
(0.555217 0.0111672 0)
(0.539717 0.0119515 0)
(0.523332 0.0127765 0)
(0.506023 0.0136447 0)
(0.487782 0.0145582 0)
(0.468621 0.0155166 0)
(0.448503 0.0165188 0)
(0.427339 0.0175644 0)
(0.405081 0.018653 0)
(0.381766 0.0197822 0)
(0.35746 0.0209439 0)
(0.332278 0.0221267 0)
(0.30559 0.0233327 0)
(0.276907 0.0245578 0)
(0.246828 0.0257822 0)
(0.215743 0.026921 0)
(0.183874 0.0278386 0)
(0.151033 0.0283925 0)
(0.117197 0.028512 0)
(0.0837976 0.0281639 0)
(0.0493493 0.0278561 0)
(0.0208666 0.0278984 0)
(2.63736 4.92054e-05 0)
(1.73914 0.00033367 0)
(0.577834 0.00156346 0)
(0.551936 0.00195924 0)
(0.653909 0.00227847 0)
(0.726398 0.00262507 0)
(0.74253 0.00297886 0)
(0.736183 0.00333293 0)
(0.72622 0.00371316 0)
(0.71799 0.00413011 0)
(0.713098 0.00456637 0)
(0.709303 0.00501065 0)
(0.705083 0.00546485 0)
(0.700107 0.00593917 0)
(0.694544 0.00644423 0)
(0.688524 0.0069886 0)
(0.682074 0.00757887 0)
(0.675166 0.00821866 0)
(0.667726 0.00891201 0)
(0.659691 0.00965899 0)
(0.651011 0.0104639 0)
(0.641656 0.011326 0)
(0.631605 0.012246 0)
(0.620836 0.0132243 0)
(0.609339 0.0142612 0)
(0.597099 0.015357 0)
(0.584092 0.0165135 0)
(0.570291 0.0177333 0)
(0.55567 0.0190192 0)
(0.540202 0.020374 0)
(0.52385 0.021801 0)
(0.506576 0.0233046 0)
(0.48837 0.024888 0)
(0.46924 0.0265512 0)
(0.449152 0.0282927 0)
(0.428015 0.0301121 0)
(0.405784 0.0320081 0)
(0.382492 0.0339752 0)
(0.358204 0.0360005 0)
(0.333044 0.0380648 0)
(0.306403 0.0401668 0)
(0.277813 0.0422948 0)
(0.247876 0.0443943 0)
(0.216976 0.0463375 0)
(0.185333 0.0479446 0)
(0.152746 0.0490294 0)
(0.119043 0.049507 0)
(0.0854593 0.0493726 0)
(0.0504144 0.0492291 0)
(0.0211071 0.0494292 0)
(2.6375 5.6367e-05 0)
(1.73956 0.000452994 0)
(0.578289 0.00232305 0)
(0.552083 0.00279472 0)
(0.654043 0.00319024 0)
(0.726556 0.00368086 0)
(0.742701 0.00420964 0)
(0.736374 0.00473503 0)
(0.72645 0.00528697 0)
(0.718259 0.0058806 0)
(0.713395 0.0064981 0)
(0.709621 0.0071288 0)
(0.705421 0.00777565 0)
(0.700464 0.00845233 0)
(0.694922 0.0091726 0)
(0.688923 0.00994834 0)
(0.682497 0.0107895 0)
(0.675613 0.011701 0)
(0.6682 0.0126855 0)
(0.660192 0.0137487 0)
(0.651542 0.0148913 0)
(0.642217 0.0161149 0)
(0.632196 0.0174204 0)
(0.62146 0.0188087 0)
(0.609996 0.0202803 0)
(0.597791 0.0218363 0)
(0.584823 0.0234792 0)
(0.571065 0.0252128 0)
(0.55649 0.0270412 0)
(0.541071 0.0289683 0)
(0.524772 0.0309994 0)
(0.507553 0.0331407 0)
(0.489404 0.0353965 0)
(0.47033 0.0377668 0)
(0.450294 0.0402497 0)
(0.429209 0.0428445 0)
(0.407026 0.0455486 0)
(0.383779 0.0483529 0)
(0.359524 0.0512393 0)
(0.334392 0.0541794 0)
(0.307798 0.0571674 0)
(0.279283 0.0601844 0)
(0.249437 0.0631357 0)
(0.218626 0.0658606 0)
(0.18706 0.0681593 0)
(0.154541 0.0698327 0)
(0.120801 0.0707915 0)
(0.0869654 0.0710404 0)
(0.0513841 0.0712032 0)
(0.0213756 0.0716155 0)
(2.63771 7.08888e-05 0)
(1.74016 0.000611783 0)
(0.578858 0.0030778 0)
(0.552195 0.00366088 0)
(0.654163 0.00415351 0)
(0.726731 0.00478843 0)
(0.7429 0.00549297 0)
(0.736599 0.00619287 0)
(0.726724 0.00692246 0)
(0.718585 0.00769752 0)
(0.713763 0.0085003 0)
(0.710022 0.00932156 0)
(0.705852 0.0101662 0)
(0.700926 0.011051 0)
(0.695414 0.0119925 0)
(0.689446 0.0130058 0)
(0.683052 0.0141045 0)
(0.676202 0.0152947 0)
(0.668827 0.0165786 0)
(0.660862 0.017969 0)
(0.652256 0.0194608 0)
(0.642979 0.0210587 0)
(0.63301 0.0227643 0)
(0.622327 0.0245787 0)
(0.610921 0.0265025 0)
(0.598777 0.0285371 0)
(0.585873 0.0306861 0)
(0.572182 0.0329545 0)
(0.557678 0.0353479 0)
(0.542334 0.0378717 0)
(0.526113 0.040533 0)
(0.508976 0.0433396 0)
(0.49091 0.0462965 0)
(0.471917 0.0494035 0)
(0.451958 0.0526581 0)
(0.430949 0.0560595 0)
(0.408839 0.0596034 0)
(0.385654 0.0632762 0)
(0.361442 0.0670527 0)
(0.336338 0.0708945 0)
(0.309782 0.0747888 0)
(0.281317 0.0787108 0)
(0.251505 0.0825225 0)
(0.22069 0.0860348 0)
(0.189071 0.0890394 0)
(0.156468 0.0913436 0)
(0.122554 0.0928589 0)
(0.0883852 0.0935752 0)
(0.0522742 0.0940999 0)
(0.0216338 0.0947386 0)
(2.638 8.32819e-05 0)
(1.74097 0.000772689 0)
(0.579578 0.00382304 0)
(0.552302 0.00453524 0)
(0.654282 0.00513359 0)
(0.726932 0.00591189 0)
(0.743141 0.00679382 0)
(0.736874 0.0076726 0)
(0.72706 0.00858848 0)
(0.718986 0.00955272 0)
(0.714216 0.0105474 0)
(0.71052 0.0115657 0)
(0.706392 0.0126155 0)
(0.701507 0.0137164 0)
(0.696037 0.0148875 0)
(0.690112 0.0161467 0)
(0.683764 0.0175109 0)
(0.676962 0.0189872 0)
(0.669643 0.0205798 0)
(0.661737 0.0223065 0)
(0.653192 0.0241574 0)
(0.643982 0.02614 0)
(0.634082 0.0282573 0)
(0.623472 0.0305104 0)
(0.61214 0.0329002 0)
(0.600075 0.0354287 0)
(0.587255 0.0381005 0)
(0.573654 0.0409217 0)
(0.559245 0.043899 0)
(0.544 0.0470394 0)
(0.527885 0.0503519 0)
(0.51086 0.053847 0)
(0.492908 0.0575308 0)
(0.474027 0.061403 0)
(0.454178 0.0654616 0)
(0.433275 0.0697059 0)
(0.411266 0.0741302 0)
(0.388168 0.0787153 0)
(0.364014 0.0834283 0)
(0.338942 0.0882211 0)
(0.312422 0.0930714 0)
(0.283987 0.0979557 0)
(0.25416 0.102685 0)
(0.223259 0.107047 0)
(0.191476 0.110831 0)
(0.158655 0.113851 0)
(0.124439 0.116017 0)
(0.089847 0.117295 0)
(0.0531537 0.118247 0)
(0.0218919 0.119135 0)
(2.63836 9.42927e-05 0)
(1.74199 0.000936109 0)
(0.580451 0.0045692 0)
(0.552404 0.00542072 0)
(0.654402 0.00613413 0)
(0.727163 0.00706093 0)
(0.743429 0.00812546 0)
(0.737207 0.00918905 0)
(0.727468 0.0102988 0)
(0.71947 0.0114591 0)
(0.714766 0.0126517 0)
(0.711128 0.0138716 0)
(0.707055 0.0151315 0)
(0.702223 0.0164534 0)
(0.696804 0.0178591 0)
(0.690934 0.0193697 0)
(0.684642 0.0210045 0)
(0.677899 0.0227737 0)
(0.670646 0.0246867 0)
(0.662813 0.0267551 0)
(0.654342 0.0289785 0)
(0.645214 0.0313597 0)
(0.635401 0.0339024 0)
(0.624881 0.0366084 0)
(0.613645 0.0394788 0)
(0.601682 0.0425164 0)
(0.58897 0.0457265 0)
(0.575483 0.0491168 0)
(0.561195 0.052696 0)
(0.546079 0.0564729 0)
(0.5301 0.0604589 0)
(0.51322 0.0646661 0)
(0.495416 0.0691024 0)
(0.476684 0.073768 0)
(0.456981 0.0786619 0)
(0.436223 0.0837854 0)
(0.414353 0.0891313 0)
(0.391375 0.094674 0)
(0.367302 0.100373 0)
(0.342273 0.106172 0)
(0.315795 0.112035 0)
(0.287379 0.117959 0)
(0.257495 0.123685 0)
(0.226445 0.128988 0)
(0.194405 0.13365 0)
(0.161251 0.137493 0)
(0.126609 0.140421 0)
(0.0914842 0.142349 0)
(0.0541279 0.143793 0)
(0.022181 0.14497 0)
(2.63881 0.000107064 0)
(1.74324 0.00109581 0)
(0.581496 0.00531761 0)
(0.552507 0.00631269 0)
(0.654525 0.00714574 0)
(0.727427 0.00822599 0)
(0.74377 0.0094772 0)
(0.737606 0.0107296 0)
(0.727956 0.012038 0)
(0.720047 0.0133997 0)
(0.715419 0.0147958 0)
(0.711848 0.0162238 0)
(0.707836 0.0177008 0)
(0.703061 0.0192512 0)
(0.697693 0.0208991 0)
(0.69187 0.0226684 0)
(0.685626 0.0245805 0)
(0.678934 0.026649 0)
(0.671741 0.0288888 0)
(0.66398 0.0313048 0)
(0.655593 0.0339076 0)
(0.646562 0.0366971 0)
(0.636859 0.0396766 0)
(0.626463 0.0428483 0)
(0.615359 0.0462132 0)
(0.603537 0.0497743 0)
(0.590975 0.0535383 0)
(0.577646 0.0575149 0)
(0.563523 0.0617149 0)
(0.54858 0.0661495 0)
(0.532783 0.0708323 0)
(0.516091 0.0757776 0)
(0.498481 0.0809946 0)
(0.47994 0.0864846 0)
(0.460427 0.0922488 0)
(0.439858 0.0982911 0)
(0.41817 0.104604 0)
(0.395349 0.111155 0)
(0.371387 0.117897 0)
(0.346416 0.124767 0)
(0.319998 0.131713 0)
(0.291603 0.138774 0)
(0.261633 0.145597 0)
(0.230385 0.151951 0)
(0.198011 0.15761 0)
(0.164423 0.162391 0)
(0.129232 0.166195 0)
(0.0934407 0.168875 0)
(0.0552884 0.170873 0)
(0.0225524 0.172376 0)
(2.63935 0.000119467 0)
(1.74475 0.00125247 0)
(0.582728 0.00606558 0)
(0.552613 0.00720587 0)
(0.654656 0.0081628 0)
(0.72773 0.00940142 0)
(0.744171 0.0108436 0)
(0.73808 0.012289 0)
(0.728537 0.0138012 0)
(0.720732 0.0153708 0)
(0.716195 0.016978 0)
(0.712707 0.0186232 0)
(0.708776 0.0203276 0)
(0.704077 0.0221177 0)
(0.698781 0.0240193 0)
(0.69303 0.0260575 0)
(0.686859 0.0282559 0)
(0.680245 0.0306311 0)
(0.673136 0.0331999 0)
(0.665468 0.0359681 0)
(0.657186 0.0389506 0)
(0.648269 0.0421492 0)
(0.638692 0.0455686 0)
(0.628432 0.0492118 0)
(0.617476 0.0530804 0)
(0.605812 0.0571777 0)
(0.593419 0.0615113 0)
(0.580271 0.0660919 0)
(0.566341 0.0709315 0)
(0.551603 0.0760436 0)
(0.536023 0.0814441 0)
(0.519561 0.0871505 0)
(0.502185 0.0931748 0)
(0.48388 0.0995209 0)
(0.464603 0.106193 0)
(0.444271 0.113199 0)
(0.42281 0.120529 0)
(0.400187 0.128147 0)
(0.376373 0.135999 0)
(0.351482 0.144016 0)
(0.325155 0.152138 0)
(0.296797 0.160449 0)
(0.266715 0.168501 0)
(0.235231 0.176049 0)
(0.202454 0.182856 0)
(0.168333 0.18873 0)
(0.132468 0.193543 0)
(0.0958611 0.197087 0)
(0.0567466 0.199718 0)
(0.0230429 0.201557 0)
(2.63998 0.000130801 0)
(1.74652 0.0014011 0)
(0.584162 0.0068078 0)
(0.552726 0.00809472 0)
(0.6548 0.00917661 0)
(0.728081 0.0105773 0)
(0.744642 0.0122139 0)
(0.738639 0.0138558 0)
(0.729223 0.0155756 0)
(0.721537 0.0173576 0)
(0.717106 0.019181 0)
(0.713718 0.0210475 0)
(0.709884 0.0229833 0)
(0.705279 0.0250163 0)
(0.700074 0.0271749 0)
(0.694414 0.0294857 0)
(0.688338 0.0319746 0)
(0.681827 0.0346629 0)
(0.674828 0.0375696 0)
(0.667279 0.0406989 0)
(0.659128 0.0440748 0)
(0.65035 0.0476963 0)
(0.640924 0.0515691 0)
(0.630825 0.0556969 0)
(0.62004 0.0600822 0)
(0.60856 0.0647284 0)
(0.596366 0.0696442 0)
(0.583429 0.0748421 0)
(0.569725 0.0803366 0)
(0.555226 0.0861436 0)
(0.539902 0.092282 0)
(0.523709 0.0987725 0)
(0.506612 0.10563 0)
(0.48859 0.112863 0)
(0.469601 0.12048 0)
(0.449558 0.128491 0)
(0.428377 0.13689 0)
(0.406004 0.145636 0)
(0.382382 0.15467 0)
(0.357607 0.163927 0)
(0.331419 0.17334 0)
(0.303131 0.183025 0)
(0.272931 0.192466 0)
(0.241191 0.201378 0)
(0.207959 0.209513 0)
(0.173207 0.216661 0)
(0.13653 0.222658 0)
(0.0989157 0.227219 0)
(0.0585952 0.230587 0)
(0.0236867 0.232814 0)
(2.64071 0.00014189 0)
(1.74856 0.00154284 0)
(0.585811 0.00754579 0)
(0.552848 0.00895853 0)
(0.654959 0.0101825 0)
(0.728486 0.0117437 0)
(0.745192 0.013575 0)
(0.739295 0.0154166 0)
(0.730027 0.0173485 0)
(0.722478 0.0193491 0)
(0.718166 0.0213959 0)
(0.71489 0.0234922 0)
(0.711165 0.0256682 0)
(0.706662 0.0279535 0)
(0.701554 0.0303781 0)
(0.695989 0.0329696 0)
(0.690011 0.0357561 0)
(0.683606 0.0387625 0)
(0.676721 0.0420095 0)
(0.669305 0.0455038 0)
(0.661307 0.0492751 0)
(0.652695 0.0533223 0)
(0.643453 0.0576532 0)
(0.633554 0.0622725 0)
(0.622984 0.0671834 0)
(0.611733 0.0723897 0)
(0.599785 0.0779007 0)
(0.587111 0.0837303 0)
(0.573685 0.0898954 0)
(0.559482 0.0964147 0)
(0.544469 0.103311 0)
(0.528602 0.110608 0)
(0.511842 0.118327 0)
(0.494162 0.126481 0)
(0.47552 0.135082 0)
(0.455829 0.144145 0)
(0.43499 0.153667 0)
(0.412927 0.163605 0)
(0.38956 0.173903 0)
(0.364961 0.184506 0)
(0.33897 0.195345 0)
(0.310802 0.206538 0)
(0.280498 0.21756 0)
(0.248486 0.228061 0)
(0.214753 0.237765 0)
(0.179278 0.246428 0)
(0.14164 0.253842 0)
(0.102805 0.259616 0)
(0.0609941 0.263873 0)
(0.0245602 0.266568 0)
(2.64154 0.000154817 0)
(1.75092 0.00170088 0)
(0.587667 0.00825474 0)
(0.552978 0.00980466 0)
(0.655149 0.0111558 0)
(0.728948 0.0128786 0)
(0.745831 0.0149084 0)
(0.740062 0.0169535 0)
(0.730967 0.0191024 0)
(0.723575 0.0213276 0)
(0.7194 0.023604 0)
(0.716254 0.0259375 0)
(0.712657 0.028361 0)
(0.708277 0.0309053 0)
(0.703285 0.0336025 0)
(0.697834 0.0364816 0)
(0.691973 0.0395711 0)
(0.685694 0.0428995 0)
(0.678942 0.046489 0)
(0.671677 0.0503555 0)
(0.663849 0.0545238 0)
(0.655423 0.0590015 0)
(0.646386 0.0637957 0)
(0.636712 0.0689119 0)
(0.626386 0.0743547 0)
(0.615399 0.0801288 0)
(0.603736 0.0862447 0)
(0.591369 0.0927183 0)
(0.57827 0.0995688 0)
(0.564414 0.106818 0)
(0.54977 0.11449 0)
(0.534293 0.122616 0)
(0.517937 0.131222 0)
(0.500672 0.140327 0)
(0.482454 0.14995 0)
(0.463192 0.160112 0)
(0.442773 0.170814 0)
(0.4211 0.182018 0)
(0.398075 0.193674 0)
(0.373739 0.205745 0)
(0.348019 0.218163 0)
(0.320051 0.231016 0)
(0.289708 0.243835 0)
(0.257453 0.256189 0)
(0.223202 0.267757 0)
(0.186916 0.278263 0)
(0.148139 0.287417 0)
(0.1078 0.294712 0)
(0.0641102 0.300084 0)
(0.0257299 0.303331 0)
(2.64249 0.000167858 0)
(1.75357 0.00185746 0)
(0.589747 0.0089198 0)
(0.553123 0.010622 0)
(0.655354 0.0120758 0)
(0.729487 0.0139612 0)
(0.746578 0.0161936 0)
(0.740962 0.0184455 0)
(0.732068 0.0208176 0)
(0.724854 0.023274 0)
(0.720833 0.0257869 0)
(0.717832 0.0283654 0)
(0.714378 0.0310444 0)
(0.710133 0.0338554 0)
(0.705271 0.0368333 0)
(0.699944 0.0400081 0)
(0.694212 0.0434077 0)
(0.68807 0.0470634 0)
(0.681469 0.0509996 0)
(0.674373 0.0552396 0)
(0.666738 0.0598072 0)
(0.658526 0.0647163 0)
(0.649724 0.0699749 0)
(0.640307 0.0755902 0)
(0.63026 0.0815683 0)
(0.619576 0.087915 0)
(0.608239 0.0946424 0)
(0.596226 0.101769 0)
(0.583507 0.109316 0)
(0.570057 0.117308 0)
(0.555846 0.125774 0)
(0.540827 0.134748 0)
(0.524952 0.144264 0)
(0.508185 0.154348 0)
(0.490479 0.165027 0)
(0.471742 0.17633 0)
(0.451845 0.188268 0)
(0.430672 0.200815 0)
(0.40811 0.213935 0)
(0.384162 0.227608 0)
(0.358809 0.241765 0)
(0.331148 0.25647 0)
(0.300879 0.27134 0)
(0.268444 0.285874 0)
(0.233694 0.299688 0)
(0.196536 0.312448 0)
(0.156459 0.323773 0)
(0.1143 0.333013 0)
(0.0682124 0.339875 0)
(0.0272902 0.343911 0)
(2.64355 0.000178474 0)
(1.75652 0.00198572 0)
(0.592058 0.00953868 0)
(0.553283 0.0113683 0)
(0.655588 0.0129309 0)
(0.730112 0.0149723 0)
(0.74745 0.0174061 0)
(0.742017 0.0198668 0)
(0.733358 0.0224682 0)
(0.726347 0.0251636 0)
(0.722499 0.0279216 0)
(0.719664 0.0307546 0)
(0.716369 0.0336988 0)
(0.712279 0.0367861 0)
(0.707567 0.0400538 0)
(0.702386 0.0435324 0)
(0.696802 0.0472486 0)
(0.690818 0.051235 0)
(0.68439 0.05552 0)
(0.677488 0.0601327 0)
(0.670069 0.0651017 0)
(0.662095 0.0704412 0)
(0.653554 0.0761627 0)
(0.644424 0.0822763 0)
(0.634688 0.0887899 0)
(0.62434 0.0957108 0)
(0.613368 0.103052 0)
(0.60175 0.110835 0)
(0.589459 0.119085 0)
(0.576471 0.12783 0)
(0.562756 0.137104 0)
(0.548269 0.146944 0)
(0.532958 0.157393 0)
(0.516781 0.168484 0)
(0.499688 0.180252 0)
(0.481586 0.192738 0)
(0.462335 0.205967 0)
(0.441805 0.219934 0)
(0.419864 0.234623 0)
(0.396467 0.250027 0)
(0.371623 0.266087 0)
(0.344439 0.282856 0)
(0.314441 0.300073 0)
(0.281981 0.317173 0)
(0.246814 0.333714 0)
(0.208756 0.349291 0)
(0.167205 0.36343 0)
(0.122859 0.375283 0)
(0.0737564 0.384211 0)
(0.0294904 0.389371 0)
(2.64471 0.000186836 0)
(1.75978 0.00209266 0)
(0.594595 0.0100784 0)
(0.553459 0.0120218 0)
(0.65586 0.0136856 0)
(0.730837 0.0158767 0)
(0.748467 0.0185113 0)
(0.743253 0.0211835 0)
(0.734865 0.0240225 0)
(0.728079 0.0269669 0)
(0.724423 0.0299805 0)
(0.721768 0.0330787 0)
(0.718649 0.0362976 0)
(0.714729 0.0396708 0)
(0.710181 0.0432354 0)
(0.705159 0.0470243 0)
(0.699734 0.0510616 0)
(0.693922 0.0553818 0)
(0.687684 0.0600196 0)
(0.680999 0.065011 0)
(0.673822 0.0703808 0)
(0.666114 0.0761533 0)
(0.65787 0.0823394 0)
(0.649065 0.0889518 0)
(0.639683 0.0960005 0)
(0.629718 0.103494 0)
(0.61916 0.111448 0)
(0.607992 0.119886 0)
(0.596189 0.128836 0)
(0.583728 0.138333 0)
(0.570581 0.148413 0)
(0.556707 0.159125 0)
(0.542052 0.170516 0)
(0.526568 0.182631 0)
(0.510203 0.195514 0)
(0.492864 0.209218 0)
(0.474407 0.223793 0)
(0.454689 0.239257 0)
(0.433562 0.255616 0)
(0.41092 0.272883 0)
(0.38678 0.291024 0)
(0.360311 0.310085 0)
(0.330866 0.330022 0)
(0.298632 0.350149 0)
(0.263258 0.37002 0)
(0.224409 0.389153 0)
(0.181317 0.406983 0)
(0.134395 0.422456 0)
(0.0813816 0.434437 0)
(0.0325622 0.441383 0)
(2.64598 0.000192533 0)
(1.76332 0.00217391 0)
(0.597348 0.010507 0)
(0.553653 0.0125488 0)
(0.656177 0.0143027 0)
(0.731679 0.0166373 0)
(0.749654 0.0194734 0)
(0.744697 0.022362 0)
(0.73662 0.0254494 0)
(0.730084 0.028655 0)
(0.726638 0.0319364 0)
(0.724183 0.0353115 0)
(0.721257 0.0388166 0)
(0.717522 0.0424902 0)
(0.713156 0.046362 0)
(0.708305 0.0504678 0)
(0.703052 0.0548305 0)
(0.697423 0.0594869 0)
(0.691394 0.064479 0)
(0.684941 0.0698458 0)
(0.678027 0.075603 0)
(0.670616 0.0818032 0)
(0.6627 0.0884449 0)
(0.654259 0.0955476 0)
(0.645277 0.103124 0)
(0.635745 0.111186 0)
(0.625658 0.119749 0)
(0.614999 0.128839 0)
(0.603748 0.138488 0)
(0.591885 0.148736 0)
(0.579386 0.159625 0)
(0.566213 0.171208 0)
(0.552313 0.183544 0)
(0.537636 0.196689 0)
(0.522129 0.2107 0)
(0.505704 0.225644 0)
(0.488219 0.241602 0)
(0.469517 0.25862 0)
(0.449438 0.276732 0)
(0.427819 0.29598 0)
(0.40465 0.316377 0)
(0.379268 0.337972 0)
(0.350813 0.361011 0)
(0.319206 0.384696 0)
(0.284016 0.408655 0)
(0.24465 0.432316 0)
(0.200109 0.45511 0)
(0.150301 0.475753 0)
(0.0923837 0.492454 0)
(0.0372437 0.502519 0)
(2.64734 0.00019568 0)
(1.7671 0.00221915 0)
(0.600296 0.010781 0)
(0.553877 0.0129006 0)
(0.656562 0.0147283 0)
(0.732676 0.0171993 0)
(0.751064 0.0202413 0)
(0.746415 0.0233563 0)
(0.738695 0.0267107 0)
(0.732433 0.0301976 0)
(0.729212 0.0337657 0)
(0.726967 0.0374357 0)
(0.724249 0.0412447 0)
(0.720715 0.0452358 0)
(0.716539 0.0494307 0)
(0.711873 0.0538607 0)
(0.706803 0.0585555 0)
(0.701375 0.0635517 0)
(0.695573 0.0688981 0)
(0.689363 0.0746318 0)
(0.682735 0.0807769 0)
(0.67565 0.0873943 0)
(0.668086 0.0944825 0)
(0.660044 0.102063 0)
(0.651503 0.110155 0)
(0.642453 0.118771 0)
(0.632892 0.127929 0)
(0.622808 0.137657 0)
(0.612183 0.147992 0)
(0.601 0.158976 0)
(0.589239 0.17066 0)
(0.576867 0.183103 0)
(0.563835 0.196374 0)
(0.550092 0.210544 0)
(0.535586 0.225681 0)
(0.520244 0.241871 0)
(0.503929 0.259232 0)
(0.486479 0.277839 0)
(0.467725 0.29776 0)
(0.447462 0.319089 0)
(0.425629 0.341914 0)
(0.401813 0.366363 0)
(0.374938 0.392738 0)
(0.344605 0.420555 0)
(0.310303 0.449453 0)
(0.271113 0.478964 0)
(0.225671 0.50857 0)
(0.172972 0.536855 0)
(0.108937 0.561379 0)
(0.0446876 0.577324 0)
(2.64876 0.000195205 0)
(1.77108 0.00221648 0)
(0.603402 0.0108406 0)
(0.554132 0.0130108 0)
(0.657026 0.0148939 0)
(0.733854 0.0174973 0)
(0.752729 0.0207567 0)
(0.748443 0.0241147 0)
(0.741127 0.0277588 0)
(0.735156 0.031546 0)
(0.73217 0.0354134 0)
(0.73015 0.0393876 0)
(0.727658 0.0435087 0)
(0.724341 0.0478239 0)
(0.720364 0.0523499 0)
(0.71589 0.0571069 0)
(0.711013 0.0621355 0)
(0.705797 0.0674725 0)
(0.700229 0.0731699 0)
(0.694281 0.0792668 0)
(0.687959 0.0858042 0)
(0.681222 0.0928165 0)
(0.674041 0.100338 0)
(0.666433 0.108381 0)
(0.658376 0.11697 0)
(0.64986 0.126122 0)
(0.640882 0.135858 0)
(0.631435 0.146207 0)
(0.621509 0.15721 0)
(0.61109 0.168913 0)
(0.600162 0.181372 0)
(0.5887 0.194654 0)
(0.576661 0.208839 0)
(0.563996 0.224011 0)
(0.550657 0.240254 0)
(0.536594 0.257674 0)
(0.521684 0.276403 0)
(0.505754 0.296615 0)
(0.488656 0.318358 0)
(0.47018 0.341864 0)
(0.450236 0.367178 0)
(0.428486 0.394575 0)
(0.40394 0.424654 0)
(0.375971 0.457249 0)
(0.343799 0.492026 0)
(0.306169 0.52893 0)
(0.26116 0.567786 0)
(0.206542 0.607555 0)
(0.1357 0.645647 0)
(0.0579501 0.674627 0)
(2.65021 0.000188199 0)
(1.77516 0.00215357 0)
(0.606603 0.0106097 0)
(0.554434 0.0127902 0)
(0.657608 0.014711 0)
(0.735272 0.0174579 0)
(0.754722 0.0209761 0)
(0.750855 0.0246287 0)
(0.743983 0.0286254 0)
(0.738309 0.032764 0)
(0.735559 0.0369708 0)
(0.733775 0.0412831 0)
(0.731527 0.0457466 0)
(0.728447 0.0504129 0)
(0.724682 0.0552895 0)
(0.720412 0.0603835 0)
(0.715748 0.0657493 0)
(0.710762 0.0714206 0)
(0.705452 0.0774559 0)
(0.699794 0.0839022 0)
(0.693789 0.0908031 0)
(0.687415 0.0981772 0)
(0.680649 0.106102 0)
(0.673497 0.114575 0)
(0.665954 0.123625 0)
(0.65801 0.133278 0)
(0.649662 0.143556 0)
(0.64091 0.154492 0)
(0.631749 0.166127 0)
(0.622169 0.178515 0)
(0.612165 0.191716 0)
(0.60172 0.205801 0)
(0.590802 0.220861 0)
(0.579368 0.236991 0)
(0.567375 0.254298 0)
(0.55478 0.272902 0)
(0.541543 0.292946 0)
(0.527454 0.314697 0)
(0.51242 0.338198 0)
(0.49617 0.363686 0)
(0.478583 0.391592 0)
(0.459842 0.422207 0)
(0.438827 0.456146 0)
(0.414504 0.493937 0)
(0.386242 0.535435 0)
(0.352679 0.581311 0)
(0.311302 0.632366 0)
(0.258349 0.689319 0)
(0.182825 0.751367 0)
(0.0849671 0.812919 0)
(2.65165 0.000177972 0)
(1.77921 0.0020072 0)
(0.609783 0.0100097 0)
(0.554801 0.0121257 0)
(0.658372 0.0140517 0)
(0.737054 0.0169215 0)
(0.757211 0.0207103 0)
(0.753849 0.0246825 0)
(0.747471 0.029052 0)
(0.742084 0.0335452 0)
(0.739558 0.0380883 0)
(0.738008 0.0427315 0)
(0.736011 0.047529 0)
(0.733169 0.0525515 0)
(0.729599 0.0577873 0)
(0.72552 0.0632373 0)
(0.721062 0.0689571 0)
(0.716301 0.0749841 0)
(0.711255 0.0813756 0)
(0.705893 0.0881822 0)
(0.700208 0.0954454 0)
(0.69422 0.1032 0)
(0.6879 0.111504 0)
(0.681233 0.120388 0)
(0.674245 0.129871 0)
(0.66692 0.139986 0)
(0.659255 0.150761 0)
(0.651257 0.162231 0)
(0.642926 0.174441 0)
(0.634264 0.18745 0)
(0.625273 0.201323 0)
(0.615949 0.216138 0)
(0.606274 0.231992 0)
(0.596223 0.248993 0)
(0.585759 0.267262 0)
(0.574853 0.286964 0)
(0.563543 0.3082 0)
(0.551592 0.331159 0)
(0.538862 0.356235 0)
(0.525553 0.383722 0)
(0.511466 0.414145 0)
(0.496375 0.447865 0)
(0.479934 0.485458 0)
(0.461251 0.52814 0)
(0.439612 0.576615 0)
(0.414179 0.632468 0)
(0.382726 0.698439 0)
(0.340896 0.78009 0)
(0.274414 0.887691 0)
(0.148992 1.05522 0)
(2.65328 0.000148252 0)
(1.78383 0.00171041 0)
(0.613422 0.00859758 0)
(0.555358 0.0106706 0)
(0.659556 0.0126997 0)
(0.739665 0.0159221 0)
(0.760847 0.0202493 0)
(0.758186 0.024902 0)
(0.75244 0.0298546 0)
(0.747392 0.0348745 0)
(0.745146 0.0399055 0)
(0.743907 0.0449914 0)
(0.742277 0.0501935 0)
(0.739798 0.0556088 0)
(0.73653 0.0612329 0)
(0.732743 0.0670655 0)
(0.728601 0.0731403 0)
(0.724188 0.0795271 0)
(0.719532 0.0862728 0)
(0.714607 0.0934334 0)
(0.709415 0.101057 0)
(0.703973 0.109193 0)
(0.698283 0.117876 0)
(0.692336 0.127178 0)
(0.686143 0.137118 0)
(0.679718 0.14773 0)
(0.673058 0.159047 0)
(0.666175 0.171106 0)
(0.659081 0.183952 0)
(0.651791 0.197646 0)
(0.644321 0.212257 0)
(0.636687 0.227868 0)
(0.628896 0.244585 0)
(0.620954 0.262536 0)
(0.612893 0.281813 0)
(0.604616 0.302527 0)
(0.596072 0.324939 0)
(0.587549 0.349369 0)
(0.57921 0.376228 0)
(0.570827 0.40587 0)
(0.562255 0.438633 0)
(0.553723 0.475128 0)
(0.545474 0.516346 0)
(0.537544 0.563626 0)
(0.530291 0.618751 0)
(0.524943 0.684225 0)
(0.524616 0.764278 0)
(0.53732 0.866328 0)
(0.59331 1.00192 0)
(0.663886 1.19874 0)
(2.6548 7.46643e-05 0)
(1.78811 0.000997565 0)
(0.617295 0.0050576 0)
(0.557017 0.00676191 0)
(0.662301 0.00873038 0)
(0.744428 0.0123353 0)
(0.767098 0.017324 0)
(0.7652 0.0228972 0)
(0.75987 0.0286002 0)
(0.755033 0.0343081 0)
(0.752922 0.0399951 0)
(0.751835 0.0457097 0)
(0.750435 0.0515088 0)
(0.748222 0.0574914 0)
(0.745168 0.0636952 0)
(0.741551 0.0700834 0)
(0.737619 0.0766825 0)
(0.733479 0.0835765 0)
(0.729142 0.0908025 0)
(0.724597 0.098414 0)
(0.719841 0.106462 0)
(0.7149 0.114995 0)
(0.709805 0.124062 0)
(0.70455 0.133721 0)
(0.699136 0.144026 0)
(0.69359 0.155035 0)
(0.687924 0.166757 0)
(0.682151 0.179253 0)
(0.676294 0.192569 0)
(0.670379 0.206764 0)
(0.664437 0.22191 0)
(0.658507 0.238095 0)
(0.652641 0.2554 0)
(0.646803 0.273882 0)
(0.640941 0.293727 0)
(0.635314 0.315201 0)
(0.63028 0.338546 0)
(0.625746 0.364055 0)
(0.621651 0.391937 0)
(0.618228 0.422516 0)
(0.615691 0.456321 0)
(0.614568 0.494023 0)
(0.61562 0.53654 0)
(0.61985 0.585177 0)
(0.629096 0.641643 0)
(0.646684 0.708051 0)
(0.678538 0.787142 0)
(0.733941 0.882063 0)
(0.846015 0.992987 0)
(0.995316 1.10913 0)
(2.65529 -1.79616e-05 0)
(1.7894 0.00011325 0)
(0.618931 0.000307228 0)
(0.559033 0.0023878 0)
(0.666037 0.00525471 0)
(0.750678 0.0102098 0)
(0.775265 0.0165717 0)
(0.774252 0.0232788 0)
(0.769206 0.0299033 0)
(0.764532 0.0362013 0)
(0.762557 0.0422845 0)
(0.761637 0.048327 0)
(0.760461 0.0544268 0)
(0.758539 0.0606586 0)
(0.755712 0.0670884 0)
(0.752241 0.0737007 0)
(0.748497 0.0805435 0)
(0.744592 0.0876788 0)
(0.740519 0.0951591 0)
(0.736289 0.103026 0)
(0.731909 0.111327 0)
(0.727408 0.120116 0)
(0.722824 0.129446 0)
(0.718175 0.139367 0)
(0.713508 0.149946 0)
(0.708794 0.161234 0)
(0.704049 0.173277 0)
(0.699355 0.186127 0)
(0.694711 0.199812 0)
(0.690157 0.214398 0)
(0.685742 0.229942 0)
(0.68148 0.24645 0)
(0.677322 0.264046 0)
(0.673458 0.28294 0)
(0.670273 0.303282 0)
(0.667746 0.325304 0)
(0.665869 0.349114 0)
(0.664869 0.374836 0)
(0.664954 0.402803 0)
(0.666496 0.433377 0)
(0.669975 0.467012 0)
(0.676114 0.50425 0)
(0.685986 0.545676 0)
(0.701138 0.592181 0)
(0.723936 0.644717 0)
(0.757993 0.704113 0)
(0.808871 0.770611 0)
(0.882264 0.84312 0)
(0.996694 0.9164 0)
(1.13423 0.970749 0)
(2.65504 -0.000236282 0)
(1.78819 -0.00261111 0)
(0.62143 -0.0121585 0)
(0.56692 -0.0106599 0)
(0.675869 -0.00688183 0)
(0.762592 0.000564422 0)
(0.78812 0.00952754 0)
(0.787116 0.0182673 0)
(0.78159 0.0267333 0)
(0.776242 0.0343921 0)
(0.773923 0.0415717 0)
(0.772928 0.0486092 0)
(0.771771 0.0556362 0)
(0.76991 0.0626817 0)
(0.767177 0.0697904 0)
(0.763835 0.0770069 0)
(0.760266 0.0843968 0)
(0.756599 0.0920024 0)
(0.752824 0.0998754 0)
(0.748941 0.10806 0)
(0.744976 0.116611 0)
(0.74097 0.125588 0)
(0.736958 0.135053 0)
(0.732972 0.145067 0)
(0.72903 0.155704 0)
(0.725155 0.167007 0)
(0.721395 0.179082 0)
(0.717762 0.191961 0)
(0.714299 0.205708 0)
(0.711065 0.220302 0)
(0.707979 0.23581 0)
(0.705177 0.252381 0)
(0.703024 0.270116 0)
(0.701511 0.289168 0)
(0.700637 0.309601 0)
(0.700612 0.331455 0)
(0.701606 0.354919 0)
(0.703895 0.380168 0)
(0.707821 0.407447 0)
(0.713837 0.437031 0)
(0.722544 0.469218 0)
(0.734709 0.504331 0)
(0.751481 0.542622 0)
(0.774429 0.584379 0)
(0.805567 0.629757 0)
(0.847719 0.678504 0)
(0.904642 0.729569 0)
(0.979038 0.780322 0)
(1.08221 0.826374 0)
(1.19739 0.853422 0)
(2.65007 0.00304176 0)
(1.77405 -0.00954118 0)
(0.622547 -0.0262443 0)
(0.586089 -0.018156 0)
(0.699429 -0.00900409 0)
(0.789239 0.000588333 0)
(0.815198 0.0101774 0)
(0.813563 0.0192383 0)
(0.806965 0.0278521 0)
(0.800251 0.0356387 0)
(0.797063 0.042944 0)
(0.795484 0.0500603 0)
(0.793746 0.0571234 0)
(0.79124 0.0641442 0)
(0.787866 0.0712051 0)
(0.783943 0.0784492 0)
(0.779856 0.0859387 0)
(0.775716 0.093693 0)
(0.77154 0.101738 0)
(0.767365 0.110112 0)
(0.763235 0.118862 0)
(0.759191 0.128036 0)
(0.75527 0.13769 0)
(0.751502 0.14788 0)
(0.747906 0.158667 0)
(0.74452 0.170117 0)
(0.741359 0.182315 0)
(0.738464 0.195236 0)
(0.735778 0.208955 0)
(0.733371 0.22357 0)
(0.731577 0.239145 0)
(0.730433 0.255793 0)
(0.729874 0.273522 0)
(0.730031 0.292321 0)
(0.731093 0.312304 0)
(0.733253 0.333583 0)
(0.736738 0.356282 0)
(0.741854 0.380546 0)
(0.748975 0.406498 0)
(0.758572 0.43431 0)
(0.771236 0.464109 0)
(0.787733 0.496004 0)
(0.809051 0.530028 0)
(0.836483 0.566018 0)
(0.871535 0.603658 0)
(0.916107 0.642194 0)
(0.972624 0.680294 0)
(1.04278 0.715543 0)
(1.13103 0.745077 0)
(1.22588 0.760234 0)
(2.6373 0.0116014 0)
(1.72778 -0.0818109 0)
(0.662699 -0.0987532 0)
(0.643173 -0.0619409 0)
(0.743645 -0.0227724 0)
(0.825768 -0.00112056 0)
(0.8492 0.00993481 0)
(0.846717 0.0198254 0)
(0.839215 0.0284113 0)
(0.831568 0.0374664 0)
(0.827547 0.0466867 0)
(0.825196 0.0555798 0)
(0.822673 0.0640069 0)
(0.819411 0.0720146 0)
(0.815509 0.0797411 0)
(0.811229 0.087397 0)
(0.806778 0.0950683 0)
(0.802253 0.102805 0)
(0.797709 0.110676 0)
(0.793198 0.118766 0)
(0.788773 0.127151 0)
(0.784485 0.135909 0)
(0.780374 0.145114 0)
(0.776475 0.154834 0)
(0.772823 0.165146 0)
(0.769487 0.176105 0)
(0.766391 0.187729 0)
(0.763566 0.200085 0)
(0.761293 0.213263 0)
(0.759641 0.227393 0)
(0.75857 0.242501 0)
(0.758144 0.258541 0)
(0.758504 0.275541 0)
(0.759796 0.293573 0)
(0.762215 0.312683 0)
(0.765978 0.332943 0)
(0.771308 0.354425 0)
(0.778489 0.377198 0)
(0.787896 0.401319 0)