/*--------------------------------*- C++ -*----------------------------------*\
| =========                 |                                                 |
| \\      /  F ield         | OpenFOAM: The Open Source CFD Toolbox           |
|  \\    /   O peration     | Version:  2412                                  |
|   \\  /    A nd           | Website:  www.openfoam.com                      |
|    \\/     M anipulation  |                                                 |
\*---------------------------------------------------------------------------*/
FoamFile
{
    version     2.0;
    format      ascii;
    arch        "LSB;label=32;scalar=64";
    class       volScalarField;
    location    "17";
    object      Ma;
}
// * * * * * * * * * * * * * * * * * * * * * * * * * * * * * * * * * * * * * //

dimensions      [0 0 0 0 0 0 0];

internalField   nonuniform List<scalar> 
7000
(
2.25619
0.994544
0.30078
0.338457
0.401091
0.442446
0.450664
0.446195
0.439847
0.434934
0.432092
0.429819
0.427224
0.424135
0.420667
0.41689
0.412826
0.408446
0.403736
0.398673
0.393252
0.387452
0.381265
0.37467
0.367656
0.360199
0.352288
0.343898
0.335015
0.325613
0.315678
0.30518
0.29411
0.282435
0.270148
0.257219
0.243645
0.229402
0.214494
0.198906
0.182657
0.165746
0.148209
0.130069
0.111384
0.0922064
0.0726008
0.0528591
0.0319306
0.015526
2.25625
0.994605
0.300577
0.338291
0.400936
0.442298
0.450516
0.44605
0.439708
0.434802
0.431965
0.429695
0.427103
0.424019
0.420555
0.416784
0.412725
0.408351
0.403647
0.398592
0.393177
0.387386
0.381207
0.374622
0.367618
0.360173
0.352275
0.343898
0.335031
0.325645
0.315728
0.305251
0.294202
0.282551
0.270291
0.257391
0.24385
0.229642
0.214774
0.199231
0.183033
0.166183
0.14872
0.130675
0.112117
0.0931305
0.0738288
0.0546675
0.0351645
0.0220599
2.25638
0.994802
0.30071
0.338326
0.400966
0.442331
0.45055
0.44609
0.439766
0.434871
0.432048
0.429782
0.427201
0.424122
0.420673
0.416909
0.412866
0.408501
0.403815
0.398771
0.393377
0.387601
0.381446
0.37488
0.367904
0.360484
0.352619
0.344273
0.335445
0.326098
0.316229
0.3058
0.294809
0.283219
0.271029
0.258206
0.244751
0.230642
0.215886
0.200473
0.184426
0.167759
0.150518
0.132758
0.114579
0.096129
0.0776436
0.0598514
0.0430482
0.0335765
2.25655
0.995108
0.300981
0.338404
0.401047
0.44243
0.450653
0.446208
0.439896
0.43503
0.432216
0.429971
0.427396
0.424341
0.420901
0.417164
0.413133
0.408798
0.404127
0.399118
0.393743
0.388006
0.381876
0.375357
0.368412
0.361046
0.353221
0.34494
0.336162
0.326893
0.317086
0.306751
0.29584
0.284362
0.272275
0.259587
0.246267
0.232324
0.217745
0.202546
0.186742
0.170364
0.153481
0.136162
0.11857
0.100909
0.0835604
0.0674694
0.0533109
0.0461865
2.2568
0.995539
0.301331
0.338473
0.401132
0.442551
0.450783
0.446357
0.440059
0.435233
0.432432
0.430217
0.427653
0.424631
0.421206
0.417507
0.413496
0.409202
0.404557
0.399594
0.394253
0.388568
0.382482
0.376022
0.369133
0.361835
0.354081
0.345879
0.337192
0.328013
0.318322
0.308094
0.297326
0.285978
0.274069
0.261544
0.248444
0.23471
0.220408
0.205488
0.190041
0.174056
0.157659
0.140935
0.124087
0.107423
0.0913827
0.0770417
0.0651174
0.0595021
2.25713
0.996112
0.301774
0.338545
0.401228
0.442696
0.450952
0.446528
0.440289
0.435468
0.432727
0.43051
0.428004
0.424981
0.421621
0.417927
0.413986
0.409702
0.405136
0.400189
0.394936
0.389278
0.383291
0.376869
0.370093
0.36285
0.355224
0.347098
0.338557
0.329481
0.319955
0.309865
0.299287
0.288122
0.276431
0.264145
0.251305
0.237881
0.223899
0.209382
0.194357
0.178913
0.163108
0.147132
0.131181
0.115627
0.100996
0.0883107
0.0781981
0.0736292
2.25755
0.996838
0.302318
0.338621
0.401335
0.442875
0.451156
0.44676
0.44055
0.43578
0.433067
0.430894
0.428413
0.42544
0.42211
0.418474
0.414568
0.410352
0.405825
0.40096
0.395754
0.390193
0.384264
0.377959
0.371254
0.364152
0.356613
0.348656
0.340225
0.331353
0.321967
0.312118
0.301722
0.29084
0.279389
0.267433
0.254909
0.241876
0.228312
0.21427
0.199797
0.184958
0.169909
0.154768
0.13985
0.125495
0.112248
0.101092
0.0924563
0.0886364
2.25806
0.99773
0.30297
0.338702
0.401456
0.443085
0.451404
0.447041
0.440869
0.436156
0.43348
0.431359
0.428913
0.425997
0.42271
0.419138
0.415284
0.41114
0.406677
0.401894
0.396769
0.391303
0.385473
0.379278
0.372697
0.365724
0.358341
0.350534
0.342297
0.333603
0.32446
0.314824
0.304729
0.294109
0.283029
0.271404
0.259328
0.246724
0.233698
0.220218
0.206403
0.192304
0.178069
0.163915
0.150072
0.136974
0.12509
0.115279
0.107856
0.104636
2.25868
0.9988
0.30374
0.33879
0.401592
0.443331
0.4517
0.44737
0.44126
0.436596
0.433981
0.431904
0.429519
0.426652
0.423435
0.419922
0.416147
0.412073
0.407702
0.403004
0.397985
0.392623
0.386919
0.380853
0.374422
0.367607
0.360403
0.352792
0.344769
0.336317
0.327428
0.318094
0.308303
0.298059
0.287343
0.276187
0.264559
0.252533
0.240075
0.227302
0.214217
0.20098
0.187693
0.174564
0.161916
0.150046
0.139468
0.130906
0.124508
0.121731
2.2594
1.00006
0.304637
0.338888
0.401746
0.44362
0.452048
0.447772
0.441712
0.437128
0.434561
0.432558
0.430223
0.427437
0.424279
0.420856
0.417154
0.413182
0.408899
0.404319
0.399409
0.394184
0.388616
0.382711
0.376447
0.369825
0.362825
0.355446
0.347673
0.339502
0.330922
0.321927
0.312517
0.302682
0.292439
0.281777
0.270737
0.25931
0.247579
0.235543
0.223349
0.211027
0.198811
0.186815
0.17536
0.164804
0.155458
0.14801
0.142507
0.140162
2.26024
1.00152
0.305671
0.338997
0.401922
0.443952
0.452459
0.448228
0.44226
0.437736
0.435256
0.433308
0.431062
0.428338
0.425281
0.421932
0.418343
0.414461
0.410308
0.405836
0.401078
0.395988
0.390598
0.38486
0.378806
0.372391
0.365642
0.358519
0.351047
0.343191
0.334973
0.326367
0.317394
0.308041
0.298326
0.288258
0.277858
0.267164
0.256208
0.24507
0.233812
0.22257
0.211467
0.200724
0.190543
0.181244
0.173184
0.166828
0.162153
0.160118
2.2612
1.0032
0.306849
0.339122
0.402123
0.44434
0.452935
0.448779
0.442886
0.438462
0.436049
0.434195
0.43202
0.4294
0.426425
0.423193
0.4197
0.415952
0.411915
0.407601
0.402983
0.39808
0.392861
0.387345
0.381501
0.375352
0.36886
0.362057
0.354902
0.347429
0.339603
0.331459
0.32297
0.314173
0.305057
0.29566
0.286
0.276113
0.266066
0.255891
0.245732
0.235627
0.225802
0.216353
0.207563
0.199633
0.192787
0.187513
0.183652
0.182046
2.26228
1.00509
0.308179
0.339265
0.402354
0.444778
0.453489
0.449403
0.44363
0.439289
0.436982
0.435204
0.433139
0.430607
0.427753
0.424624
0.42127
0.417644
0.413767
0.409601
0.405172
0.400449
0.395454
0.390158
0.384583
0.378701
0.372534
0.366057
0.359293
0.35222
0.344867
0.337213
0.329298
0.321103
0.312683
0.304024
0.295206
0.286222
0.277183
0.26811
0.259133
0.250344
0.241863
0.233892
0.226544
0.220089
0.21467
0.210571
0.207593
0.20629
2.26349
1.00721
0.309663
0.339417
0.40263
0.445272
0.454123
0.450133
0.444477
0.440254
0.438041
0.436373
0.434406
0.431997
0.429255
0.426267
0.423041
0.419578
0.415853
0.41188
0.407634
0.40314
0.398368
0.393346
0.388042
0.38249
0.376653
0.370573
0.364214
0.357619
0.350763
0.343687
0.336383
0.328886
0.321215
0.313403
0.3055
0.297543
0.289612
0.28177
0.27412
0.266762
0.259838
0.253452
0.247811
0.242961
0.239051
0.236317
0.234393
0.23374
2.26482
1.00955
0.311302
0.339577
0.402955
0.445832
0.454851
0.450979
0.445451
0.441367
0.439253
0.437709
0.435849
0.433577
0.43096
0.428123
0.425045
0.421755
0.418208
0.414436
0.410408
0.406151
0.401644
0.396905
0.391924
0.386711
0.381269
0.375595
0.369719
0.363616
0.357348
0.350871
0.344279
0.337519
0.330709
0.323806
0.316938
0.310099
0.303413
0.296925
0.290762
0.285008
0.279803
0.275269
0.271511
0.268699
0.266726
0.265754
0.265222
0.265187
2.26629
1.01213
0.313107
0.339777
0.403319
0.44648
0.455695
0.451953
0.4466
0.44264
0.440658
0.439226
0.437507
0.43536
0.432903
0.430208
0.427312
0.424191
0.420858
0.417289
0.413513
0.409503
0.405297
0.40086
0.396239
0.391394
0.386382
0.381162
0.375799
0.370256
0.364602
0.358817
0.352963
0.347055
0.341139
0.335278
0.329507
0.32393
0.318597
0.313628
0.30912
0.305194
0.301969
0.299562
0.29812
0.297619
0.298114
0.299543
0.301186
0.302711
2.26787
1.01492
0.315069
0.340006
0.403739
0.447234
0.456678
0.453087
0.447936
0.444111
0.442271
0.440958
0.43939
0.437382
0.435091
0.432559
0.429851
0.426923
0.423809
0.420475
0.416958
0.413234
0.409336
0.405247
0.400994
0.396572
0.392004
0.387298
0.382472
0.377551
0.372553
0.36752
0.362474
0.357471
0.352559
0.347789
0.343262
0.339011
0.335208
0.331881
0.329229
0.327358
0.326434
0.326556
0.327956
0.330698
0.334563
0.339669
0.344769
0.348766
2.26955
1.01792
0.317173
0.340272
0.404228
0.44812
0.45783
0.454434
0.449482
0.445835
0.444114
0.442957
0.441519
0.439686
0.437546
0.435209
0.432678
0.429978
0.427078
0.424012
0.420757
0.417351
0.413774
0.410063
0.406204
0.402234
0.398148
0.393982
0.389748
0.385474
0.381203
0.376949
0.372796
0.368744
0.364921
0.361331
0.358129
0.355366
0.353181
0.351743
0.351118
0.351562
0.353252
0.356462
0.361375
0.368114
0.376947
0.387681
0.399414
0.410019
2.27132
1.02107
0.319397
0.340588
0.40481
0.449166
0.459189
0.456009
0.451297
0.447817
0.446235
0.44522
0.44394
0.442274
0.440316
0.438167
0.43585
0.433367
0.430725
0.427918
0.424973
0.421878
0.418674
0.415337
0.411927
0.408409
0.404863
0.401246
0.39766
0.39406
0.390565
0.387141
0.383918
0.380897
0.378199
0.37589
0.374068
0.37291
0.372485
0.372983
0.374644
0.37776
0.382681
0.389548
0.398977
0.411303
0.427
0.447163
0.471047
0.498655
2.27314
1.02431
0.321675
0.34097
0.405521
0.450429
0.460834
0.4579
0.45347
0.450138
0.448699
0.447806
0.446694
0.445175
0.443416
0.441438
0.439351
0.437082
0.434711
0.432171
0.429549
0.426785
0.423964
0.421036
0.41808
0.415062
0.412056
0.409049
0.406108
0.40325
0.400532
0.398012
0.395735
0.393812
0.392285
0.391321
0.390961
0.391388
0.392771
0.395456
0.399658
0.405751
0.413954
0.425111
0.439678
0.459219
0.485142
0.52066
0.571995
0.664976
2.27521
1.02803
0.324188
0.341224
0.406309
0.452014
0.462973
0.460411
0.456332
0.453226
0.451949
0.451275
0.450382
0.449138
0.447625
0.445962
0.444161
0.442261
0.440236
0.438132
0.435929
0.433681
0.431367
0.429051
0.426709
0.424417
0.422155
0.420011
0.417974
0.416141
0.414524
0.413228
0.4123
0.411856
0.411996
0.412766
0.414328
0.417092
0.421282
0.426971
0.434663
0.444631
0.457903
0.474888
0.497672
0.527683
0.569667
0.631234
0.729927
0.881605
2.27741
1.032
0.327197
0.342177
0.40804
0.454883
0.466562
0.464379
0.460619
0.457571
0.456336
0.455752
0.455018
0.453952
0.452656
0.451221
0.4497
0.448096
0.446431
0.444703
0.442945
0.44116
0.439388
0.437631
0.435942
0.434322
0.432841
0.431501
0.430394
0.429526
0.429019
0.428888
0.429252
0.430134
0.431771
0.434359
0.438071
0.442987
0.449551
0.457874
0.46867
0.482387
0.499889
0.522706
0.551874
0.591441
0.644001
0.718137
0.829115
0.967332
2.2787
1.03432
0.329072
0.343238
0.410203
0.45863
0.471288
0.469605
0.466169
0.463146
0.461943
0.461479
0.460908
0.460023
0.458914
0.457686
0.456397
0.455061
0.453693
0.452304
0.450919
0.449556
0.448247
0.447011
0.44589
0.444909
0.444117
0.443556
0.443286
0.443375
0.443833
0.444737
0.446323
0.448729
0.45195
0.456239
0.461674
0.468665
0.47728
0.488249
0.501582
0.518582
0.539303
0.565858
0.599149
0.641814
0.697489
0.767889
0.864323
0.967712
2.27986
1.03643
0.332387
0.346938
0.41507
0.465048
0.478302
0.476491
0.472706
0.469335
0.468057
0.467698
0.467289
0.466579
0.465675
0.464678
0.463674
0.462648
0.461637
0.460626
0.459663
0.458744
0.457921
0.457198
0.456633
0.456244
0.456099
0.456211
0.456628
0.457439
0.458813
0.460794
0.463443
0.466933
0.471326
0.476928
0.483767
0.492355
0.502707
0.515491
0.530977
0.549808
0.572934
0.600802
0.635424
0.677225
0.729045
0.791124
0.869039
0.950174
2.27631
1.03005
0.33455
0.356862
0.427507
0.479889
0.493405
0.490612
0.485617
0.48137
0.479712
0.479156
0.478585
0.477716
0.476656
0.475563
0.474499
0.473475
0.472499
0.471587
0.470762
0.470052
0.469473
0.469074
0.468878
0.468916
0.469186
0.469855
0.470934
0.472537
0.474631
0.477419
0.480867
0.485263
0.490575
0.497167
0.505076
0.514648
0.526184
0.539888
0.556453
0.576017
0.599578
0.627483
0.660694
0.700189
0.746463
0.800871
0.864392
0.929011
2.28223
1.02289
0.359015
0.382421
0.448542
0.498454
0.510382
0.506638
0.500902
0.496519
0.494817
0.494128
0.493429
0.492481
0.491415
0.490338
0.489306
0.488309
0.487371
0.486491
0.485713
0.485039
0.484525
0.48414
0.48401
0.484165
0.484709
0.485574
0.486963
0.488809
0.491361
0.494502
0.498589
0.503451
0.509564
0.516689
0.525456
0.535567
0.547804
0.561942
0.578742
0.5983
0.621163
0.64792
0.678765
0.714734
0.755706
0.802601
0.855819
0.909404
1.87642
0.772174
0.273506
0.344153
0.417708
0.441241
0.441187
0.437216
0.433577
0.433486
0.435666
0.438558
0.441566
0.444614
0.447761
0.451012
0.454337
0.457683
0.461027
0.464345
0.467623
0.470801
0.473947
0.477087
0.48028
0.48346
0.486749
0.490069
0.493688
0.497499
0.501795
0.506491
0.511914
0.518022
0.525129
0.533278
0.542712
0.553668
0.566191
0.580848
0.597414
0.616816
0.638584
0.66392
0.692207
0.724686
0.76069
0.801172
0.846
0.890766
1.86897
0.771548
0.282395
0.355394
0.4283
0.447796
0.44336
0.436021
0.430359
0.42846
0.428371
0.428778
0.429383
0.430291
0.431644
0.433431
0.435694
0.438307
0.441392
0.444826
0.448715
0.452791
0.457269
0.461924
0.466954
0.472119
0.477651
0.483391
0.489472
0.495809
0.502528
0.50961
0.517158
0.525304
0.534089
0.543845
0.554437
0.566465
0.579651
0.594726
0.611372
0.630357
0.651401
0.675166
0.701508
0.73083
0.763149
0.798294
0.836709
0.874406
1.86801
0.770241
0.284536
0.365118
0.443596
0.463707
0.457557
0.448204
0.441193
0.438453
0.437551
0.436953
0.436366
0.435965
0.435879
0.436151
0.436783
0.437791
0.439328
0.441317
0.443807
0.446735
0.45025
0.454273
0.458897
0.464061
0.469781
0.476052
0.482836
0.490221
0.498089
0.506689
0.51577
0.525731
0.536143
0.547593
0.559645
0.572921
0.587084
0.602764
0.619687
0.638426
0.658841
0.681349
0.705888
0.732707
0.761757
0.792973
0.826604
0.859148
1.86949
0.773517
0.290328
0.367335
0.443669
0.464303
0.459116
0.45062
0.444037
0.441666
0.441189
0.441011
0.440794
0.440685
0.440769
0.441075
0.441666
0.442577
0.443764
0.445251
0.447055
0.449294
0.451937
0.455153
0.458843
0.463229
0.468147
0.473874
0.480153
0.487357
0.495106
0.503874
0.51318
0.52356
0.53457
0.54671
0.559617
0.573721
0.588715
0.604973
0.622334
0.641077
0.661163
0.682816
0.706003
0.730857
0.757315
0.785418
0.815221
0.843884
1.87259
0.780182
0.298
0.361284
0.429031
0.450297
0.448048
0.442002
0.436391
0.434511
0.434547
0.435079
0.435669
0.436385
0.437279
0.438453
0.439917
0.441603
0.443476
0.445585
0.447932
0.450597
0.453558
0.456931
0.460671
0.464952
0.469672
0.475086
0.481017
0.487796
0.495177
0.503511
0.512551
0.522605
0.533477
0.545396
0.558224
0.572147
0.587088
0.603192
0.62042
0.638905
0.658553
0.679497
0.701623
0.725099
0.749715
0.775446
0.802471
0.828318
1.88117
0.786767
0.300262
0.349061
0.412143
0.44123
0.444231
0.439555
0.434407
0.43212
0.431873
0.432395
0.433116
0.434038
0.435136
0.436472
0.43807
0.439928
0.442044
0.444444
0.447121
0.450131
0.453444
0.457147
0.461188
0.465709
0.470618
0.476123
0.482087
0.488767
0.496015
0.504078
0.51285
0.522512
0.533004
0.544476
0.556859
0.570283
0.584683
0.600179
0.6167
0.634352
0.653057
0.672911
0.693817
0.715806
0.738734
0.762564
0.787389
0.811045
2.26331
1.10644
0.407526
0.399281
0.459434
0.508145
0.51945
0.514561
0.507638
0.501582
0.498057
0.495579
0.493462
0.49144
0.489407
0.487431
0.485703
0.484211
0.48306
0.482211
0.481782
0.481733
0.482187
0.483121
0.484604
0.486671
0.489359
0.492723
0.496767
0.501583
0.507144
0.513564
0.520811
0.529011
0.53811
0.548242
0.559337
0.57151
0.584691
0.59898
0.614277
0.630677
0.64806
0.666475
0.685836
0.706132
0.727264
0.74915
0.77187
0.793484
2.27275
1.12838
0.392007
0.377206
0.450061
0.510808
0.529229
0.528355
0.524133
0.520328
0.518883
0.518504
0.518485
0.518443
0.518024
0.517391
0.516714
0.51608
0.515507
0.515027
0.514655
0.514456
0.51445
0.514718
0.515298
0.516267
0.517661
0.519593
0.522058
0.525209
0.529002
0.533615
0.538982
0.545267
0.552416
0.560548
0.569652
0.579809
0.591014
0.603291
0.616669
0.631096
0.646599
0.663084
0.680518
0.698836
0.717944
0.737747
0.758311
0.777883
2.29765
1.17711
0.434589
0.384071
0.447152
0.503467
0.521965
0.523002
0.52118
0.519998
0.520418
0.521651
0.523447
0.525251
0.526659
0.52786
0.528982
0.530129
0.531276
0.532455
0.533638
0.534879
0.536168
0.537568
0.539077
0.54077
0.542663
0.544832
0.54732
0.550196
0.553526
0.557363
0.561802
0.566879
0.572705
0.5793
0.586772
0.595118
0.604426
0.614682
0.62592
0.638118
0.651298
0.66545
0.680542
0.696548
0.713369
0.730849
0.749078
0.766467
1.90081
0.805124
0.305983
0.316879
0.373989
0.414882
0.429178
0.433019
0.435854
0.439518
0.44446
0.45022
0.456668
0.463176
0.469362
0.47537
0.481342
0.487315
0.493264
0.499157
0.504982
0.510726
0.516399
0.52199
0.527524
0.532988
0.538439
0.543858
0.54933
0.554852
0.560489
0.566295
0.572325
0.578653
0.585327
0.59245
0.600046
0.608235
0.617008
0.626498
0.636663
0.647637
0.659338
0.671865
0.68511
0.699083
0.713722
0.729053
0.745075
0.760396
2.30617
1.19426
0.449951
0.386728
0.440719
0.492302
0.509314
0.50938
0.506231
0.503752
0.502491
0.502305
0.502758
0.503155
0.503477
0.503985
0.504811
0.506092
0.507791
0.509956
0.512534
0.515582
0.519051
0.522984
0.527304
0.532068
0.53716
0.542666
0.548431
0.554569
0.560957
0.567698
0.574679
0.582016
0.589608
0.597588
0.605877
0.614601
0.623705
0.6333
0.643358
0.653958
0.665088
0.676779
0.689041
0.701856
0.715231
0.729078
0.743484
0.757209
2.31143
1.20427
0.433252
0.369794
0.438427
0.500716
0.522191
0.523611
0.521391
0.519919
0.520045
0.521174
0.522902
0.524405
0.525428
0.526273
0.527106
0.528053
0.529126
0.530415
0.531924
0.533739
0.535848
0.538335
0.541187
0.544465
0.548165
0.552323
0.556941
0.56203
0.567591
0.57361
0.580094
0.587017
0.594412
0.60222
0.610491
0.619151
0.628277
0.637779
0.647754
0.6581
0.668933
0.680137
0.691825
0.70388
0.71639
0.729227
0.742508
0.755115
2.31415
1.21009
0.437423
0.371832
0.441555
0.505443
0.527845
0.529535
0.527372
0.526024
0.526497
0.528013
0.530284
0.532477
0.534197
0.535724
0.537251
0.538881
0.540612
0.542472
0.544459
0.546605
0.548926
0.551454
0.554222
0.557256
0.560598
0.564261
0.568299
0.57271
0.577553
0.582813
0.588547
0.594724
0.601397
0.608527
0.616157
0.624243
0.632815
0.641837
0.651317
0.661236
0.671579
0.682336
0.693471
0.704992
0.716834
0.72901
0.741514
0.753404
2.31713
1.21781
0.463818
0.387926
0.447166
0.506312
0.528893
0.532135
0.53126
0.530891
0.531785
0.533713
0.536253
0.538552
0.54058
0.542484
0.544443
0.546485
0.548663
0.550944
0.553375
0.555925
0.558651
0.561522
0.564599
0.567858
0.57136
0.575087
0.5791
0.583385
0.588004
0.59295
0.598272
0.603971
0.610079
0.616598
0.623547
0.630941
0.638774
0.647067
0.655788
0.664966
0.674553
0.684574
0.694965
0.705744
0.716839
0.728249
0.739995
0.751174
1.90566
0.813653
0.324873
0.323672
0.376456
0.414352
0.427249
0.430303
0.432604
0.435954
0.440736
0.446658
0.453396
0.460227
0.466948
0.47362
0.480365
0.48717
0.494044
0.500931
0.507837
0.514722
0.521605
0.528458
0.535306
0.542138
0.548979
0.555826
0.562706
0.569627
0.576609
0.58368
0.590853
0.598171
0.605638
0.613308
0.621175
0.629297
0.63766
0.64631
0.655236
0.664463
0.673978
0.683803
0.693916
0.704324
0.715002
0.725941
0.73719
0.747868
2.31223
1.20911
0.465333
0.403614
0.466296
0.527502
0.54945
0.550384
0.546236
0.542397
0.540183
0.538804
0.538202
0.537799
0.53706
0.536334
0.535764
0.535609
0.535796
0.536484
0.5376
0.539216
0.541301
0.543894
0.54696
0.550522
0.554543
0.559045
0.563973
0.569348
0.575116
0.581282
0.587796
0.594668
0.601856
0.609369
0.617176
0.625281
0.633663
0.64233
0.651269
0.660484
0.669966
0.679715
0.689713
0.69995
0.710413
0.721079
0.732008
0.742373
2.29426
1.17003
0.460422
0.42284
0.485922
0.546339
0.566246
0.566293
0.562572
0.559331
0.558572
0.558973
0.560055
0.561314
0.562183
0.562817
0.563403
0.564056
0.564786
0.565604
0.566521
0.56758
0.568828
0.570309
0.572056
0.574112
0.576496
0.57924
0.58236
0.585877
0.589795
0.594137
0.598905
0.604109
0.609743
0.615807
0.62229
0.629185
0.636476
0.644151
0.652188
0.660572
0.669279
0.678296
0.687615
0.697206
0.707064
0.717154
0.727527
0.737383
1.88787
0.805123
0.340959
0.355405
0.406356
0.443134
0.452871
0.452707
0.451777
0.452635
0.455958
0.460593
0.466143
0.472218
0.478319
0.484452
0.490679
0.497009
0.503393
0.509788
0.516156
0.522486
0.528767
0.534999
0.541176
0.547311
0.553411
0.559503
0.565604
0.571748
0.577958
0.584258
0.590677
0.597239
0.603969
0.610884
0.618008
0.625352
0.632931
0.640751
0.648828
0.657158
0.665753
0.674592
0.683675
0.692993
0.702528
0.712271
0.722261
0.731758
1.87401
0.796343
0.339666
0.356692
0.398313
0.426931
0.434841
0.434796
0.433788
0.433274
0.434006
0.435641
0.438198
0.44141
0.444907
0.448748
0.453014
0.457744
0.462917
0.468513
0.474491
0.480828
0.487478
0.494421
0.501608
0.509017
0.516605
0.524353
0.532226
0.54021
0.548279
0.556445
0.564679
0.573002
0.581393
0.589881
0.59845
0.60713
0.615916
0.624815
0.633824
0.642962
0.652228
0.661636
0.671182
0.680878
0.690717
0.700692
0.710848
0.720461
1.88891
0.806101
0.345218
0.373717
0.430948
0.46692
0.473661
0.469605
0.464514
0.461399
0.460439
0.460403
0.460987
0.461944
0.462978
0.464148
0.465577
0.467337
0.469463
0.471967
0.474873
0.478189
0.481945
0.486135
0.490776
0.495851
0.501372
0.507306
0.513655
0.520383
0.527492
0.534934
0.542709
0.550772
0.559115
0.567692
0.576502
0.5855
0.594682
0.604034
0.613554
0.623215
0.633019
0.642938
0.652981
0.663122
0.673372
0.683706
0.694193
0.704087
2.34095
1.12468
0.469387
0.447751
0.513295
0.575056
0.595693
0.595089
0.589786
0.584473
0.581452
0.579533
0.577954
0.576569
0.575005
0.57326
0.571475
0.569749
0.568126
0.566636
0.5653
0.564158
0.563232
0.562575
0.562211
0.562196
0.562541
0.563311
0.564496
0.566135
0.568258
0.570871
0.574002
0.577628
0.581778
0.58642
0.591573
0.597197
0.603304
0.609845
0.616821
0.624186
0.631925
0.640027
0.64845
0.657176
0.666168
0.675412
0.684916
0.693979
1.88938
0.807285
0.346333
0.363522
0.415846
0.456106
0.468584
0.469597
0.469055
0.469038
0.471332
0.474857
0.479068
0.483807
0.488639
0.493459
0.498307
0.50324
0.50822
0.513234
0.518226
0.523204
0.528129
0.533026
0.537867
0.542687
0.547464
0.552238
0.557013
0.561816
0.566656
0.571568
0.57655
0.581655
0.586881
0.592281
0.597845
0.603628
0.60961
0.615848
0.622313
0.629054
0.636044
0.643293
0.650791
0.658548
0.666545
0.674779
0.683268
0.691378
1.88912
0.80743
0.347643
0.364589
0.416116
0.4546
0.465048
0.463984
0.461107
0.458541
0.458072
0.458911
0.460491
0.462695
0.465117
0.467711
0.470584
0.473817
0.477415
0.481365
0.485639
0.490218
0.495082
0.500212
0.505586
0.511179
0.51697
0.522935
0.529057
0.535333
0.541741
0.548278
0.554933
0.561696
0.568565
0.575531
0.582601
0.589771
0.59705
0.604435
0.611938
0.619552
0.627294
0.635155
0.643154
0.65128
0.659548
0.667942
0.676511
0.684649
2.34297
1.12837
0.473069
0.449821
0.516553
0.580814
0.603286
0.603397
0.598315
0.593238
0.590445
0.588882
0.587741
0.586877
0.585865
0.58469
0.583454
0.582319
0.58127
0.580401
0.579651
0.579133
0.578778
0.578712
0.578862
0.579338
0.580099
0.581183
0.582609
0.584381
0.586512
0.588997
0.591839
0.595033
0.598583
0.602482
0.606729
0.611311
0.616223
0.621454
0.626991
0.632826
0.638942
0.645333
0.651978
0.658874
0.666
0.673349
0.680923
0.68817
1.88982
0.808816
0.353623
0.381493
0.43971
0.479675
0.48965
0.487975
0.48493
0.48354
0.484969
0.487649
0.490998
0.494834
0.498741
0.502698
0.506767
0.511001
0.515369
0.519855
0.524421
0.529057
0.533743
0.538474
0.543246
0.54805
0.552891
0.557767
0.562691
0.567664
0.572696
0.577801
0.582981
0.588255
0.593626
0.599112
0.60471
0.610441
0.616301
0.622303
0.628454
0.634761
0.641226
0.647853
0.654645
0.661602
0.668723
0.675999
0.683457
0.69056
1.87522
0.799754
0.351315
0.37817
0.427535
0.459444
0.467098
0.465969
0.464283
0.463562
0.464084
0.465281
0.467177
0.469458
0.471809
0.474291
0.477002
0.479988
0.483261
0.486815
0.490644
0.494736
0.499087
0.503686
0.508526
0.513591
0.518872
0.524354
0.530025
0.53587
0.541881
0.548036
0.554344
0.56078
0.567355
0.574045
0.580864
0.587794
0.594847
0.602005
0.60928
0.616652
0.624137
0.631718
0.639411
0.647198
0.655095
0.663086
0.671221
0.678924
1.87419
0.799374
0.351825
0.375408
0.422425
0.454085
0.462301
0.46184
0.460719
0.460092
0.460356
0.461177
0.462652
0.46448
0.466323
0.468222
0.470277
0.47253
0.475003
0.477693
0.480612
0.48376
0.487152
0.490783
0.494665
0.498791
0.503171
0.507796
0.512671
0.517787
0.523148
0.528742
0.53457
0.540618
0.546885
0.553353
0.560021
0.566871
0.573906
0.581109
0.588481
0.596009
0.603693
0.611516
0.619474
0.627555
0.635768
0.644104
0.652595
0.660657
1.88907
0.809156
0.355049
0.362716
0.413319
0.452105
0.463046
0.462633
0.460841
0.459588
0.459618
0.460423
0.461955
0.463849
0.465672
0.467473
0.469389
0.471476
0.47376
0.476231
0.478898
0.481754
0.484812
0.488066
0.491529
0.495194
0.499075
0.503162
0.507469
0.511988
0.516728
0.521683
0.526861
0.532253
0.537866
0.543691
0.549732
0.55598
0.562437
0.569094
0.575948
0.582989
0.590213
0.597615
0.605195
0.612945
0.620855
0.628916
0.637146
0.644976
2.31252
1.20509
0.485769
0.431624
0.492697
0.556945
0.582957
0.586461
0.583798
0.581061
0.579767
0.579446
0.579926
0.580745
0.581279
0.581561
0.581789
0.582063
0.582434
0.582892
0.583452
0.584106
0.584878
0.585764
0.58679
0.58795
0.58927
0.590744
0.592396
0.594221
0.596242
0.598454
0.600877
0.603507
0.606361
0.609435
0.612745
0.616283
0.620065
0.624083
0.628347
0.632849
0.637598
0.642584
0.647815
0.653274
0.658964
0.664863
0.671001
0.676901
2.32278
1.22928
0.466463
0.405478
0.481547
0.557648
0.588852
0.593551
0.590923
0.58806
0.587068
0.58752
0.588803
0.590612
0.592295
0.593692
0.595022
0.596432
0.597983
0.599659
0.60146
0.603367
0.605393
0.607529
0.609788
0.612161
0.614661
0.617279
0.620028
0.622899
0.625906
0.629042
0.632318
0.635729
0.639287
0.642986
0.646838
0.650837
0.654995
0.659306
0.663782
0.668415
0.67322
0.678188
0.683327
0.688628
0.694096
0.699719
0.70552
0.711061
2.31291
1.20659
0.486996
0.432687
0.494472
0.55995
0.587036
0.591201
0.589154
0.587041
0.586468
0.587125
0.588627
0.590612
0.592412
0.594007
0.59558
0.597262
0.59909
0.601064
0.603172
0.605416
0.607793
0.61031
0.612965
0.615766
0.618708
0.621798
0.625031
0.628415
0.631943
0.635623
0.639449
0.643428
0.647552
0.651831
0.656256
0.660835
0.66556
0.67044
0.675464
0.680643
0.685965
0.69144
0.697057
0.702826
0.708732
0.714784
0.720993
0.726933
1.88896
0.809196
0.356239
0.36436
0.416409
0.457014
0.469113
0.469132
0.467543
0.466524
0.467165
0.468791
0.471268
0.474223
0.477157
0.480127
0.483237
0.486571
0.490117
0.493886
0.497845
0.502007
0.506348
0.510883
0.515588
0.520478
0.525529
0.530755
0.536132
0.541675
0.547359
0.553201
0.559175
0.565299
0.571547
0.577937
0.584444
0.591086
0.597838
0.604719
0.611706
0.618816
0.626025
0.633351
0.64077
0.648303
0.655927
0.663664
0.671529
0.67902
1.87416
0.800004
0.355438
0.380537
0.428589
0.460126
0.467647
0.46648
0.464733
0.463843
0.464054
0.464901
0.466431
0.468307
0.470131
0.471981
0.473938
0.476077
0.478383
0.480878
0.483539
0.486392
0.489417
0.492641
0.496044
0.49965
0.503441
0.507437
0.511621
0.516011
0.52059
0.525374
0.530346
0.535522
0.540882
0.546442
0.552182
0.558116
0.564225
0.570521
0.576985
0.583627
0.59043
0.597402
0.604525
0.611807
0.619232
0.626806
0.634539
0.641908
1.87701
0.803122
0.359544
0.395239
0.451599
0.484602
0.490531
0.486998
0.482806
0.480849
0.480831
0.481625
0.483024
0.484687
0.486274
0.487896
0.489631
0.491544
0.493611
0.495849
0.498235
0.50079
0.503496
0.506378
0.509416
0.512633
0.516012
0.519573
0.523299
0.527209
0.531289
0.535553
0.539989
0.544609
0.549403
0.55438
0.559531
0.564863
0.570368
0.576052
0.581905
0.587934
0.594128
0.600493
0.607017
0.613704
0.620544
0.627537
0.634689
0.641507
1.19188
1.05007
0.49855
0.190726
0.00956505
0.108493
0.159308
0.207781
0.229497
0.233984
0.222484
0.211081
0.200797
0.191237
0.179187
0.164724
0.14739
0.127466
0.105638
0.0825153
0.0586823
0.0350022
0.015723
0.023543
0.0473312
0.0716158
0.0958168
0.119525
0.142877
0.1658
0.188334
0.210433
0.232107
0.253269
0.27332
0.292439
0.312018
0.332418
0.352432
0.371624
0.390188
0.408211
0.425787
0.442872
0.459509
0.475645
0.491324
0.506493
0.521195
0.535375
0.549074
0.562233
0.574888
0.586975
0.598525
0.609469
0.619833
0.629543
0.638618
0.646981
0.654649
0.661542
0.667675
0.672972
0.677452
0.681052
0.683806
0.68568
0.686735
0.687053
0.68699
0.686635
0.685657
0.683554
0.680434
0.677
0.67346
0.669902
0.666338
0.662886
0.659604
0.656611
0.653938
0.651665
0.649786
0.648347
0.64731
0.646687
0.646439
0.646509
0.646759
0.647174
0.64788
0.649046
0.650529
0.65212
0.653733
0.655437
0.657092
0.661848
1.12231
1.03676
0.807128
0.550155
0.50323
0.431905
0.381674
0.340792
0.310367
0.291832
0.260779
0.230703
0.211186
0.209485
0.216603
0.227175
0.239641
0.253592
0.268743
0.284642
0.301041
0.317555
0.3339
0.350128
0.366885
0.383917
0.401108
0.41825
0.435371
0.452341
0.469215
0.48588
0.502401
0.518668
0.534355
0.5493
0.564331
0.580082
0.595991
0.611248
0.626013
0.64042
0.654552
0.668369
0.681884
0.695046
0.707886
0.720351
0.732476
0.744207
0.755576
0.766529
0.77709
0.787205
0.79689
0.806089
0.814813
0.823001
0.830661
0.837729
0.844211
0.850039
0.85522
0.859689
0.863457
0.866468
0.868747
0.870259
0.871041
0.871217
0.871036
0.870554
0.869504
0.867519
0.864589
0.861319
0.857907
0.854505
0.851109
0.847856
0.844765
0.841971
0.83948
0.837389
0.835668
0.834378
0.833463
0.83296
0.832806
0.832928
0.833191
0.83361
0.83425
0.83529
0.836586
0.837997
0.83938
0.840828
0.842032
0.845819
1.07496
1.0761
1.00867
0.9006
0.831753
0.781736
0.745747
0.715641
0.69082
0.672771
0.657847
0.643628
0.633615
0.62857
0.627092
0.627419
0.629021
0.631531
0.634997
0.639349
0.644524
0.650354
0.65675
0.66362
0.671191
0.679373
0.688142
0.697305
0.706865
0.71667
0.726765
0.737016
0.747487
0.758037
0.768403
0.778349
0.788405
0.799193
0.810549
0.821654
0.83246
0.843091
0.853613
0.864029
0.87432
0.884456
0.894422
0.904193
0.913761
0.923101
0.932202
0.941041
0.949601
0.957859
0.96579
0.973374
0.98058
0.987389
0.993759
0.999677
1.00509
1.01
1.01434
1.01811
1.02126
1.0238
1.02567
1.0269
1.02746
1.0275
1.02725
1.02672
1.02568
1.02383
1.02113
1.01811
1.01491
1.01173
1.00856
1.00556
1.00271
1.00017