/*--------------------------------*- C++ -*----------------------------------*\
| =========                 |                                                 |
| \\      /  F ield         | OpenFOAM: The Open Source CFD Toolbox           |
|  \\    /   O peration     | Version:  2412                                  |
|   \\  /    A nd           | Website:  www.openfoam.com                      |
|    \\/     M anipulation  |                                                 |
\*---------------------------------------------------------------------------*/
FoamFile
{
    version     2.0;
    format      ascii;
    arch        "LSB;label=32;scalar=64";
    class       volScalarField;
    location    "17";
    object      p;
}
// * * * * * * * * * * * * * * * * * * * * * * * * * * * * * * * * * * * * * //

dimensions      [1 -1 -2 0 0 0 0];

internalField   nonuniform List<scalar> 
7000
(
1.63872
3.75521
11.4519
11.5271
11.0967
10.687
10.5681
10.5826
10.6236
10.6633
10.6851
10.6988
10.7133
10.731
10.7513
10.7735
10.7973
10.8227
10.8499
10.8789
10.9097
10.9424
10.9769
11.0132
11.0514
11.0914
11.1333
11.177
11.2223
11.2694
11.318
11.3681
11.4195
11.4721
11.5256
11.5798
11.6344
11.689
11.7432
11.7966
11.8486
11.8986
11.9461
11.9903
12.0305
12.0661
12.0964
12.1209
12.1386
12.1515
1.63902
3.75392
11.4514
11.5264
11.0962
10.6866
10.5677
10.5823
10.6232
10.6629
10.6846
10.6984
10.7128
10.7305
10.7508
10.773
10.7967
10.8221
10.8493
10.8782
10.909
10.9416
10.9761
11.0124
11.0506
11.0906
11.1324
11.176
11.2214
11.2684
11.317
11.367
11.4184
11.471
11.5245
11.5786
11.6332
11.6878
11.7421
11.7955
11.8475
11.8976
11.9452
11.9895
12.0298
12.0655
12.096
12.1206
12.1383
12.1513
1.63891
3.75298
11.4495
11.5256
11.0955
10.6859
10.567
10.5816
10.6224
10.662
10.6837
10.6973
10.7118
10.7294
10.7496
10.7717
10.7954
10.8208
10.8478
10.8767
10.9074
10.9399
10.9743
11.0105
11.0486
11.0885
11.1302
11.1737
11.2189
11.2658
11.3142
11.3641
11.4154
11.4678
11.5211
11.5752
11.6296
11.6841
11.7382
11.7915
11.8435
11.8935
11.941
11.9853
12.0257
12.0614
12.0919
12.1165
12.1341
12.147
1.63879
3.7517
11.4462
11.5245
11.0945
10.6847
10.5659
10.5804
10.6211
10.6606
10.6821
10.6957
10.7101
10.7276
10.7478
10.7698
10.7933
10.8186
10.8455
10.8743
10.9049
10.9373
10.9715
11.0076
11.0454
11.0852
11.1267
11.17
11.215
11.2616
11.3098
11.3595
11.4105
11.4627
11.5158
11.5696
11.6238
11.678
11.732
11.7851
11.8369
11.8868
11.9342
11.9784
12.0187
12.0544
12.0848
12.1094
12.1269
12.1398
1.63861
3.74982
11.4414
11.5231
11.0933
10.6831
10.5641
10.5786
10.6193
10.6585
10.6799
10.6934
10.7077
10.7251
10.7451
10.767
10.7904
10.8155
10.8423
10.8709
10.9013
10.9335
10.9675
11.0033
11.041
11.0804
11.1217
11.1647
11.2094
11.2557
11.3036
11.3529
11.4036
11.4553
11.5081
11.5615
11.6154
11.6693
11.7229
11.7757
11.8272
11.8769
11.9241
11.9682
12.0084
12.0441
12.0745
12.0992
12.1165
12.1295
1.6384
3.7473
11.4352
11.5213
11.0916
10.681
10.5619
10.5763
10.6168
10.6558
10.6771
10.6904
10.7045
10.7217
10.7416
10.7633
10.7865
10.8114
10.838
10.8663
10.8965
10.9284
10.9622
10.9977
11.035
11.0741
11.115
11.1576
11.2019
11.2478
11.2952
11.3441
11.3943
11.4455
11.4978
11.5507
11.604
11.6575
11.7106
11.763
11.8141
11.8635
11.9104
11.9543
11.9944
12.03
12.0604
12.0851
12.1024
12.1155
1.63813
3.74407
11.4273
11.5191
11.0896
10.6784
10.559
10.5733
10.6136
10.6524
10.6734
10.6865
10.7005
10.7175
10.7372
10.7586
10.7816
10.8062
10.8325
10.8606
10.8904
10.922
10.9554
10.9906
11.0275
11.0662
11.1066
11.1487
11.1924
11.2378
11.2846
11.3329
11.3824
11.433
11.4846
11.5368
11.5895
11.6423
11.6948
11.7466
11.7972
11.8461
11.8926
11.9362
11.9761
12.0115
12.0419
12.0666
12.0839
12.0972
1.63781
3.74008
11.4176
11.5163
11.0871
10.6752
10.5554
10.5696
10.6097
10.6482
10.6689
10.6818
10.6955
10.7123
10.7317
10.7529
10.7756
10.7999
10.8258
10.8535
10.883
10.9142
10.9471
10.9818
11.0182
11.0563
11.0961
11.1376
11.1807
11.2254
11.2715
11.319
11.3677
11.4175
11.4682
11.5196
11.5714
11.6233
11.675
11.726
11.7759
11.8241
11.8701
11.9132
11.9527
11.988
12.0182
12.0429
12.0603
12.0738
1.63744
3.73527
11.406
11.513
11.0841
10.6713
10.5511
10.5652
10.605
10.6432
10.6635
10.6761
10.6895
10.706
10.7251
10.7459
10.7683
10.7922
10.8178
10.845
10.874
10.9047
10.9371
10.9712
11.007
11.0444
11.0835
11.1243
11.1666
11.2104
11.2556
11.3021
11.3499
11.3986
11.4483
11.4986
11.5493
11.6001
11.6507
11.7007
11.7496
11.7969
11.8422
11.8846
11.9236
11.9586
11.9886
12.0133
12.0307
12.0445
1.63702
3.7296
11.3924
11.5091
11.0805
10.6668
10.5459
10.5599
10.5993
10.6371
10.6571
10.6694
10.6824
10.6986
10.7173
10.7377
10.7596
10.7831
10.8082
10.8349
10.8633
10.8934
10.9252
10.9586
10.9937
11.0303
11.0686
11.1084
11.1498
11.1925
11.2367
11.2821
11.3286
11.3761
11.4245
11.4735
11.5228
11.5723
11.6215
11.6701
11.7178
11.7639
11.808
11.8495
11.8878
11.9222
11.9518
11.9765
11.9939
12.008
1.63653
3.72302
11.3767
11.5047
11.0764
10.6616
10.5399
10.5537
10.5927
10.63
10.6496
10.6615
10.6741
10.6898
10.7081
10.7281
10.7495
10.7724
10.797
10.8231
10.8509
10.8803
10.9113
10.9439
10.9781
11.0139
11.0511
11.0899
11.1301
11.1717
11.2145
11.2585
11.3036
11.3496
11.3964
11.4438
11.4914
11.5392
11.5867
11.6336
11.6795
11.724
11.7667
11.8069
11.844
11.8775
11.9066
11.9309
11.9482
11.9629
1.63597
3.71548
11.3587
11.4995
11.0717
10.6555
10.533
10.5465
10.585
10.6218
10.6409
10.6523
10.6645
10.6797
10.6975
10.7169
10.7377
10.7601
10.784
10.8094
10.8365
10.8651
10.8952
10.9269
10.9601
10.9948
11.0309
11.0684
11.1073
11.1474
11.1888
11.2312
11.2746
11.3188
11.3637
11.409
11.4546
11.5002
11.5456
11.5903
11.634
11.6764
11.717
11.7553
11.7908
11.8229
11.851
11.8748
11.8919
11.9069
1.63536
3.70696
11.3384
11.4936
11.0663
10.6486
10.525
10.5382
10.576
10.6123
10.6309
10.6417
10.6534
10.6681
10.6852
10.7041
10.7243
10.7459
10.7691
10.7938
10.82
10.8476
10.8768
10.9074
10.9395
10.9729
11.0077
11.0438
11.0811
11.1196
11.1592
11.1997
11.2411
11.2832
11.3258
11.3687
11.4118
11.4548
11.4974
11.5393
11.5803
11.6198
11.6576
11.6932
11.7262
11.7561
11.7824
11.8051
11.8217
11.8373
1.63469
3.69738
11.3157
11.4868
11.0601
10.6409
10.516
10.5287
10.5658
10.6014
10.6194
10.6297
10.6407
10.6548
10.6713
10.6894
10.7089
10.7298
10.7521
10.7759
10.8012
10.8278
10.8559
10.8853
10.916
10.9481
10.9814
11.0158
11.0514
11.088
11.1255
11.1638
11.2029
11.2424
11.2823
11.3224
11.3625
11.4023
11.4415
11.4798
11.5171
11.5528
11.5867
11.6185
11.6478
11.6744
11.6979
11.7185
11.7338
11.7497
1.63396
3.68676
11.2907
11.4792
11.0532
10.6322
10.5057
10.518
10.5542
10.5889
10.6063
10.6159
10.6263
10.6397
10.6555
10.6729
10.6916
10.7116
10.733
10.7558
10.78
10.8055
10.8323
10.8603
10.8896
10.9201
10.9516
10.9842
11.0178
11.0522
11.0874
11.1232
11.1595
11.1961
11.2329
11.2696
11.306
11.3418
11.3768
11.4107
11.4432
11.4739
11.5025
11.5288
11.5526
11.5738
11.5924
11.6091
11.6219
11.6381
1.63317
3.67515
11.2632
11.4708
11.0455
10.6226
10.4941
10.5059
10.541
10.5749
10.5915
10.6004
10.6101
10.6227
10.6377
10.6543
10.6721
10.6911
10.7115
10.7332
10.7562
10.7804
10.8058
10.8324
10.86
10.8887
10.9183
10.9488
10.9801
11.012
11.0446
11.0775
11.1107
11.1439
11.177
11.2096
11.2417
11.2728
11.3026
11.3309
11.3572
11.3812
11.4026
11.4212
11.4368
11.4497
11.4602
11.4696
11.4768
11.4917
1.63232
3.66261
11.2334
11.4617
11.0371
10.6118
10.4812
10.4922
10.526
10.5589
10.5748
10.583
10.5919
10.6037
10.6178
10.6334
10.6503
10.6683
10.6876
10.7081
10.7297
10.7525
10.7764
10.8012
10.8271
10.8537
10.8812
10.9094
10.9381
10.9673
10.9968
11.0265
11.0561
11.0854
11.1142
11.1422
11.1691
11.1945
11.2181
11.2393
11.2578
11.2731
11.2847
11.2924
11.2955
11.2949
11.2914
11.2871
11.2831
11.2938
1.63142
3.64924
11.2016
11.4519
11.028
10.5998
10.4665
10.4768
10.5091
10.5409
10.5559
10.5634
10.5714
10.5823
10.5955
10.6101
10.6259
10.6429
10.6609
10.6801
10.7003
10.7216
10.7437
10.7668
10.7906
10.8151
10.8402
10.8658
10.8917
10.9178
10.944
10.9699
10.9955
11.0204
11.0443
11.0668
11.0877
11.1064
11.1223
11.135
11.1438
11.1476
11.146
11.1391
11.1241
11.1022
11.0744
11.0436
11.0134
11.0097
1.63048
3.63522
11.1682
11.4414
11.018
10.5866
10.4501
10.4594
10.49
10.5207
10.5349
10.5415
10.5487
10.5587
10.5708
10.5844
10.5991
10.6148
10.6316
10.6493
10.668
10.6875
10.7079
10.7289
10.7505
10.7726
10.7951
10.8179
10.8407
10.8634
10.8859
10.9077
10.9288
10.9487
10.9671
10.9835
10.9974
11.0082
11.0153
11.0172
11.0144
11.0048
10.9854
10.9563
10.9155
10.8613
10.792
10.7101
10.6195
10.5641
1.62953
3.62083
11.134
11.4303
11.0072
10.5717
10.4314
10.4396
10.4681
10.4976
10.511
10.5168
10.5231
10.5321
10.5433
10.5558
10.5693
10.5838
10.5991
10.6154
10.6324
10.6501
10.6685
10.6873
10.7066
10.7261
10.7458
10.7654
10.7849
10.8039
10.8222
10.8396
10.8557
10.87
10.8822
10.8916
10.8978
10.8992
10.8965
10.8875
10.869
10.8407
10.7999
10.7436
10.6668
10.5637
10.4258
10.2448
10.011
9.75658
1.62876
3.60244
11.0934
11.4171
10.9935
10.5524
10.4066
10.4132
10.4389
10.4671
10.4797
10.4846
10.4897
10.4975
10.5073
10.5185
10.5305
10.5433
10.5569
10.5712
10.5861
10.6015
10.6173
10.6335
10.6497
10.666
10.6821
10.6978
10.7129
10.7272
10.7404
10.752
10.7617
10.769
10.7731
10.7731
10.7702
10.7613
10.7433
10.7165
10.6787
10.6266
10.5559
10.4597
10.3288
10.1464
9.88342
9.47822
8.77988
7.25768
1.62797
3.58296
11.0503
11.3999
10.9744
10.5241
10.3703
10.375
10.3974
10.4249
10.4373
10.4417
10.4459
10.4525
10.461
10.4708
10.4812
10.4922
10.5038
10.5159
10.5283
10.541
10.5539
10.5667
10.5794
10.5917
10.6035
10.6146
10.6246
10.6332
10.6401
10.6449
10.6468
10.6458
10.6416
10.6316
10.6146
10.5901
10.5564
10.5107
10.4502
10.3699
10.2634
10.1212
9.92806
9.6604
9.27654
8.70758
7.86523
6.47873
1.62751
3.57168
11.0254
11.3883
10.9589
10.4957
10.3312
10.3334
10.3521
10.3793
10.3918
10.3955
10.3985
10.4038
10.411
10.4192
10.428
10.4372
10.4467
10.4564
10.4663
10.4762
10.486
10.4954
10.5044
10.5127
10.5201
10.5263
10.5311
10.5339
10.534
10.5325
10.5277
10.5175
10.502
10.4806
10.4517
10.4135
10.3639
10.2998
10.2174
10.1115
9.97418
9.79547
9.56011
9.24689
8.8266
8.25898
7.52704
6.55389
1.62688
3.56248
11.0021
11.3669
10.9309
10.4503
10.2762
10.2784
10.2987
10.3293
10.3432
10.3467
10.3489
10.3531
10.3593
10.3663
10.3736
10.381
10.3884
10.3958
10.4031
10.4102
10.4169
10.4229
10.4282
10.4325
10.4356
10.4369
10.4364
10.4343
10.429
10.4195
10.4061
10.3878
10.3636
10.3323
10.2924
10.242
10.1785
10.0991
9.99963
9.87506
9.71856
9.52133
9.27223
8.95742
8.5623
8.07113
7.49063
6.76136
1.62756
3.59693
11.0635
11.3642
10.9035
10.3847
10.1993
10.2045
10.2326
10.2704
10.2868
10.2904
10.2921
10.2956
10.3012
10.3074
10.3134
10.3193
10.325
10.3304
10.3354
10.34
10.3438
10.3468
10.3488
10.3492
10.3485
10.3462
10.341
10.3328
10.3214
10.3061
10.2862
10.261
10.2291
10.1894
10.1403
10.08
10.0061
9.91581
9.80554
9.67095
9.50673
9.30654
9.06312
8.76871
8.41606
7.998
7.51697
6.96573
1.58982
3.70749
11.0684
11.2729
10.8226
10.3032
10.1301
10.1401
10.1766
10.2165
10.2329
10.2367
10.2387
10.2423
10.2471
10.252
10.2565
10.2605
10.2641
10.2671
10.2696
10.2713
10.2721
10.2719
10.2707
10.2678
10.2625
10.2553
10.2455
10.2325
10.216
10.1954
10.1698
10.1384
10.1001
10.0536
9.99757
9.93013
9.84928
9.75254
9.63702
9.49926
9.33543
9.14118
8.91207
8.64364
8.33256
7.97614
7.57639
7.12859
1.5547
4.81517
11.2198
10.9511
10.3112
10.054
10.0493
10.0758
10.1231
10.1496
10.1593
10.1635
10.1677
10.1728
10.1779
10.1824
10.1863
10.1894
10.1918
10.1933
10.1939
10.1936
10.1926
10.1901
10.1856
10.1796
10.1719
10.1617
10.1487
10.1321
10.1117
10.0866
10.0564
10.0201
9.97687
9.92546
9.86464
9.79282
9.70822
9.60881
9.49229
9.3561
9.1975
9.01359
8.80167
8.5593
8.28503
7.97883
7.64204
7.26742
1.55559
4.82219
11.1697
10.882
10.2385
9.99894
10.0089
10.0511
10.0996
10.1213
10.1274
10.1299
10.1329
10.1361
10.1386
10.1402
10.1409
10.1408
10.1401
10.1382
10.1351
10.1312
10.1262
10.1199
10.1119
10.102
10.0898
10.075
10.0575
10.0367
10.0123
9.98363
9.94989
9.90999
9.86302
9.80813
9.74409
9.66967
9.58347
9.48385
9.36906
9.23721
9.08639
8.91463
8.72034
8.50209
8.25916
7.99106
7.70408
7.38792
1.56575
4.84129
11.2323
10.9019
10.1822
9.9215
9.93642
9.99087
10.0482
10.0727
10.079
10.0817
10.0851
10.0884
10.0907
10.0917
10.0915
10.0906
10.0881
10.0839
10.0788
10.0725
10.0647
10.0554
10.0442
10.0309
10.0153
9.99719
9.9762
9.95192
9.92369
9.89088
9.85291
9.80939
9.75958
9.70244
9.63704
9.56195
9.47598
9.37786
9.26643
9.14021
8.99802
8.83853
8.66078
8.46406
8.24871
8.0145
7.76531
7.49479
1.55607
4.81949
11.1564
10.85
10.1581
9.89669
9.90859
9.9576
10.0138
10.038
10.0437
10.0451
10.0471
10.0489
10.0496
10.0492
10.0476
10.0441
10.0393
10.0334
10.0263
10.0178
10.0076
9.9958
9.98195
9.96593
9.94746
9.92635
9.9022
9.87469
9.84329
9.80759
9.76709
9.72109
9.66897
9.60981
9.54288
9.46739
9.38252
9.28718
9.18045
9.06108
8.92806
8.78059
8.61837
8.44132
8.24965
8.04277
7.82429
7.58947
1.52687
4.76193
10.9488
10.7253
10.1495
9.90126
9.90203
9.9312
9.97983
10.0031
10.0089
10.0096
10.0103
10.0105
10.01
10.0083
10.0046
9.99949
9.99324
9.98582
9.97697
9.96656
9.95439
9.94037
9.92424
9.90593
9.88507
9.86154
9.83489
9.8049
9.77116
9.73324
9.69067
9.64288
9.58938
9.52949
9.46258
9.38792
9.3048
9.2124
9.1099
8.99675
8.87243
8.73648
8.58841
8.4279
8.25506
8.07205
7.87928
7.67322
1.51079
4.71642
10.8655
10.7304
10.2328
9.93989
9.88782
9.90609
9.94546
9.96956
9.9763
9.97602
9.97484
9.97251
9.96959
9.96574
9.96063
9.95425
9.94657
9.93757
9.92706
9.91495
9.90105
9.8853
9.86742
9.84733
9.82467
9.79932
9.77089
9.73915
9.70376
9.66431
9.6205
9.57181
9.51773
9.45779
9.3915
9.31828
9.23757
9.14873
9.05124
8.94459
8.82841
8.70236
8.56633
8.4204
8.26491
8.10053
7.9285
7.74585
1.66789
3.29131
10.5031
11.0114
10.5958
10.0759
9.88753
9.89144
9.91662
9.94966
9.96037
9.95921
9.95524
9.94886
9.943
9.93704
9.93011
9.92184
9.91217
9.90107
9.88849
9.87425
9.85821
9.84038
9.82047
9.79831
9.77362
9.74626
9.71591
9.68236
9.64529
9.60437
9.55923
9.5095
9.45479
9.39476
9.32906
9.25724
9.17886
9.0935
9.00066
8.90004
8.79139
8.67444
8.54922
8.41583
8.2746
8.12602
7.97125
7.80781
1.6758
3.16758
10.437
11.1634
10.7149
10.1108
9.86579
9.85282
9.87054
9.9027
9.91312
9.91125
9.90523
9.89586
9.88821
9.88166
9.87469
9.86647
9.85679
9.84562
9.83292
9.81855
9.80238
9.78421
9.76392
9.74132
9.71613
9.68823
9.65731
9.62321
9.58563
9.54437
9.49916
9.44972
9.3958
9.33699
9.27289
9.20314
9.12746
9.04541
8.95676
8.86135
8.75916
8.65032
8.53465
8.41223
8.28325
8.14816
8.00793
7.86044
1.64103
3.05297
9.9081
11.007
10.6474
10.1083
9.88503
9.86408
9.87503
9.89333
9.89498
9.89102
9.88085
9.86747
9.85628
9.84656
9.83675
9.82597
9.81398
9.80073
9.78614
9.77009
9.7524
9.73289
9.7114
9.68774
9.66173
9.6331
9.6016
9.56705
9.52927
9.48803
9.44307
9.39413
9.34093
9.28318
9.2206
9.15294
9.07994
9.00151
8.91755
8.82783
8.73216
8.63038
8.5224
8.40857
8.28974
8.16622
8.0385
7.9046
1.43554
4.54828
10.3329
10.5102
10.2179
9.92341
9.81543
9.81278
9.82105
9.83155
9.83145
9.82791
9.81885
9.80687
9.79661
9.78747
9.77797
9.76734
9.75542
9.74221
9.72764
9.71157
9.69384
9.67427
9.65273
9.62904
9.60304
9.57447
9.54316
9.50903
9.47182
9.43127
9.38719
9.33936
9.28756
9.23156
9.17115
9.10613
9.03635
8.96167
8.88196
8.79711
8.70704
8.61176
8.51169
8.40691
8.29732
8.18313
8.06535
7.94253
1.63335
3.00153
9.72292
10.8947
10.5802
10.0799
9.86028
9.82592
9.83125
9.83771
9.83494
9.82577
9.80907
9.79325
9.77963
9.76706
9.75421
9.74036
9.72532
9.70921
9.69201
9.67351
9.65352
9.63189
9.60844
9.58305
9.55554
9.52587
9.49389
9.45926
9.42178
9.38125
9.33752
9.29044
9.23977
9.18531
9.12686
9.06426
8.99739
8.92611
8.85034
8.77004
8.68522
8.59592
8.50228
8.40443
8.3025
8.1969
8.08821
7.9752
1.64221
2.93332
9.72409
11.0199
10.6388
10.0476
9.7902
9.75659
9.76673
9.78238
9.78129
9.77415
9.75818
9.74108
9.72723
9.71509
9.70283
9.68973
9.67559
9.66021
9.64343
9.6252
9.60544
9.58402
9.56081
9.53566
9.50842
9.47896
9.44713
9.41275
9.37568
9.33579
9.29289
9.24676
9.19727
9.14431
9.08776
9.0275
8.96341
8.89541
8.82345
8.74746
8.66745
8.58348
8.49562
8.40402
8.30886
8.21062
8.10972
8.00489
1.64052
2.91403
9.66963
10.9983
10.6138
10.0075
9.7407
9.70549
9.71662
9.73495
9.73445
9.72821
9.71324
9.69563
9.6815
9.66943
9.65733
9.64426
9.62999
9.61443
9.59754
9.57924
9.55942
9.53797
9.51477
9.48968
9.46257
9.43332
9.40179
9.36786
9.33139
9.29224
9.25027
9.20534
9.15731
9.10608
9.05157
8.99369
8.93236
8.86753
8.79912
8.7271
8.65151
8.57239
8.48986
8.40408
8.3151
8.22328
8.12908
8.03135
1.62615
2.92261
9.50151
10.8575
10.548
9.99687
9.74111
9.69312
9.69781
9.7061
9.70378
9.69524
9.67803
9.66131
9.64698
9.63389
9.62067
9.60662
9.5915
9.57525
9.55779
9.53901
9.51881
9.49705
9.47362
9.44839
9.42126
9.3921
9.3608
9.32723
9.29126
9.25277
9.21165
9.16781
9.12118
9.07167
9.01916
8.96357
8.90481
8.84289
8.77775
8.70939
8.63782
8.5631
8.48532
8.40461
8.32122
8.23522
8.14692
8.0553
1.39376
4.481
10.032
10.3023
10.0219
9.73439
9.62652
9.61736
9.62275
9.62934
9.62828
9.62308
9.61177
9.59907
9.58762
9.57677
9.56542
9.55298
9.53925
9.5242
9.50779
9.48995
9.47062
9.4497
9.4271
9.40271
9.37641
9.34813
9.31776
9.28523
9.25042
9.21323
9.17357
9.13137
9.08653
9.03898
8.98863
8.93542
8.87933
8.82032
8.75841
8.69362
8.62592
8.55535
8.48198
8.40587
8.32725
8.24617
8.16301
8.0768
1.63138
2.94632
9.5889
10.8409
10.4972
9.90823
9.63455
9.59209
9.60238
9.62283
9.62444
9.61978
9.60739
9.59008
9.57516
9.56204
9.54882
9.53456
9.519
9.5021
9.48397
9.46444
9.44355
9.42128
9.39758
9.37231
9.34531
9.31649
9.28574
9.25297
9.21815
9.18126
9.14222
9.10091
9.05726
9.01116
8.96258
8.91144
8.85769
8.80126
8.74213
8.68031
8.61581
8.54872
8.47912
8.40711
8.33283
8.25633
8.17786
8.0965
1.6416
3.07601
9.86218
10.7727
10.3906
9.77853
9.51644
9.4962
9.51353
9.54637
9.55588
9.55322
9.54489
9.53068
9.51821
9.50735
9.49629
9.484
9.47025
9.45513
9.43878
9.42115
9.40202
9.38127
9.3588
9.33459
9.30863
9.28088
9.25126
9.21975
9.18627
9.15073
9.11305
9.07317
9.03101
8.98653
8.93969
8.89044
8.83875
8.78462
8.72805
8.66908
8.60773
8.54396
8.47784
8.40945
8.33889
8.26627
8.1918
8.11461
1.4039
4.54494
10.1008
10.157
9.85152
9.54427
9.44476
9.45007
9.46945
9.48946
9.49523
9.49372
9.48872
9.4793
9.46999
9.46095
9.45119
9.44011
9.42754
9.41353
9.39809
9.38118
9.36272
9.34265
9.32091
9.2975
9.27238
9.2455
9.21679
9.1862
9.15373
9.11933
9.08292
9.04445
9.00387
8.96113
8.9162
8.86902
8.8196
8.76791
8.71394
8.65768
8.59918
8.53852
8.47571
8.41083
8.34391
8.27503
8.20434
8.13106
1.38783
4.55471
9.99721
10.023
9.78149
9.54953
9.46723
9.46458
9.47075
9.48018
9.4819
9.47984
9.47392
9.46392
9.45364
9.44324
9.43205
9.41967
9.40601
9.39105
9.37479
9.35723
9.33828
9.3179
9.29603
9.27262
9.24761
9.22097
9.19266
9.16264
9.1308
9.0971
9.06147
9.02388
8.98428
8.94265
8.89892
8.85307
8.80517
8.75529
8.70338
8.64939
8.5933
8.53516
8.47498
8.4128
8.3487
8.2828
8.21525
8.1453
1.42103
4.56813
10.2093
10.1797
9.79657
9.46113
9.36785
9.3798
9.41104
9.43558
9.44256
9.4412
9.43663
9.42807
9.41915
9.41005
9.40011
9.38885
9.37612
9.36194
9.34632
9.32922
9.31066
9.29062
9.26908
9.246
9.22134
9.19509
9.16721
9.13768
9.10643
9.07341
9.03858
9.00195
8.9635
8.92321
8.88107
8.8371
8.79117
8.74321
8.69326
8.64136
8.58754
8.53181
8.47419
8.41472
8.35346
8.29047
8.22584
8.15876
1.53208
3.35089
9.88472
10.7049
10.3175
9.67517
9.39111
9.36521
9.38285
9.41876
9.43299
9.43198
9.42737
9.41766
9.40722
9.39724
9.38682
9.37519
9.36213
9.34763
9.33174
9.31448
9.29584
9.27574
9.25415
9.23105
9.20633
9.17997
9.15211
9.12262
9.09145
9.05858
9.02403
8.98779
8.94983
8.91014
8.86871
8.82551
8.78052
8.73372
8.68515
8.63483
8.58267
8.52869
8.47301
8.41567
8.35672
8.2962
8.23421
8.17007
1.39622
4.53343
10.0627
10.0927
9.78992
9.46498
9.34303
9.34148
9.35289
9.37439
9.38327
9.3826
9.37913
9.37155
9.36262
9.3539
9.34473
9.3344
9.32264
9.30941
9.29477
9.27872
9.26124
9.24229
9.22182
9.19983
9.17626
9.15112
9.12445
9.09622
9.06639
9.03499
9.00196
8.96723
8.93077
8.89259
8.85267
8.81102
8.76762
8.72249
8.6756
8.62695
8.57667
8.52477
8.47125
8.41613
8.35946
8.30128
8.24175
8.18029
1.39361
4.53055
10.0453
10.0798
9.77334
9.44562
9.32546
9.32577
9.33835
9.36115
9.37059
9.36973
9.36572
9.35721
9.34757
9.3381
9.32817
9.31709
9.30461
9.29075
9.27557
9.25909
9.24129
9.22215
9.20165
9.17976
9.15648
9.1318
9.10561
9.07785
9.04851
9.01756
8.98504
8.95095
8.9153
8.87806
8.83921
8.79872
8.7566
8.71284
8.66744
8.62043
8.57183
8.52166
8.46992
8.41665
8.36187
8.30564
8.24803
8.18857
1.53026
3.3389
9.84531
10.6858
10.3
9.63536
9.33132
9.2955
9.31205
9.34689
9.36219
9.36132
9.35681
9.34705
9.33627
9.32633
9.31631
9.30529
9.29289
9.27915
9.26407
9.24769
9.22997
9.2109
9.19045
9.16851
9.14525
9.12055
9.09436
9.06667
9.03746
9.00674
8.97452
8.94081
8.9056
8.86886
8.83058
8.79077
8.74941
8.70652
8.66209
8.61614
8.56869
8.51974
8.46932
8.41749
8.36423
8.30962
8.25376
8.19624
1.40765
4.54706
10.1153
10.0895
9.70478
9.35192
9.24166
9.25091
9.28021
9.30927
9.31895
9.31805
9.31422
9.30625
9.29763
9.28919
9.28018
9.27001
9.25847
9.24559
9.2314
9.21591
9.19913
9.18102
9.16155
9.1407
9.11848
9.09486
9.06981
9.0433
9.01532
8.98591
8.95504
8.92271
8.88887
8.85354
8.8167
8.77836
8.73854
8.69719
8.65432
8.60992
8.56402
8.51665
8.46783
8.41757
8.3659
8.31291
8.25868
8.2028
1.39257
4.55489
10.0044
9.97893
9.66664
9.38643
9.29792
9.30094
9.31312
9.32399
9.3246
9.32212
9.31557
9.30554
9.29556
9.28567
9.27519
9.26368
9.25102
9.23718
9.22218
9.20602
9.18869
9.17015
9.15037
9.12934
9.10703
9.08342
9.05849
9.03224
9.00465
8.97566
8.94525
8.9134
8.8801
8.84534
8.8091
8.7714
8.73224
8.69164
8.64962
8.60618
8.56131
8.51502
8.46734
8.41825
8.36783
8.31606
8.26298
8.20814
1.38461
4.54719
9.95571
9.94468
9.65671
9.38516
9.29289
9.29221
9.29837
9.30613
9.30624
9.30401
9.29791
9.28807
9.2782
9.26844
9.25813
9.24686
9.23451
9.22107
9.20652
9.19082
9.17395
9.15588
9.13657
9.11601
9.09418
9.07105
9.04662
9.02085
8.99374
8.96526
8.93539
8.90413
8.87148
8.83743
8.80199
8.76515
8.72688
8.68719
8.64608
8.60355
8.55961
8.51428
8.4676
8.41963
8.37031
8.31961
8.26758
8.21376
1.37667
4.50859
9.9159
10.029
9.72897
9.40127
9.28007
9.27605
9.28466
9.29705
9.29921
9.29688
9.29025
9.27927
9.26862
9.25851
9.24807
9.2367
9.22422
9.21061
9.19589
9.18005
9.16307
9.14491
9.12557
9.10502
9.08323
9.06021
9.03591
9.01034
8.98346
8.95528
8.92576
8.89491
8.86271
8.82915
8.79423
8.75793
8.72027
8.68122
8.64081
8.59905
8.55595
8.51154
8.46578
8.41865
8.37021
8.32049
8.26955
8.217
1.62601
2.96758
9.51748
10.6156
10.2715
9.64567
9.33603
9.27011
9.27767
9.2959
9.30343
9.3012
9.29373
9.27943
9.26629
9.25501
9.24418
9.23268
9.22008
9.20634
9.19151
9.17561
9.15862
9.14049
9.1212
9.10073
9.07905
9.05614
9.03198
9.00656
8.97985
8.95185
8.92254
8.89191
8.85994
8.82664
8.79199
8.756
8.71867
8.67999
8.63997
8.59862
8.55596
8.51198
8.46671
8.42017
8.3724
8.32349
8.27348
8.22208
1.63531
2.85212
9.47937
10.8196
10.4136
9.67517
9.30773
9.2296
9.24014
9.26612
9.28087
9.27969
9.27363
9.26036
9.24627
9.23472
9.22432
9.21344
9.20141
9.18815
9.17375
9.15827
9.14171
9.12403
9.10521
9.08521
9.06402
9.04162
9.01799
8.99312
8.96698
8.93957
8.91087
8.88087
8.84956
8.81694
8.78299
8.74772
8.71112
8.67319
8.63394
8.59338
8.5515
8.5083
8.46381
8.41807
8.37111
8.32297
8.27374
8.22316
1.62638
2.9607
9.5022
10.6061
10.262
9.62952
9.31181
9.24408
9.25246
9.2731
9.28335
9.28151
9.27452
9.26022
9.2464
9.23472
9.2238
9.21235
9.19982
9.18618
9.17147
9.15574
9.13898
9.12115
9.10222
9.08215
9.06094
9.03855
9.01497
8.99018
8.96415
8.93689
8.90836
8.87856
8.84748
8.81511
8.78144
8.74647
8.71019
8.6726
8.63371
8.59351
8.55202
8.50925
8.4652
8.4199
8.37337
8.32563
8.27673
8.22629
1.37365
4.50528
9.89654
10.0093
9.70509
9.36318
9.23455
9.23011
9.23964
9.25424
9.25743
9.25523
9.24879
9.23789
9.22734
9.21745
9.2073
9.19629
9.18422
9.17108
9.15691
9.14171
9.12546
9.10814
9.08972
9.07017
9.04948
9.02762
9.00457
8.98033
8.95486
8.92815
8.9002
8.87098
8.84048
8.8087
8.77563
8.74126
8.70559
8.66862
8.63033
8.59075
8.54985
8.50767
8.46422
8.4195
8.37352
8.32628
8.27777
8.22751
1.37943
4.54059
9.92125
9.9041
9.60491
9.32803
9.24017
9.24247
9.2532
9.26322
9.26353
9.26097
9.25408
9.24332
9.23276
9.22254
9.21188
9.20033
9.18778
9.17423
9.15969
9.14414
9.12757
9.10995
9.09125
9.07145
9.05053
9.02846
9.00524
8.98083
8.95523
8.92841
8.90036
8.87108
8.84054
8.80873
8.77566
8.74131
8.70568
8.66877
8.63057
8.59109
8.55033
8.5083
8.46501
8.42048
8.37472
8.32774
8.27955
8.22984
1.40365
4.56179
10.0517
9.98468
9.59
9.27403
9.19119
9.20281
9.23256
9.25306
9.25569
9.25307
9.24611
9.23579
9.2259
9.21626
9.20604
9.19482
9.18253
9.16921
9.1549
9.13957
9.1232
9.10578
9.08728
9.06768
9.04695
9.02508
9.00205
8.97784
8.95243
8.92581
8.89796
8.86887
8.83853
8.80693
8.77405
8.7399
8.70446
8.66774
8.62974
8.59045
8.54988
8.50805
8.46495
8.42062
8.37506
8.32829
8.28038
8.23109
3.04218
2.45537
2.998
4.17618
4.12242
4.10676
4.04614
4.00851
3.99552
3.99811
4.02542
4.06873
4.10575
4.13653
4.17058
4.21333
4.26497
4.32302
4.38463
4.44752
4.50995
4.57069
4.62931
4.68626
4.73727
4.78266
4.82236
4.85683
4.88599
4.91006
4.92905
4.94316
4.95247
4.95726
4.95765
4.95603
4.95068
4.93936
4.92386
4.90605
4.88596
4.86356
4.83896
4.81242
4.78421
4.75462
4.72386
4.69222
4.65989
4.62712
4.59411
4.56108
4.52821
4.49573
4.46382
4.43269
4.40252
4.37352
4.34587
4.31978
4.29542
4.27301
4.2527
4.23468
4.2191
4.20608
4.19573
4.1881
4.18317
4.18092
4.18098
4.18166
4.18387
4.18911
4.1997
4.21228
4.2253
4.2385
4.25178
4.26488
4.27745
4.28916
4.29974
4.30899
4.31678
4.32304
4.32776
4.33098
4.33282
4.33347
4.33341
4.33307
4.3321
4.32989
4.3259
4.32148
4.31697
4.31234
4.30743
4.30322
4.09403
3.55039
3.75241
4.23039
4.14868
4.0924
4.03349
3.99333
3.98147
3.99345
4.03411
4.08424
4.11602
4.13818
4.16733
4.20824
4.25948
4.31745
4.37893
4.44171
4.50405
4.56493
4.62383
4.68051
4.7316
4.777
4.81683
4.85142
4.88073
4.90492
4.92403
4.93824
4.94763
4.95243
4.95265
4.95147
4.94719
4.93718
4.92015
4.9017
4.88178
4.85971
4.83536
4.80899
4.7809
4.75141
4.72078
4.68924
4.65702
4.62435
4.59143
4.55848
4.5257
4.49328
4.46144
4.43036
4.40024
4.37128
4.34367
4.31761
4.29328
4.27089
4.2506
4.2326
4.21705
4.20407
4.19379
4.18625
4.1815
4.17968
4.17984
4.18066
4.18297
4.18819
4.1987
4.21147
4.22484
4.23837
4.25189
4.26516
4.27787
4.2897
4.30038
4.3097
4.31753
4.3238
4.3285
4.3317
4.3335
4.33405
4.33397
4.33361
4.33262
4.33043
4.32634
4.32179
4.3172
4.31263
4.30794
4.30536
5.22304
4.46154
4.23223
4.26409
4.24512
4.19306
4.11164
4.05893
4.03865
4.041
4.0532
4.08203
4.11738
4.14878
4.18201
4.22271
4.27166
4.32718
4.38653
4.44744
4.50821
4.56767
4.62502
4.67957
4.7298
4.77469
4.8141
4.8482
4.87707
4.90085
4.91959
4.93343
4.94247
4.94683
4.94675
4.94566
4.942
4.93335
4.91602
4.89659
4.87607
4.85388
4.82965
4.80343
4.77547
4.74609
4.71556
4.68413
4.65203
4.61948
4.58669
4.55386
4.52119
4.48889
4.45714
4.42616
4.39613
4.36726
4.33973
4.31374
4.28949
4.26718
4.24697
4.22906
4.2136
4.20074
4.19061
4.18329
4.1789
4.1778
4.17806
4.17905
4.18155
4.18698
4.19754
4.21038
4.22416
4.23822
4.25221
4.26585
4.27885
4.29092
4.30177
4.3112
4.31908
4.32535
4.32999
4.33311
4.33487
4.33519
4.33507
4.33463
4.33351
4.33112
4.32695
4.32227
4.31754
4.31301
4.3085
4.30762
5.82638
5.09303
4.65969
4.46321
4.4245
4.35922
4.26748
4.18732
4.13537
4.11472
4.11693
4.12775
4.15353
4.19059
4.22425
4.25921
4.30008
4.34777
4.40078
4.45681
4.51384
4.57038
4.62519
4.67754
4.726
4.76978
4.80841
4.84176
4.86994
4.89311
4.91131
4.92463
4.93321
4.937
4.93683
4.9357
4.93232
4.92452
4.9086
4.88846
4.86705
4.84443
4.8202
4.79418
4.76649
4.73738
4.70711
4.67594
4.6441
4.6118
4.57926
4.54667
4.51424
4.48216
4.45064
4.41987
4.39005
4.36137
4.33404
4.30825
4.28419
4.26205
4.24204
4.22431
4.20906
4.19643
4.18657
4.17964
4.17579
4.17543
4.17577
4.17696
4.17981
4.1858
4.19633
4.20921
4.22336
4.238
4.2526
4.26675
4.28014
4.29248
4.30352
4.31306
4.32099
4.32724
4.33186
4.33492
4.33648
4.3365
4.33632
4.33576
4.33441
4.33163
4.32744
4.32271
4.31787
4.31335
4.30908
4.30919
6.22942
5.59426
5.11927
4.82996
4.68119
4.5686
4.45759
4.35633
4.27887
4.23122
4.21118
4.21208
4.21824
4.23444
4.26688
4.29977
4.33609
4.37737
4.42346
4.47317
4.52496
4.57727
4.62863
4.6779
4.72406
4.76611
4.80348
4.83569
4.86287
4.88521
4.90261
4.91521
4.92314
4.92617
4.92591
4.92466
4.92129
4.91383
4.89875
4.87896
4.85712
4.83394
4.80941
4.7834
4.75591
4.72709
4.69713
4.66628
4.63475
4.60276
4.57053
4.53824
4.50611
4.47433
4.44311
4.41264
4.38312
4.35474
4.32771
4.30221
4.27845
4.25661
4.2369
4.21949
4.20456
4.19228
4.18284
4.17641
4.17321
4.17327
4.17378
4.17527
4.17864
4.18552
4.19597
4.20877
4.22311
4.2382
4.25334
4.26801
4.28179
4.29439
4.30558
4.3152
4.32314
4.32937
4.33393
4.33685
4.33804
4.33798
4.33767
4.33686
4.33513
4.33194
4.32777
4.32303
4.31811
4.31358
4.30962
4.30994
6.5365
6.00125
5.54642
5.20247
4.96946
4.80323
4.66644
4.54745
4.44949
4.37736
4.33193
4.30991
4.30946
4.31263
4.32327
4.34637
4.37873
4.41471
4.45346
4.49533
4.53996
4.58621
4.63263
4.67792
4.72095
4.76068
4.7963
4.82727
4.85342
4.87481
4.89129
4.90313
4.9104
4.91264
4.91231
4.91096
4.9075
4.90009
4.88546
4.86651
4.8448
4.8213
4.79644
4.77033
4.74299
4.71447
4.68491
4.65447
4.62337
4.5918
4.55998
4.52811
4.49639
4.46504
4.43424
4.4042
4.37511
4.34717
4.32058
4.29552
4.27221
4.25083
4.23157
4.2146
4.20015
4.18839
4.17952
4.17364
4.17125
4.17142
4.17216
4.17407
4.17814
4.18593
4.1964
4.2091
4.22344
4.23871
4.25417
4.26918
4.28325
4.29605
4.30734
4.31699
4.32494
4.33114
4.33558
4.33831
4.33913
4.33902
4.33859
4.33755
4.33539
4.33196
4.3277
4.32292
4.31797
4.31344
4.30972
4.31014
6.78073
6.33007
5.91235
5.55313
5.27249
5.06084
4.8933
4.75355
4.63661
4.54316
4.47442
4.42957
4.406
4.39995
4.40155
4.40818
4.42385
4.45229
4.48405
4.51929
4.55729
4.59714
4.63784
4.67839
4.7177
4.75461
4.78815
4.81762
4.8426
4.86299
4.8787
4.88979
4.89632
4.89779
4.89739
4.89592
4.8923
4.88466
4.87051
4.85224
4.83093
4.80746
4.78246
4.75627
4.72903
4.70079
4.67162
4.64165
4.61103
4.57996
4.54863
4.51727
4.48606
4.45523
4.42496
4.39546
4.36692
4.33954
4.31352
4.28904
4.26632
4.24554
4.22688
4.21056
4.19673
4.18559
4.17732
4.17203
4.17051
4.17077
4.17172
4.17405
4.1789
4.18731
4.19803
4.2107
4.22491
4.24005
4.25546
4.27051
4.28466
4.29754
4.30887
4.31851
4.32639
4.33248