/*--------------------------------*- C++ -*----------------------------------*\
| =========                 |                                                 |
| \\      /  F ield         | OpenFOAM: The Open Source CFD Toolbox           |
|  \\    /   O peration     | Version:  2412                                  |
|   \\  /    A nd           | Website:  www.openfoam.com                      |
|    \\/     M anipulation  |                                                 |
\*---------------------------------------------------------------------------*/
FoamFile
{
    version     2.0;
    format      ascii;
    arch        "LSB;label=32;scalar=64";
    class       surfaceScalarField;
    location    "17";
    object      phi;
}
// * * * * * * * * * * * * * * * * * * * * * * * * * * * * * * * * * * * * * //

dimensions      [1 0 -1 0 0 0 0];

oriented        oriented;

internalField   nonuniform List<scalar> 
13790
(
0.00292376
-1.9727e-07
0.00274464
9.3103e-07
0.00280407
3.25285e-06
0.00280533
5.58982e-06
0.00279931
6.47765e-06
0.00279218
7.16988e-06
0.00278424
7.96286e-06
0.00277533
8.91328e-06
0.00276534
1.00015e-05
0.00275411
1.12465e-05
0.00274154
1.25795e-05
0.00272759
1.39614e-05
0.00271221
1.53952e-05
0.00269532
1.68971e-05
0.00267685
1.84804e-05
0.00265671
2.01502e-05
0.00263481
2.19104e-05
0.00261105
2.37647e-05
0.00258534
2.57198e-05
0.00255756
2.77827e-05
0.00252761
2.99618e-05
0.00249535
3.22654e-05
0.00246065
3.47032e-05
0.00242337
3.72846e-05
0.00238335
4.00205e-05
0.00234044
4.29208e-05
0.00229444
4.59977e-05
0.00224518
4.92607e-05
0.00219246
5.27223e-05
0.00213608
5.63903e-05
0.0020758
6.02763e-05
0.00201143
6.43839e-05
0.0019427
6.87222e-05
0.00186942
7.32863e-05
0.00179135
7.80799e-05
0.00170827
8.30842e-05
0.00161998
8.82929e-05
0.00152632
9.36665e-05
0.00142714
9.91825e-05
0.00132237
0.000104773
0.00121198
0.000110395
0.00109604
0.000115945
0.000974695
0.000121357
0.000848205
0.000126498
0.000716924
0.000131295
0.000581312
0.000135611
0.000441842
0.000139474
0.00029916
0.000142677
0.000152275
0.000146879
0.000152276
0.00303219
2.03839e-08
0.00284631
8.42205e-07
0.00290654
8.6163e-06
0.00290788
1.12931e-05
0.00290202
1.2817e-05
0.00289485
1.43848e-05
0.00288667
1.61587e-05
0.00287743
1.81619e-05
0.00286704
2.04028e-05
0.00285538
2.29198e-05
0.00284236
2.56139e-05
0.00282791
2.84203e-05
0.00281197
3.13411e-05
0.00279448
3.44029e-05
0.00277534
3.76286e-05
0.00275447
4.10296e-05
0.00273178
4.46136e-05
0.00270716
4.83899e-05
0.00268052
5.2371e-05
0.00265173
5.65721e-05
0.00262069
6.10093e-05
0.00258726
6.57006e-05
0.00255131
7.06647e-05
0.00251268
7.59217e-05
0.00247121
8.14929e-05
0.00242673
8.74e-05
0.00237907
9.36662e-05
0.00232802
0.000100313
0.00227338
0.000107363
0.00221494
0.000114836
0.00215246
0.000122753
0.00208573
0.000131123
0.00201449
0.000139966
0.00193851
0.00014927
0.00185755
0.000159046
0.00177138
0.000169254
0.00167979
0.000179885
0.00158261
0.000190856
0.00147967
0.000202128
0.00137089
0.000213558
0.00125623
0.000225062
0.00113575
0.000236431
0.00100959
0.000247528
0.000877996
0.000258097
0.000741364
0.000267942
0.000600112
0.000276862
0.000454842
0.000284748
0.000306085
0.000291429
0.000154196
0.000298761
0.000306472
0.0031449
9.21296e-08
0.00295182
1.21197e-06
0.00301449
1.38897e-05
0.00301579
1.72823e-05
0.0030098
1.93043e-05
0.0030025
2.1733e-05
0.00299409
2.45849e-05
0.00298454
2.77163e-05
0.00297379
3.11719e-05
0.00296171
3.50068e-05
0.00294824
3.91016e-05
0.0029333
4.3374e-05
0.00291681
4.7837e-05
0.00289871
5.25135e-05
0.00287891
5.74448e-05
0.00285731
6.26351e-05
0.00283383
6.81111e-05
0.00280835
7.38728e-05
0.00278077
7.99557e-05
0.00275099
8.63647e-05
0.00271886
9.31444e-05
0.00268427
0.000100301
0.00264705
0.000107885
0.00260708
0.000115904
0.00256416
0.000124417
0.00251813
0.000133428
0.0024688
0.000143004
0.00241597
0.000153144
0.00235942
0.000163921
0.00229893
0.000175325
0.00223426
0.000187431
0.00216518
0.000200211
0.00209141
0.000213737
0.00201273
0.000227953
0.00192886
0.000242915
0.00183959
0.000258531
0.00174467
0.000274813
0.0016439
0.000291624
0.00153713
0.000308902
0.00142424
0.000326456
0.0013052
0.000344111
0.00118
0.000361631
0.00104886
0.000378682
0.000911926
0.000395042
0.000769653
0.000410231
0.000622496
0.000424016
0.000471053
0.000436197
0.000316161
0.000446315
0.000158588
0.000456328
0.00046506
0.00326183
1.16148e-07
0.00306158
1.66932e-06
0.00312681
1.90921e-05
0.00312815
2.34759e-05
0.00312199
2.59987e-05
0.00311451
2.92528e-05
0.0031059
3.32169e-05
0.00309607
3.7555e-05
0.00308496
4.2295e-05
0.00307248
4.74955e-05
0.00305857
5.30258e-05
0.00304314
5.88144e-05
0.00302613
6.48666e-05
0.00300743
7.12214e-05
0.00298697
7.79108e-05
0.00296466
8.49602e-05
0.0029404
9.23836e-05
0.00291407
0.000100208
0.00288558
0.000108452
0.0028548
0.000117155
0.00282161
0.000126341
0.00278586
0.00013606
0.00274742
0.000146334
0.0027061
0.000157227
0.00266176
0.000168756
0.0026142
0.000180999
0.00256324
0.000193967
0.00250864
0.00020775
0.00245022
0.000222345
0.00238769
0.000237854
0.00232087
0.00025425
0.00224945
0.000271646
0.00217321
0.000289973
0.00209183
0.000309344
0.00200511
0.000329633
0.00191271
0.000350938
0.00181448
0.000373048
0.00171009
0.00039602
0.00159946
0.000419537
0.00148236
0.000443561
0.00135879
0.000467689
0.00122876
0.00049167
0.00109233
0.000515124
0.000949912
0.000537465
0.000801604
0.000558556
0.000648226
0.000577392
0.00049031
0.000594117
0.000328665
0.000607955
0.000164755
0.000620232
0.000629816
0.00338307
1.39558e-07
0.00317541
2.1586e-06
0.00324322
2.43213e-05
0.00324469
2.98015e-05
0.00323838
3.28675e-05
0.00323073
3.69523e-05
0.00322193
4.20312e-05
0.00321183
4.76636e-05
0.00320039
5.37482e-05
0.00318754
6.03588e-05
0.00317322
6.73652e-05
0.00315732
7.47195e-05
0.00313979
8.24103e-05
0.00312052
9.05025e-05
0.00309944
9.90058e-05
0.00307643
0.000107978
0.00305142
0.000117409
0.00302427
0.000127364
0.00299489
0.000137836
0.00296315
0.000148908
0.00292892
0.000160574
0.00289205
0.000172935
0.00285241
0.000185986
0.00280981
0.000199836
0.00276408
0.000214484
0.00271504
0.000230049
0.00266247
0.000246534
0.00260617
0.000264053
0.0025459
0.000282621
0.00248143
0.000302332
0.00241246
0.000323216
0.00233879
0.000345323
0.00226006
0.000368704
0.00217609
0.000393325
0.00208646
0.000419262
0.00199105
0.00044635
0.00188941
0.000474697
0.00178151
0.000503929
0.00166686
0.000534189
0.0015456
0.000564825
0.00141731
0.00059599
0.00128226
0.00062672
0.00114035
0.000657046
0.000991893
0.000685934
0.000837462
0.000713003
0.000677133
0.00073772
0.000512228
0.000759027
0.000343472
0.000776706
0.000172029
0.000791668
0.000801846
0.00350882
1.63266e-07
0.00329348
2.65426e-06
0.00336398
2.95946e-05
0.0033656
3.623e-05
0.00335916
3.98972e-05
0.00335135
4.48146e-05
0.00334231
5.10876e-05
0.00333201
5.79726e-05
0.00332031
6.547e-05
0.00330713
7.35521e-05
0.0032924
8.21076e-05
0.00327607
9.10576e-05
0.00325804
0.00010046
0.00323823
0.000110321
0.00321653
0.000120723
0.00319287
0.00013165
0.00316711
0.000143182
0.00313918
0.000155296
0.00310893
0.000168099
0.00307628
0.000181567
0.00304103
0.000195832
0.00300311
0.000210861
0.00296228
0.000226818
0.00291847
0.000243655
0.00287139
0.000261569
0.00282096
0.00028049
0.00276684
0.000300656
0.00270894
0.00032196
0.00264688
0.000344681
0.00258054
0.000368671
0.00250953
0.000394235
0.00243367
0.000421181
0.00235257
0.000449808
0.00226601
0.000479885
0.00217362
0.000511657
0.00207512
0.000544856
0.00197023
0.000579595
0.00185858
0.000615579
0.00174009
0.000652682
0.00161433
0.000690599
0.00148149
0.000728835
0.00134103
0.000767184
0.00119353
0.000804563
0.00103872
0.000840752
0.000877295
0.000874445
0.000709968
0.000905046
0.000537032
0.000931968
0.000360117
0.000953615
0.000180617
0.000971162
0.000982462
0.00363926
1.87308e-07
0.00341593
3.15172e-06
0.00348925
3.49069e-05
0.00349107
4.2736e-05
0.00348455
4.70373e-05
0.0034766
5.2817e-05
0.00346741
6.02895e-05
0.00345689
6.85064e-05
0.00344493
7.74493e-05
0.00343143
8.70652e-05
0.00341635
9.72044e-05
0.0033996
0.00010782
0.0033811
0.000118965
0.00336076
0.000130676
0.00333849
0.000143007
0.00331417
0.000155978
0.00328773
0.000169636
0.00325902
0.000184013
0.00322797
0.000199167
0.00319439
0.000215147
0.00315821
0.000232022
0.00311922
0.000249856
0.00307733
0.000268722
0.00303228
0.000288707
0.00298398
0.000309876
0.00293213
0.000332348
0.00287662
0.000356168
0.0028171
0.000381493
0.00275345
0.000408327
0.00268525
0.000436877
0.00261241
0.000467081
0.00253441
0.000499193
0.00245115
0.000533062
0.00236208
0.000568964
0.0022671
0.000606645
0.00216563
0.000646332
0.00205754
0.000687687
0.00194234
0.000730782
0.00181984
0.000775194
0.00168974
0.000820697
0.00155177
0.000866814
0.00140617
0.000912789
0.00125238
0.000958368
0.00109116
0.00100199
0.000922287
0.00104333
0.00074669
0.00108064
0.000565535
0.00111313
0.000379434
0.00113971
0.000190144
0.00116045
0.00117261
0.00377457
2.11505e-07
0.00354293
3.64825e-06
0.0036192
4.02412e-05
0.00362125
4.92903e-05
0.0036147
5.42493e-05
0.00360665
6.09203e-05
0.00359735
6.96099e-05
0.00358665
7.92095e-05
0.00357447
8.9652e-05
0.0035607
0.000100846
0.0035453
0.000112623
0.00352817
0.000124954
0.00350926
0.000137898
0.00348844
0.000151508
0.00346563
0.000165829
0.00344072
0.000180895
0.00341363
0.000196746
0.00338422
0.000213433
0.00335238
0.000231011
0.00331799
0.000249551
0.0032809
0.000269119
0.00324096
0.000289802
0.00319801
0.000311678
0.00315188
0.000334848
0.00310236
0.000359401
0.00304927
0.000385446
0.00299235
0.000413091
0.00293141
0.000442437
0.00286612
0.000473615
0.00279631
0.000506696
0.00272155
0.000541845
0.00264169
0.000579061
0.00255619
0.000618561
0.00246496
0.000660201
0.00236733
0.000704283
0.00226323
0.000750433
0.00215195
0.000798977
0.00203343
0.000849307
0.001907
0.000901632
0.00177258
0.000955127
0.00162972
0.00100968
0.0014782
0.00106431
0.0013184
0.00111819
0.00114972
0.00117067
0.000973205
0.00121987
0.000788855
0.00126499
0.000597616
0.00130437
0.000401343
0.00133597
0.000201551
0.00136023
0.00137416
0.00391491
2.3572e-07
0.00367463
4.14056e-06
0.00375402
4.55675e-05
0.00375635
5.58549e-05
0.0037498
6.14957e-05
0.0037417
6.90777e-05
0.0037323
7.90358e-05
0.0037215
9.00178e-05
0.00370916
0.000102013
0.00369517
0.000114844
0.0036795
0.000128317
0.00366205
0.000142412
0.00364275
0.000157213
0.0036215
0.000172771
0.00359821
0.000189141
0.00357276
0.00020635
0.00354507
0.000224454
0.00351501
0.000243501
0.00348247
0.000263565
0.00344731
0.000284714
0.0034094
0.000307039
0.00336858
0.000330625
0.00332469
0.000355575
0.00327756
0.000381992
0.00322697
0.000409993
0.00317273
0.000439693
0.0031146
0.000471223
0.00305234
0.000504705
0.00298568
0.000540278
0.00291431
0.000578063
0.00283797
0.000618193
0.00275626
0.000660779
0.0026689
0.000705923
0.00257539
0.000753716
0.00247553
0.000804151
0.00236863
0.000857332
0.00225459
0.000913017
0.0021326
0.000971312
0.00200261
0.00103163
0.00186377
0.00109398
0.0017161
0.00115736
0.00155896
0.00122145
0.00139224
0.00128492
0.00121642
0.00134651
0.00103079
0.00140552
0.00083689
0.00145889
0.000635285
0.00150599
0.000427018
0.00154423
0.000214238
0.001573
0.00158839
0.00406048
2.59598e-07
0.00381123
4.62463e-06
0.00389391
5.08381e-05
0.00389658
6.23787e-05
0.0038901
6.8716e-05
0.00388201
7.72374e-05
0.0038726
8.84581e-05
0.00386173
0.000100905
0.00384927
0.000114491
0.00383512
0.000129007
0.00381923
0.000144223
0.00380151
0.000160142
0.0037819
0.000176847
0.00376027
0.000194413
0.00373655
0.000212876
0.00371062
0.000232288
0.0036824
0.000252688
0.00365176
0.000274152
0.00361859
0.000296744
0.00358276
0.00032056
0.00354412
0.000345684
0.00350252
0.000372229
0.00345781
0.0004003
0.00340978
0.000430023
0.00335826
0.000461524
0.00330302
0.000494941
0.00324382
0.000530421
0.00318043
0.000568107
0.00311255
0.000608162
0.00303989
0.000650724
0.00296212
0.000695969
0.0028789
0.000744004
0.00278982
0.000795006
0.00269452
0.000849021
0.00259248
0.000906198
0.00248336
0.000966464
0.00236647
0.00102991
0.00224156
0.00109623
0.00210777
0.00116542
0.00196499
0.00123677
0.00181221
0.00131014
0.00164954
0.00138413
0.00147604
0.00145843
0.00129186
0.00153069
0.00109755
0.00159985
0.000892403
0.00166404
0.0006783
0.0017201
0.000456707
0.00176582
0.000229846
0.00179986
0.00181824
0.00421148
2.82863e-07
0.0039529
5.09452e-06
0.00403909
5.59895e-05
0.00404216
6.87974e-05
0.0040358
7.58663e-05
0.00402778
8.53262e-05
0.00401839
9.78685e-05
0.00400755
0.000111754
0.00399507
0.000126989
0.00398084
0.000143253
0.0039648
0.000160281
0.00394689
0.00017807
0.00392701
0.000196742
0.00390508
0.000216354
0.003881
0.000236974
0.00385468
0.000258621
0.003826
0.000281378
0.00379488
0.000305288
0.00376117
0.000330465
0.00372477
0.000356973
0.0036855
0.000384954
0.00364326
0.000414483
0.00359784
0.000445729
0.00354909
0.000478783
0.00349678
0.000513841
0.00344072
0.000551006
0.00338065
0.000590495
0.00331633
0.000632429
0.00324746
0.000677033
0.00317375
0.000724442
0.00309485
0.000774878
0.00301038
0.000828481
0.00291994
0.000885441
0.00282309
0.000945884
0.00271936
0.00100993
0.00260818
0.00107765
0.00248907
0.00114902
0.00236131
0.001224
0.00222442
0.00130231
0.00207753
0.00138366
0.00192027
0.00146741
0.00175163
0.00155278
0.0015715
0.00163857
0.0013789
0.00172331
0.00117399
0.00180478
0.000957697
0.00188034
0.000729828
0.00194797
0.000492292
0.00200335
0.000247498
0.00204464
0.00206573
0.00436811
3.03366e-07
0.00409982
5.54583e-06
0.00418977
6.09186e-05
0.00419334
7.50364e-05
0.00418717
8.28757e-05
0.00417932
9.32478e-05
0.0041701
0.000107103
0.00415935
0.000122523
0.00414691
0.000139451
0.00413266
0.000157514
0.00411656
0.000176403
0.00409852
0.000196127
0.00407847
0.000216807
0.00405631
0.000238527
0.00403196
0.000261335
0.00400532
0.000285277
0.0039763
0.000310413
0.00394477
0.000336824
0.00391065
0.0003646
0.00387378
0.000393854
0.00383405
0.000424694
0.00379128
0.000457261
0.00374534
0.000491679
0.003696
0.000528122
0.00364313
0.000566727
0.00358644
0.000607701
0.00352575
0.00065119
0.00346074
0.000697439
0.00339119
0.000746592
0.00331671
0.000798928
0.00323701
0.000854583
0.00315165
0.000913849
0.00306024
0.000976853
0.00296228
0.00104385
0.00285725
0.00111496
0.00274459
0.00119032
0.0026236
0.00127001
0.0024937
0.00135391
0.00235392
0.00144209
0.00220375
0.00153385
0.00204192
0.00162925
0.00186801
0.00172669
0.00168074
0.00182585
0.00147985
0.00192422
0.00126436
0.00202028
0.00103401
0.00211069
0.000790427
0.00219156
0.000534711
0.00225906
0.000270092
0.00230926
0.00233583
0.00453058
3.15616e-07
0.0042522
5.98397e-06
0.00434619
6.54802e-05
0.00435034
8.10229e-05
0.00434442
8.96967e-05
0.00433689
0.000100852
0.00432789
0.000116118
0.00431736
0.000133064
0.0043051
0.000151739
0.00429095
0.000171679
0.00427486
0.000192508
0.00425679
0.000214214
0.00423665
0.000236966
0.00421436
0.000260827
0.00418984
0.00028588
0.00416299
0.000312138
0.00413371
0.000339701
0.00410192
0.000368624
0.0040675
0.000399041
0.00403032
0.00043104
0.00399025
0.000464778
0.00394715
0.000500369
0.00390084
0.000537995
0.00385117
0.000577801
0.00379792
0.00061999
0.00374089
0.000664738
0.00367981
0.000712269
0.00361447
0.000762791
0.00354451
0.000816548
0.00346968
0.000873767
0.00338954
0.000934722
0.00330378
0.000999625
0.00321184
0.00106879
0.00311333
0.00114237
0.00300755
0.00122073
0.00289401
0.00130386
0.00277185
0.00139218
0.00264038
0.00148539
0.00249861
0.00158386
0.00234552
0.00168695
0.00218019
0.00179459
0.00200104
0.00190585
0.00180741
0.0020195
0.00159744
0.00213419
0.00137087
0.00224688
0.00112695
0.00235461
0.000865186
0.00245333
0.000587446
0.0025368
0.000296614
0.00260008
0.00263244
0.00469913
3.26865e-07
0.00441022
6.38382e-06
0.00450844
6.96865e-05
0.00451334
8.6574e-05
0.00450794
9.60591e-05
0.00450083
0.000108047
0.00449223
0.000124735
0.00448203
0.000143278
0.00447003
0.000163765
0.00445606
0.000185663
0.00444011
0.000208481
0.00442209
0.000232243
0.00440198
0.0002571
0.00437965
0.000283166
0.00435507
0.00031048
0.00432811
0.000339108
0.00429873
0.000369098
0.00426679
0.000400576
0.00423223
0.000433617
0.00419488
0.000468395
0.00415468
0.000504997
0.00411142
0.000543641
0.00406499
0.000584426
0.00401519
0.000627617
0.00396185
0.000673328
0.00390473
0.000721866
0.00384364
0.000773367
0.00377826
0.000828174
0.00370835
0.00088646
0.00363355
0.000948576
0.00355351
0.00101476
0.00346782
0.00108533
0.00337599
0.00116062
0.00327752
0.00124086
0.00317177
0.00132648
0.00305807
0.00141757
0.00293562
0.00151463
0.00280347
0.00161755
0.00266064
0.00172671
0.0025058
0.00184179
0.00233767
0.00196273
0.00215474
0.00208878
0.00195505
0.00221921
0.00173728
0.00235198
0.00149873
0.00248545
0.00123856
0.00261478
0.000956563
0.00273534
0.000653249
0.0028401
0.000332501
0.00292082
0.00296494
0.00487397
3.47262e-07
0.00457411
6.7049e-06
0.00467674
7.3565e-05
0.0046826
9.14538e-05
0.00467807
0.000101635
0.00467151
0.000114697
0.00466349
0.00013278
0.00465377
0.000153003
0.00464213
0.000175438
0.00462846
0.000199347
0.00461274
0.000224217
0.00459491
0.000250091
0.00457492
0.000277111
0.00455268
0.000305417
0.00452815
0.000335031
0.00450123
0.00036604
0.00447186
0.000398484
0.00443994
0.000432504
0.00440539
0.000468186
0.00436809
0.000505705
0.00432791
0.000545184
0.00428475
0.000586815
0.00423842
0.000630769
0.00418879
0.00067725
0.00413564
0.000726491
0.00407882
0.000778693
0.00401802
0.000834175
0.00395309
0.000893112
0.00388361
0.000955938
0.00380943
0.00102278
0.00372998
0.0010942
0.00364506
0.00117027
0.00355399
0.00125169
0.00345639
0.00133846
0.0033515
0.00143137
0.00323867
0.00153041
0.00311698
0.00163632
0.00298541
0.00174912
0.00284278
0.00186935
0.00268762
0.00199695
0.00251824
0.00213214
0.00233264
0.00227438
0.00212868
0.00242318
0.00190353
0.00257714
0.00165506
0.00273394
0.00137934
0.00289051
0.00107439
0.00304029
0.000739531
0.00317497
0.000377672
0.00328267
0.00334261
0.00505532
3.61074e-07
0.00474409
6.96887e-06
0.00485168
7.67012e-05
0.00485868
9.55174e-05
0.00485508
0.000106372
0.00484937
0.0001205
0.00484207
0.0001401
0.00483301
0.000162076
0.00482193
0.000186547
0.00480872
0.000212571
0.00479335
0.000239602
0.00477582
0.000267637
0.00475606
0.000296889
0.00473404
0.000327451
0.00470968
0.000359414
0.00468294
0.000392794
0.00465373
0.000427716
0.004622
0.000464245
0.00458763
0.00050257
0.00455057
0.000542778
0.00451066
0.000585108
0.00446783
0.000629661
0.00442187
0.000676729
0.00437271
0.000726424
0.0043201
0.000779103
0.00426392
0.000834891
0.00420389
0.000894212
0.0041398
0.000957209
0.00407137
0.00102437
0.00399827
0.00109588
0.00392019
0.00117228
0.00383664
0.00125383
0.00374728
0.00134106
0.00365137
0.00143438
0.00354849
0.00153427
0.00343763
0.00164127
0.0033181
0.00175586
0.00318865
0.00187858
0.003048
0.00201
0.00289455
0.00215041
0.00272627
0.00230042
0.00254063
0.00246003
0.00233464
0.00262918
0.00210487
0.00280693
0.00184627
0.00299255
0.0015551
0.0031817
0.00122616
0.00336923
0.000855699
0.00354543
0.000444084
0.00369428
0.00378669
0.00524341
3.69098e-07
0.00492042
7.14153e-06
0.00503341
7.88346e-05
0.00504189
9.84212e-05
0.00503954
0.000109952
0.00503495
0.000125193
0.0050286
0.00014647
0.00502039
0.000170296
0.00501005
0.000196916
0.00499743
0.00022521
0.00498255
0.000254501
0.00496542
0.00028478
0.00494604
0.000316298
0.00492434
0.000349163
0.0049003
0.000383472
0.00487387
0.000419244
0.004845
0.000456605
0.00481361
0.000495644
0.00477966
0.000536537
0.00474303
0.000579419
0.00470365
0.000624493
0.0046614
0.000671932
0.00461616
0.00072197
0.00456778
0.000774824
0.00451612
0.000830761
0.00446098
0.000890052
0.0044022
0.000952994
0.00433949
0.00101993
0.00427267
0.00109119
0.00420138
0.00116718
0.00412536
0.00124831
0.00404415
0.00133504
0.00395732
0.00142789
0.00386438
0.00152732
0.00376457
0.00163408
0.00365732
0.00174853
0.00354142
0.00187176
0.00341605
0.00200396
0.00327951
0.00214655
0.00313014
0.00229978
0.00296591
0.00246466
0.00278369
0.00264225
0.00257985
0.00283304
0.00235051
0.00303628
0.00208911
0.00325397
0.00178638
0.00348443
0.0014333
0.00372233
0.00101959
0.00395914
0.000538104
0.00417576
0.00432479
0.00543849
3.70005e-07
0.00510333
7.19444e-06
0.00522227
7.95893e-05
0.00523268
9.97162e-05
0.00523203
0.00011194
0.00522893
0.000128405
0.00522391
0.000151517
0.00521677
0.000177443
0.0052073
0.000206415
0.00519538
0.000237141
0.00518112
0.000268787
0.00516452
0.0003014
0.00514562
0.000335219
0.00512436
0.000370433
0.00510077
0.00040708
0.00507479
0.000445249
0.0050464
0.000485005
0.00501554
0.000526519
0.00498218
0.000569909
0.00494623
0.000615389
0.00490762
0.000663113
0.00486625
0.00071332
0.00482202
0.000766214
0.0047748
0.000822057
0.00472445
0.000881118
0.00467084
0.000943675
0.00461375
0.00101009
0.00455305
0.00108064
0.00448843
0.00115582
0.00441973
0.00123589
0.00434652
0.00132153
0.00426862
0.00141295
0.00418544
0.00151108
0.00409665
0.00161611
0.00400154
0.0017292
0.00389944
0.00185064
0.00378954
0.00198166
0.00367045
0.00212306
0.00354129
0.00227572
0.00339928
0.0024418
0.00324337
0.00262058
0.00307128
0.00281435
0.00287649
0.00302783
0.00265161
0.00326117
0.0023912
0.0035144
0.00208577
0.00378989
0.00171788
0.00409022
0.00126598
0.00441104
0.00070118
0.00474055
0.00502597
0.00564084
3.50095e-07
0.00529306
7.09914e-06
0.00541872
7.84036e-05
0.00543166
9.87888e-05
0.00543326
0.000111798
0.00543208
0.000129713
0.00542865
0.000154963
0.00542286
0.000183247
0.00541439
0.000214911
0.0054033
0.000248248
0.00538973
0.000282379
0.00537378
0.000317366
0.00535549
0.000353538
0.00533484
0.000391095
0.00531184
0.0004301
0.00528651
0.000470594
0.0052588
0.000512739
0.00522872
0.000556611
0.00519618
0.000602462
0.00516121
0.000650382
0.00512365
0.000700687
0.00508352
0.000753462
0.00504064
0.000809105
0.00499501
0.000867693
0.00494641
0.000929719
0.00489484
0.000995255
0.00484002
0.00106491
0.00478192
0.00113875
0.00472024
0.0012175
0.00465485
0.00130129
0.00458544
0.00139093
0.00451173
0.00148667
0.00443344
0.00158938
0.00435
0.00169956
0.00426114
0.00181806
0.00416592
0.00194587
0.00406406
0.00208353
0.00395392
0.00223321
0.00383552
0.00239412
0.00370858
0.00256875
0.00356654
0.00276262
0.00340556
0.00297533
0.00322555
0.00320786
0.00302085
0.00346588
0.00278089
0.00375437
0.00248992
0.00408088
0.0021282
0.00445195
0.0016542
0.00488505
0.000999174
0.00539557
0.00602514
0.00585087
1.91635e-07
0.00548957
7.17376e-06
0.00562315
7.4406e-05
0.00563969
9.45552e-05
0.00564422
0.000108846
0.00564563
0.00012844
0.00564424
0.000156372
0.00563997
0.00018753
0.00563264
0.000222268
0.00562242
0.000258492
0.00560958
0.00029524
0.00559429
0.000332675
0.00557659
0.000371252
0.00555659
0.000411118
0.00553424
0.000452464
0.00550961
0.000495243
0.00548269
0.000539678
0.0054535
0.000585823
0.00542199
0.000633981
0.00538816
0.000684227
0.00535195
0.000736903
0.00531332
0.000792108
0.00527221
0.000850223
0.00522854
0.000911386
0.00518224
0.00097602
0.00513319
0.00104433
0.00508134
0.00111676
0.00502648
0.00119361
0.00496861
0.00127537
0.00490741
0.00136249
0.00484289
0.00145545
0.00477463
0.00155494
0.0047026
0.00166141
0.00462629
0.00177587
0.00454549
0.00189886
0.00445927
0.0020321
0.00436854
0.00217426
0.00427369
0.00232807
0.00416927
0.00249856
0.00405319
0.00268484
0.00392845
0.00288737
0.00379263
0.00311117
0.00364092
0.00335958
0.00346836
0.00363845
0.00326821
0.00395454
0.00302824
0.00432087
0.00272126
0.00475894
0.00229814
0.00530817
0.0016456
0.0060481
0.00767074
0.00846027
1.37036e-07
0.00793527
6.22825e-06
0.00813433
6.47903e-05
0.00816382
8.3068e-05
0.00817648
9.85071e-05
0.00818348
0.000121638
0.00818573
0.000154151
0.00818307
0.000190208
0.0081755
0.000229882
0.00816352
0.000270495
0.00814778
0.000311016
0.00812859
0.000351896
0.00810614
0.00039373
0.00808048
0.00043681
0.00805177
0.000481205
0.00802003
0.000527017
0.00798538
0.000574356
0.00794779
0.000623441
0.00790735
0.000674441
0.00786399
0.000727614
0.00781778
0.000783134
0.00776862
0.000841298
0.00771656
0.000902298
0.0076615
0.000966482
0.00760346
0.00103407
0.00754234
0.00110548
0.00747815
0.00118096
0.00741078
0.001261
0.00734022
0.00134595
0.00726639
0.00143633
0.00718921
0.00153264
0.00710868
0.00163547
0.00702449
0.00174561
0.00693714
0.00186323
0.00684724
0.00198877
0.00675514
0.00212421
0.00665621
0.0022732
0.00655025
0.00243403
0.00644137
0.00260744
0.00633026
0.00279596
0.00621336
0.00300428
0.00609215
0.0032324
0.00596494
0.0034868
0.00583342
0.00376998
0.00569979
0.00408818
0.0055715
0.0044492
0.00548184
0.00484863
0.00550573
0.0052843
0.00591216
0.00564167
0.00547721
0.00810568
0.00846207
1.06449e-07
0.00793467
3.86661e-06
0.00814848
4.23739e-05
0.00818878
6.09461e-05
0.00821075
7.8896e-05
0.00822474
0.000107851
0.00823105
0.000147866
0.00823064
0.000190638
0.00822398
0.000236582
0.00821286
0.000281644
0.00819829
0.000325611
0.00818059
0.000369624
0.00815988
0.00041448
0.00813629
0.000460424
0.00810999
0.000507537
0.00808114
0.000555901
0.00804981
0.000605715
0.0080161
0.000657181
0.00798002
0.000710549
0.00794165
0.000766014
0.00790096
0.000823844
0.00785805
0.000884239
0.00781286
0.00094751
0.00776551
0.00101386
0.00771593
0.00108368
0.00766426
0.00115717
0.00761044
0.0012348
0.00755465
0.00131681
0.00749685
0.00140378
0.00743722
0.00149598
0.0073756
0.00159428
0.00731318
0.00169791
0.0072506
0.00180821
0.00718628
0.00192756
0.00711873
0.00205634
0.00704903
0.00219392
0.00698129
0.00234094
0.00691549
0.00249985
0.00685134
0.00267159
0.00678966
0.00285765
0.00673491
0.00305904
0.00668755
0.00327976
0.00665772
0.00351664
0.00664866
0.00377906
0.00668103
0.00405581
0.00677781
0.00435244
0.00698478
0.00464169
0.0073847
0.00488441
0.0080018
0.0050246
0.00467564
0.00880339
0.00846279
1.54611e-07
0.00793436
7.45642e-07
0.0081635
5.56952e-06
0.00822218
2.05308e-05
0.0082593
4.41482e-05
0.00828296
8.43919e-05
0.00829434
0.00013651
0.00829489
0.000190104
0.00828912
0.000242389
0.00827944
0.000291358
0.00826651
0.00033857
0.00825042
0.000385744
0.00823136
0.00043357
0.0082096
0.00048222
0.00818539
0.000531774
0.00815896
0.000582365
0.00813041
0.000634288
0.00809987
0.000687754
0.0080674
0.000743041
0.00803312
0.000800331
0.00799707
0.000859913
0.00795937
0.00092197
0.00792009
0.000986815
0.00787934
0.00105464
0.00783724
0.00112579
0.00779393
0.0012005
0.00774959
0.00127917
0.00770432
0.0013621
0.0076586
0.00144952
0.00761324
0.00154135
0.00756895
0.00163859
0.00752341
0.00174347
0.00747669
0.00185494
0.00743153
0.00197273
0.00738999
0.00209788
0.00735158
0.00223234
0.00731729
0.00237523
0.00728775
0.0025294
0.00726645
0.0026929
0.00725422
0.00286989
0.00725622
0.00305705
0.00727727
0.00325873
0.00732393
0.00346999
0.00741189
0.00369111
0.00755038
0.00391734
0.00776972
0.00413312
0.00808269
0.00432873
0.00850889
0.00445823
0.00902889
0.00450463
0.00424739
0.00945716
0.00846138
1.30557e-06
0.00794064
-9.86283e-06
0.00821705
-7.84244e-05
0.00830523
-4.94008e-05
0.00835104
7.37649e-07
0.00837158
6.40464e-05
0.00837592
0.000132197
0.00837169
0.000194355
0.00836401
0.000250108
0.00835461
0.000300779
0.00834267
0.000350545
0.00832782
0.00040062
0.00831043
0.000450997
0.00829079
0.00050189
0.00826932
0.00055327
0.00824615
0.000605563
0.00822135
0.000659124
0.00819498
0.000714153
0.00816712
0.00077093
0.00813785
0.000829633
0.00810723
0.000890557
0.00807536
0.000953872
0.00804234
0.00101986
0.00800832
0.00108869
0.00797347
0.00116066
0.00793791
0.00123609
0.0079023
0.0013148
0.00786725
0.00139718
0.00783256
0.00148424
0.00779708
0.00157685
0.00776161
0.00167408
0.00772897
0.00177613
0.00769997
0.00188396
0.00767427
0.00199845
0.00765319
0.00211898
0.00763808
0.00224746
0.00763068
0.00238264
0.00763334
0.00252675
0.00764773
0.00267852
0.00767884
0.00283878
0.00772822
0.00300768
0.00780473
0.00318222
0.00791108
0.00336365
0.00805909
0.00354311
0.00825714
0.0037193
0.00851293
0.00387734
0.00883725
0.00400443
0.00921482
0.00408069
0.00966863
0.00405083
0.00392804
0.00998801
0.00845146
9.94413e-06
0.00798013
-6.57269e-05
0.00836247
-0.0002711
0.00854421
-0.000212988
0.00858728
-4.0006e-05
0.00857822
7.33069e-05
0.00856157
0.000148872
0.00854583
0.000210116
0.00853321
0.000262763
0.00852018
0.00031383
0.00850407
0.00036669
0.00848505
0.000419664
0.00846393
0.000472139
0.00844158
0.000524266
0.00841791
0.000576966
0.00839302
0.000630482
0.00836707
0.000685095
0.0083402
0.000741046
0.00831256
0.000798598
0.00828425
0.000857966
0.00825542
0.000919413
0.00822615
0.00098316
0.00819662
0.00104941
0.00816708
0.00111825
0.00813807
0.0011897
0.00810997
0.00126421
0.00808183
0.00134297
0.00805356
0.00142546
0.00802637
0.00151145
0.00800189
0.00160134
0.00798008
0.00169592
0.00796112
0.00179511
0.00794569
0.00189941
0.00793539
0.00200877
0.00793059
0.0021238
0.00793404
0.00224404
0.00794602
0.00237068
0.00797089
0.0025019
0.00800931
0.00264012
0.0080666
0.00278151
0.00814566
0.00292862
0.00825146
0.00307643
0.0083904
0.00322472
0.0085652
0.00336831
0.00878452
0.00349999
0.00904691
0.00361495
0.0093554
0.00369596
0.00970071
0.00373539
0.0100475
0.00370402
0.00359507
0.0103805
0.00851926
1.56886e-05
0.00824803
-0.000394747
0.00879302
-0.000604891
0.00889116
-0.000291029
0.00887266
-1.85066e-05
0.00880477
0.000141433
0.00877283
0.00018084
0.00875291
0.000230051
0.00874321
0.0002725
0.00872867
0.000328396
0.00870969
0.000385692
0.00868862
0.000440758
0.00866659
0.000494198
0.00864355
0.000547329
0.00861954
0.000601001
0.00859446
0.000655584
0.00856829
0.00071129
0.00854111
0.000768247
0.00851304
0.000826693
0.00848423
0.000886793
0.00845475
0.000948917
0.00842497
0.00101296
0.00839538
0.00107902
0.0083662
0.00114745
0.00833666
0.00121925
0.00830747
0.00129341
0.00828037
0.00137008
0.00825627
0.00144958
0.00823477
0.00153296
0.00821678
0.00161935
0.00820252
0.00171018
0.00819335
0.00180429
0.00818939
0.00190337
0.00819238
0.00200579
0.00820266
0.00211353
0.00822219
0.00222453
0.00825215
0.00234073
0.00829434
0.00245973
0.008352
0.00258247
0.00842617
0.00270736
0.00852245
0.00283236
0.0086414
0.0029575
0.0087899
0.00307624
0.00896828
0.00318995
0.00918129
0.00328699
0.00942807
0.00336819
0.00970604
0.003418
0.0100108
0.00343067
0.010314
0.00340082
0.00330266
0.0106064