/*--------------------------------*- C++ -*----------------------------------*\
| =========                 |                                                 |
| \\      /  F ield         | OpenFOAM: The Open Source CFD Toolbox           |
|  \\    /   O peration     | Version:  2412                                  |
|   \\  /    A nd           | Website:  www.openfoam.com                      |
|    \\/     M anipulation  |                                                 |
\*---------------------------------------------------------------------------*/
FoamFile
{
    version     2.0;
    format      ascii;
    arch        "LSB;label=32;scalar=64";
    class       volScalarField;
    location    "17";
    object      T;
}
// * * * * * * * * * * * * * * * * * * * * * * * * * * * * * * * * * * * * * //

dimensions      [0 0 0 1 0 0 0];

internalField   nonuniform List<scalar> 
7000
(
1.31909
2.65669
2.71961
2.66985
2.66462
2.64789
2.64445
2.64722
2.64922
2.65147
2.65268
2.65372
2.65483
2.65621
2.65768
2.65933
2.66104
2.66292
2.66487
2.66699
2.66919
2.67156
2.67401
2.67663
2.67932
2.68218
2.68511
2.6882
2.69134
2.69465
2.69798
2.70148
2.70495
2.70859
2.71215
2.71586
2.71944
2.72313
2.72662
2.73018
2.73344
2.73673
2.73962
2.74245
2.74478
2.74698
2.7487
2.7501
2.75115
2.75172
1.31915
2.6569
2.71986
2.66995
2.66475
2.64801
2.64458
2.64735
2.64935
2.65158
2.6528
2.65384
2.65494
2.65631
2.65779
2.65943
2.66115
2.66302
2.66497
2.66708
2.66929
2.67165
2.6741
2.67671
2.6794
2.68225
2.68518
2.68826
2.69141
2.69471
2.69803
2.70152
2.70499
2.70862
2.71217
2.71587
2.71944
2.72312
2.72659
2.73015
2.73339
2.73667
2.73954
2.74234
2.74468
2.74683
2.74855
2.74985
2.7509
2.75127
1.31913
2.65682
2.71976
2.66993
2.66471
2.64796
2.64452
2.6473
2.64926
2.65153
2.6527
2.65378
2.65483
2.65625
2.65768
2.65936
2.66103
2.66294
2.66484
2.66699
2.66915
2.67155
2.67395
2.6766
2.67924
2.68213
2.685
2.68812
2.69121
2.69454
2.69782
2.70134
2.70477
2.70842
2.71195
2.71566
2.71922
2.7229
2.72639
2.72993
2.7332
2.73644
2.73935
2.7421
2.74445
2.74661
2.7483
2.74965
2.7506
2.75104
1.3191
2.65664
2.71958
2.66992
2.66466
2.64785
2.64442
2.64715
2.64918
2.65136
2.65261
2.6536
2.65474
2.65606
2.65757
2.65916
2.66091
2.66271
2.66472
2.66675
2.66901
2.67128
2.6738
2.6763
2.67908
2.68181
2.68483
2.68777
2.69102
2.69416
2.6976
2.70091
2.70451
2.70795
2.71165
2.71516
2.71886
2.72238
2.72597
2.72941
2.73272
2.736
2.73883
2.74176
2.74388
2.74618
2.74783
2.74907
2.7502
2.7504
1.31907
2.65641
2.71935
2.66994
2.66461
2.64771
2.64431
2.64695
2.64911
2.65114
2.65251
2.65336
2.65462
2.6558
2.65744
2.65888
2.66075
2.66241
2.66452
2.66643
2.66878
2.67094
2.67353
2.67595
2.67875
2.68144
2.68444
2.68739
2.69057
2.69378
2.69708
2.70054
2.70391
2.70759
2.71097
2.7148
2.7181
2.72199
2.72512
2.72893
2.73182
2.73534
2.73804
2.74093
2.7434
2.74523
2.7472
2.74846
2.74923
2.74982
1.31903
2.65612
2.71905
2.66999
2.66456
2.64759
2.64411
2.64695
2.64875
2.65112
2.65212
2.65332
2.6542
2.65575
2.65698
2.65881
2.66026
2.66233
2.66399
2.66632
2.6682
2.6708
2.67289
2.67576
2.67806
2.68119
2.68368
2.68706
2.68975
2.69335
2.69623
2.69998
2.70306
2.70689
2.71015
2.71396
2.71737
2.72102
2.72452
2.72786
2.7313
2.73408
2.7373
2.73973
2.74231
2.74456
2.74589
2.74748
2.74852
2.74852
1.31898
2.65577
2.71869
2.67004
2.6645
2.64739
2.64391
2.64668
2.64857
2.65082
2.65193
2.65299
2.65399
2.65538
2.65676
2.65841
2.66003
2.66187
2.66375
2.66581
2.66795
2.67022
2.67264
2.67511
2.67779
2.68044
2.68341
2.6862
2.68944
2.69235
2.69585
2.69884
2.70255
2.70563
2.70945
2.71265
2.71643
2.71973
2.72333
2.72669
2.72993
2.73332
2.73573
2.73881
2.74073
2.7431
2.74497
2.74597
2.74678
2.74754
1.31892
2.65533
2.71825
2.67011
2.66442
2.64714
2.64367
2.64637
2.64834
2.65047
2.65165
2.6526
2.65368
2.65495
2.65641
2.65793
2.65962
2.66136
2.66329
2.66526
2.66742
2.66963
2.67203
2.67447
2.67709
2.67978
2.68259
2.68554
2.68851
2.69171
2.69478
2.69823
2.70132
2.70501
2.70802
2.71188
2.71484
2.7187
2.72164
2.7253
2.72826
2.7315
2.73463
2.73688
2.73953
2.7413
2.74286
2.74468
2.74562
2.74541
1.31885
2.65481
2.71773
2.67019
2.66433
2.64687
2.64335
2.64609
2.64795
2.65015
2.65122
2.65224
2.65321
2.65455
2.65589
2.65748
2.65905
2.66085
2.66266
2.66468
2.66674
2.66898
2.67127
2.67373
2.67626
2.67894
2.68167
2.68456
2.6875
2.69057
2.6937
2.6969
2.70021
2.70348
2.70698
2.71016
2.71381
2.71681
2.72047
2.72327
2.72673
2.72941
2.73236
2.73536
2.73694
2.73971
2.74111
2.74201
2.74283
2.74386
1.31876
2.65421
2.71712
2.67029
2.66423
2.64652
2.643
2.64562
2.64763
2.64963
2.65084
2.65167
2.65278
2.65394
2.65541
2.65682
2.65851
2.66014
2.66204
2.66391
2.66603
2.66813
2.67047
2.6728
2.67534
2.6779
2.68063
2.68341
2.68632
2.68929
2.69234
2.6955
2.69865
2.70195
2.70514
2.70856
2.7117
2.7152
2.71813
2.72163
2.72419
2.72759
2.72969
2.73275
2.73507
2.73635
2.73853
2.74012
2.74102
2.74053
1.31867
2.6535
2.71641
2.67041
2.66411
2.64615
2.64256
2.64527
2.64706
2.64922
2.65021
2.6512
2.65209
2.65342
2.65465
2.65624
2.65768
2.65948
2.66114
2.66316
2.66504
2.66729
2.66938
2.67184
2.67415
2.67681
2.67932
2.68216
2.68486
2.68786
2.69074
2.69385
2.69689
2.70007
2.70322
2.7064
2.70962
2.71271
2.71593
2.71885
2.72191
2.72455
2.72728
2.72941
2.73185
2.73419
2.73492
2.73593
2.73671
2.73814
1.31856
2.65269
2.71561
2.67054
2.66397
2.64569
2.64208
2.64466
2.64659
2.64855
2.64967
2.65047
2.65149
2.65261
2.65398
2.65535
2.65694
2.65851
2.66031
2.66209
2.66412
2.6661
2.66835
2.67052
2.67299
2.67534
2.67801
2.68052
2.68337
2.68603
2.68904
2.69183
2.69493
2.69784
2.70096
2.70396
2.70701
2.71011
2.71291
2.7161
2.71848
2.72162
2.72361
2.72625
2.72778
2.7296
2.73188
2.73309
2.73387
2.733
1.31844
2.65178
2.71469
2.67071
2.66378
2.64521
2.64149
2.64416
2.64586
2.64796
2.64887
2.6498
2.65062
2.65186
2.65303
2.65452
2.6559
2.65758
2.65917
2.66106
2.66286
2.66494
2.66695
2.66923
2.67143
2.67388
2.67626
2.67888
2.68141
2.68419
2.68683
2.68974
2.69245
2.69547
2.69818
2.70127
2.70391
2.70701
2.70954
2.71247
2.71496
2.71737
2.71992
2.72166
2.72396
2.72529
2.72581
2.72667
2.72729
2.7292
1.31831
2.65079
2.71359
2.67114
2.66333
2.64465
2.64084
2.64344
2.64516
2.64713
2.6481
2.64889
2.64976
2.65086
2.6521
2.65341
2.65488
2.65636
2.65805
2.6597
2.66161
2.66344
2.66556
2.66755
2.66987
2.67201
2.6745
2.67679
2.67942
2.68184
2.68456
2.68712
2.68986
2.69253
2.69523
2.69796
2.70057
2.70327
2.70576
2.70828
2.7106
2.71286
2.71468
2.71672
2.71768
2.71977
2.72137
2.72217
2.72261
2.72104
1.31818
2.64971
2.71232
2.67185
2.66264
2.64401
2.64011
2.64257
2.64439
2.64615
2.64723
2.64783
2.64879
2.64971
2.65101
2.65217
2.65366
2.65502
2.65669
2.65825
2.66009
2.66185
2.66384
2.66581
2.66792
2.67009
2.67229
2.67466
2.6769
2.67947
2.68169
2.68443
2.68662
2.68945
2.6916
2.69438
2.69652
2.6991
2.70119
2.70349
2.70542
2.70743
2.70912
2.71052
2.71182
2.7117
2.71207
2.71219
2.71282
2.71463
1.31803
2.64849
2.71097
2.67239
2.66202
2.6433
2.63926
2.64174
2.64338
2.6452
2.6461
2.64678
2.64755
2.64857
2.64965
2.65092
2.65217
2.65363
2.65505
2.65671
2.65828
2.66014
2.66185
2.66389
2.66571
2.66792
2.66984
2.67217
2.67419
2.6766
2.67871
2.68111
2.68333
2.68561
2.68791
2.68999
2.69227
2.69415
2.69616
2.69786
2.6994
2.70073
2.70188
2.70288
2.70339
2.70472
2.70435
2.70432
2.70308
2.70078
1.31786
2.64715
2.70952
2.67295
2.66133
2.6425
2.63829
2.64083
2.64221
2.64414
2.64483
2.6456
2.64618
2.64725
2.64817
2.64946
2.65057
2.65202
2.65331
2.65491
2.65639
2.65812
2.65976
2.66161
2.6634
2.66533
2.66726
2.66924
2.67128
2.67329
2.67538
2.67738
2.67945
2.68143
2.68335
2.68534
2.68692
2.68889
2.69005
2.69173
2.69264
2.69348
2.69377
2.69386
2.69317
2.69128
2.69057
2.68839
2.68777
2.68778
1.31768
2.64569
2.70796
2.67352
2.66059
2.64158
2.63724
2.63961
2.64109
2.64275
2.64359
2.64409
2.64482
2.64562
2.64668
2.64769
2.64894
2.65009
2.65151
2.65281
2.65438
2.65582
2.65751
2.65908
2.66086
2.66255
2.66438
2.66616
2.66798
2.66985
2.67159
2.67352
2.67508
2.677
2.67833
2.68007
2.68118
2.68243
2.68342
2.68379
2.68456
2.68447
2.68409
2.6831
2.68194
2.68027
2.67593
2.67234
2.66658
2.66063
1.31749
2.64415
2.70631
2.67411
2.65977
2.64057
2.63604
2.63832
2.63972
2.64129
2.64207
2.64252
2.64317
2.64393
2.64487
2.64586
2.64694
2.64811
2.6493
2.65064
2.65192
2.65342
2.65476
2.6564
2.65778
2.65954
2.66091
2.66276
2.6641
2.66597
2.66726
2.66904
2.67027
2.67181
2.67299
2.67408
2.67514
2.67553
2.67618
2.67602
2.67517
2.6744
2.67197
2.66983
2.66512
2.65977
2.65459
2.64478
2.63518
2.62265
1.31728
2.64255
2.70463
2.67467
2.65884
2.63945
2.63465
2.63697
2.63807
2.63975
2.64032
2.64089
2.64131
2.64223
2.64284
2.64402
2.64479
2.64609
2.64699
2.64841
2.64942
2.65093
2.65203
2.65358
2.65476
2.6563
2.65754
2.65902
2.66028
2.66161
2.66286
2.66395
2.66512
2.66587
2.66684
2.66714
2.66777
2.66765
2.66729
2.66643
2.66536
2.6627
2.6605
2.65522
2.65054
2.64052
2.62768
2.61073
2.5819
2.51097
1.31728
2.64172
2.70004
2.67519
2.65742
2.63769
2.63257
2.6347
2.63578
2.63721
2.63788
2.63819
2.6387
2.63927
2.64008
2.64084
2.64181
2.64266
2.64376
2.6447
2.6459
2.64689
2.64816
2.64917
2.65048
2.65147
2.65275
2.65369
2.65488
2.6557
2.6567
2.65732
2.65797
2.65829
2.65851
2.65819
2.6576
2.6567
2.65479
2.65274
2.6486
2.64501
2.63735
2.63127
2.61833
2.60605
2.58331
2.5471
2.48934
2.36384
1.31727
2.64074
2.69532
2.67536
2.65551
2.63532
2.62969
2.63179
2.63263
2.63409
2.63467
2.635
2.63536
2.63592
2.63655
2.63729
2.63802
2.63886
2.63966
2.64057
2.64141
2.64237
2.64321
2.64419
2.64498
2.64593
2.64661
2.64748
2.64798
2.6487
2.64893
2.64944
2.6494
2.64923
2.64875
2.64818
2.64667
2.6454
2.64229
2.63986
2.6348
2.62882
2.62121
2.60773
2.5948
2.56839
2.54167
2.49156
2.41699
2.31766
1.31724
2.64007
2.69285
2.6752
2.65393
2.63302
2.62678
2.62862
2.62938
2.63082
2.63139
2.63163
2.63191
2.63236
2.63291
2.63354
2.63418
2.63489
2.63558
2.63634
2.63706
2.63783
2.63855
2.63928
2.63993
2.64056
2.64107
2.64151
2.64177
2.64193
2.64177
2.64138
2.64084
2.63965
2.63843
2.63609
2.634
2.63009
2.62698
2.62067
2.61604
2.60602
2.59854
2.58336
2.56657
2.54278
2.50632
2.46381
2.3919
2.31815
1.31712
2.63893
2.69204
2.67401
2.65199
2.63022
2.62352
2.62546
2.6263
2.62781
2.62833
2.62839
2.62849
2.62876
2.629
2.62945
2.62975
2.63024
2.63058
2.6311
2.63147
2.632
2.63238
2.6329
2.63327
2.63373
2.63404
2.63444
2.63454
2.63461
2.6345
2.63416
2.63357
2.63229
2.63103
2.62825
2.62592
2.62104
2.61666
2.60943
2.60121
2.59123
2.57723
2.56316
2.54104
2.51807
2.48434
2.44366
2.39077
2.32855
1.31686
2.64003
2.70378
2.67066
2.652
2.62862
2.6214
2.62412
2.62508
2.62693
2.6274
2.62735
2.62731
2.62734
2.62742
2.62752
2.62758
2.62761
2.6276
2.62755
2.62747
2.62729
2.62713
2.62679
2.62651
2.62603
2.62565
2.62483
2.62435
2.62325
2.62259
2.62111
2.62024
2.61821
2.61689
2.61411
2.6115
2.60775
2.60253
2.59695
2.58795
2.57858
2.56461
2.54858
2.52835
2.50236
2.47334
2.43448
2.39183
2.34457
1.30176
2.58644
2.69832
2.67711
2.65955
2.63603
2.62913
2.63202
2.63308
2.63461
2.63447
2.63403
2.63336
2.63282
2.63223
2.6317
2.63106
2.6305
2.62984
2.62929
2.62861
2.62809
2.62735
2.62686
2.62597
2.62543
2.62418
2.62327
2.6214
2.62008
2.6174
2.61562
2.61206
2.60982
2.60532
2.60254
2.59686
2.59326
2.58625
2.58055
2.5718
2.56229
2.55051
2.53504
2.51786
2.49438
2.46872
2.43571
2.39808
2.35789
1.72058
2.46872
2.72856
2.70667
2.68421
2.6739
2.67441
2.67596
2.67735
2.67763
2.67643
2.67498
2.67334
2.67158
2.66959
2.66741
2.66498
2.66238
2.65954
2.65659
2.65336
2.65013
2.64657
2.64313
2.63914
2.63522
2.6308
2.62769
2.62386
2.62127
2.61765
2.61485
2.61067
2.60688
2.6018
2.5966
2.59061
2.58346
2.57667
2.56712
2.55904
2.54661
2.53611
2.52003
2.50524
2.48423
2.46295
2.43542
2.40571
2.37293
1.7325
2.4618
2.72305
2.70193
2.67728
2.66828
2.67216
2.67385
2.67654
2.67737
2.67756
2.67742
2.67715
2.67685
2.67617
2.67556
2.67423
2.67326
2.67123
2.66991
2.66719
2.66543
2.66206
2.65971
2.65586
2.65315
2.64885
2.64459
2.6391
2.63356
2.62711
2.62082
2.61475
2.60863
2.60304
2.59591
2.58998
2.58114
2.57368
2.56282
2.55318
2.54006
2.5275
2.51183
2.49551
2.47663
2.45579
2.43285
2.40746
2.38137
1.72925
2.46736
2.72504
2.70224
2.67371
2.66421
2.66904
2.67147
2.67463
2.67575
2.67609
2.67623
2.6764
2.67637
2.67628
2.67602
2.67542
2.67502
2.6741
2.67337
2.67183
2.67068
2.66857
2.66668
2.66399
2.66116
2.65791
2.65411
2.65011
2.64506
2.64047
2.63384
2.62789
2.61882
2.61165
2.60147
2.59358
2.58326
2.57471
2.56345
2.55314
2.54026
2.52725
2.512
2.4959
2.47759
2.45779
2.43599
2.41245
2.3895
1.73196
2.46064
2.72049
2.69674
2.67063
2.66096
2.66552
2.66775
2.67093
2.67218
2.67259
2.67287
2.6732
2.6735
2.67376
2.6738
2.67371
2.67345
2.67303
2.6723
2.67164
2.67031
2.66934
2.66732
2.666
2.66329
2.66149
2.65777
2.65538
2.65045
2.64735
2.64107
2.63684
2.62927
2.62318
2.61396
2.60546
2.59407
2.58329
2.57048
2.55794
2.54419
2.53027
2.51496
2.49886
2.48124
2.46304
2.44299
2.42191
2.40119
1.74115
2.44247
2.70894
2.68438
2.66689
2.6575
2.66043
2.66214
2.66523
2.66629
2.66695
2.66703
2.66725
2.66738
2.66751
2.66751
2.66745
2.66727
2.66709
2.66662
2.66627
2.66547
2.66489
2.66363
2.66268
2.66063
2.65924
2.65626
2.65432
2.65027
2.6474
2.64241
2.63833
2.63232
2.62666
2.61934
2.61193
2.60288
2.59321
2.58198
2.56984
2.55592
2.54129
2.52523
2.5089
2.49117
2.47293
2.45363
2.4336
2.41409
1.7361
2.43604
2.70557
2.67681
2.66908
2.65582
2.65592
2.65793
2.66092
2.66204
2.66311
2.66321
2.66348
2.66367
2.66384
2.66391
2.66388
2.66378
2.66363
2.66328
2.66298
2.66231
2.66179
2.66068
2.6599
2.65817
2.657
2.65449
2.65275
2.64942
2.64672
2.64252
2.63852
2.63338
2.62819
2.62179
2.61514
2.60725
2.59894
2.58933
2.57909
2.56736
2.55482
2.54068
2.52559
2.50913
2.49189
2.47355
2.45444
2.43581
1.35693
2.46706
2.6791
2.66843
2.64643
2.62378
2.61672
2.62076
2.62273
2.6256
2.62703
2.62805
2.62885
2.62985
2.63056
2.63164
2.6323
2.63326
2.63376
2.63458
2.63489
2.63561
2.63573
2.6359
2.6359
2.63578
2.63555
2.63495
2.63437
2.63315
2.63199
2.63007
2.62809
2.6251
2.62187
2.61729
2.61225
2.60587
2.59895
2.59069
2.58198
2.57188
2.56123
2.54938
2.53664
2.52274
2.50791
2.49205
2.47525
2.45878
1.36034
2.47658
2.68624
2.67704
2.65243
2.62344
2.6138
2.61462
2.6166
2.61857
2.61938
2.61948
2.61968
2.61971
2.61997
2.62031
2.62068
2.621
2.62134
2.62157
2.62184
2.62192
2.62208
2.62199
2.62182
2.62141
2.62102
2.62013
2.61942
2.61794
2.61673
2.61454
2.61256
2.60963
2.60675
2.60322
2.59952
2.59507
2.59009
2.58445
2.57774
2.57017
2.56117
2.55125
2.54041
2.52874
2.51637
2.50315
2.48906
2.47525
1.34958
2.41233
2.66918
2.66949
2.65006
2.62366
2.61389
2.61394
2.61464
2.6152
2.61487
2.614
2.61326
2.61222
2.61156
2.61086
2.61037
2.60972
2.60924
2.6086
2.60813
2.60749
2.607
2.60633
2.60577
2.60499
2.60428
2.60345
2.60256
2.60147
2.6001
2.59853
2.59652
2.59432
2.59152
2.58852
2.58485
2.58092
2.57627
2.57115
2.56539
2.55926
2.55256
2.54524
2.53716
2.5278
2.51727
2.50618
2.49438
2.48301
1.74178
2.39638
2.67467
2.66116
2.65228
2.63838
2.63322
2.63347
2.63323
2.63294
2.63216
2.63091
2.62953
2.62785
2.62626
2.62466
2.62301
2.62127
2.61945
2.61757
2.6156
2.61361
2.6115
2.60941
2.60717
2.60503
2.60267
2.60055
2.5981
2.59567
2.59313
2.59049
2.5877
2.58465
2.58147
2.57784
2.57409
2.5697
2.56521
2.55991
2.55451
2.54819
2.54179
2.53445
2.52682
2.51877
2.51062
2.50158
2.49183
2.48222
1.34697
2.39527
2.65996
2.66572
2.64939
2.62409
2.61549
2.61413
2.61539
2.61565
2.61538
2.61502
2.61414
2.6132
2.61257
2.61169
2.61098
2.6099
2.60896
2.60761
2.60649
2.60511
2.60395
2.60245
2.60117
2.59931
2.59772
2.59522
2.5932
2.59049
2.58813
2.58506
2.58226
2.57871
2.57548
2.57157
2.56785
2.56347
2.55913
2.55415
2.549
2.54322
2.53708
2.53043
2.52323
2.51563
2.50747
2.49903
2.49004
2.4814
1.34828
2.40613
2.66715
2.6712
2.65088
2.62214
2.61087
2.61068
2.61165
2.61235
2.61223
2.61153
2.61078
2.60978
2.60918
2.60844
2.60784
2.60694
2.60613
2.605
2.60384
2.60218
2.60049
2.59832
2.59614
2.59364
2.59111
2.58831
2.58539
2.58229
2.57898
2.57559
2.57202
2.56846
2.56451
2.56059
2.55619
2.5519
2.54705
2.54234
2.53702
2.53189
2.52604
2.52033
2.51389
2.50749
2.50032
2.49302
2.48521
2.47784
1.3477
2.40178
2.66438
2.66925
2.64828
2.61884
2.60682
2.60667
2.60748
2.60839
2.60811
2.60726
2.60644
2.60534
2.60461
2.60387
2.60324
2.60244
2.60167
2.60074
2.59977
2.59862
2.59733
2.59585
2.59413
2.59223
2.59001
2.58763
2.58487
2.58198
2.57868
2.57527
2.57144
2.56756
2.56326
2.55887
2.55402
2.54906
2.5437
2.53818
2.53237
2.52634
2.52009
2.51357
2.5069
2.49991
2.49288
2.4854
2.47785
2.47048
1.34487
2.37877
2.64719
2.66145
2.6423
2.61445
2.60263
2.60119
2.60149
2.60173
2.60107
2.6003
2.59896
2.59787
2.59679
2.59593
2.59488
2.59396
2.5928
2.59178
2.59051
2.58939
2.58802
2.58678
2.58526
2.58384
2.5821
2.58039
2.57832
2.57623
2.57376
2.57116
2.56817
2.56492
2.56128
2.55737
2.55314
2.54857
2.54372
2.53842
2.53293
2.52698
2.52085
2.51425
2.50752
2.50035
2.4931
2.48559
2.47797
2.47063
1.75143
2.37285
2.6453
2.64146
2.62798
2.61389
2.60901
2.60925
2.60923
2.60912
2.60854
2.60789
2.60666
2.60553
2.60425
2.60314
2.60177
2.60046
2.59889
2.59735
2.59557
2.59381
2.59182
2.58985
2.58767
2.58547
2.58308
2.58063
2.578
2.57529
2.57249
2.56953
2.56647
2.56315
2.55972
2.55593
2.55202
2.54767
2.54313
2.53817
2.53294
2.52734
2.52154
2.5154
2.50908
2.50243
2.49555
2.48838
2.48087
2.47372
1.34697
2.38841
2.65235
2.65972
2.63918
2.60882
2.59747
2.59611
2.59773
2.59905
2.5989
2.59839
2.5978
2.59652
2.59585
2.59462
2.59388
2.59239
2.59143
2.5897
2.58815
2.5863
2.58447
2.58233
2.58025
2.57802
2.57594
2.57364
2.57149
2.56903
2.56649
2.5636
2.56064
2.55737
2.55402
2.5504
2.54666
2.54268
2.53859
2.53428
2.52977
2.52497
2.51988
2.51444
2.50869
2.50263
2.4963
2.48977
2.48292
2.47636
1.35066
2.41164
2.65466
2.64873
2.6268
2.59623
2.58546
2.58572
2.58751
2.58944
2.58978
2.58955
2.58909
2.58832
2.58781
2.58729
2.58683
2.58622
2.58555
2.58476
2.58387
2.58285
2.5817
2.58038
2.57889
2.57705
2.57495
2.57255
2.56991
2.56702
2.56402
2.56082
2.55749
2.55397
2.55029
2.54643
2.54241
2.5382
2.53382
2.52927
2.52454
2.51963
2.51463
2.50951
2.50416
2.49867
2.4929
2.48695
2.4807
2.47473
1.77134
2.37193
2.63806
2.61725
2.61089
2.59557
2.59284
2.59358
2.5947
2.59598
2.59573
2.59525
2.5949
2.59425
2.59369
2.59312
2.59255
2.59188
2.59117
2.59036
2.58948
2.5885
2.58742
2.5862
2.58488
2.58337
2.58172
2.57983
2.57776
2.57535
2.57262
2.56958
2.56625
2.56265
2.55878
2.55467
2.55032
2.54576
2.54099
2.53605
2.53086
2.52549
2.51983
2.514
2.50801
2.50188
2.49567
2.48936
2.48293
2.4768
1.79793
2.35485
2.62605
2.60556
2.60237
2.59243
2.58904
2.58925
2.5895
2.59005
2.58979
2.58916
2.58853
2.58749
2.58647
2.58534
2.58417
2.58283
2.58144
2.5799
2.57832
2.57661
2.57493
2.57315
2.5714
2.56957
2.56776
2.56586
2.56395
2.56201
2.56014
2.55812
2.55615
2.55397
2.55176
2.54927
2.54669
2.54374
2.54042
2.53674
2.53284
2.52866
2.52426
2.51955
2.51461
2.50937
2.50383
2.498
2.49189
2.48599
1.76273
2.38135
2.64973
2.61898
2.6132
2.59904
2.59586
2.59797
2.59944
2.60027
2.6
2.59951
2.59845
2.59725
2.59596
2.59464
2.5932
2.59169
2.59004
2.58834
2.58653
2.58469
2.58259
2.58039
2.57794
2.57541
2.57264
2.56982
2.56677
2.5637
2.56042
2.55717
2.55371
2.5502
2.5465
2.54277
2.53884
2.53495
2.53107
2.52716
2.52309
2.51892
2.51456
2.51016
2.50557
2.50091
2.49605
2.49109
2.48585
2.48093
1.28612
2.49418
2.64454
2.64188
2.61663
2.5839
2.57183
2.57227
2.57491
2.5773
2.57856
2.57878
2.57902
2.57899
2.57893
2.57885
2.57869
2.57838
2.57792
2.57726
2.57642
2.57537
2.57422
2.57285
2.57138
2.56967
2.56794
2.56579
2.56353
2.56113
2.5585
2.55572
2.5526
2.54941
2.5459
2.54232
2.53846
2.53454
2.53035
2.52614
2.5217
2.51725
2.51275
2.50802
2.50316
2.49808
2.4929
2.4875
2.482
2.47674
1.77198
2.36693
2.63912
2.61666
2.61034
2.59491
2.58996
2.59087
2.59129
2.59288
2.59251
2.59194
2.59149
2.59071
2.58997
2.58911
2.58835
2.58739
2.58646
2.58532
2.58422
2.58288
2.58158
2.58002
2.57849
2.57668
2.57489
2.57278
2.57046
2.56785
2.56505
2.56197
2.55889
2.55557
2.55225
2.54864
2.545
2.54105
2.53708
2.53275
2.52842
2.52371
2.51885
2.51378
2.50862
2.50327
2.49783
2.49221
2.48648
2.48101
1.77338
2.36513
2.63703
2.61473
2.60847
2.59316
2.58819
2.58929
2.59035
2.59144
2.59197
2.59147
2.59104
2.59024
2.58939
2.58845
2.58746
2.58632
2.58508
2.5837
2.58223
2.58063
2.57895
2.57716
2.57528
2.57332
2.57124
2.56914
2.56708
2.56493
2.56276
2.56044
2.55793
2.55524
2.55233
2.54928
2.54606
2.54269
2.53912
2.53543
2.53152
2.52749
2.52325
2.51888
2.51429
2.50958
2.50466
2.49963
2.49437
2.48928
1.28552
2.49058
2.64186
2.63921
2.61348
2.57882
2.56587
2.56537
2.5679
2.56996
2.57092
2.57086
2.57072
2.57034
2.57003
2.56956
2.56927
2.56864
2.5682
2.56729
2.56666
2.56548
2.56461
2.56316
2.56204
2.56041
2.55876
2.55699
2.55508
2.55307
2.55093
2.54873
2.5464
2.54399
2.54145
2.53879
2.53598
2.53303
2.52993
2.52666
2.52324
2.51964
2.5159
2.51197
2.50792
2.50367
2.49931
2.49475
2.49009
2.48554
1.76694
2.37257
2.64024
2.60955
2.60312
2.58714
2.58408
2.58625
2.58715
2.58928
2.58904
2.5885
2.58804
2.58721
2.58642
2.58554
2.58468
2.58365
2.58259
2.58138
2.58013
2.57874
2.57729
2.57573
2.57406
2.5723
2.57041
2.56843
2.5663
2.56407
2.56168
2.55907
2.55632
2.55335
2.55026
2.54697
2.54357
2.53997
2.53628
2.53248
2.52858
2.52456
2.52042
2.51615
2.51175
2.50722
2.50256
2.49777
2.49284
2.48811
1.79488
2.35564
2.62363
2.59554
2.59153
2.57983
2.57655
2.57774
2.57805
2.57876
2.57858
2.57817
2.57771
2.57697
2.57625
2.5755
2.57469
2.57379
2.5728
2.57172
2.57054
2.56929
2.56793
2.56649
2.56495
2.56333
2.5616
2.5598
2.55789
2.55591
2.55382
2.55179
2.54961
2.54747
2.54516
2.54285
2.54034
2.53776
2.53494
2.53199
2.52879
2.5255
2.52201
2.51842
2.51463
2.51075
2.50665
2.50247
2.49806
2.49389
1.79948
2.35042
2.61861
2.59239
2.58875
2.5775
2.57367
2.57434
2.57452
2.5749
2.57476
2.57435
2.57384
2.57309
2.57231
2.57153
2.57066
2.56974
2.56868
2.56757
2.56632
2.56501
2.56356
2.56205
2.56038
2.55865
2.55677
2.55481
2.5527
2.55052
2.54819
2.54578
2.54322
2.54059
2.53781
2.53497
2.53198
2.52899
2.52588
2.52273
2.51947
2.51613
2.51265
2.50909
2.50538
2.50158
2.49764
2.49359
2.48938
2.48539
1.77998
2.35566
2.61611
2.60269
2.59325
2.57681
2.57177
2.57224
2.57285
2.57346
2.57345
2.57298
2.57244
2.57162
2.5708
2.57003
2.56916
2.56827
2.56723
2.56616
2.56494
2.56368
2.56228
2.56083
2.55922
2.55756
2.55574
2.55387
2.55183
2.54972
2.54745
2.5451
2.54259
2.53999
2.53723
2.53438
2.53137
2.52826
2.52501
2.52165
2.51816
2.51456
2.51084
2.507
2.50305
2.49897
2.49478
2.49047
2.48603
2.48179
1.34473
2.37955
2.6377
2.63722
2.61501
2.58153
2.56731
2.56493
2.56623
2.56735
2.5673
2.56704
2.56635
2.56536
2.56444
2.56367
2.56282
2.56196
2.56094
2.55989
2.55869
2.55744
2.55604
2.5546
2.55298
2.55132
2.54948
2.54759
2.54552
2.54339
2.54108
2.5387
2.53615
2.53352
2.53071
2.52782
2.52475
2.5216
2.51827
2.51485
2.51126
2.50757
2.50372
2.49977
2.49566
2.49146
2.4871
2.48268
2.47808
2.47369
1.34597
2.38707
2.65261
2.6569
2.63084
2.59231
2.57476
2.5724
2.57404
2.57532
2.57578
2.57543
2.57461
2.57362
2.57256
2.57169
2.57081
2.56991
2.56888
2.5678
2.56658
2.56534
2.56396
2.56254
2.56099
2.55939
2.55765
2.55586
2.55392
2.55193
2.54979
2.54758
2.54523
2.5428
2.54022
2.53756
2.53474
2.53184
2.52878
2.52563
2.52231
2.5189
2.51533
2.51166
2.50783
2.5039
2.49981
2.49562
2.49128
2.4871
1.34508
2.37902
2.63608
2.63617
2.61325
2.57991
2.56473
2.56273
2.5641
2.56501
2.56543
2.565
2.5643
2.56327
2.56234
2.56151
2.56072
2.55984
2.5589
2.55785
2.55675
2.55555
2.55429
2.55293
2.55151
2.54998
2.54838
2.54666
2.54488
2.54297
2.54099
2.53889
2.53671
2.53439
2.53201
2.52948
2.52687
2.52412
2.5213
2.51832
2.51526
2.51205
2.50876
2.5053
2.50177
2.49808
2.49431
2.49037
2.48635
2.48243
1.78125
2.35396
2.6136
2.5994
2.58966
2.57178
2.56669
2.56705
2.56763
2.56867
2.56851
2.56795
2.56748
2.56658
2.56584
2.56501
2.56425
2.56331
2.56239
2.5613
2.56022
2.55897
2.55773
2.55631
2.55491
2.55331
2.55173
2.54995
2.54818
2.54621
2.54425
2.54208
2.53991
2.53754
2.53516
2.53258
2.52998
2.52718
2.52435
2.52133
2.51828
2.51502
2.51174
2.50825
2.50473
2.501
2.49723
2.49326
2.48923
2.48529
1.80157
2.34688
2.61419
2.58701
2.58347
2.57221
2.5687
2.56977
2.57007
2.5705
2.57035
2.56981
2.5693
2.56836
2.56757
2.56665
2.5658
2.56474
2.56372
2.5625
2.56131
2.55992
2.55856
2.55699
2.55544
2.55369
2.55194
2.54999
2.54804
2.54589
2.54372
2.54136
2.53898
2.5364
2.53379
2.531
2.52816
2.52514
2.52206
2.51881
2.5155
2.51202
2.50847
2.50476
2.50097
2.49702
2.493
2.48882
2.48455
2.48042
1.78849
2.36053
2.62664
2.59503
2.58842
2.57431
2.57182
2.57384
2.57533
2.57625
2.57623
2.57568
2.57519
2.57431
2.57359
2.57272
2.57191
2.5709
2.56992
2.56874
2.56759
2.56625
2.56493
2.56342
2.56191
2.56022
2.55852
2.55664
2.55474
2.55266
2.55055
2.54827
2.54595
2.54346
2.54091
2.53821
2.53543
2.5325
2.52949
2.52633
2.52309
2.5197
2.51622
2.51258
2.50887
2.505
2.50104
2.49694
2.49274
2.48868
2.17194
2.34408
2.76373
2.85899
2.8898
2.83943
2.83615
2.83492
2.82728
2.82593
2.82839
2.82999
2.83079
2.83158
2.83276
2.834
2.83551
2.83713
2.83811
2.8388
2.83898
2.83862
2.83728
2.83618
2.83267
2.83032
2.82593
2.82193
2.81673
2.8116
2.80559
2.79958
2.79277
2.78611
2.779
2.77202
2.76459
2.7568
2.74838
2.74029
2.73189
2.72374
2.71526
2.70706
2.69859
2.69043
2.68207
2.67405
2.66588
2.65809
2.65021
2.64274
2.63524
2.62819
2.62117
2.61463
2.6082
2.60229
2.59656
2.5914
2.58649
2.5822
2.57823
2.57495
2.57203
2.56983
2.56805
2.56698
2.56632
2.56627
2.56637
2.56667
2.56739
2.56874
2.57083
2.573
2.57536
2.57758
2.57994
2.58209
2.58427
2.58614
2.58794
2.58937
2.59069
2.59163
2.59244
2.59289
2.59324
2.59331
2.59324
2.59309
2.59278
2.59214
2.59139
2.59043
2.58959
2.58855
2.58768
2.58477
2.18004
2.25969
2.44971
2.62818
2.69595
2.73942
2.77061
2.79753
2.81359
2.82667
2.83511
2.84523
2.85136
2.85093
2.84705
2.84095
2.83302
2.82468
2.81474
2.8048
2.79385
2.78319
2.77201
2.76123
2.74979
2.73867
2.72694
2.71572
2.70402
2.69288
2.68133
2.67032
2.65892
2.64809
2.6371
2.62682
2.61624
2.60564
2.59459
2.58399
2.57355
2.56343
2.55335
2.54356
2.53383
2.52444
2.5151
2.50614
2.49725
2.48875
2.48037
2.47238
2.46455
2.45712
2.44989
2.44309
2.43654
2.43047
2.42469
2.41944
2.41453
2.4102
2.40625
2.40294
2.40006
2.39784
2.3961
2.39502
2.39441
2.39435
2.39454
2.39497
2.39594
2.39741
2.39976
2.40225
2.40501
2.40762
2.41037
2.41285
2.41536
2.41749
2.41952
2.4211
2.42253
2.4235
2.4243
2.42466
2.42487
2.42479
2.42464
2.42431
2.42392
2.42313
2.42231
2.42121
2.42033
2.4192
2.41845
2.41567
2.22658
2.21221
2.27118
2.3572
2.41108
2.45929
2.49319
2.52097
2.54275
2.55904
2.5713
2.58043
2.58739
2.58961
2.58877
2.58683
2.58255
2.57761
2.57176
2.56537
2.55836
2.55117
2.54358
2.53607
2.5281
2.52022
2.51189
2.50379
2.49532
2.48714
2.47863
2.47043
2.46192
2.45374
2.44549
2.43779
2.42994
2.42188
2.41334
2.40497
2.39685
2.38887
2.38098
2.37318
2.36547
2.35788
2.3504
2.34307
2.33586
2.32883
2.32196
2.31528
2.3088
2.30253
2.29651
2.29073
2.28525
2.28004
2.27518
2.27063
2.26649
2.26269
2.25937
2.25643
2.25402
2.25201
2.25058
2.24957
2.24915
2.24904
2.24925
2.24963
2.25048
2.25174
2.25386
2.25608
2.25859
2.26093
2.26341
2.26563
2.26786
2.26973
2.27152
2.27289
2.27413
2.27493
2.2756
2.27585
2.276
2.27586
2.27572
2.27542
2.27507
2.27434
2.27362
2.27264
2.27188
2.27091
2.27044
2.26813
2.2594
2.21979
2.21536
2.2402
2.27105
2.2935
2.30875
2.3205
2.33103
2.34023
2.34786
2.35389
2.35855
2.36211
2.36366
2.36385
2.36378
2.36362
2.36345
2.36312
2.36269
2.36202
2.36139
2.3601
2.35872
2.35691
2.35478
2.35228
2.34948
2.34637
2.34298
2.33933
2.33537
2.33123
2.32702
2.32293
2.3187
2.31395
2.30864
2.30311
2.29765
2.29218
2.28669
2.28113
2.27552
2.26989
2.26424
2.25862
2.25299
2.24746
2.24194
2.23657
2.23124
2.22611
2.22106
2.21625
2.21158
2.2072
2.20299
2.19913
2.19551
2.19228
2.18935
2.18686
2.18471
2.18305
2.18178
2.18101
2.1807
2.18078
2.18104
2.18144
2.1823
2.18356
2.18556
2.18767
2.19009
2.19236
2.19475
2.19687
2.19898
2.20074
2.20242
2.20369
2.20483
2.20556
2.20614
2.20636
2.20647
2.20633
2.20621
2.20594
2.20562
2.20494
2.20433
2.20342
2.20278
2.20193
2.20167
2.19963
2.27472
2.24067
2.21881
2.21121
2.21824
2.22292
2.22495
2.22559
2.22651
2.22837
2.23109
2.23342
2.23538
2.23724
2.23992
2.24226
2.24443
2.24692
2.24955
2.25244
2.2553
2.25813
2.26072
2.26301
2.26493
2.26633
2.26727
2.26778
2.26751
2.26696
2.26586
2.2644
2.26239
2.26012
2.25759
2.25513
2.25234
2.24904
2.24499
2.24065
2.23614
2.23161
2.22694
2.22223
2.21736
2.21247
2.20745
2.20245
2.19738
2.19238
2.18734
2.18242
2.1775
2.17275
2.16806
2.16359
2.15921
2.15511
2.15116
2.14754
2.14412
2.14109
2.13831
2.13598
2.13395
2.13241
2.13122
2.13057
2.13035
2.13047
2.13073
2.13116
2.13203
2.13334
2.13518
2.13724
2.13952
2.14179
2.14408
2.14619
2.1482
2.14993
2.15149
2.15274
2.15377
2.15447
2.15498
2.15519
2.15524
2.1551
2.15497
2.15466
2.15432
2.15359
2.15305
2.15211
2.15153
2.15067
2.15051
2.14848
2.29829
2.25439
2.23019
2.21029
2.20044
2.1936
2.18783
2.18176
2.17689
2.17308
2.17131
2.17079
2.17136
2.17172
2.17281
2.17503
2.1776
2.18079
2.18374
2.18736
2.19075
2.19462
2.19796
2.20149
2.20426
2.20699
2.20879
2.21045
2.21116
2.21175
2.21153
2.21088
2.20972
2.20821
2.20649
2.20475
2.20267
2.20006
2.19673
2.19304
2.1891
2.18506
2.18088
2.17663
2.17226
2.16782
2.16326
2.15869
2.15403
2.1494
2.14474
2.14015
2.13558
2.13113
2.12674
2.12253
2.11843
2.11456
2.11085
2.10742
2.10422
2.10135
2.09876
2.09656
2.09469
2.09324
2.09219
2.09165
2.09153
2.09168
2.09195
2.09246
2.09335
2.09472
2.09645
2.09844
2.10061
2.10284
2.10506
2.10714
2.10908
2.11077
2.11226
2.11346
2.11443
2.11513
2.1156
2.11579
2.1158
2.11569
2.11555
2.11521
2.11488
2.11414
2.11365
2.11272
2.1122
2.11137
2.11128
2.10931
2.32191
2.28188
2.24816
2.22336
2.20289
2.18792
2.17553
2.16504
2.15554
2.14804
2.14216
2.13862
2.13649
2.13607
2.13612
2.13667
2.13853
2.14137
2.14459
2.14798
2.15163
2.15542
2.15919
2.16291
2.16633
2.16947
2.17207
2.17426
2.1758
2.17694
2.17739
2.17751
2.17692
2.176
2.17493
2.17377
2.17226
2.17019
2.16747
2.16433
2.1609
2.15728
2.15351
2.14964
2.14566
2.14157
2.1374
2.13315
2.12884
2.1245
2.12015
2.11581
2.11151
2.10728
2.10314
2.09912
2.09524
2.09153
2.08802
2.08474
2.08171
2.07896
2.07652
2.07441
2.07266
2.07132
2.07039
2.06995
2.0699
2.07005
2.07033
2.0709
2.07184
2.07324
2.07492
2.07685
2.07893
2.08109
2.08323
2.08527
2.08715
2.08882
2.09026
2.09146