/*--------------------------------*- C++ -*----------------------------------*\
| =========                 |                                                 |
| \\      /  F ield         | OpenFOAM: The Open Source CFD Toolbox           |
|  \\    /   O peration     | Version:  2412                                  |
|   \\  /    A nd           | Website:  www.openfoam.com                      |
|    \\/     M anipulation  |                                                 |
\*---------------------------------------------------------------------------*/
FoamFile
{
    version     2.0;
    format      ascii;
    arch        "LSB;label=32;scalar=64";
    class       volVectorField;
    location    "17";
    object      U;
}
// * * * * * * * * * * * * * * * * * * * * * * * * * * * * * * * * * * * * * //

dimensions      [0 1 -1 0 0 0 0];

internalField   nonuniform List<vector> 
7000
(
(2.59126 -7.25489e-05 0)
(1.62104 0.00017846 0)
(0.496022 0.000208916 0)
(0.553026 0.000350803 0)
(0.654726 0.000446689 0)
(0.719961 0.000524789 0)
(0.732858 0.000592671 0)
(0.72597 0.000663009 0)
(0.715912 0.000741516 0)
(0.708215 0.000831996 0)
(0.703749 0.000930711 0)
(0.700183 0.00103399 0)
(0.6961 0.00114104 0)
(0.691247 0.00125279 0)
(0.685784 0.00137027 0)
(0.679838 0.00149405 0)
(0.673427 0.00162442 0)
(0.666516 0.00176172 0)
(0.659071 0.00190635 0)
(0.651065 0.00205889 0)
(0.642476 0.00221992 0)
(0.63328 0.00239013 0)
(0.623453 0.0025702 0)
(0.612967 0.00276092 0)
(0.601793 0.0029631 0)
(0.589901 0.00317762 0)
(0.577259 0.00340538 0)
(0.563833 0.00364734 0)
(0.549588 0.00390448 0)
(0.534488 0.00417776 0)
(0.518497 0.00446818 0)
(0.501575 0.0047766 0)
(0.483686 0.00510392 0)
(0.464792 0.00545073 0)
(0.444857 0.00581767 0)
(0.423847 0.00620479 0)
(0.401733 0.00661217 0)
(0.378491 0.00703896 0)
(0.354103 0.00748425 0)
(0.328561 0.00794585 0)
(0.301871 0.00842139 0)
(0.274049 0.00890676 0)
(0.245132 0.00939804 0)
(0.215171 0.00988895 0)
(0.184241 0.0103748 0)
(0.152437 0.0108491 0)
(0.119833 0.0113148 0)
(0.0868663 0.0117569 0)
(0.051503 0.0123454 0)
(0.0221162 0.0131982 0)
(2.59139 -4.81522e-05 0)
(1.6212 0.000347522 0)
(0.49571 0.00082811 0)
(0.552764 0.00114001 0)
(0.654487 0.00137533 0)
(0.719735 0.00159751 0)
(0.732633 0.00180564 0)
(0.725749 0.00202106 0)
(0.715699 0.0022587 0)
(0.708012 0.00252867 0)
(0.703552 0.00282168 0)
(0.699991 0.00312815 0)
(0.695911 0.0034459 0)
(0.691063 0.00377721 0)
(0.685606 0.00412471 0)
(0.679666 0.00448977 0)
(0.67326 0.00487313 0)
(0.666355 0.00527547 0)
(0.658916 0.00569788 0)
(0.650917 0.0061416 0)
(0.642335 0.00660817 0)
(0.633147 0.00709904 0)
(0.623327 0.00761596 0)
(0.61285 0.00816054 0)
(0.601684 0.00873472 0)
(0.589801 0.00934019 0)
(0.577168 0.00997898 0)
(0.563751 0.0106527 0)
(0.549516 0.0113632 0)
(0.534426 0.0121118 0)
(0.518443 0.0129 0)
(0.50153 0.0137283 0)
(0.483649 0.0145973 0)
(0.46476 0.0155061 0)
(0.444828 0.0164538 0)
(0.423819 0.017437 0)
(0.401701 0.0184524 0)
(0.37845 0.0194932 0)
(0.354047 0.020552 0)
(0.328481 0.0216176 0)
(0.301757 0.0226775 0)
(0.273889 0.0237153 0)
(0.24491 0.0247128 0)
(0.214871 0.0256499 0)
(0.183844 0.0265042 0)
(0.151924 0.0272586 0)
(0.119174 0.0279086 0)
(0.0860801 0.0284291 0)
(0.0505564 0.0290797 0)
(0.0211896 0.0298307 0)
(2.59152 4.76309e-05 0)
(1.6215 0.000392294 0)
(0.495917 0.00160527 0)
(0.552817 0.00198111 0)
(0.654529 0.00230556 0)
(0.719778 0.00267138 0)
(0.732675 0.00304105 0)
(0.725803 0.00342006 0)
(0.715774 0.00383041 0)
(0.708108 0.00428864 0)
(0.703663 0.00478368 0)
(0.70011 0.00530269 0)
(0.696041 0.00584276 0)
(0.691204 0.00640673 0)
(0.685759 0.00699858 0)
(0.679833 0.0076203 0)
(0.673441 0.00827353 0)
(0.666551 0.00895933 0)
(0.659128 0.00967993 0)
(0.651146 0.0104372 0)
(0.642581 0.0112342 0)
(0.633412 0.0120731 0)
(0.623613 0.0129573 0)
(0.613157 0.0138894 0)
(0.602015 0.0148732 0)
(0.590156 0.0159114 0)
(0.577548 0.0170078 0)
(0.564159 0.0181653 0)
(0.549952 0.0193875 0)
(0.534891 0.0206767 0)
(0.518939 0.0220359 0)
(0.502056 0.0234662 0)
(0.484203 0.0249692 0)
(0.465343 0.0265437 0)
(0.445438 0.0281886 0)
(0.424451 0.0298993 0)
(0.402351 0.0316696 0)
(0.37911 0.0334902 0)
(0.354708 0.0353472 0)
(0.329132 0.0372249 0)
(0.302383 0.0390993 0)
(0.274472 0.0409469 0)
(0.245429 0.0427336 0)
(0.215302 0.0444295 0)
(0.184159 0.0459952 0)
(0.152099 0.0473975 0)
(0.11918 0.0486239 0)
(0.0859431 0.0496339 0)
(0.0502803 0.0506865 0)
(0.0207497 0.0516809 0)
(2.59169 5.4104e-05 0)
(1.62194 0.000535761 0)
(0.496345 0.00235148 0)
(0.55294 0.00281519 0)
(0.654651 0.00323815 0)
(0.71992 0.00375845 0)
(0.732823 0.00430502 0)
(0.725965 0.00486132 0)
(0.715966 0.00545451 0)
(0.708332 0.00610719 0)
(0.703909 0.00680914 0)
(0.700374 0.00754656 0)
(0.696321 0.00831562 0)
(0.691504 0.00911941 0)
(0.686081 0.00996249 0)
(0.680178 0.0108477 0)
(0.67381 0.0117773 0)
(0.666945 0.0127532 0)
(0.659549 0.0137783 0)
(0.651595 0.0148556 0)
(0.643061 0.0159888 0)
(0.633925 0.0171819 0)
(0.624161 0.0184389 0)
(0.613742 0.0197643 0)
(0.602639 0.0211626 0)
(0.590823 0.0226387 0)
(0.57826 0.0241972 0)
(0.564917 0.0258432 0)
(0.550759 0.0275808 0)
(0.535749 0.0294149 0)
(0.519849 0.0313481 0)
(0.50302 0.0333846 0)
(0.485221 0.0355243 0)
(0.466413 0.0377689 0)
(0.446558 0.0401141 0)
(0.425617 0.0425573 0)
(0.403557 0.0450872 0)
(0.380347 0.0476943 0)
(0.355964 0.0503575 0)
(0.330391 0.0530568 0)
(0.303624 0.0557592 0)
(0.275672 0.0584294 0)
(0.246561 0.0610241 0)
(0.216334 0.0634935 0)
(0.185059 0.0657927 0)
(0.152832 0.0678646 0)
(0.11971 0.0696821 0)
(0.0862903 0.0711901 0)
(0.0504294 0.0726157 0)
(0.0206056 0.0737734 0)
(2.59195 6.77293e-05 0)
(1.62258 0.000716294 0)
(0.496896 0.00310439 0)
(0.55305 0.0036808 0)
(0.654779 0.00421286 0)
(0.720092 0.00488734 0)
(0.733009 0.00561096 0)
(0.726169 0.00635163 0)
(0.716207 0.0071364 0)
(0.708614 0.00798974 0)
(0.704224 0.00890389 0)
(0.700715 0.00986608 0)
(0.696689 0.0108714 0)
(0.691901 0.0119235 0)
(0.68651 0.0130266 0)
(0.680641 0.0141851 0)
(0.674308 0.0154009 0)
(0.667482 0.0166778 0)
(0.660125 0.0180184 0)
(0.652214 0.019428 0)
(0.643726 0.0209102 0)
(0.634638 0.0224713 0)
(0.624927 0.0241155 0)
(0.614563 0.0258499 0)
(0.60352 0.0276791 0)
(0.591767 0.029611 0)
(0.579271 0.0316502 0)
(0.565998 0.0338048 0)
(0.551914 0.0360791 0)
(0.536981 0.0384805 0)
(0.52116 0.0410123 0)
(0.504412 0.0436798 0)
(0.486694 0.0464838 0)
(0.467967 0.0494259 0)
(0.448189 0.0525021 0)
(0.42732 0.0557074 0)
(0.405324 0.0590305 0)
(0.382165 0.0624555 0)
(0.357818 0.0659607 0)
(0.33226 0.0695145 0)
(0.305482 0.0730818 0)
(0.277486 0.0766099 0)
(0.248293 0.0800459 0)
(0.217944 0.0833207 0)
(0.1865 0.086369 0)
(0.154065 0.0891235 0)
(0.120681 0.0915271 0)
(0.0870097 0.0935014 0)
(0.0508609 0.0952397 0)
(0.0206235 0.0964902 0)
(2.59228 8.00109e-05 0)
(1.62342 0.000900386 0)
(0.497596 0.00385638 0)
(0.553166 0.00455902 0)
(0.654922 0.00520649 0)
(0.720303 0.00603545 0)
(0.733246 0.00694184 0)
(0.726432 0.00787171 0)
(0.716513 0.00885649 0)
(0.70897 0.00991937 0)
(0.704622 0.0110542 0)
(0.70115 0.012249 0)
(0.697159 0.0134992 0)
(0.69241 0.0148081 0)
(0.687061 0.0161805 0)
(0.681236 0.0176209 0)
(0.674951 0.0191327 0)
(0.668174 0.0207197 0)
(0.660871 0.0223863 0)
(0.653016 0.0241379 0)
(0.644588 0.0259801 0)
(0.635565 0.0279197 0)
(0.625923 0.0299632 0)
(0.615634 0.0321181 0)
(0.60467 0.0343919 0)
(0.593001 0.0367925 0)
(0.580595 0.0393283 0)
(0.567418 0.0420067 0)
(0.553434 0.0448363 0)
(0.538605 0.0478236 0)
(0.522892 0.0509762 0)
(0.506255 0.0542978 0)
(0.48865 0.0577933 0)
(0.470034 0.0614619 0)
(0.450365 0.0653023 0)
(0.429599 0.0693065 0)
(0.407695 0.0734636 0)
(0.384615 0.0777527 0)
(0.360324 0.0821489 0)
(0.334798 0.0866127 0)
(0.308016 0.0910992 0)
(0.279977 0.09555 0)
(0.250689 0.0998927 0)
(0.22019 0.104044 0)
(0.188535 0.107912 0)
(0.155829 0.111404 0)
(0.122113 0.114442 0)
(0.0880805 0.116913 0)
(0.0515214 0.118964 0)
(0.020775 0.120286 0)
(2.59271 9.26673e-05 0)
(1.62449 0.00108665 0)
(0.498452 0.00461614 0)
(0.553287 0.0054528 0)
(0.65508 0.00622214 0)
(0.720554 0.00720933 0)
(0.733537 0.00830597 0)
(0.726755 0.00942959 0)
(0.716891 0.0106212 0)
(0.709407 0.0119021 0)
(0.705111 0.0132657 0)
(0.701685 0.0147007 0)
(0.697741 0.0162036 0)
(0.69304 0.0177775 0)
(0.687745 0.0194279 0)
(0.681976 0.0211592 0)
(0.67575 0.0229761 0)
(0.669036 0.0248827 0)
(0.661799 0.0268851 0)
(0.654016 0.0289889 0)
(0.645665 0.031202 0)
(0.636724 0.0335313 0)
(0.627169 0.0359859 0)
(0.616975 0.0385737 0)
(0.606111 0.0413051 0)
(0.59455 0.0441887 0)
(0.582258 0.0472353 0)
(0.569202 0.050454 0)
(0.555346 0.0538554 0)
(0.540651 0.0574479 0)
(0.525078 0.0612406 0)
(0.508584 0.06524 0)
(0.491126 0.0694511 0)
(0.472657 0.073876 0)
(0.453132 0.0785124 0)
(0.432505 0.0833534 0)
(0.410727 0.0883858 0)
(0.387757 0.0935877 0)
(0.363551 0.0989286 0)
(0.338076 0.104364 0)
(0.311305 0.109839 0)
(0.283223 0.115281 0)
(0.253833 0.120609 0)
(0.223155 0.125717 0)
(0.191247 0.130489 0)
(0.158201 0.134807 0)
(0.124054 0.138549 0)
(0.0895554 0.141572 0)
(0.0524283 0.143983 0)
(0.0210225 0.145409 0)
(2.59324 0.000105438 0)
(1.62582 0.00127341 0)
(0.499479 0.00538168 0)
(0.553417 0.00635611 0)
(0.655256 0.00725092 0)
(0.720851 0.00840057 0)
(0.733887 0.00968982 0)
(0.727146 0.0110146 0)
(0.717348 0.0124215 0)
(0.709935 0.0139285 0)
(0.705702 0.0155284 0)
(0.702333 0.0172114 0)
(0.698445 0.018975 0)
(0.693806 0.0208225 0)
(0.688575 0.0227594 0)
(0.682876 0.0247908 0)
(0.676722 0.0269219 0)
(0.670085 0.0291578 0)
(0.662931 0.0315055 0)
(0.655235 0.033972 0)
(0.646978 0.036566 0)
(0.638138 0.0392964 0)
(0.628692 0.0421733 0)
(0.618613 0.0452068 0)
(0.607874 0.0484083 0)
(0.596445 0.0517892 0)
(0.584295 0.0553614 0)
(0.571389 0.0591371 0)
(0.557691 0.0631277 0)
(0.543162 0.0673452 0)
(0.527763 0.0717994 0)
(0.511448 0.0765 0)
(0.494174 0.0814532 0)
(0.475891 0.0866629 0)
(0.45655 0.0921291 0)
(0.4361 0.0978444 0)
(0.414489 0.103797 0)
(0.391665 0.109962 0)
(0.367579 0.116307 0)
(0.342184 0.122782 0)
(0.315443 0.129325 0)
(0.287328 0.13585 0)
(0.257826 0.142254 0)
(0.226948 0.148422 0)
(0.194732 0.1542 0)
(0.161278 0.15944 0)
(0.126593 0.16399 0)
(0.0914733 0.167651 0)
(0.0536251 0.170481 0)
(0.0214123 0.172046 0)
(2.59388 0.000118277 0)
(1.6274 0.00145978 0)
(0.500692 0.00615031 0)
(0.553559 0.0072649 0)
(0.655455 0.00828846 0)
(0.721198 0.00960474 0)
(0.734306 0.0110923 0)
(0.727617 0.0126237 0)
(0.717898 0.0142531 0)
(0.710565 0.0159939 0)
(0.706406 0.0178383 0)
(0.703105 0.0197775 0)
(0.699287 0.02181 0)
(0.694721 0.0239395 0)
(0.689569 0.0261715 0)
(0.683951 0.0285116 0)
(0.677885 0.0309656 0)
(0.67134 0.0335398 0)
(0.664284 0.0362418 0)
(0.656695 0.0390803 0)
(0.648551 0.042065 0)
(0.639833 0.0452065 0)
(0.630517 0.0485162 0)
(0.620578 0.0520065 0)
(0.609989 0.0556902 0)
(0.59872 0.0595811 0)
(0.586741 0.0636931 0)
(0.574017 0.0680407 0)
(0.560511 0.0726379 0)
(0.546186 0.0774988 0)
(0.530999 0.0826363 0)
(0.514905 0.088062 0)
(0.497856 0.0937853 0)
(0.479803 0.0998116 0)
(0.460691 0.106144 0)
(0.440465 0.112776 0)
(0.419065 0.119696 0)
(0.396433 0.126881 0)
(0.372506 0.134296 0)
(0.34723 0.141888 0)
(0.320548 0.149585 0)
(0.292416 0.157296 0)
(0.262805 0.164896 0)
(0.2317 0.172245 0)
(0.19913 0.179167 0)
(0.165177 0.185465 0)
(0.129843 0.190942 0)
(0.0939506 0.195349 0)
(0.0551547 0.198689 0)
(0.0219202 0.200446 0)
(2.59463 0.000131044 0)
(1.62927 0.00164449 0)
(0.502105 0.00691686 0)
(0.553716 0.00817314 0)
(0.65568 0.00932775 0)
(0.721604 0.0108142 0)
(0.734801 0.0125041 0)
(0.728176 0.0142478 0)
(0.71855 0.0161072 0)
(0.711312 0.0180903 0)
(0.707237 0.0201875 0)
(0.704018 0.0223912 0)
(0.700283 0.024701 0)
(0.695803 0.0271209 0)
(0.690743 0.0296565 0)
(0.685222 0.0323139 0)
(0.679259 0.0350993 0)
(0.672822 0.0380202 0)
(0.665883 0.0410854 0)
(0.658417 0.0443047 0)
(0.650407 0.0476891 0)
(0.641832 0.051251 0)
(0.632671 0.0550034 0)
(0.622898 0.0589606 0)
(0.612487 0.0631374 0)
(0.601409 0.0675498 0)
(0.589633 0.0722142 0)
(0.577126 0.0771474 0)
(0.563851 0.0823665 0)
(0.549769 0.0878881 0)
(0.534837 0.0937288 0)
(0.519009 0.0999027 0)
(0.502236 0.106423 0)
(0.484464 0.113299 0)
(0.465635 0.120534 0)
(0.445687 0.128128 0)
(0.424555 0.13607 0)
(0.402168 0.144339 0)
(0.378457 0.152898 0)
(0.353344 0.161695 0)
(0.326763 0.17065 0)
(0.298641 0.179665 0)
(0.26893 0.1886 0)
(0.23759 0.197288 0)
(0.204615 0.20552 0)
(0.170078 0.213056 0)
(0.13394 0.219642 0)
(0.0970755 0.224952 0)
(0.0571156 0.228916 0)
(0.0226257 0.230925 0)
(2.5955 0.00014361 0)
(1.63143 0.00182576 0)
(0.503732 0.00767381 0)
(0.553893 0.00907344 0)
(0.655937 0.0103616 0)
(0.722076 0.01202 0)
(0.735382 0.013917 0)
(0.728837 0.0158782 0)
(0.719321 0.017975 0)
(0.71219 0.0202088 0)
(0.708213 0.0225676 0)
(0.705088 0.0250446 0)
(0.701449 0.0276401 0)
(0.697071 0.0303587 0)
(0.692117 0.0332062 0)
(0.686709 0.0361889 0)
(0.680864 0.0393139 0)
(0.674554 0.0425896 0)
(0.667749 0.0460259 0)
(0.660428 0.0496339 0)
(0.652574 0.0534263 0)
(0.644166 0.0574169 0)
(0.635184 0.0616206 0)
(0.625605 0.0660537 0)
(0.615402 0.0707332 0)
(0.604547 0.0756775 0)
(0.593011 0.0809056 0)
(0.580759 0.086437 0)
(0.567756 0.0922922 0)
(0.553962 0.0984908 0)
(0.539334 0.105053 0)
(0.523825 0.111997 0)
(0.507383 0.119341 0)
(0.489951 0.127096 0)
(0.471467 0.135273 0)
(0.451864 0.143874 0)
(0.431067 0.152893 0)
(0.408996 0.162314 0)
(0.385566 0.1721 0)
(0.360684 0.182203 0)
(0.33426 0.192538 0)
(0.306197 0.203002 0)
(0.27641 0.21344 0)
(0.244833 0.22366 0)
(0.211416 0.233424 0)
(0.176201 0.242424 0)
(0.139125 0.250342 0)
(0.101057 0.256773 0)
(0.0595943 0.261546 0)
(0.0235156 0.263906 0)
(2.5965 0.000155535 0)
(1.63391 0.00200177 0)
(0.505588 0.00840954 0)
(0.554095 0.00995681 0)
(0.656231 0.0113824 0)
(0.722622 0.0132107 0)
(0.736061 0.0153184 0)
(0.729611 0.0175023 0)
(0.720226 0.0198446 0)
(0.713217 0.0223386 0)
(0.709352 0.0249685 0)
(0.706335 0.0277276 0)
(0.702807 0.0306174 0)
(0.698545 0.033643 0)
(0.693713 0.0368103 0)
(0.688433 0.0401261 0)
(0.682724 0.0435981 0)
(0.676559 0.0472358 0)
(0.669908 0.0510502 0)
(0.662754 0.0550539 0)
(0.655078 0.0592612 0)
(0.646863 0.0636874 0)
(0.638089 0.0683496 0)
(0.628733 0.0732659 0)
(0.618771 0.0784561 0)
(0.608175 0.0839407 0)
(0.596916 0.0897419 0)
(0.584962 0.0958822 0)
(0.572276 0.102386 0)
(0.55882 0.109275 0)
(0.54455 0.116576 0)
(0.529418 0.124311 0)
(0.513369 0.132501 0)
(0.496346 0.141167 0)
(0.478281 0.150322 0)
(0.4591 0.159978 0)
(0.438721 0.170132 0)
(0.417052 0.180777 0)
(0.393993 0.191882 0)
(0.369429 0.203401 0)
(0.343246 0.215256 0)
(0.315315 0.227335 0)
(0.28551 0.23948 0)
(0.253718 0.251473 0)
(0.219838 0.26304 0)
(0.183853 0.273827 0)
(0.145646 0.283412 0)
(0.106116 0.291268 0)
(0.0628042 0.297091 0)
(0.0247298 0.299935 0)
(2.59762 0.000164207 0)
(1.63672 0.00217243 0)
(0.507683 0.00910624 0)
(0.55433 0.0108102 0)
(0.656567 0.0123818 0)
(0.723247 0.0143699 0)
(0.73685 0.0166945 0)
(0.730517 0.0191071 0)
(0.721285 0.0217028 0)
(0.714415 0.024467 0)
(0.710675 0.0273783 0)
(0.707779 0.0304289 0)
(0.704377 0.0336217 0)
(0.700247 0.0369624 0)
(0.695553 0.0404574 0)
(0.690418 0.0441135 0)
(0.684863 0.0479394 0)
(0.678862 0.0519454 0)
(0.672387 0.0561442 0)
(0.665422 0.0605494 0)
(0.657949 0.0651771 0)
(0.649954 0.0700444 0)
(0.641417 0.0751706 0)
(0.632317 0.0805757 0)
(0.62263 0.0862822 0)
(0.612331 0.0923134 0)
(0.601392 0.0986944 0)
(0.589781 0.105451 0)
(0.577463 0.112612 0)
(0.5644 0.120204 0)
(0.550547 0.128257 0)
(0.535857 0.136799 0)
(0.520275 0.145859 0)
(0.503737 0.155462 0)
(0.486177 0.165631 0)
(0.467511 0.176386 0)
(0.44765 0.187734 0)
(0.42649 0.199678 0)
(0.403914 0.212197 0)
(0.379788 0.225256 0)
(0.353962 0.238786 0)
(0.326276 0.252679 0)
(0.296546 0.266775 0)
(0.264604 0.280844 0)
(0.230278 0.294568 0)
(0.193476 0.307534 0)
(0.153981 0.319223 0)
(0.112646 0.328954 0)
(0.0669514 0.336227 0)
(0.0262964 0.339779 0)
(2.59889 0.000169679 0)
(1.63986 0.0023341 0)
(0.510012 0.00975443 0)
(0.554607 0.0116156 0)
(0.656944 0.0133356 0)
(0.723952 0.0154778 0)
(0.737758 0.0180292 0)
(0.731562 0.0206769 0)
(0.72251 0.0235348 0)
(0.715799 0.0265802 0)
(0.712199 0.0297831 0)
(0.70944 0.0331348 0)
(0.706178 0.0366394 0)
(0.702196 0.0403032 0)
(0.697657 0.0441328 0)
(0.692686 0.0481356 0)
(0.687304 0.0523209 0)
(0.681486 0.0567004 0)
(0.67521 0.0612877 0)
(0.668457 0.0660984 0)
(0.661214 0.0711501 0)
(0.653467 0.0764619 0)
(0.645198 0.082055 0)
(0.636388 0.0879522 0)
(0.627015 0.0941782 0)
(0.617055 0.10076 0)
(0.60648 0.107724 0)
(0.595262 0.115103 0)
(0.583367 0.122926 0)
(0.570756 0.131229 0)
(0.557388 0.140043 0)
(0.543213 0.149406 0)
(0.528178 0.159352 0)
(0.512217 0.169917 0)
(0.495259 0.181131 0)
(0.477219 0.193027 0)
(0.457997 0.205626 0)
(0.43748 0.218942 0)
(0.415532 0.232976 0)
(0.391999 0.247705 0)
(0.366696 0.263081 0)
(0.339419 0.279009 0)
(0.309928 0.295343 0)
(0.277967 0.31185 0)
(0.243268 0.328198 0)
(0.205613 0.343905 0)
(0.164661 0.358328 0)
(0.121186 0.370588 0)
(0.0725191 0.379895 0)
(0.0284967 0.384512 0)
(2.60028 0.000178414 0)
(1.64333 0.00247557 0)
(0.512581 0.0103581 0)
(0.554927 0.0123547 0)
(0.657371 0.0142035 0)
(0.724751 0.0165188 0)
(0.738807 0.0192938 0)
(0.732773 0.0221873 0)
(0.72393 0.0253251 0)
(0.717397 0.0286644 0)
(0.713951 0.0321695 0)
(0.711343 0.0358323 0)
(0.708238 0.0396578 0)
(0.70442 0.0436531 0)
(0.700053 0.0478247 0)
(0.695262 0.0521807 0)
(0.690071 0.0567309 0)
(0.684459 0.0614882 0)
(0.678402 0.0664677 0)
(0.671887 0.0716867 0)
(0.664902 0.0771641 0)
(0.657433 0.0829216 0)
(0.649465 0.088982 0)
(0.640981 0.0953711 0)
(0.631962 0.102116 0)
(0.622384 0.109247 0)
(0.612223 0.116795 0)
(0.601451 0.124794 0)
(0.590038 0.133281 0)
(0.577946 0.142295 0)
(0.565135 0.151875 0)
(0.551557 0.162065 0)
(0.53716 0.172908 0)
(0.521878 0.184449 0)
(0.505638 0.196734 0)
(0.488352 0.209805 0)
(0.469915 0.223704 0)
(0.450204 0.238463 0)
(0.429068 0.254107 0)
(0.40633 0.270641 0)
(0.381774 0.288045 0)
(0.355145 0.306258 0)
(0.326138 0.32516 0)
(0.294403 0.344542 0)
(0.259535 0.364075 0)
(0.221145 0.383244 0)
(0.17865 0.401281 0)
(0.132619 0.417086 0)
(0.0801021 0.42943 0)
(0.0315292 0.435785 0)
(2.60181 0.000188226 0)
(1.64715 0.00259291 0)
(0.515416 0.0108897 0)
(0.555296 0.0129979 0)
(0.65787 0.0149584 0)
(0.725685 0.0174604 0)
(0.740028 0.0204655 0)
(0.734197 0.0236173 0)
(0.725597 0.027052 0)
(0.719257 0.0306993 0)
(0.715978 0.0345179 0)
(0.713534 0.0385008 0)
(0.710601 0.0426545 0)
(0.706962 0.0469868 0)
(0.702782 0.0515047 0)
(0.698188 0.0562166 0)
(0.693207 0.0611335 0)
(0.687819 0.0662698 0)
(0.682005 0.0716417 0)
(0.675752 0.0772685 0)
(0.66905 0.083171 0)
(0.661889 0.0893727 0)
(0.654256 0.0958989 0)
(0.646135 0.102778 0)
(0.63751 0.110039 0)
(0.62836 0.117716 0)
(0.618663 0.125843 0)
(0.608395 0.13446 0)
(0.597526 0.143607 0)
(0.586023 0.153329 0)
(0.573849 0.163673 0)
(0.560959 0.174689 0)
(0.5473 0.186432 0)
(0.532812 0.198957 0)
(0.51742 0.212325 0)
(0.501038 0.226596 0)
(0.483558 0.241831 0)
(0.464851 0.258091 0)
(0.444757 0.275429 0)
(0.423078 0.293892 0)
(0.39957 0.313503 0)
(0.37393 0.33426 0)
(0.34578 0.356098 0)
(0.314659 0.378865 0)
(0.279997 0.402325 0)
(0.241141 0.425941 0)
(0.197206 0.448831 0)
(0.148348 0.469722 0)
(0.0910201 0.486743 0)
(0.0361595 0.49616 0)
(2.60346 0.000194067 0)
(1.65128 0.00268295 0)
(0.518498 0.0112998 0)
(0.555716 0.0135052 0)
(0.658456 0.0155734 0)
(0.726782 0.0182604 0)
(0.741461 0.0215201 0)
(0.735871 0.0249466 0)
(0.727548 0.0286949 0)
(0.721419 0.0326713 0)
(0.718317 0.0368233 0)
(0.716049 0.0411431 0)
(0.713299 0.045639 0)
(0.709854 0.0503199 0)
(0.705877 0.0551932 0)
(0.701497 0.0602677 0)
(0.696744 0.0655553 0)
(0.691601 0.0710716 0)
(0.686052 0.076835 0)
(0.680086 0.0828661 0)
(0.673697 0.0891881 0)
(0.666875 0.0958266 0)
(0.659611 0.102809 0)
(0.651891 0.110167 0)
(0.643703 0.117933 0)
(0.635028 0.126143 0)
(0.625848 0.134837 0)
(0.616142 0.144057 0)
(0.605884 0.15385 0)
(0.595045 0.164265 0)
(0.583592 0.175358 0)
(0.571484 0.187188 0)
(0.558675 0.199819 0)
(0.545107 0.213321 0)
(0.530711 0.227769 0)
(0.515403 0.243245 0)
(0.49908 0.259834 0)
(0.481611 0.27763 0)
(0.462836 0.296728 0)
(0.442546 0.317224 0)
(0.420482 0.339194 0)
(0.396299 0.36275 0)
(0.369546 0.387918 0)
(0.3397 0.414576 0)
(0.305973 0.442767 0)
(0.26732 0.47208 0)
(0.222433 0.50168 0)
(0.170712 0.530122 0)
(0.107376 0.554935 0)
(0.043487 0.570124 0)
(2.60521 0.000196668 0)
(1.6557 0.00273367 0)
(0.521807 0.0115411 0)
(0.556202 0.0138286 0)
(0.659154 0.0159985 0)
(0.728081 0.0188741 0)
(0.743157 0.0224053 0)
(0.737849 0.0261244 0)
(0.729847 0.0302041 0)
(0.723948 0.034523 0)
(0.721033 0.0390158 0)
(0.71895 0.0436749 0)
(0.716396 0.0485128 0)
(0.713157 0.0535414 0)
(0.709395 0.0587685 0)
(0.705243 0.0642038 0)
(0.700732 0.0698606 0)
(0.695852 0.0757558 0)
(0.690587 0.0819094 0)
(0.684932 0.0883437 0)
(0.67888 0.0950834 0)
(0.672427 0.102156 0)
(0.665565 0.109591 0)
(0.658285 0.117423 0)
(0.650575 0.125685 0)
(0.642424 0.134419 0)
(0.633815 0.143666 0)
(0.624731 0.153474 0)
(0.615153 0.163894 0)
(0.605056 0.174983 0)
(0.594413 0.186803 0)
(0.583191 0.199422 0)
(0.571348 0.212916 0)
(0.558837 0.227369 0)
(0.545598 0.242874 0)
(0.531555 0.259534 0)
(0.516614 0.277465 0)
(0.500659 0.296797 0)
(0.483537 0.317665 0)
(0.465033 0.340279 0)
(0.444918 0.364703 0)
(0.422844 0.39114 0)
(0.398201 0.41997 0)
(0.370542 0.451248 0)
(0.338974 0.485113 0)
(0.301925 0.521572 0)
(0.257469 0.560293 0)
(0.20387 0.600064 0)
(0.133833 0.63835 0)
(0.0565658 0.666403 0)
(2.60705 0.000195199 0)
(1.66034 0.00273426 0)
(0.525308 0.0115387 0)
(0.556779 0.0138928 0)
(0.659997 0.0161727 0)
(0.729631 0.0192655 0)
(0.745172 0.0231183 0)
(0.740191 0.0271889 0)
(0.732545 0.0316656 0)
(0.726883 0.0363803 0)
(0.724155 0.0412543 0)
(0.722259 0.0462837 0)
(0.71991 0.0514862 0)
(0.716889 0.056878 0)
(0.713357 0.0624659 0)
(0.709448 0.0682612 0)
(0.705199 0.0742794 0)
(0.700603 0.0805401 0)
(0.695647 0.0870657 0)
(0.690327 0.0938815 0)
(0.684642 0.101015 0)
(0.678589 0.108495 0)
(0.672165 0.116356 0)
(0.665362 0.124632 0)
(0.658174 0.133362 0)
(0.650593 0.142589 0)
(0.642608 0.152359 0)
(0.634207 0.162723 0)
(0.625377 0.173737 0)
(0.616101 0.185464 0)
(0.606358 0.197973 0)
(0.596124 0.211341 0)
(0.58537 0.225654 0)
(0.57406 0.241011 0)
(0.562146 0.257525 0)
(0.54957 0.275319 0)
(0.536262 0.294527 0)
(0.522114 0.315372 0)
(0.507052 0.33794 0)
(0.4908 0.362481 0)
(0.473105 0.389426 0)
(0.453962 0.419001 0)
(0.432746 0.451691 0)
(0.408655 0.487995 0)
(0.380882 0.528364 0)
(0.347879 0.573526 0)
(0.307004 0.624302 0)
(0.255024 0.681027 0)
(0.180405 0.743075 0)
(0.0832378 0.803248 0)
(2.60894 0.000136809 0)
(1.66511 0.00273515 0)
(0.5289 0.0111995 0)
(0.557471 0.0135479 0)
(0.661047 0.0159258 0)
(0.73153 0.0192194 0)
(0.74764 0.0233963 0)
(0.743051 0.0278222 0)
(0.735804 0.0326997 0)
(0.730375 0.0378039 0)
(0.727821 0.0430468 0)
(0.726105 0.0484365 0)
(0.723959 0.0540013 0)
(0.721155 0.0597587 0)
(0.717851 0.0657168 0)
(0.714187 0.0718857 0)
(0.710205 0.0782807 0)
(0.705901 0.0849224 0)
(0.701267 0.0918346 0)
(0.696302 0.0990433 0)
(0.691007 0.106577 0)
(0.685382 0.114468 0)
(0.679428 0.122749 0)
(0.673141 0.131459 0)
(0.666519 0.140638 0)
(0.659557 0.150332 0)
(0.652252 0.160591 0)
(0.644597 0.17147 0)
(0.636586 0.183029 0)
(0.628211 0.195336 0)
(0.61946 0.208468 0)
(0.610322 0.222511 0)
(0.600781 0.237561 0)
(0.590818 0.253725 0)
(0.580406 0.271145 0)
(0.569493 0.289999 0)
(0.558101 0.310309 0)
(0.546062 0.332351 0)
(0.53327 0.356514 0)
(0.519903 0.382999 0)
(0.505679 0.41233 0)
(0.490303 0.444941 0)
(0.473524 0.481321 0)
(0.454847 0.522457 0)
(0.433629 0.569524 0)
(0.408698 0.62434 0)
(0.377663 0.689802 0)
(0.336617 0.770985 0)
(0.270958 0.878246 0)
(0.14645 1.04349 0)
(2.61132 7.61519e-05 0)
(1.67089 0.00260521 0)
(0.532597 0.0103754 0)
(0.557957 0.0128135 0)
(0.662166 0.0154358 0)
(0.733862 0.0191936 0)
(0.750798 0.023995 0)
(0.746761 0.029058 0)
(0.74005 0.0345791 0)
(0.734913 0.0402511 0)
(0.732592 0.0459844 0)
(0.731148 0.0518147 0)
(0.729316 0.0577924 0)
(0.726853 0.0639435 0)
(0.723911 0.0702838 0)
(0.720632 0.0768275 0)
(0.717066 0.0835951 0)
(0.713216 0.090612 0)
(0.709079 0.0979068 0)
(0.704657 0.105509 0)
(0.699955 0.113451 0)
(0.694979 0.121767 0)
(0.689734 0.130492 0)
(0.684223 0.139667 0)
(0.678452 0.149335 0)
(0.672422 0.159542 0)
(0.66614 0.170342 0)
(0.659609 0.18179 0)
(0.652834 0.193953 0)
(0.645822 0.206901 0)
(0.638579 0.220716 0)
(0.631112 0.235487 0)
(0.623423 0.251342 0)
(0.61554 0.268366 0)
(0.607525 0.286651 0)
(0.59915 0.306446 0)
(0.590467 0.327979 0)
(0.581952 0.351432 0)
(0.573462 0.377236 0)
(0.564774 0.405751 0)
(0.55601 0.437327 0)
(0.547256 0.472672 0)
(0.538702 0.512625 0)
(0.530575 0.55847 0)
(0.523415 0.611992 0)
(0.518399 0.675953 0)
(0.518249 0.754819 0)
(0.531168 0.856018 0)
(0.587146 0.990734 0)
(0.65724 1.18544 0)
(2.61383 5.91462e-05 0)
(1.67703 0.00194232 0)
(0.537115 0.00776531 0)
(0.559594 0.0099291 0)
(0.664811 0.0125136 0)
(0.738251 0.0166916 0)
(0.756265 0.0222254 0)
(0.752828 0.0280685 0)
(0.746577 0.0344031 0)
(0.741509 0.0407957 0)
(0.739204 0.0471775 0)
(0.73786 0.053624 0)
(0.736208 0.0602004 0)
(0.733968 0.0669328 0)
(0.731279 0.0738322 0)
(0.728288 0.0809136 0)
(0.725055 0.0882003 0)
(0.72159 0.0957205 0)
(0.717892 0.103505 0)
(0.713966 0.111585 0)
(0.709821 0.119994 0)
(0.705465 0.128769 0)
(0.700908 0.137948 0)
(0.69616 0.147572 0)
(0.69123 0.157689 0)
(0.686129 0.168346 0)
(0.680872 0.1796 0)
(0.675472 0.19151 0)
(0.669949 0.204142 0)
(0.664322 0.217576 0)
(0.65861 0.231916 0)
(0.65288 0.247177 0)
(0.647107 0.263479 0)
(0.641219 0.281038 0)
(0.635455 0.299984 0)
(0.630026 0.320453 0)
(0.624824 0.342788 0)
(0.619917 0.367188 0)
(0.615534 0.393843 0)
(0.611831 0.423208 0)
(0.609083 0.455802 0)
(0.607764 0.492279 0)
(0.608544 0.533555 0)
(0.612516 0.580783 0)
(0.621502 0.635623 0)
(0.638822 0.700234 0)
(0.670491 0.777535 0)
(0.725513 0.87096 0)
(0.836689 0.980539 0)
(0.984579 1.09513 0)
(2.61528 7.00699e-05 0)
(1.68059 0.00130448 0)
(0.539975 0.0054608 0)
(0.561343 0.00791437 0)
(0.668163 0.0111089 0)
(0.744016 0.0164737 0)
(0.763476 0.0232751 0)
(0.76077 0.0302137 0)
(0.754989 0.0372792 0)
(0.749916 0.0440907 0)
(0.74762 0.0507709 0)
(0.746412 0.0574967 0)
(0.744964 0.0643482 0)
(0.742947 0.0713462 0)
(0.740494 0.0784967 0)
(0.737765 0.085823 0)
(0.734832 0.0933584 0)
(0.731712 0.101138 0)
(0.728407 0.109194 0)
(0.724924 0.117561 0)
(0.721278 0.126273 0)
(0.717483 0.135364 0)
(0.713555 0.144873 0)
(0.709508 0.154838 0)
(0.705362 0.165305 0)
(0.701136 0.17632 0)
(0.696852 0.187935 0)
(0.692535 0.200217 0)
(0.688223 0.213217 0)
(0.683987 0.226967 0)
(0.67973 0.241581 0)
(0.675489 0.257202 0)
(0.6716 0.273892 0)
(0.668099 0.291814 0)
(0.664903 0.311166 0)
(0.662169 0.332026 0)
(0.660072 0.35457 0)
(0.658787 0.379061 0)
(0.658594 0.405791 0)
(0.659862 0.435102 0)
(0.663056 0.467452 0)
(0.668922 0.503359 0)
(0.678529 0.543483 0)
(0.693352 0.58859 0)
(0.715776 0.639536 0)
(0.74926 0.697165 0)
(0.799397 0.761748 0)
(0.871785 0.832332 0)
(0.984744 0.903963 0)
(1.12044 0.956808 0)
(2.61649 4.14515e-05 0)
(1.68366 -0.00153234 0)
(0.545339 -0.00483804 0)
(0.567318 -0.00303796 0)
(0.675935 0.00100646 0)
(0.754156 0.00905982 0)
(0.774495 0.0185966 0)
(0.771566 0.0278849 0)
(0.76519 0.0364775 0)
(0.759524 0.0442855 0)
(0.757049 0.0517838 0)
(0.755925 0.0592681 0)
(0.754644 0.0668162 0)
(0.752812 0.0744485 0)
(0.750569 0.082159 0)
(0.748108 0.0899839 0)
(0.745506 0.0979687 0)
(0.742775 0.106155 0)
(0.739911 0.11458 0)
(0.736923 0.123281 0)
(0.733824 0.132297 0)
(0.730631 0.141667 0)
(0.727361 0.151432 0)
(0.724036 0.161631 0)
(0.72068 0.172312 0)
(0.717318 0.183535 0)
(0.714 0.195319 0)
(0.710743 0.207708 0)
(0.707508 0.220807 0)
(0.704424 0.23469 0)
(0.701698 0.249409 0)
(0.699298 0.265131 0)
(0.69724 0.281944 0)
(0.695691 0.299866 0)
(0.694753 0.319049 0)
(0.69459 0.339653 0)
(0.695423 0.361844 0)
(0.697505 0.385822 0)
(0.701194 0.411814 0)
(0.706921 0.440074 0)
(0.715292 0.470883 0)
(0.727117 0.504573 0)
(0.743534 0.541422 0)
(0.766037 0.581711 0)
(0.79668 0.625521 0)
(0.838157 0.672573 0)
(0.894107 0.721812 0)
(0.967225 0.770647 0)
(1.06844 0.814858 0)
(1.18151 0.840425 0)
(2.61216 0.00229417 0)
(1.67363 -0.00677207 0)
(0.549932 -0.0137846 0)
(0.583133 -0.0080033 0)
(0.696191 -0.000375394 0)
(0.77798 0.00989989 0)
(0.798603 0.0200974 0)
(0.794191 0.0297492 0)
(0.785868 0.0382697 0)
(0.778827 0.046137 0)
(0.77571 0.0538239 0)
(0.774229 0.0614871 0)
(0.772645 0.0691615 0)
(0.770506 0.0768787 0)
(0.76797 0.0846917 0)
(0.76528 0.0926532 0)
(0.762518 0.100808 0)
(0.75969 0.109192 0)
(0.756793 0.117841 0)
(0.75384 0.126785 0)
(0.75085 0.13606 0)
(0.747841 0.145696 0)
(0.744834 0.155728 0)
(0.741857 0.166186 0)
(0.738964 0.177083 0)
(0.736131 0.188478 0)
(0.73336 0.20045 0)
(0.730814 0.213017 0)
(0.728585 0.226246 0)
(0.726656 0.240243 0)
(0.72509 0.255039 0)
(0.723994 0.270661 0)
(0.723454 0.287221 0)
(0.723618 0.304811 0)
(0.724648 0.323534 0)
(0.726725 0.343525 0)
(0.730097 0.364901 0)
(0.735046 0.387814 0)
(0.741948 0.412398 0)
(0.751268 0.438804 0)
(0.763604 0.467161 0)
(0.77973 0.497573 0)
(0.800619 0.530061 0)
(0.827522 0.564507 0)
(0.861964 0.600569 0)
(0.905775 0.637485 0)
(0.961245 0.673918 0)
(1.02998 0.707535 0)
(1.11637 0.735406 0)
(1.20924 0.749155 0)
(2.60388 0.00792792 0)
(1.6434 -0.0735339 0)
(0.585252 -0.0725938 0)
(0.624036 -0.0457484 0)
(0.731464 -0.00576313 0)
(0.809112 0.0165255 0)
(0.827132 0.0266387 0)
(0.821184 0.0353113 0)
(0.811678 0.0426865 0)
(0.804318 0.0508099 0)
(0.800942 0.0593474 0)
(0.799083 0.0677867 0)
(0.797101 0.0760042 0)
(0.794659 0.0840793 0)
(0.791934 0.0921497 0)
(0.789101 0.100294 0)
(0.78622 0.108561 0)
(0.783289 0.116991 0)
(0.780309 0.125627 0)
(0.777293 0.134517 0)
(0.774262 0.143707 0)
(0.77124 0.153223 0)
(0.768251 0.163081 0)
(0.765288 0.173336 0)
(0.762429 0.184051 0)
(0.759816 0.195237 0)
(0.757431 0.20695 0)
(0.755279 0.219247 0)
(0.753476 0.232148 0)
(0.752097 0.24571 0)
(0.751217 0.260004 0)
(0.750948 0.275094 0)
(0.751416 0.291041 0)
(0.752775 0.307926 0)
(0.755202 0.325808 0)
(0.758894 0.344775 0)
(0.764102 0.364895 0)
(0.771127 0.386249 0)
(0.780319 0.408908 0)