/*--------------------------------*- C++ -*----------------------------------*\
| =========                 |                                                 |
| \\      /  F ield         | OpenFOAM: The Open Source CFD Toolbox           |
|  \\    /   O peration     | Version:  2412                                  |
|   \\  /    A nd           | Website:  www.openfoam.com                      |
|    \\/     M anipulation  |                                                 |
\*---------------------------------------------------------------------------*/
FoamFile
{
    version     2.0;
    format      ascii;
    arch        "LSB;label=32;scalar=64";
    class       volScalarField;
    location    "15.5";
    object      Ma;
}
// * * * * * * * * * * * * * * * * * * * * * * * * * * * * * * * * * * * * * //

dimensions      [0 0 0 0 0 0 0];

internalField   nonuniform List<scalar> 
7000
(
2.25601
0.994225
0.300554
0.338424
0.401046
0.442372
0.450576
0.446106
0.439744
0.434842
0.43199
0.429721
0.427122
0.424027
0.420568
0.416774
0.412729
0.408326
0.403636
0.398557
0.393146
0.387343
0.381155
0.374569
0.367545
0.360104
0.352182
0.343806
0.334918
0.325524
0.315591
0.305096
0.294034
0.282359
0.270083
0.257155
0.243589
0.229353
0.214446
0.198874
0.182619
0.165728
0.148184
0.130059
0.111377
0.0922021
0.072616
0.0528556
0.0319276
0.0155845
2.25607
0.994286
0.300352
0.338258
0.400891
0.442224
0.450428
0.445962
0.439605
0.434711
0.431863
0.429597
0.427002
0.423911
0.420457
0.416667
0.412627
0.408231
0.403546
0.398475
0.393071
0.387275
0.381096
0.374519
0.367506
0.360076
0.352168
0.343805
0.334932
0.325554
0.31564
0.305164
0.294125
0.282473
0.270224
0.257326
0.243791
0.229592
0.214724
0.199197
0.182994
0.166164
0.148694
0.130665
0.112111
0.0931262
0.0738436
0.0546621
0.0351579
0.022098
2.25619
0.994484
0.300484
0.338293
0.400921
0.442257
0.450462
0.446002
0.439662
0.43478
0.431944
0.429685
0.427099
0.424015
0.420573
0.416793
0.412767
0.408382
0.403714
0.398655
0.39327
0.387491
0.381335
0.374778
0.367792
0.360387
0.352511
0.34418
0.335346
0.326007
0.316139
0.305713
0.29473
0.28314
0.27096
0.258139
0.244692
0.23059
0.215835
0.200438
0.184386
0.167738
0.150491
0.132747
0.114573
0.0961236
0.0776568
0.0598435
0.0430396
0.033603
2.25637
0.99479
0.300756
0.338371
0.401002
0.442357
0.450565
0.446121
0.439791
0.434939
0.432114
0.429874
0.427296
0.424233
0.420802
0.417048
0.413035
0.40868
0.404026
0.399002
0.393637
0.387898
0.381766
0.375256
0.368301
0.360951
0.353114
0.344848
0.336064
0.326803
0.316999
0.306664
0.295763
0.284283
0.272208
0.259519
0.246209
0.232271
0.217696
0.202508
0.186702
0.170342
0.153454
0.136151
0.118561
0.100904
0.0835685
0.0674599
0.0533035
0.0462073
2.25662
0.995222
0.301106
0.33844
0.401087
0.442476
0.450696
0.446262
0.439964
0.435133
0.432338
0.430112
0.427561
0.424515
0.421116
0.417383
0.413406
0.409076
0.404463
0.399472
0.394152
0.388454
0.382376
0.375916
0.369025
0.361735
0.353978
0.345782
0.337098
0.327919
0.318239
0.308004
0.297254
0.285899
0.274006
0.261479
0.248389
0.234662
0.220358
0.205455
0.189996
0.174037
0.157626
0.140925
0.124079
0.107415
0.0913903
0.0770291
0.0651097
0.0595212
2.25695
0.995795
0.30155
0.338512
0.401183
0.442623
0.450864
0.446439
0.440186
0.435375
0.432628
0.430411
0.427906
0.424872
0.421526
0.41781
0.413891
0.409584
0.405037
0.400073
0.394831
0.389169
0.383181
0.376769
0.369981
0.362756
0.355115
0.347008
0.338452
0.329396
0.319856
0.309785
0.299198
0.288048
0.276355
0.264082
0.25124
0.237833
0.223846
0.209353
0.194316
0.178893
0.163082
0.147115
0.131172
0.115619
0.101
0.0882987
0.0781925
0.0736445
2.25737
0.996523
0.302094
0.338588
0.401291
0.442803
0.451067
0.44668
0.440437
0.435697
0.432959
0.430805
0.428308
0.425341
0.422008
0.418367
0.414467
0.410243
0.405722
0.400854
0.395648
0.390094
0.384154
0.377867
0.371145
0.364066
0.35651
0.348574
0.34013
0.331268
0.321883
0.31203
0.30165
0.290756
0.279324
0.267362
0.254848
0.241821
0.228258
0.214232
0.199759
0.184936
0.169885
0.154756
0.139836
0.125486
0.11225
0.10108
0.0924512
0.0886499
2.25788
0.997416
0.302747
0.338669
0.401411
0.443012
0.451315
0.446955
0.440763
0.436065
0.433381
0.43126
0.428817
0.425888
0.422615
0.419023
0.415187
0.411026
0.406576
0.401785
0.396663
0.391199
0.385365
0.37918
0.372591
0.36563
0.358242
0.350443
0.34221
0.333514
0.324385
0.31474
0.304662
0.294036
0.282964
0.271341
0.259268
0.246669
0.233645
0.220175
0.206358
0.192278
0.17804
0.163904
0.150058
0.136963
0.125089
0.115265
0.107852
0.104647
2.2585
0.998487
0.303518
0.338757
0.401547
0.443258
0.451612
0.447283
0.441154
0.436506
0.433881
0.431807
0.429423
0.426544
0.423342
0.419807
0.416054
0.411958
0.407605
0.402894
0.397883
0.392521
0.386815
0.380759
0.374319
0.367518
0.360303
0.352707
0.344676
0.336236
0.327344
0.318019
0.308228
0.297991
0.287281
0.276128
0.264505
0.252484
0.240026
0.227263
0.214172
0.200952
0.187655
0.174553
0.161902
0.150034
0.139465
0.130892
0.124503
0.12174
2.25922
0.999749
0.304416
0.338854
0.401701
0.443548
0.45196
0.447686
0.441608
0.437034
0.434466
0.432455
0.430135
0.427322
0.424194
0.420736
0.417068
0.413065
0.408807
0.404209
0.39931
0.394085
0.388512
0.382622
0.376344
0.36974
0.362728
0.355362
0.347587
0.339418
0.330846
0.321847
0.312449
0.302611
0.292379
0.281716
0.270684
0.259261
0.247531
0.235508
0.223306
0.211005
0.198771
0.186796
0.175344
0.164792
0.155453
0.147995
0.142503
0.14017
2.26006
1.00121
0.305451
0.338963
0.401877
0.44388
0.452372
0.448142
0.442158
0.437644
0.435162
0.433208
0.430971
0.428232
0.42519
0.421824
0.418249
0.414355
0.410209
0.405735
0.400976
0.395893
0.390495
0.384771
0.378709
0.372306
0.365552
0.358435
0.350965
0.34311
0.334898
0.32629
0.317328
0.307969
0.298269
0.288197
0.277806
0.267117
0.256158
0.245039
0.233762
0.222552
0.211428
0.200704
0.190523
0.181231
0.173179
0.166812
0.162149
0.160124
2.26103
1.00289
0.30663
0.339087
0.402078
0.444267
0.452849
0.44869
0.442786
0.438368
0.435957
0.434094
0.431932
0.429292
0.42634
0.42308
0.419615
0.415842
0.411824
0.407499
0.402887
0.397988
0.39276
0.387261
0.381402
0.375273
0.368769
0.36198
0.354821
0.347351
0.339534
0.331382
0.322909
0.314103
0.305002
0.295602
0.285946
0.276072
0.266013
0.255865
0.245688
0.235604
0.225771
0.216329
0.207543
0.199619
0.192782
0.187496
0.183647
0.182051
2.26211
1.00479
0.307963
0.33923
0.402308
0.44471
0.453401
0.449323
0.443525
0.439199
0.436888
0.435103
0.43305
0.430501
0.427668
0.424517
0.421181
0.41754
0.413674
0.409503
0.405076
0.400357
0.395358
0.390072
0.384492
0.378618
0.372452
0.365976
0.359221
0.352143
0.344801
0.33714
0.329236
0.321038
0.312623
0.303971
0.295148
0.286179
0.277132
0.268076
0.259087
0.250322
0.241828
0.233872
0.226519
0.22007
0.214662
0.210555
0.207586
0.206293
2.26332
1.00691
0.309448
0.339385
0.402579
0.445206
0.454037
0.45005
0.444379
0.44016
0.437952
0.43627
0.43432
0.431892
0.429167
0.426162
0.422949
0.41948
0.415758
0.411788
0.407537
0.403054
0.398273
0.393264
0.387952
0.38241
0.37657
0.370499
0.36414
0.357549
0.350697
0.34362
0.336323
0.328823
0.321162
0.31335
0.30545
0.297502
0.289562
0.281745
0.274072
0.266737
0.259808
0.253429
0.247792
0.242946
0.239043
0.2363
0.234386
0.233743
2.26466
1.00925
0.311089
0.339543
0.402906
0.445764
0.454767
0.450891
0.44536
0.441269
0.439169
0.437604
0.43577
0.433466
0.430882
0.428016
0.424961
0.421655
0.418118
0.414345
0.410315
0.406068
0.401553
0.396829
0.391837
0.386637
0.381189
0.375523
0.369648
0.363547
0.357285
0.350806
0.344219
0.337462
0.330648
0.323759
0.316877
0.310061
0.303356
0.29689
0.290722
0.284976
0.279771
0.275249
0.271486
0.26868
0.266719
0.265738
0.265215
0.265188
2.26612
1.01183
0.312897
0.339742
0.40327
0.446413
0.455613
0.451867
0.446511
0.442543
0.440577
0.439125
0.437422
0.435256
0.432824
0.430106
0.427233
0.424096
0.420772
0.417204
0.413424
0.409426
0.405211
0.400788
0.39616
0.391323
0.386312
0.381093
0.375738
0.370192
0.364547
0.358759
0.352912
0.347003
0.341094
0.335231
0.329466
0.323885
0.318557
0.313588
0.309076
0.305168
0.30193
0.299543
0.298105
0.297601
0.298105
0.299528
0.301176
0.302712
2.2677
1.01464
0.314863
0.339972
0.403691
0.447168
0.456598
0.453004
0.44785
0.444021
0.442184
0.440868
0.439304
0.437287
0.435011
0.432462
0.429769
0.42684
0.423723
0.4204
0.416875
0.413163
0.409259
0.405177
0.400924
0.396505
0.39194
0.387232
0.382412
0.377489
0.372497
0.367461
0.36242
0.357416
0.352507
0.347744
0.343211
0.338981
0.335154
0.331862
0.329179
0.327333
0.326396
0.326526
0.327934
0.330682
0.334552
0.339657
0.344766
0.348767
2.26939
1.01764
0.31697
0.340238
0.404182
0.448054
0.457752
0.454346
0.449406
0.44574
0.444038
0.442862
0.441445
0.43959
0.437472
0.435123
0.4326
0.429903
0.426997
0.423947
0.420679
0.417294
0.413701
0.410012
0.406141
0.402188
0.398095
0.393938
0.389703
0.38543
0.381163
0.376906
0.372756
0.368703
0.364873
0.361295
0.358076
0.355333
0.353135
0.351706
0.351085
0.351532
0.353226
0.356439
0.361356
0.368099
0.376939
0.387663
0.399402
0.410021
2.27116
1.02079
0.3192
0.340555
0.404765
0.449102
0.459114
0.455926
0.451224
0.447725
0.446161
0.44513
0.443868
0.442182
0.440243
0.438085
0.435773
0.433297
0.430644
0.427858
0.424893
0.421822
0.418601
0.415284
0.411865
0.408356
0.404814
0.401196
0.397621
0.394015
0.39053
0.387104
0.383882
0.380869
0.37816
0.375865
0.374032
0.372877
0.372449
0.372946
0.374605
0.377722
0.382648
0.389519
0.398957
0.411286
0.426998
0.447152
0.471052
0.498655
2.27299
1.02404
0.321486
0.340938
0.405478
0.450365
0.460758
0.457818
0.453385
0.450052
0.448613
0.447717
0.446606
0.445085
0.443327
0.441352
0.439254
0.437009
0.434618
0.432105
0.429465
0.426723
0.423895
0.420973
0.418025
0.415
0.412011
0.408993
0.406069
0.403203
0.400494
0.397973
0.395697
0.393778
0.392251
0.39129
0.390935
0.391363
0.392746
0.395434
0.399634
0.405723
0.413925
0.425084
0.439652
0.459202
0.485142
0.52064
0.571995
0.664981
2.27507
1.02778
0.324011
0.3412
0.406269
0.451951
0.4629
0.460324
0.456252
0.453133
0.451861
0.45118
0.450283
0.449045
0.44752
0.44587
0.444051
0.442168
0.44013
0.438044
0.435833
0.433594
0.431286
0.428965
0.426639
0.424337
0.422095
0.419941
0.41792
0.416085
0.414476
0.413181
0.412255
0.411811
0.411951
0.412722
0.414288
0.417058
0.42125
0.426937
0.434632
0.4446
0.457876
0.474861
0.497657
0.527657
0.569687
0.631233
0.729939
0.881608
2.27729
1.03177
0.327031
0.342154
0.408001
0.454823
0.466492
0.464299
0.460537
0.457482
0.456247
0.455662
0.45492
0.453862
0.452554
0.451128
0.449593
0.448001
0.446328
0.444606
0.442849
0.441064
0.439299
0.437539
0.43586
0.434237
0.432765
0.431426
0.430325
0.429463
0.428961
0.428836
0.429203
0.430088
0.431731
0.434323
0.438035
0.442954
0.449517
0.45784
0.468633
0.482357
0.499851
0.52268
0.551851
0.591409
0.644
0.718141
0.829142
0.967376
2.27859
1.03411
0.328922
0.343212
0.410164
0.458571
0.471218
0.469527
0.466088
0.463061
0.461854
0.461393
0.460814
0.459933
0.458818
0.457596
0.4563
0.454968
0.453597
0.452209
0.450827
0.449464
0.448157
0.446921
0.445802
0.444822
0.444033
0.443473
0.443205
0.443298
0.443758
0.444663
0.446255
0.44867
0.451891
0.456186
0.46162
0.468617
0.477234
0.488208
0.501542
0.518547
0.539274
0.565818
0.599143
0.641779
0.697481
0.767877
0.864335
0.967754
2.27975
1.03624
0.332246
0.346916
0.415034
0.464994
0.478238
0.47642
0.47263
0.469257
0.467977
0.467617
0.467207
0.466496
0.465593
0.464595
0.463592
0.462567
0.461558
0.460546
0.459588
0.458668
0.457849
0.457126
0.456564
0.456176
0.456032
0.456144
0.456561
0.457378
0.458754
0.460733
0.463383
0.466874
0.471267
0.476873
0.483712
0.492295
0.502657
0.515429
0.530931
0.549748
0.572898
0.600754
0.635389
0.6772
0.729015
0.791124
0.869029
0.950214
2.27621
1.02989
0.334425
0.356835
0.427472
0.479842
0.493349
0.490553
0.485556
0.48131
0.479653
0.479099
0.478529
0.477662
0.476602
0.475511
0.474448
0.473426
0.472451
0.471541
0.470716
0.470008
0.469429
0.469032
0.468836
0.468874
0.46914
0.469814
0.470895
0.472498
0.474589
0.477376
0.480823
0.485218
0.490533
0.497115
0.505044
0.514593
0.526148
0.539833
0.55641
0.575964
0.599526
0.627435
0.660639
0.700147
0.746418
0.800841
0.864373
0.929005
2.28216
1.02276
0.35891
0.382386
0.448516
0.498427
0.510349
0.506602
0.500865
0.496485
0.494785
0.494099
0.493403
0.492458
0.491395
0.490322
0.489293
0.488299
0.487364
0.486487
0.485712
0.485041
0.484525
0.48414
0.484014
0.48417
0.484711
0.485574
0.486962
0.488804
0.491352
0.494489
0.498573
0.50343
0.509543
0.516663
0.525426
0.535539
0.547768
0.561916
0.5787
0.598273
0.621116
0.647887
0.678716
0.714692
0.755657
0.802553
0.855783
0.909367
1.87638
0.772113
0.273417
0.344124
0.417697
0.441212
0.441149
0.437178
0.433541
0.433452
0.435635
0.43853
0.441545
0.444596
0.44775
0.451005
0.454337
0.457686
0.461038
0.464359
0.467641
0.470818
0.473971
0.477114
0.48031
0.483488
0.486777
0.490097
0.493713
0.497524
0.501814
0.506511
0.511923
0.518032
0.525127
0.533279
0.542699
0.553658
0.56617
0.580828
0.597392
0.616789
0.638564
0.663888
0.692189
0.724649
0.760671
0.801133
0.845966
0.890734
1.86894
0.77151
0.282336
0.355365
0.42828
0.447764
0.443315
0.435966
0.430301
0.428397
0.428306
0.42871
0.429314
0.430224
0.43158
0.433371
0.435639
0.438257
0.441354
0.444798
0.448693
0.452777
0.457262
0.461927
0.466959
0.472133
0.477664
0.483411
0.489487
0.49583
0.502542
0.509629
0.517171
0.525317
0.534098
0.54385
0.554439
0.566459
0.579644
0.594708
0.611358
0.630331
0.651378
0.675138
0.70148
0.730804
0.763117
0.798273
0.836685
0.874385
1.86799
0.770213
0.284507
0.365107
0.443579
0.463673
0.457513
0.448152
0.441139
0.438394
0.437487
0.436884
0.436294
0.435889
0.435801
0.43607
0.436701
0.437714
0.439257
0.44125
0.44374
0.446683
0.450196
0.454235
0.45886
0.464038
0.469758
0.476041
0.482825
0.490219
0.498086
0.506689
0.515766
0.525727
0.536137
0.547585
0.559637
0.572908
0.587072
0.602747
0.619668
0.638405
0.658815
0.681325
0.70586
0.732683
0.76173
0.792946
0.826584
0.859127
1.86948
0.773509
0.290326
0.367332
0.443652
0.464276
0.459082
0.450582
0.443995
0.441621
0.441138
0.440956
0.440734
0.440622
0.440701
0.441004
0.441594
0.442506
0.443692
0.445179
0.446983
0.449225
0.45187
0.455091
0.458784
0.463177
0.468099
0.473832
0.480115
0.487324
0.495078
0.503848
0.51316
0.523536
0.534551
0.546684
0.559591
0.57369
0.588682
0.604938
0.622296
0.641039
0.661123
0.682777
0.705963
0.730816
0.75728
0.785382
0.815193
0.843857
1.87258
0.780188
0.298025
0.361285
0.429005
0.450264
0.44801
0.441962
0.436344
0.43446
0.434491
0.435019
0.435606
0.436317
0.437208
0.438382
0.439846
0.441532
0.443403
0.445512
0.447859
0.450525
0.453487
0.456862
0.460604
0.464888
0.46961
0.475028
0.480961
0.487743
0.495129
0.503463
0.512507
0.522563
0.533435
0.545356
0.558182
0.572106
0.587042
0.603145
0.620367
0.638845
0.658492
0.67943
0.701557
0.725027
0.749646
0.775377
0.802406
0.828256
1.88116
0.78679
0.300325
0.349064
0.412103
0.441188
0.444188
0.439506
0.434353
0.432059
0.431806
0.432323
0.433039
0.433959
0.435054
0.436389
0.437986
0.439845
0.441961
0.444361
0.44704
0.450052
0.453366
0.457072
0.461114
0.465638
0.470549
0.476057
0.482022
0.488703
0.495953
0.504018
0.512789
0.522453
0.532945
0.544418
0.5568
0.570224
0.584624
0.600118
0.616639
0.634288
0.652992
0.672843
0.693746
0.715732
0.738658
0.762486
0.787309
0.810966
2.2634
1.10661
0.407668
0.399322
0.459446
0.508146
0.519442
0.514543
0.50761
0.501544
0.498009
0.495522
0.493396
0.491368
0.48933
0.487351
0.485619
0.484127
0.482975
0.482128
0.481699
0.481655
0.482111
0.483052
0.484538
0.48661
0.489302
0.492672
0.496717
0.50154
0.507097
0.513524
0.520767
0.528969
0.538064
0.548194
0.559285
0.571455
0.584632
0.598916
0.614212
0.630608
0.64799
0.666402
0.685761
0.706054
0.727184
0.749069
0.771788
0.793402
2.2729
1.12866
0.392208
0.377251
0.450097
0.510855
0.529285
0.528414
0.52419
0.520382
0.518933
0.51855
0.518527
0.51848
0.518056
0.517416
0.516735
0.516095
0.515517
0.515032
0.514657
0.514454
0.514446
0.514712
0.515291
0.51626
0.517655
0.519587
0.522056
0.525204
0.529008
0.533613
0.53899
0.545266
0.552423
0.560548
0.569655
0.579801
0.591006
0.603272
0.616642
0.631063
0.646557
0.663037
0.680463
0.698778
0.71788
0.73768
0.75824
0.77781
2.2978
1.17745
0.434817
0.384116
0.447191
0.50352
0.522027
0.523068
0.521249
0.520067
0.52049
0.521726
0.523524
0.525331
0.526742
0.527944
0.529067
0.530214
0.531359
0.532538
0.533719
0.534959
0.536245
0.537643
0.539148
0.540841
0.542729
0.544898
0.547382
0.550261
0.553584
0.557426
0.561856
0.566939
0.572755
0.579357
0.586817
0.595171
0.604466
0.614729
0.625957
0.638156
0.651324
0.665471
0.680552
0.696547
0.713364
0.730838
0.74906
0.766443
1.90085
0.805175
0.306096
0.316858
0.373972
0.414876
0.429187
0.433043
0.435893
0.439571
0.444527
0.450299
0.456757
0.463277
0.469472
0.475491
0.481469
0.487451
0.493402
0.499301
0.505125
0.510874
0.516543
0.522137
0.527664
0.533131
0.538572
0.543995
0.549457
0.554981
0.560609
0.566415
0.572437
0.578765
0.585432
0.592553
0.600144
0.608329
0.617099
0.626581
0.636744
0.647709
0.65941
0.671929
0.685174
0.699144
0.713776
0.729099
0.745115
0.760429
2.30638
1.1947
0.450282
0.386823
0.440765
0.492338
0.509347
0.509405
0.506249
0.503762
0.502494
0.502303
0.502752
0.503152
0.503475
0.503991
0.504823
0.506116
0.507823
0.510002
0.512589
0.515652
0.51913
0.523077
0.527405
0.53218
0.537279
0.542791
0.548562
0.554702
0.561094
0.567834
0.574818
0.582152
0.589746
0.597721
0.606011
0.614729
0.623833
0.633421
0.643477
0.654072
0.6652
0.676887
0.689144
0.701955
0.715325
0.72917
0.743571
0.757295
2.3117
1.20484
0.433627
0.369855
0.438475
0.500791
0.522287
0.523713
0.521492
0.520017
0.520139
0.521265
0.522988
0.524486
0.525506
0.526347
0.527177
0.528122
0.529196
0.530485
0.531998
0.533816
0.535932
0.538423
0.541283
0.544566
0.548275
0.552438
0.557065
0.562157
0.567726
0.573747
0.580237
0.587161
0.59456
0.602367
0.61064
0.619299
0.628424
0.637924
0.647895
0.65824
0.669067
0.68027
0.691951
0.704004
0.716508
0.729343
0.742621
0.755228
2.31444
1.2107
0.437819
0.371894
0.441616
0.505548
0.52798
0.529682
0.52752
0.526171
0.526643
0.528156
0.530426
0.532616
0.534336
0.53586
0.537386
0.539013
0.540744
0.542602
0.54459
0.546734
0.549057
0.551584
0.554356
0.55739
0.560736
0.564401
0.568444
0.572858
0.577705
0.582967
0.588705
0.594885
0.601561
0.608692
0.616323
0.624409
0.632981
0.642001
0.65148
0.661396
0.671738
0.682492
0.693624
0.705143
0.716984
0.729156
0.741659
0.753545
2.31745
1.2185
0.464292
0.388037
0.447261
0.506442
0.529047
0.532297
0.531424
0.531055
0.531951
0.533877
0.536417
0.538716
0.540745
0.542648
0.544608
0.546648
0.548827
0.551107
0.553539
0.556088
0.558814
0.561685
0.564762
0.568022
0.571524
0.575253
0.579266
0.583554
0.588174
0.593123
0.598447
0.604149
0.610258
0.616778
0.623729
0.631123
0.638957
0.64725
0.655971
0.665148
0.674733
0.684752
0.695141
0.705918
0.717011
0.728419
0.740163
0.75134
1.90571
0.813745
0.325101
0.323668
0.37642
0.414334
0.427265
0.43035
0.432676
0.43605
0.440854
0.446791
0.453545
0.460393
0.467129
0.473812
0.480566
0.487378
0.494257
0.501147
0.508055
0.51494
0.521821
0.528673
0.535519
0.542348
0.549185
0.55603
0.562906
0.569824
0.576803
0.583872
0.591044
0.59836
0.605825
0.613494
0.621361
0.629481
0.637846
0.646494
0.65542
0.664646
0.674162
0.683985
0.694098
0.704503
0.715182
0.726116
0.737366
0.748041
2.31258
1.20986
0.465876
0.403781
0.466429
0.527663
0.549633
0.550565
0.546398
0.542539
0.540308
0.538913
0.538296
0.537881
0.537135
0.536402
0.535833
0.535677
0.535871
0.536564
0.537691
0.539314
0.541411
0.544012
0.54709
0.55066
0.554691
0.5592
0.564137
0.569518
0.575291
0.58146
0.587978
0.59485
0.602041
0.609553
0.617361
0.625464
0.633847
0.642511
0.65145
0.660663
0.670144
0.679892
0.689888
0.700125
0.710586
0.721252
0.732179
0.742545
2.29462
1.17077
0.460998
0.423085
0.486139
0.546597
0.566536
0.566593
0.562866
0.559612
0.558842
0.559233
0.560303
0.561548
0.562404
0.563025
0.563601
0.564242
0.564963
0.565771
0.566681
0.567733
0.56898
0.570458
0.572206
0.574264
0.576651
0.579398
0.582522
0.586044
0.589966
0.594313
0.599084
0.604292
0.60993
0.615997
0.622481
0.629378
0.636669
0.644345
0.652381
0.660765
0.66947
0.678486
0.687802
0.697392
0.707247
0.717337
0.727706
0.737562
1.88792
0.805211
0.341273
0.355491
0.4064
0.443191
0.452956
0.452828
0.451923
0.452803
0.45615
0.460808
0.466373
0.472462
0.478575
0.484718
0.490951
0.497284
0.503668
0.51006
0.516423
0.522748
0.529022
0.535247
0.541417
0.547544
0.553637
0.559723
0.565817
0.571957
0.578163
0.584461
0.590877
0.597438
0.604165
0.611081
0.618203
0.625548
0.633125
0.640946
0.649021
0.657351
0.665943
0.674782
0.683863
0.69318
0.702713
0.712455
0.722444
0.731939
1.874
0.796374
0.339936
0.356762
0.398315
0.426908
0.434815
0.434774
0.433772
0.433262
0.434003
0.435653
0.43822
0.441448
0.444961
0.448823
0.453106
0.457858
0.463046
0.46866
0.474649
0.481001
0.487658
0.494611
0.5018
0.509215
0.516801
0.524552
0.53242
0.540404
0.548467
0.556631
0.564859
0.573181
0.581567
0.590053
0.598618
0.607296
0.61608
0.624977
0.633985
0.64312
0.652386
0.661792
0.671338
0.681031
0.690869
0.700844
0.710998
0.72061
1.88893
0.806214
0.345609
0.373856
0.430963
0.466974
0.473745
0.469696
0.464599
0.461465
0.460493
0.460449
0.461021
0.461971
0.463002
0.464171
0.465604
0.467368
0.469501
0.472014
0.47493
0.478257
0.482027
0.486227
0.490882
0.495967
0.5015
0.50744
0.513799
0.520531
0.527646
0.535088
0.542867
0.550927
0.55927
0.567843
0.576651
0.585645
0.594823
0.604171
0.613687
0.623344
0.633144
0.64306
0.6531
0.663238
0.673486
0.683818
0.694303
0.704196
2.3414
1.12549
0.470111
0.448134
0.51363
0.575421
0.596078
0.595469
0.590146
0.584803
0.58175
0.579803
0.578186
0.576768
0.575176
0.573406
0.571598
0.56985
0.56821
0.566703
0.565357
0.564206
0.563277
0.562618
0.562258
0.562248
0.562601
0.563382
0.564577
0.566229
0.568364
0.570991
0.574132
0.577771
0.581929
0.586582
0.59174
0.597371
0.60348
0.610025
0.617
0.624366
0.632101
0.640202
0.648618
0.657342
0.666327
0.675566
0.685063
0.694122
1.88943
0.807393
0.346711
0.363639
0.415931
0.456217
0.468732
0.469782
0.469269
0.469272
0.471589
0.475137
0.479356
0.484102
0.488947
0.493777
0.498626
0.503559
0.508533
0.513541
0.518524
0.523491
0.528404
0.53329
0.538119
0.542928
0.547695
0.552461
0.557227
0.562025
0.566861
0.571771
0.576749
0.581856
0.587081
0.592485
0.598049
0.603837
0.609819
0.616063
0.622527
0.629272
0.636261
0.643512
0.651008
0.658766
0.66676
0.674992
0.683477
0.691584
1.88916
0.807539
0.348039
0.364718
0.416192
0.454675
0.465132
0.464082
0.461207
0.458641
0.458175
0.459021
0.460601
0.462808
0.465244
0.467853
0.470739
0.473985
0.477596
0.481556
0.48584
0.490428
0.495298
0.500433
0.50581
0.511405
0.517195
0.52316
0.529279
0.535553
0.541957
0.548491
0.555143
0.561903
0.56877
0.575733
0.582802
0.58997
0.59725
0.604633
0.612139
0.619751
0.627496
0.635354
0.643358
0.65148
0.659754
0.668143
0.676717
0.684849
2.34346
1.12926
0.473874
0.45025
0.516927
0.581233
0.603742
0.603858
0.598757
0.593648
0.590822
0.589229
0.588048
0.587145
0.586107
0.584907
0.583646
0.582487
0.581419
0.580534
0.579772
0.579244
0.578885
0.578817
0.578968
0.579448
0.580215
0.581307
0.582743
0.584525
0.586668
0.589162
0.592016
0.595218
0.59878
0.602686
0.606944
0.611529
0.616452
0.621684
0.627231
0.633066
0.63919
0.645579
0.652232
0.659124
0.666256
0.673601
0.681181
0.688423
1.88979
0.808907
0.354087
0.381699
0.439796
0.479826
0.48986
0.488223
0.485195
0.483807
0.485252
0.487951
0.491306
0.495149
0.499071
0.50304
0.507114
0.511349
0.515715
0.520199
0.524758
0.529387
0.534063
0.538785
0.543545
0.548339
0.55317
0.558037
0.562953
0.567918
0.572946
0.578044
0.583222
0.588492
0.593864
0.599346
0.604949
0.610677
0.616542
0.622542
0.628699
0.635004
0.641476
0.648102
0.654899
0.661856
0.668982
0.676258
0.68372
0.690822
1.87511
0.799759
0.351706
0.378357
0.427578
0.459498
0.467181
0.466067
0.464385
0.463657
0.464185
0.46539
0.467289
0.469576
0.471938
0.474436
0.477159
0.480161
0.483446
0.487014
0.490854
0.494958
0.499318
0.503924
0.508769
0.513837
0.519121
0.524602
0.530274
0.536116
0.542125
0.548275
0.554582
0.561012
0.567585
0.574269
0.581087
0.588012
0.595064
0.602218
0.609492
0.616862
0.624346
0.631925
0.639619
0.647405
0.655303
0.663293
0.67143
0.679133
1.87408
0.799356
0.352202
0.375575
0.422444
0.454103
0.462344
0.461901
0.460785
0.460155
0.460423
0.461248
0.462721
0.46455
0.466397
0.468304
0.470368
0.472633
0.475115
0.477817
0.480747
0.483909
0.487313
0.490956
0.49485
0.498986
0.503377
0.508009
0.512893
0.518013
0.523381
0.528975
0.534808
0.540854
0.547123
0.553587
0.560256
0.567101
0.574135
0.581331
0.588702
0.596223
0.603906
0.611722
0.619679
0.627752
0.635966
0.644294
0.652786
0.660841
1.88906
0.809231
0.355513
0.362869
0.413398
0.452168
0.463125
0.462732
0.460947
0.459691
0.459724
0.460531
0.462057
0.46395
0.465773
0.467581
0.469502
0.471596
0.473887
0.476365
0.479041
0.481904
0.484973
0.488234
0.491709
0.495381
0.499274
0.503367
0.507686
0.512209
0.51696
0.521917
0.527105
0.532497
0.538119
0.543941
0.549989
0.556232
0.562695
0.569345
0.576203
0.583236
0.590463
0.597855
0.605438
0.613177
0.621089
0.629138
0.63737
0.645188
2.31301
1.20618
0.486657
0.432016
0.493022
0.557316
0.583384
0.586913
0.584251
0.5815
0.580187
0.579848
0.580304
0.581098
0.581615
0.581878
0.582092
0.582346
0.582705
0.583145
0.583698
0.584338
0.585106
0.585981
0.587007
0.588161
0.589485
0.590957
0.592618
0.594444
0.596476
0.598691
0.601127
0.603761
0.60663
0.609709
0.613032
0.616575
0.62037
0.624391
0.628667
0.633171
0.63793
0.642917
0.648155
0.653615
0.65931
0.665208
0.671349
0.677249
2.3234
1.23062
0.467409
0.405779
0.481829
0.558036
0.589344
0.594092
0.591478
0.588611
0.587607
0.588049
0.58931
0.591098
0.592774
0.594159
0.595477
0.596871
0.598409
0.600069
0.601857
0.60375
0.605765
0.607887
0.610136
0.612498
0.61499
0.617599
0.620342
0.623208
0.626211
0.629344
0.632618
0.636029
0.639586
0.643286
0.647138
0.65114
0.655299
0.659614
0.664092
0.66873
0.673536
0.678508
0.683649
0.688955
0.694425
0.700053
0.705856
0.711402
2.31342
1.20772
0.487907
0.433091
0.494816
0.560356
0.587517
0.591718
0.589683
0.587566
0.586982
0.587632
0.589114
0.591083
0.592877
0.594465
0.596029
0.5977
0.599516
0.601479
0.603576
0.605809
0.608176
0.610683
0.613328
0.61612
0.619052
0.622135
0.62536
0.628738
0.632258
0.635935
0.639753
0.64373
0.647848
0.652125
0.656544
0.661123
0.665843
0.670724
0.675743
0.680924
0.686242
0.69172
0.697333
0.703104
0.709007
0.715062
0.72127
0.727214
1.88891
0.809244
0.356722
0.364526
0.416507
0.457107
0.469234
0.469278
0.46771
0.466697
0.467356
0.468999
0.471489
0.474457
0.477408
0.480396
0.483522
0.48687
0.490429
0.49421
0.498178
0.502348
0.506694
0.511233
0.515937
0.520828
0.525875
0.531099
0.536468
0.542006
0.54768
0.553515
0.559477
0.565594
0.571829
0.578212
0.584706
0.591341
0.59808
0.604956
0.611928
0.619034
0.62623
0.633554
0.640961
0.648492
0.656104
0.663841
0.671695
0.679186
1.87399
0.799957
0.355846
0.380734
0.428633
0.460172
0.467723
0.466572
0.464832
0.463931
0.464143
0.464992
0.46652
0.468396
0.470225
0.472083
0.474047
0.476196
0.478508
0.481018
0.483688
0.486558
0.489592
0.492832
0.496243
0.499866
0.503663
0.507678
0.511867
0.516273
0.520855
0.525652
0.530625
0.53581
0.54117
0.546738
0.552474
0.558414
0.564516
0.570814
0.57727
0.583914
0.590706
0.59768
0.604791
0.612075
0.619486
0.627061
0.63478
0.642149
1.87692
0.803178
0.360031
0.395515
0.451736
0.484762
0.490725
0.487203
0.483008
0.481032
0.481011
0.481803
0.483191
0.48485
0.486433
0.488057
0.489788
0.491707
0.493768
0.496015
0.498396
0.500963
0.503667
0.506563
0.5096
0.512832
0.516211
0.519788
0.523516
0.527442
0.531525
0.535804
0.540242
0.544876
0.549671
0.554661
0.559813
0.565156
0.57066
0.576353
0.582203
0.588239
0.594428
0.600799
0.607316
0.614011
0.620842
0.627842
0.634985
0.64181
1.19192
1.05048
0.49889
0.190747
0.00877308
0.10837
0.158705
0.207289
0.229078
0.233621
0.222215
0.210823
0.200529
0.190939
0.178865
0.164394
0.147066
0.127142
0.10532
0.0821991
0.0583679
0.0347
0.0155535
0.0238459
0.0476492
0.0719975
0.0961522
0.119935
0.143278
0.166216
0.188778
0.210891
0.232584
0.253774
0.273839
0.292988
0.312604
0.333048
0.353097
0.372323
0.390923
0.408984
0.426604
0.443732
0.46042
0.476604
0.49234
0.507562
0.522324
0.536564
0.550326
0.563555
0.576281
0.588451
0.600086
0.611125
0.621591
0.631409
0.640605
0.649094
0.656901
0.66394
0.670227
0.675695
0.680345
0.684134
0.687074
0.689146
0.69039
0.690855
0.690888
0.690662
0.6899
0.688101
0.685266
0.681863
0.678414
0.674898
0.671437
0.668006
0.664785
0.661766
0.659109
0.656772
0.654875
0.65335
0.652274
0.651563
0.651261
0.651253
0.651463
0.651817
0.652447
0.653525
0.654946
0.656465
0.65802
0.659653
0.661249
0.665901
1.12236
1.03699
0.807534
0.550631
0.503748
0.432318
0.381998
0.341094
0.310646
0.292184
0.261345
0.231388
0.211888
0.210176
0.217259
0.227798
0.240272
0.25422
0.269373
0.285283
0.30167
0.318198
0.33455
0.350796
0.367565
0.384621
0.4018
0.418971
0.436079
0.453062
0.469939
0.486619
0.503145
0.519442
0.535129
0.55011
0.565156
0.580959
0.596889
0.612185
0.626982
0.64143
0.655609
0.66947
0.683037
0.696246
0.709142
0.721658
0.733845
0.745644
0.757081
0.768119
0.778754
0.788971
0.798734
0.80805
0.816859
0.825175
0.832932
0.84014
0.846733
0.852711
0.858021
0.862648
0.866562
0.869737
0.872175
0.873853
0.874802
0.875094
0.874999
0.874637
0.873789
0.872048
0.869383
0.866177
0.862851
0.859502
0.85619
0.852983
0.849943
0.847162
0.844684
0.842573
0.840839
0.839504
0.83856
0.837987
0.837791
0.837855
0.838076
0.838437
0.838996
0.839958
0.841177
0.842523
0.843835
0.845217
0.846354
0.850066
1.075
1.07628
1.00887
0.901047
0.832023
0.78221
0.74626
0.716209
0.691439
0.673465
0.658698
0.644579
0.634598
0.629627
0.628195
0.628579
0.63024
0.63282
0.636314
0.640712
0.645888
0.651743
0.658121
0.664997
0.672543
0.680717
0.689456
0.698605
0.708139
0.717924
0.728007
0.738232
0.748707
0.759227
0.769596
0.779517
0.789588
0.800373
0.811746
0.82284
0.83366
0.844294
0.854839
0.865268
0.875588
0.885746
0.895747
0.905547
0.915157
0.924529
0.93368
0.942557
0.951175
0.959478
0.967481
0.97512
0.982411
0.989286
0.995758
1.00175
1.00729
1.01229
1.01677
1.02064
1.02395
1.0266
1.02864
1.03
1.03074
1.03088
1.0307
1.03028
1.02939
1.02776
1.02528
1.02236
1.01923
1.01609
1.01296
1.00999
1.00716
1.00461