/*--------------------------------*- C++ -*----------------------------------*\
| =========                 |                                                 |
| \\      /  F ield         | OpenFOAM: The Open Source CFD Toolbox           |
|  \\    /   O peration     | Version:  2412                                  |
|   \\  /    A nd           | Website:  www.openfoam.com                      |
|    \\/     M anipulation  |                                                 |
\*---------------------------------------------------------------------------*/
FoamFile
{
    version     2.0;
    format      ascii;
    arch        "LSB;label=32;scalar=64";
    class       volScalarField;
    location    "15.5";
    object      p;
}
// * * * * * * * * * * * * * * * * * * * * * * * * * * * * * * * * * * * * * //

dimensions      [1 -1 -2 0 0 0 0];

internalField   nonuniform List<scalar> 
7000
(
1.63883
3.75666
11.4555
11.5283
11.0978
10.6883
10.5695
10.5841
10.6251
10.6648
10.6866
10.7003
10.7147
10.7324
10.7526
10.7748
10.7985
10.8238
10.8509
10.8798
10.9106
10.9431
10.9775
11.0138
11.0519
11.0918
11.1336
11.1771
11.2224
11.2693
11.3179
11.3679
11.4192
11.4717
11.5251
11.5792
11.6338
11.6883
11.7425
11.7958
11.8477
11.8977
11.9451
11.9893
12.0295
12.0651
12.0954
12.1198
12.1375
12.1504
1.63914
3.75537
11.455
11.5277
11.0973
10.6879
10.5692
10.5838
10.6248
10.6644
10.6861
10.6998
10.7142
10.7318
10.7521
10.7742
10.7979
10.8232
10.8503
10.8792
10.9099
10.9424
10.9768
11.013
11.051
11.0909
11.1327
11.1762
11.2214
11.2683
11.3168
11.3668
11.4181
11.4705
11.524
11.5781
11.6326
11.6871
11.7413
11.7947
11.8466
11.8967
11.9442
11.9885
12.0288
12.0645
12.0949
12.1195
12.1372
12.1502
1.63903
3.75444
11.4531
11.5268
11.0966
10.6872
10.5685
10.5831
10.6239
10.6635
10.6851
10.6988
10.7132
10.7307
10.7509
10.773
10.7966
10.8219
10.8489
10.8776
10.9083
10.9407
10.975
11.0111
11.0491
11.0889
11.1305
11.1738
11.2189
11.2657
11.3141
11.3639
11.4151
11.4674
11.5206
11.5746
11.629
11.6834
11.7375
11.7907
11.8426
11.8926
11.9401
11.9843
12.0246
12.0604
12.0908
12.1154
12.133
12.1459
1.6389
3.75315
11.4498
11.5257
11.0957
10.6861
10.5673
10.5819
10.6226
10.662
10.6836
10.6971
10.7114
10.7289
10.7491
10.771
10.7945
10.8197
10.8466
10.8752
10.9057
10.938
10.9721
11.0081
11.0459
11.0855
11.1269
11.1701
11.215
11.2616
11.3097
11.3593
11.4102
11.4623
11.5153
11.569
11.6231
11.6773
11.7312
11.7843
11.836
11.8859
11.9332
11.9774
12.0176
12.0534
12.0838
12.1083
12.1258
12.1387
1.63873
3.75127
11.445
11.5243
11.0944
10.6845
10.5656
10.5801
10.6208
10.66
10.6814
10.6948
10.709
10.7264
10.7464
10.7682
10.7916
10.8166
10.8433
10.8718
10.9021
10.9342
10.9681
11.0039
11.0414
11.0808
11.1219
11.1648
11.2094
11.2556
11.3034
11.3527
11.4032
11.4549
11.5076
11.5609
11.6147
11.6685
11.7221
11.7749
11.8263
11.876
11.9231
11.9672
12.0074
12.0431
12.0735
12.0981
12.1155
12.1284
1.63851
3.74874
11.4387
11.5225
11.0927
10.6824
10.5633
10.5778
10.6183
10.6573
10.6785
10.6918
10.7059
10.7231
10.7429
10.7645
10.7877
10.8125
10.839
10.8673
10.8973
10.9292
10.9628
10.9982
11.0355
11.0745
11.1153
11.1578
11.202
11.2478
11.2951
11.3439
11.3939
11.4451
11.4973
11.5501
11.6034
11.6567
11.7098
11.7621
11.8132
11.8626
11.9094
11.9533
11.9934
12.029
12.0594
12.084
12.1014
12.1144
1.63824
3.74551
11.4308
11.5203
11.0907
10.6797
10.5604
10.5748
10.6152
10.6539
10.6749
10.688
10.7018
10.7188
10.7384
10.7598
10.7828
10.8073
10.8336
10.8615
10.8913
10.9228
10.9561
10.9911
11.0279
11.0665
11.1068
11.1488
11.1925
11.2377
11.2845
11.3326
11.3821
11.4326
11.4841
11.5362
11.5888
11.6415
11.694
11.7457
11.7963
11.8451
11.8916
11.9352
11.975
12.0105
12.0408
12.0655
12.0829
12.0961
1.63792
3.74151
11.4211
11.5175
11.0882
10.6765
10.5568
10.5711
10.6113
10.6497
10.6704
10.6832
10.6969
10.7136
10.733
10.7541
10.7767
10.8009
10.8268
10.8545
10.8838
10.9149
10.9477
10.9823
11.0186
11.0566
11.0964
11.1378
11.1807
11.2253
11.2713
11.3187
11.3673
11.4171
11.4677
11.519
11.5707
11.6226
11.6742
11.7251
11.775
11.8232
11.8691
11.9122
11.9517
11.9869
12.0172
12.0418
12.0593
12.0727
1.63755
3.73669
11.4095
11.5142
11.0852
10.6727
10.5525
10.5667
10.6065
10.6446
10.665
10.6775
10.6909
10.7073
10.7264
10.7471
10.7694
10.7933
10.8187
10.8459
10.8748
10.9054
10.9377
10.9717
11.0074
11.0448
11.0838
11.1244
11.1666
11.2103
11.2554
11.3019
11.3495
11.3982
11.4478
11.498
11.5486
11.5994
11.6499
11.6999
11.7487
11.796
11.8411
11.8836
11.9226
11.9575
11.9875
12.0122
12.0296
12.0434
1.63712
3.73101
11.3959
11.5104
11.0816
10.6681
10.5474
10.5614
10.6008
10.6386
10.6586
10.6708
10.6838
10.6999
10.7185
10.7389
10.7608
10.7841
10.8092
10.8358
10.8642
10.8942
10.9258
10.9591
10.9941
11.0307
11.0688
11.1086
11.1498
11.1925
11.2365
11.2818
11.3282
11.3757
11.424
11.4729
11.5221
11.5715
11.6207
11.6693
11.7168
11.763
11.807
11.8485
11.8868
11.9211
11.9508
11.9754
11.9928
12.0069
1.63663
3.72442
11.3802
11.5059
11.0775
10.6629
10.5414
10.5551
10.5942
10.6315
10.651
10.6628
10.6755
10.6911
10.7093
10.7292
10.7506
10.7735
10.7979
10.824
10.8517
10.881
10.9119
10.9444
10.9785
11.0142
11.0513
11.09
11.1301
11.1716
11.2143
11.2582
11.3033
11.3492
11.3959
11.4431
11.4907
11.5384
11.5858
11.6327
11.6786
11.7231
11.7657
11.8059
11.843
11.8765
11.9055
11.9298
11.9472
11.9618
1.63608
3.71687
11.3621
11.5007
11.0728
10.6568
10.5344
10.5479
10.5864
10.6232
10.6423
10.6537
10.6658
10.681
10.6987
10.7181
10.7389
10.7611
10.7849
10.8103
10.8373
10.8658
10.8958
10.9274
10.9605
10.9951
11.0311
11.0685
11.1073
11.1473
11.1886
11.2309
11.2742
11.3183
11.3631
11.4084
11.4539
11.4995
11.5447
11.5894
11.6331
11.6755
11.716
11.7543
11.7897
11.8219
11.8499
11.8737
11.8908
11.9058
1.63546
3.70833
11.3418
11.4948
11.0674
10.6499
10.5264
10.5396
10.5775
10.6137
10.6322
10.6431
10.6547
10.6693
10.6864
10.7052
10.7254
10.747
10.77
10.7946
10.8207
10.8483
10.8774
10.9079
10.9398
10.9732
11.0079
11.0439
11.0811
11.1195
11.159
11.1994
11.2407
11.2827
11.3252
11.3681
11.4111
11.4541
11.4966
11.5385
11.5793
11.6188
11.6566
11.6922
11.7252
11.7551
11.7814
11.804
11.8206
11.8362
1.63479
3.69874
11.3191
11.4881
11.0612
10.6422
10.5173
10.5301
10.5673
10.6028
10.6207
10.631
10.642
10.656
10.6725
10.6906
10.71
10.7308
10.7531
10.7768
10.8019
10.8285
10.8564
10.8858
10.9164
10.9483
10.9815
11.0159
11.0513
11.0878
11.1252
11.1635
11.2024
11.2419
11.2818
11.3218
11.3618
11.4015
11.4406
11.479
11.5161
11.5518
11.5857
11.6175
11.6468
11.6734
11.6969
11.7174
11.7327
11.7486
1.63406
3.68809
11.294
11.4804
11.0543
10.6335
10.5071
10.5194
10.5556
10.5903
10.6076
10.6173
10.6276
10.641
10.6567
10.674
10.6926
10.7126
10.7339
10.7566
10.7807
10.8061
10.8328
10.8608
10.8899
10.9203
10.9517
10.9842
11.0177
11.052
11.0871
11.1228
11.159
11.1956
11.2323
11.2689
11.3052
11.341
11.376
11.4098
11.4422
11.4729
11.5015
11.5278
11.5516
11.5727
11.5913
11.608
11.6208
11.637
1.63327
3.67647
11.2665
11.472
11.0466
10.6238
10.4955
10.5072
10.5424
10.5762
10.5928
10.6017
10.6114
10.6239
10.6389
10.6554
10.6731
10.6921
10.7124
10.734
10.7569
10.781
10.8063
10.8328
10.8603
10.8889
10.9184
10.9488
10.98
11.0119
11.0443
11.0771
11.1102
11.1433
11.1763
11.2089
11.2409
11.272
11.3018
11.33
11.3562
11.3802
11.4016
11.4202
11.4358
11.4486
11.4591
11.4685
11.4757
11.4906
1.63241
3.6639
11.2367
11.4629
11.0382
10.613
10.4825
10.4935
10.5274
10.5603
10.5761
10.5843
10.5931
10.6048
10.6189
10.6345
10.6513
10.6692
10.6884
10.7088
10.7304
10.7531
10.7768
10.8016
10.8273
10.8539
10.8813
10.9094
10.938
10.9671
10.9965
11.0261
11.0556
11.0848
11.1135
11.1415
11.1683
11.1937
11.2171
11.2384
11.2568
11.2721
11.2837
11.2913
11.2945
11.2938
11.2903
11.286
11.282
11.2927
1.63151
3.65049
11.2047
11.4531
11.029
10.601
10.4678
10.4781
10.5104
10.5422
10.5572
10.5646
10.5726
10.5834
10.5966
10.6112
10.6269
10.6438
10.6617
10.6808
10.701
10.7221
10.7442
10.7671
10.7908
10.8152
10.8402
10.8657
10.8915
10.9176
10.9436
10.9695
10.995
11.0198
11.0436
11.0661
11.0869
11.1055
11.1214
11.134
11.1428
11.1466
11.145
11.138
11.123
11.1011
11.0733
11.0425
11.0123
11.0085
1.63057
3.63644
11.1712
11.4426
11.0191
10.5877
10.4514
10.4607
10.4913
10.522
10.5362
10.5427
10.5499
10.5598
10.5719
10.5855
10.6001
10.6157
10.6323
10.65
10.6686
10.688
10.7083
10.7292
10.7507
10.7727
10.7951
10.8178
10.8405
10.8631
10.8855
10.9073
10.9282
10.948
10.9663
10.9827
10.9965
11.0073
11.0143
11.0162
11.0133
11.0038
10.9843
10.9552
10.9144
10.8601
10.7909
10.7089
10.6184
10.5629
1.62961
3.62201
11.1369
11.4314
11.0082
10.5728
10.4327
10.4408
10.4694
10.4989
10.5122
10.518
10.5242
10.5332
10.5443
10.5568
10.5702
10.5846
10.5999
10.616
10.6329
10.6506
10.6688
10.6876
10.7067
10.7262
10.7457
10.7653
10.7846
10.8035
10.8218
10.8391
10.855
10.8693
10.8814
10.8908
10.8969
10.8983
10.8955
10.8865
10.8679
10.8396
10.7988
10.7425
10.6657
10.5626
10.4247
10.2437
10.0099
9.75546
1.62882
3.60362
11.0962
11.4181
10.9945
10.5534
10.4078
10.4144
10.4401
10.4683
10.4809
10.4857
10.4908
10.4985
10.5083
10.5194
10.5313
10.5441
10.5576
10.5718
10.5866
10.6019
10.6176
10.6336
10.6498
10.666
10.682
10.6976
10.7126
10.7268
10.7399
10.7514
10.761
10.7683
10.7723
10.7722
10.7692
10.7603
10.7422
10.7154
10.6776
10.6255
10.5548
10.4586
10.3277
10.1453
9.88229
9.4771
8.77881
7.25665
1.62802
3.58405
11.0529
11.4008
10.9753
10.5251
10.3715
10.3761
10.3986
10.426
10.4384
10.4428
10.4469
10.4534
10.4619
10.4716
10.482
10.4929
10.5044
10.5164
10.5288
10.5414
10.5541
10.5668
10.5794
10.5916
10.6033
10.6143
10.6242
10.6327
10.6395
10.6443
10.646
10.645
10.6407
10.6306
10.6135
10.589
10.5553
10.5096
10.449
10.3687
10.2623
10.12
9.92689
9.65921
9.2754
8.7065
7.86421
6.47782
1.62756
3.57265
11.0278
11.3891
10.9597
10.4967
10.3323
10.3344
10.3532
10.3803
10.3928
10.3965
10.3995
10.4047
10.4118
10.42
10.4287
10.4378
10.4472
10.4568
10.4666
10.4765
10.4861
10.4955
10.5044
10.5126
10.5199
10.526
10.5306
10.5333
10.5334
10.5318
10.5269
10.5165
10.501
10.4796
10.4505
10.4123
10.3627
10.2986
10.2161
10.1103
9.97295
9.79419
9.55888
9.2457
8.82546
8.2579
7.52602
6.55296
1.62692
3.56338
11.0043
11.3677
10.9316
10.4511
10.2772
10.2793
10.2996
10.3302
10.3441
10.3476
10.3497
10.3539
10.36
10.367
10.3742
10.3815
10.3888
10.3962
10.4034
10.4104
10.4169
10.4229
10.4281
10.4323
10.4352
10.4364
10.4359
10.4337
10.4283
10.4187
10.4052
10.3868
10.3625
10.3312
10.2912
10.2407
10.1772
10.0978
9.99831
9.87373
9.71723
9.52002
9.27094
8.95619
8.56113
8.07002
7.48955
6.76032
1.62761
3.59766
11.0654
11.3649
10.9041
10.3854
10.2001
10.2053
10.2335
10.2712
10.2876
10.2911
10.2928
10.2963
10.3019
10.3079
10.3139
10.3197
10.3253
10.3307
10.3356
10.34
10.3438
10.3467
10.3485
10.3489
10.3481
10.3457
10.3404
10.3321
10.3206
10.3052
10.2852
10.2599
10.228
10.1882
10.1391
10.0787
10.0048
9.91443
9.80415
9.66955
9.50532
9.30515
9.06176
8.76739
8.4148
7.99681
7.51583
6.96463
1.58987
3.70804
11.0699
11.2737
10.8233
10.3038
10.1308
10.1408
10.1773
10.2172
10.2336
10.2373
10.2393
10.2429
10.2476
10.2524
10.2568
10.2608
10.2643
10.2673
10.2696
10.2712
10.2719
10.2717
10.2704
10.2674
10.262
10.2547
10.2447
10.2317
10.2151
10.1944
10.1687
10.1372
10.0989
10.0523
9.99622
9.92873
9.84784
9.75108
9.63553
9.49777
9.33394
9.1397
8.91062
8.64223
8.33118
7.97478
7.57514
7.1274
1.55484
4.81552
11.2209
10.9519
10.3116
10.0545
10.0498
10.0763
10.1237
10.1502
10.1598
10.164
10.1682
10.1732
10.1782
10.1827
10.1865
10.1895
10.1918
10.1933
10.1937
10.1935
10.1924
10.1897
10.1851
10.179
10.1712
10.161
10.1478
10.1312
10.1106
10.0855
10.0552
10.0189
9.97553
9.92406
9.86318
9.79131
9.70667
9.60723
9.4907
9.3545
9.1959
9.01201
8.80012
8.55778
8.28357
7.97744
7.64068
7.26609
1.55569
4.82241
11.1704
10.8826
10.2389
9.99931
10.0093
10.0516
10.1
10.1217
10.1277
10.1302
10.1332
10.1363
10.1388
10.1403
10.1409
10.1408
10.14
10.138
10.1348
10.1308
10.1258
10.1194
10.1113
10.1013
10.089
10.0742
10.0565
10.0356
10.0111
9.98238
9.94855
9.90859
9.86156
9.80661
9.74252
9.66805
9.58181
9.48216
9.36735
9.23549
9.08466
8.91293
8.71866
8.50044
8.25755
7.9895
7.70257
7.38643
1.5658
4.84143
11.2327
10.9021
10.1824
9.92177
9.93672
9.9912
10.0485
10.0729
10.0793
10.0819
10.0852
10.0885
10.0908
10.0917
10.0915
10.0905
10.0879
10.0836
10.0784
10.072
10.0642
10.0547
10.0434
10.0301
10.0144
9.99617
9.97509
9.95072
9.92241
9.88952
9.85148
9.80788
9.75799
9.70078
9.63533
9.56019
9.47419
9.37605
9.26459
9.13836
8.99617
8.83667
8.65893
8.46225
8.24692
8.01275
7.7636
7.49313
1.55607
4.81952
11.1564
10.8501
10.1582
9.89681
9.90873
9.95774
10.0139
10.0381
10.0437
10.0452
10.0471
10.0489
10.0495
10.0491
10.0474
10.0438
10.0389
10.0329
10.0257
10.0172
10.007
9.99503
9.98109
9.96498
9.94642
9.92522
9.90097
9.87338
9.84189
9.8061
9.76553
9.71946
9.66728
9.60806
9.54108
9.46554
9.38062
9.28524
9.17847
9.05909
8.92608
8.77863
8.61642
8.4394
8.24777
8.04091
7.82246
7.58767
1.52681
4.76184
10.9484
10.725
10.1494
9.90123
9.90199
9.93115
9.97977
10.0031
10.0088
10.0095
10.0101
10.0103
10.0098
10.008
10.0043
9.99907
9.99275
9.98526
9.97633
9.96584
9.95359
9.93947
9.92326
9.90485
9.88391
9.86029
9.83356
9.80348
9.76965
9.73165
9.689
9.64115
9.58758
9.52763
9.46066
9.38595
9.30279
9.21036
9.10785
8.99467
8.87034
8.73439
8.58632
8.42582
8.253
8.07001
7.87726
7.67124
1.51067
4.71622
10.8646
10.7298
10.2326
9.93973
9.88761
9.90588
9.94524
9.96933
9.97606
9.97576
9.97455
9.97218
9.96921
9.96531
9.96014
9.95369
9.94595
9.93688
9.92629
9.9141
9.90012
9.88428
9.86633
9.84614
9.82339
9.79796
9.76945
9.73762
9.70214
9.66262
9.61874
9.56997
9.51583
9.45582
9.38947
9.3162
9.23545
9.14658
9.04906
8.94239
8.82619
8.70014
8.5641
8.41818
8.2627
8.09834
7.92633
7.7437
1.6678
3.29075
10.5014
11.0108
10.5954
10.0755
9.88716
9.89107
9.91624
9.94927
9.95996
9.95878
9.95479
9.94837
9.94246
9.93645
9.92947
9.92113
9.9114
9.90023
9.88757
9.87327
9.85715
9.83924
9.81926
9.79702
9.77224
9.7448
9.71436
9.68075
9.6436
9.6026
9.55738
9.50758
9.45281
9.39271
9.32695
9.25507
9.17664
9.09124
8.99837
8.89772
8.78905
8.6721
8.54687
8.41348
8.27226
8.12368
7.96893
7.8055
1.67566
3.1667
10.4344
11.1628
10.7145
10.1103
9.86523
9.85223
9.86994
9.9021
9.91251
9.91063
9.90459
9.89519
9.8875
9.88092
9.87391
9.86563
9.85589
9.84466
9.83189
9.81746
9.80121
9.78297
9.7626
9.73991
9.71465
9.68667
9.65567
9.62147
9.58382
9.54249
9.4972
9.44769
9.3937
9.33484
9.27069
9.2009
9.12518
9.04311
8.95441
8.85895
8.75672
8.64784
8.53217
8.40974
8.28077
8.14568
8.00545
7.85797
1.64095
3.05177
9.90486
11.0061
10.6466
10.1075
9.88413
9.86316
9.87412
9.89244
9.89409
9.89013
9.87996
9.86655
9.85532
9.84557
9.83572
9.8249
9.81286
9.79956
9.78492
9.76881
9.75106
9.73149
9.70993
9.68621
9.66012
9.63141
9.59984
9.56522
9.52737
9.48606
9.44103
9.39202
9.33876
9.28095
9.21832
9.15059
9.07754
8.99905
8.91505
8.82531
8.72963
8.62785
8.51988
8.40602
8.28714
8.16361
8.03588
7.90199
1.43515
4.54771
10.3301
10.5087
10.2166
9.92219
9.81423
9.8116
9.81987
9.83038
9.83029
9.82675
9.8177
9.80571
9.79544
9.78627
9.77674
9.76608
9.75412
9.74087
9.72626
9.71013
9.69234
9.67272
9.65112
9.62737
9.6013
9.57266
9.54129
9.5071
9.46982
9.4292
9.38506
9.33717
9.28531
9.22925
9.16878
9.10371
9.03388
8.95915
8.87941
8.79452
8.70442
8.60911
8.50898
8.40419
8.29462
8.18042
8.06264
7.93982
1.6332
3.00012
9.71866
10.8931
10.579
10.0787
9.85902
9.82462
9.82994
9.83638
9.83361
9.82443
9.80772
9.79189
9.77825
9.76565
9.75277
9.73888
9.72381
9.70766
9.69042
9.67188
9.65185
9.63017
9.60666
9.58121
9.55365
9.52394
9.4919
9.45721
9.41967
9.37909
9.3353
9.28816
9.23744
9.18292
9.12442
9.06177
8.99485
8.92353
8.84771
8.76738
8.68253
8.59319
8.49952
8.40165
8.29973
8.19412
8.08543
7.9724
1.64204
2.93148
9.71878
11.0184
10.6377
10.0463
9.78867
9.75498
9.76511
9.78077
9.77968
9.77254
9.75658
9.73947
9.72561
9.71346
9.70118
9.68807
9.67391
9.65849
9.64168
9.62342
9.60362
9.58215
9.5589
9.53371
9.50642
9.47691
9.44503
9.4106
9.37348
9.33354
9.29058
9.24441
9.19487
9.14186
9.08526
9.02495
8.96082
8.89279
8.82079
8.74477
8.66473
8.58073
8.49285
8.40122
8.30605
8.20779
8.10685
8.00199
1.64034
2.91208
9.66397
10.9968
10.6126
10.006
9.73886
9.70353
9.71466
9.73301
9.73252
9.7263
9.71135
9.69374
9.67962
9.66755
9.65545
9.64238
9.62809
9.61252
9.5956
9.57727
9.55743
9.53596
9.51272
9.48759
9.46045
9.43115
9.39959
9.36561
9.3291
9.2899
9.24789
9.20291
9.15484
9.10356
9.04901
8.9911
8.92973
8.86485
8.79641
8.72436
8.64874
8.56959
8.48704
8.40123
8.31223
8.22038
8.12616
8.02842
1.62594
2.92038
9.49493
10.8554
10.5463
9.99492
9.73895
9.69089
9.69558
9.70389
9.70158
9.69307
9.67589
9.65917
9.64485
9.63176
9.61855
9.6045
9.58938
9.57313
9.55566
9.53687
9.51665
9.49487
9.47142
9.44617
9.41901
9.38982
9.35848
9.32488
9.28887
9.25034
9.20918
9.16531
9.11864
9.0691
9.01655
8.96092
8.90213
8.84017
8.77501
8.70661
8.63501
8.56026
8.48246
8.40173
8.31831
8.23229
8.14398
8.05234
1.393
4.47996
10.0268
10.2992
10.0191
9.73179
9.62392
9.61471
9.62011
9.62674
9.6257
9.62055
9.60932
9.59664
9.58521
9.57439
9.56306
9.55063
9.53692
9.52187
9.50546
9.48762
9.46828
9.44736
9.42475
9.40034
9.37403
9.34572
9.31534
9.28278
9.24794
9.21072
9.17103
9.12879
9.08392
9.03634
8.98597
8.93273
8.87661
8.81757
8.75563
8.69081
8.62309
8.5525
8.4791
8.40296
8.32432
8.24323
8.16006
8.07382
1.63113
2.94391
9.58172
10.8382
10.4951
9.90594
9.6319
9.58931
9.59959
9.62009
9.62174
9.61709
9.60474
9.58746
9.57256
9.55946
9.54626
9.53201
9.51646
9.49956
9.48144
9.46192
9.44103
9.41877
9.39507
9.36979
9.34278
9.31395
9.28319
9.2504
9.21557
9.17866
9.1396
9.09827
9.0546
9.00848
8.95987
8.90871
8.85494
8.79848
8.73933
8.67748
8.61297
8.54585
8.47622
8.4042
8.32989
8.25338
8.17489
8.09351
1.64129
3.07367
9.85494
10.7697
10.3882
9.77573
9.51332
9.49295
9.51027
9.5432
9.5528
9.55017
9.5419
9.52776
9.51534
9.50452
9.4935
9.48124
9.46752
9.45242
9.43611
9.4185
9.39938
9.37864
9.35617
9.33196
9.306
9.27824
9.24861
9.21709
9.18361
9.14806
9.11037
9.07047
9.0283
8.9838
8.93694
8.88767
8.83597
8.78181
8.72522
8.66623
8.60486
8.54107
8.47494
8.40654
8.33596
8.26332
8.18883
8.11162
1.40298
4.54373
10.0945
10.1527
9.84755
9.54061
9.44112
9.44642
9.4658
9.48589
9.49175
9.49029
9.48538
9.47605
9.46681
9.45783
9.44813
9.4371
9.42458
9.41061
9.39521
9.37834
9.3599
9.33985
9.31813
9.29473
9.26962
9.24275
9.21404
9.18346
9.15099
9.11658
9.08017
9.0417
9.00111
8.95836
8.91341
8.86622
8.81679
8.76508
8.71109
8.65482
8.5963
8.53563
8.4728
8.4079
8.34097
8.27207
8.20138
8.12808
1.38682
4.55351
9.99064
10.018
9.77717
9.54558
9.46339
9.4608
9.46699
9.47649
9.47829
9.47626
9.47042
9.4605
9.45029
9.43995
9.42882
9.41649
9.40288
9.38796
9.37176
9.35423
9.33532
9.31497
9.29313
9.26974
9.24475
9.21813
9.18984
9.15983
9.12799
9.0943
9.05867
9.02108
8.98148
8.93984
8.89611
8.85024
8.80234
8.75245
8.70053
8.64652
8.59043
8.53227
8.47209
8.40989
8.34578
8.27986
8.2123
8.14233
1.42008
4.56681
10.2027
10.1744
9.79286
9.45739
9.36381
9.37572
9.40692
9.43158
9.4387
9.43739
9.43293
9.42447
9.41563
9.40661
9.39673
9.38552
9.37285
9.35872
9.34315
9.3261
9.30758
9.28757
9.26607
9.24302
9.21839
9.19216
9.16431
9.1348
9.10356
9.07055
9.03573
8.99911
8.96066
8.92037
8.87823
8.83425
8.78832
8.74036
8.6904
8.63849
8.58466
8.52892
8.47129
8.41181
8.35054
8.28754
8.22289
8.1558
1.53167
3.34821
9.87615
10.7009
10.3142
9.67141
9.38702
9.361
9.37866
9.41462
9.42899
9.42802
9.42351
9.41395
9.40359
9.39366
9.3833
9.37174
9.35873
9.34429
9.32845
9.31125
9.29265
9.27259
9.25104
9.22797
9.20328
9.17696
9.14912
9.11966
9.08851
9.05565
9.02112
8.9849
8.94695
8.90727
8.86585
8.82265
8.77766
8.73086
8.68229
8.63197
8.57979
8.52581
8.47012
8.41277
8.3538
8.29327
8.23127
8.16712
1.39508
4.53194
10.0551
10.0873
9.78508
9.46036
9.33844
9.33687
9.3483
9.3699
9.37891
9.37829
9.37495
9.36757
9.35873
9.35007
9.34098
9.33074
9.31905
9.3059
9.29133
9.27535
9.25792
9.23902
9.21861
9.19666
9.17313
9.14804
9.1214
9.0932
9.06341
9.03204
8.99902
8.96431
8.92787
8.8897
8.84979
8.80815
8.76476
8.71962
8.67273
8.62408
8.57379
8.52189
8.46836
8.41323
8.35655
8.29837
8.23882
8.17736
1.39243
4.52903
10.0374
10.0743
9.76832
9.44086
9.32071
9.32102
9.33362
9.3565
9.36606
9.36525
9.36135
9.35303
9.34347
9.33408
9.32422
9.31323
9.30084
9.28706
9.27196
9.25555
9.23783
9.21875
9.19832
9.17648
9.15326
9.12863
9.10248
9.07476
9.04546
9.01455
8.98206
8.948
8.91237
8.87516
8.83632
8.79584
8.75373
8.70997
8.66458
8.61757
8.56897
8.51879
8.46705
8.41377
8.35899
8.30275
8.24513
8.18566
1.52983
3.3359
9.83579
10.6812
10.2962
9.63113
9.3266
9.29057
9.30713
9.34204
9.35752
9.35672
9.35233
9.34278
9.33208
9.32222
9.31227
9.30133
9.28903
9.27536
9.26036
9.24404
9.22639
9.2074
9.187
9.16512
9.14193
9.11728
9.09114
9.06349
9.03434
9.00365
8.97148
8.93781
8.90263
8.86591
8.82766
8.78787
8.74653
8.70365
8.65923
8.61329
8.56583
8.51689
8.46646
8.41462
8.36136
8.30675
8.25088
8.19334
1.40646
4.54559
10.1073
10.0827
9.69976
9.34686
9.23628
9.24549
9.2748
9.30405
9.31393
9.3131
9.3094
9.30166
9.29315
9.28479
9.27588
9.26582
9.25439
9.2416
9.2275
9.21211
9.19541
9.17738
9.15799
9.13722
9.11507
9.09152
9.06653
9.04008
9.01215
8.98279
8.95198
8.91968
8.88589
8.85058
8.81377
8.77546
8.73565
8.69433
8.65146
8.60707
8.56118
8.5138
8.46499
8.41473
8.36306
8.31006
8.25582
8.19993
1.3913
4.5535
9.99619
9.97167
9.66112
9.38116
9.29253
9.29554
9.30775
9.31877
9.31952
9.31711
9.31068
9.3008
9.29094
9.28116
9.27077
9.25936
9.2468
9.23306
9.21815
9.20209
9.18484
9.16639
9.1467
9.12575
9.10352
9.07998
9.05513
9.02894
9.00142
8.9725
8.94214
8.91033
8.87708
8.84235
8.80615
8.76848
8.72934
8.68877
8.64676
8.60334
8.55848
8.51219
8.46451
8.41543
8.36501
8.31324
8.26015
8.20531
1.38329
4.54584
9.94741
9.93728
9.651
9.37981
9.28749
9.28676
9.29294
9.3008
9.30103
9.29886
9.29289
9.2832
9.27345
9.26381
9.2536
9.24244
9.23019
9.21684
9.20239
9.18679
9.17001
9.15202
9.1328
9.11233
9.09058
9.06754
9.04318
9.01749
8.99045
8.96203
8.93222
8.90102
8.86842
8.83442
8.79902
8.76221
8.72398
8.68431
8.64322
8.60071
8.55678
8.51146
8.46479
8.41682
8.3675
8.3168
8.26478
8.21095
1.37531
4.507
9.90696
10.0224
9.72304
9.39575
9.2746
9.27053
9.27915
9.29163
9.29391
9.29164
9.28515
9.27432
9.26379
9.2538
9.24346
9.23219
9.2198
9.20629
9.19167
9.17592
9.15903
9.14097
9.12172
9.10125
9.07955
9.05661
9.0324
9.0069
8.9801
8.95199
8.92254
8.89176
8.85961
8.82611
8.79123
8.75498
8.71735
8.67834
8.63795
8.59621
8.55313
8.50874
8.46298
8.41586
8.36742
8.3177
8.26676
8.21421
1.62571
2.96382
9.50643
10.6103
10.2671
9.64092
9.33079
9.26456
9.27211
9.29036
9.29805
9.2959
9.28858
9.27444
9.26142
9.25025
9.23952
9.22812
9.21561
9.20197
9.18724
9.17143
9.15452
9.13648
9.11728
9.0969
9.0753
9.05248
9.0284
9.00306
8.97643
8.9485
8.91926
8.8887
8.8568
8.82355
8.78896
8.75302
8.71573
8.67708
8.6371
8.59578
8.55313
8.50918
8.46392
8.41738
8.36962
8.32072
8.27071
8.21931
1.63493
2.84781
9.46679
10.8152
10.4101
9.67089
9.30255
9.22389
9.23439
9.26037
9.27533
9.27423
9.26832
9.25531
9.24131
9.22983
9.21953
9.20876
9.19684
9.18368
9.16938
9.154
9.13754
9.11995
9.10122
9.08132
9.06022
9.03791
9.01437
8.98958
8.96353
8.93619
8.90757
8.87765
8.8464
8.81384
8.77995
8.74473
8.70818
8.6703
8.63108
8.59054
8.54869
8.50551
8.46104
8.41531
8.36835
8.32022
8.27099
8.2204
1.62607
2.95683
9.49081
10.6006
10.2575
9.62464
9.30634
9.23825
9.24661
9.26727
9.27775
9.27598
9.26915
9.25511
9.24138
9.22978
9.21896
9.20761
9.1952
9.18165
9.16705
9.15142
9.13475
9.11702
9.09818
9.07821
9.05709
9.03479
9.0113
8.9866
8.96066
8.93348
8.90503
8.87531
8.84431
8.812
8.77839
8.74347
8.70724
8.6697
8.63084
8.59068
8.54922
8.50647
8.46244
8.41715
8.37063
8.32289
8.274
8.22356
1.37216
4.5037
9.88703
10.0021
9.69867
9.35717
9.22861
9.22415
9.23369
9.2484
9.25174
9.24961
9.24332
9.23259
9.22219
9.21242
9.20239
9.1915
9.17954
9.16651
9.15244
9.13735
9.1212
9.10398
9.08566
9.06621
9.04561
9.02385
9.00089
8.97674
8.95136
8.92474
8.89687
8.86773
8.83731
8.8056
8.77259
8.73827
8.70266
8.66572
8.62748
8.58792
8.54706
8.5049
8.46147
8.41676
8.37079
8.32356
8.27506
8.2248
1.37794
4.53918
9.91218
9.89595
9.5986
9.32211
9.23419
9.23648
9.24721
9.25739
9.25786
9.25537
9.24863
9.23804
9.22762
9.21752
9.20697
9.19553
9.18308
9.16963
9.15519
9.13975
9.12328
9.10575
9.08715
9.06745
9.04662
9.02465
9.00152
8.97721
8.9517
8.92497
8.89701
8.8678
8.83734
8.80561
8.77261
8.73832
8.70274
8.66587
8.62772
8.58827
8.54754
8.50553
8.46227
8.41775
8.372
8.32502
8.27684
8.22714
1.40227
4.56021
10.0428
9.97676
9.58389
9.26806
9.18504
9.19664
9.22645
9.24716
9.24999
9.24744
9.24063
9.23048
9.22072
9.21121
9.2011
9.18999
9.17781
9.1646
9.15039
9.13516
9.1189
9.10158
9.08317
9.06367
9.04304
9.02127
8.99833
8.97422
8.9489
8.92237
8.89461
8.8656
8.83534
8.8038
8.771
8.7369
8.70152
8.66485
8.62688
8.58763
8.54709
8.50528
8.46221
8.41789
8.37234
8.32559
8.27768
8.22839
3.04149
2.4543
2.99562
4.17477
4.12077
4.10594
4.04532
4.00758
3.99446
3.99687
4.02392
4.06701
4.10396
4.13474
4.16874
4.21137
4.26285
4.32074
4.38221
4.44496
4.50727
4.56789
4.62646
4.68329
4.73421
4.77948
4.81918
4.85352
4.88265
4.90667
4.92559
4.93965
4.94893
4.95366
4.95401
4.95237
4.94698
4.93558
4.92002
4.90214
4.88198
4.85951
4.83482
4.8082
4.77989
4.75018
4.7193
4.68752
4.65505
4.62213
4.58895
4.55574
4.52269
4.49
4.45786
4.42648
4.39605
4.36676
4.3388
4.31238
4.28766
4.26486
4.24415
4.22569
4.20964
4.19614
4.18529
4.17714
4.1717
4.16893
4.16877
4.16925
4.17103
4.17548
4.18471
4.19711
4.21009
4.22315
4.23625
4.24921
4.26171
4.27343
4.28409
4.29347
4.30144
4.30791
4.31287
4.31633
4.31839
4.31922
4.31918
4.3189
4.31803
4.31603
4.31217
4.30787
4.30345
4.29889
4.29404
4.28986
4.09331
3.54903
3.7508
4.22875
4.14765
4.09139
4.03259
3.99245
3.98035
3.99215
4.03244
4.08241
4.11421
4.13644
4.16556
4.20634
4.25738
4.31517
4.3765
4.43914
4.50137
4.56214
4.62096
4.67754
4.72855
4.77384
4.81364
4.84812
4.87739
4.90153
4.92058
4.93474
4.9441
4.94884
4.94902
4.94782
4.94351
4.93341
4.9163
4.89779
4.87781
4.85567
4.83124
4.80478
4.77659
4.74699
4.71622
4.68455
4.65218
4.61936
4.58627
4.55315
4.52018
4.48756
4.45549
4.42417
4.39378
4.36454
4.33662
4.31022
4.28553
4.26275
4.24206
4.22362
4.2076
4.19414
4.18334
4.17529
4.17
4.16758
4.16765
4.16825
4.17014
4.17459
4.18376
4.19626
4.20955
4.22297
4.23634
4.24948
4.26213
4.27397
4.28473
4.29419
4.3022
4.30869
4.31364
4.31707
4.31908
4.31984
4.31978
4.31948
4.3186
4.31662
4.31267
4.30822
4.3037
4.2992
4.29457
4.29203
5.22203
4.46042
4.23057
4.26254
4.24372
4.19187
4.11072
4.05809
4.03757
4.03982
4.05178
4.08026
4.11563
4.14697
4.18019
4.2208
4.26958
4.32495
4.38416
4.44493
4.50558
4.56494
4.62219
4.67665
4.7268
4.77159
4.81093
4.84496
4.87377
4.89749
4.91618
4.92997
4.93896
4.94326
4.94317
4.94205
4.93834
4.92961
4.91215
4.89269
4.87212
4.84987
4.82556
4.79924
4.77118
4.74169
4.71103
4.67947
4.64724
4.61454
4.58158
4.54857
4.5157
4.48319
4.45122
4.41999
4.38969
4.36053
4.33269
4.30637
4.28177
4.25906
4.23844
4.22009
4.20416
4.19082
4.18017
4.17231
4.16736
4.16564
4.16581
4.16661
4.16873
4.1734
4.18282
4.19519
4.20877
4.2227
4.23658
4.25013
4.26309
4.27517
4.28612
4.2957
4.30378
4.31029
4.31519
4.31853
4.32051
4.32103
4.32094
4.32056
4.31958
4.31745
4.31338
4.30877
4.30411
4.29965
4.29521
4.29438
5.82534
5.09196
4.65819
4.46181
4.42318
4.3582
4.26669
4.18656
4.13443
4.11346
4.11558
4.12621
4.15165
4.18871
4.22235
4.25726
4.29802
4.34556
4.39839
4.45427
4.51118
4.56761
4.62233
4.6746
4.72297
4.76668
4.80524
4.83853
4.86665
4.88977
4.90792
4.9212
4.92972
4.93345
4.93327
4.93212
4.9287
4.92083
4.90477
4.88459
4.86315
4.84047
4.81615
4.79004
4.76225
4.73302
4.70263
4.67133
4.63935
4.6069
4.57419
4.54142
4.50879
4.47651
4.44476
4.41374
4.38366
4.3547
4.32706
4.30093
4.27651
4.254
4.23356
4.2154
4.19967
4.18654
4.17615
4.16865
4.16419
4.16323
4.1635
4.1645
4.16695
4.17215
4.18182
4.19409
4.20789
4.22236
4.23686
4.25096
4.26434
4.27673
4.28789
4.2976
4.30575
4.31226
4.31712
4.32041
4.32223
4.32244
4.3223
4.32181
4.32063
4.31815
4.31403
4.30934
4.30455
4.30009
4.29594
4.29608
6.22838
5.59323
5.11806
4.82869
4.67992
4.56748
4.45664
4.35541
4.27787
4.22999
4.20971
4.21055
4.21659
4.23259
4.26471
4.29764
4.33393
4.37509
4.42103
4.4706
4.52226
4.57447
4.62576
4.67496
4.72104
4.76303
4.80034
4.8325
4.85961
4.88195
4.89929
4.91185
4.91973
4.92268
4.92241
4.92115
4.91774
4.91022
4.89501
4.87517
4.85328
4.83004
4.80543
4.77933
4.75174
4.7228
4.69272
4.66173
4.63006
4.59792
4.56552
4.53305
4.50073
4.46874
4.4373
4.40658
4.37679
4.34813
4.32078
4.29495
4.27083
4.2486
4.22847
4.2106
4.1952
4.18241
4.17242
4.16541
4.16147
4.16123
4.16159
4.16281
4.16567
4.17163
4.18151
4.19377
4.20768
4.2225
4.23752
4.25214
4.26596
4.27866
4.29
4.29982
4.30801
4.31448
4.3193
4.32247
4.32403
4.324
4.32378
4.32312
4.32163
4.31864
4.31452
4.30981
4.30493
4.30046
4.29664
4.29698
6.53537
6.00014
5.54526
5.20123
4.96819
4.80201
4.66532
4.54638
4.44839
4.37611
4.33048
4.30831
4.30754
4.31066
4.32121
4.34414
4.37642
4.41232
4.45094
4.49269
4.53721
4.58338
4.62972
4.67495
4.71792
4.7576
4.79317
4.8241
4.8502
4.87158
4.888
4.89984
4.90705
4.90922
4.90888
4.90751
4.90402
4.89653
4.88182
4.8628
4.84104
4.81748
4.79254
4.76633
4.73889
4.71025
4.68057
4.65
4.61875
4.58703
4.55504
4.52299
4.49108
4.45951
4.42849
4.3982
4.36884
4.34061
4.3137
4.28831
4.26463
4.24286
4.22317
4.20574
4.19081
4.17854
4.16909
4.16262
4.15939
4.15947
4.16002
4.16158
4.16502
4.17198
4.18195
4.19415
4.20805
4.223
4.23829
4.25326
4.2674
4.28035
4.29184
4.30172
4.30991
4.31638
4.32111
4.32414
4.32534
4.32527
4.32492
4.32404
4.32216
4.31884
4.31464
4.30991
4.30499
4.3005
4.29692
4.29736
6.77947
6.32886
5.91114
5.55186
5.27118
5.05952
4.89202
4.75231
4.63535
4.5418
4.4729
4.42787
4.40412
4.39781
4.39937
4.4059
4.42138
4.44973
4.48136
4.51652
4.55445
4.59424
4.63488
4.67538
4.71464
4.75152
4.78503
4.81447
4.83943
4.85979
4.87548
4.88655
4.89303
4.89445
4.89404
4.89255
4.8889
4.88119
4.86698
4.84865
4.82727
4.80373
4.77865
4.75237
4.72502
4.69666
4.66736
4.63726
4.60649
4.57526
4.54377
4.51222
4.48082
4.44977
4.41927
4.38952
4.36071
4.33304
4.3067
4.28188
4.25879
4.23761
4.21852
4.20176
4.18742
4.17573
4.16688
4.16098
4.15862
4.15879
4.15957
4.16153
4.16569
4.17345
4.18359
4.19575
4.20953
4.22436
4.23961
4.25462
4.26885
4.28189
4.29345
4.30337
4.31154
4.31794