/*--------------------------------*- C++ -*----------------------------------*\
| =========                 |                                                 |
| \\      /  F ield         | OpenFOAM: The Open Source CFD Toolbox           |
|  \\    /   O peration     | Version:  2412                                  |
|   \\  /    A nd           | Website:  www.openfoam.com                      |
|    \\/     M anipulation  |                                                 |
\*---------------------------------------------------------------------------*/
FoamFile
{
    version     2.0;
    format      ascii;
    arch        "LSB;label=32;scalar=64";
    class       surfaceScalarField;
    location    "15.5";
    object      phi;
}
// * * * * * * * * * * * * * * * * * * * * * * * * * * * * * * * * * * * * * //

dimensions      [1 0 -1 0 0 0 0];

oriented        oriented;

internalField   nonuniform List<scalar> 
13790
(
0.00292374
-1.97078e-07
0.0027446
9.31594e-07
0.00280393
3.2608e-06
0.00280516
5.59829e-06
0.00279911
6.48657e-06
0.00279196
7.18e-06
0.00278399
7.97504e-06
0.00277505
8.92629e-06
0.00276505
1.00149e-05
0.0027538
1.12628e-05
0.00274119
1.25976e-05
0.00272724
1.39823e-05
0.00271179
1.54184e-05
0.00269491
1.69223e-05
0.00267638
1.85086e-05
0.00265623
2.01786e-05
0.0026343
2.19423e-05
0.00261051
2.37953e-05
0.00258479
2.57537e-05
0.00255696
2.78145e-05
0.00252702
2.9995e-05
0.0024947
3.22972e-05
0.00246002
3.47338e-05
0.00242271
3.7315e-05
0.0023827
4.00468e-05
0.00233978
4.29478e-05
0.00229377
4.60187e-05
0.00224453
4.92819e-05
0.0021918
5.27374e-05
0.00213544
5.64036e-05
0.00207515
6.02851e-05
0.00201081
6.43882e-05
0.00194211
6.87242e-05
0.00186886
7.32818e-05
0.00179082
7.80743e-05
0.00170777
8.30728e-05
0.00161954
8.82787e-05
0.0015259
9.36512e-05
0.0014268
9.91602e-05
0.00132206
0.000104759
0.00121175
0.000110367
0.00109585
0.000115935
0.000974552
0.00012133
0.000848115
0.000126493
0.000716835
0.000131276
0.00058125
0.0001356
0.000441776
0.00013944
0.000299155
0.000142612
0.000152339
0.000146824
0.000152318
0.00303216
2.05136e-08
0.00284627
8.43956e-07
0.0029064
8.63177e-06
0.0029077
1.131e-05
0.00290181
1.28353e-05
0.00289462
1.44053e-05
0.00288641
1.61837e-05
0.00287714
1.81877e-05
0.00286673
2.04314e-05
0.00285506
2.29537e-05
0.00284199
2.56513e-05
0.00282755
2.84631e-05
0.00281154
3.1389e-05
0.00279406
3.44545e-05
0.00277485
3.76867e-05
0.00275398
4.10877e-05
0.00273124
4.46792e-05
0.00270659
4.84527e-05
0.00267994
5.24408e-05
0.0026511
5.66375e-05
0.00262008
6.10779e-05
0.00258659
6.5766e-05
0.00255065
7.07279e-05
0.00251198
7.59841e-05
0.00247052
8.15475e-05
0.00242604
8.74553e-05
0.00237836
9.371e-05
0.00232733
0.000100356
0.00227267
0.000107395
0.00221426
0.000114863
0.00215178
0.000122772
0.00208508
0.000131132
0.00201385
0.00013997
0.00193791
0.000149261
0.00185699
0.000159035
0.00177085
0.00016923
0.00167933
0.000179856
0.00158217
0.000190825
0.00147931
0.000202081
0.00137056
0.000213527
0.00125598
0.000225003
0.00113554
0.00023641
0.00100944
0.000247469
0.000877904
0.000258083
0.000741278
0.0002679
0.000600057
0.000276836
0.000454767
0.000284695
0.000306082
0.000291288
0.000154214
0.000298699
0.00030651
0.00314487
9.22657e-08
0.00295178
1.2146e-06
0.00301434
1.39131e-05
0.0030156
1.73078e-05
0.00300959
1.93318e-05
0.00300226
2.17644e-05
0.00299383
2.46197e-05
0.00298425
2.77568e-05
0.00297347
3.12189e-05
0.00296138
3.506e-05
0.00294786
3.91581e-05
0.00293292
4.34408e-05
0.00291637
4.79098e-05
0.00289828
5.25942e-05
0.0028784
5.75327e-05
0.0028568
6.27257e-05
0.00283327
6.82102e-05
0.00280776
7.39707e-05
0.00278018
8.00618e-05
0.00275033
8.64665e-05
0.00271822
9.32486e-05
0.00268356
0.000100403
0.00264637
0.000107981
0.00260635
0.000116002
0.00256344
0.0001245
0.00251741
0.000133515
0.00246806
0.00014307
0.00241525
0.000153213
0.00235868
0.000163969
0.00229822
0.00017537
0.00223354
0.000187459
0.00216449
0.000200227
0.00209074
0.000213742
0.00201209
0.000227943
0.00192828
0.000242896
0.00183903
0.000258498
0.00174417
0.000274765
0.00164343
0.000291577
0.00153675
0.000308827
0.00142389
0.000326408
0.00130493
0.000344017
0.00117979
0.000361591
0.00104869
0.000378603
0.000911834
0.000395001
0.000769554
0.000410176
0.000622466
0.000423941
0.000470974
0.00043615
0.000316105
0.000446148
0.000158591
0.000456222
0.000465077
0.0032618
1.1631e-07
0.00306153
1.67293e-06
0.00312666
1.91239e-05
0.00312796
2.35105e-05
0.00312177
2.60342e-05
0.00311427
2.9297e-05
0.00310564
3.32543e-05
0.00309576
3.76191e-05
0.00308463
4.23606e-05
0.00307214
4.75666e-05
0.00305818
5.31025e-05
0.00304276
5.89051e-05
0.00302567
6.49661e-05
0.00300698
7.13303e-05
0.00298646
7.80307e-05
0.00296413
8.50825e-05
0.00293983
9.25176e-05
0.00291346
0.000100341
0.00288497
0.000108596
0.00285413
0.000117294
0.00282096
0.000126482
0.00278514
0.000136199
0.00274672
0.000146465
0.00270536
0.000157359
0.00266104
0.00016887
0.00261346
0.000181116
0.00256249
0.000194059
0.00250791
0.000207843
0.00244947
0.000222412
0.00238697
0.000237914
0.00232014
0.000254291
0.00224875
0.000271667
0.00217253
0.000289986
0.00209118
0.000309327
0.0020045
0.000329617
0.00191213
0.000350888
0.00181396
0.000373002
0.0017096
0.000395943
0.00159903
0.000419461
0.001482
0.000443467
0.00135849
0.000467588
0.00122854
0.000491583
0.00109216
0.000515017
0.000949795
0.000537435
0.000801526
0.000558439
0.000648133
0.000577355
0.000490261
0.000593982
0.000328641
0.000607761
0.00016471
0.000620163
0.000629762
0.00338304
1.39842e-07
0.00317536
2.16301e-06
0.00324306
2.43628e-05
0.00324449
2.98458e-05
0.00323814
3.29185e-05
0.00323046
3.70073e-05
0.00322161
4.21079e-05
0.00321149
4.77313e-05
0.00320004
5.3818e-05
0.00318718
6.0442e-05
0.0031728
6.74688e-05
0.00315692
7.48322e-05
0.00313931
8.25434e-05
0.00312005
9.06369e-05
0.00309889
9.91654e-05
0.00307587
0.000108129
0.00305082
0.000117586
0.00302363
0.000127531
0.00299425
0.000138028
0.00296244
0.000149077
0.00292823
0.000160764
0.00289129
0.000173105
0.00285167
0.00018616
0.00280903
0.000199998
0.00276331
0.000214636
0.00271426
0.000230191
0.00266167
0.000246658
0.00260541
0.000264161
0.0025451
0.000282715
0.00248069
0.000302395
0.0024117
0.000323277
0.00233809
0.000345333
0.00225937
0.000368727
0.00217545
0.000393286
0.00208587
0.000419248
0.0019905
0.000446279
0.00188892
0.00047464
0.00178103
0.000503847
0.00166648
0.000534085
0.0015452
0.000564758
0.00141703
0.000595815
0.00128197
0.000626684
0.0011402
0.00065682
0.000991787
0.000685921
0.000837351
0.000712875
0.0006771
0.000737617
0.000512105
0.000758947
0.000343409
0.000776443
0.000172015
0.000791561
0.000801752
0.00350879
1.63603e-07
0.00329343
2.65962e-06
0.00336382
2.96449e-05
0.0033654
3.62838e-05
0.00335893
3.99587e-05
0.00335109
4.48816e-05
0.00334202
5.11804e-05
0.00333169
5.80586e-05
0.00331995
6.5552e-05
0.00330677
7.36578e-05
0.00329198
8.2231e-05
0.00327567
9.11994e-05
0.00325755
0.000100618
0.00323775
0.00011049
0.00321597
0.000120914
0.00319229
0.00013184
0.0031665
0.0001434
0.00313853
0.000155498
0.00310828
0.000168326
0.00307555
0.000181781
0.00304032
0.000196057
0.00300233
0.000211077
0.00296153
0.000227026
0.00291766
0.000243863
0.00287059
0.000261749
0.00282013
0.00028068
0.00276601
0.000300799
0.00270809
0.000322119
0.00264604
0.00034478
0.00257969
0.000368785
0.0025087
0.000394278
0.00243285
0.000421236
0.0023518
0.000449795
0.00226525
0.000479879
0.00217295
0.00051159
0.00207446
0.000544798
0.00196968
0.000579472
0.00185806
0.000615491
0.00173972
0.000652503
0.00161397
0.000690532
0.0014812
0.000728648
0.00134081
0.000767122
0.00119328
0.00080439
0.00103864
0.000840619
0.000877186
0.000874341
0.000709901
0.000904921
0.000536958
0.000931845
0.000360051
0.000953351
0.000180572
0.000971051
0.000982291
0.00363923
1.87654e-07
0.00341588
3.1581e-06
0.00348908
3.49652e-05
0.00349086
4.27988e-05
0.00348431
4.7104e-05
0.00347633
5.28955e-05
0.00346714
6.03728e-05
0.00345658
6.86187e-05
0.00344456
7.75619e-05
0.00343105
8.71999e-05
0.00341591
9.73471e-05
0.00339918
0.000107991
0.00338061
0.000119147
0.00336028
0.00013088
0.00333794
0.000143225
0.00331361
0.000156208
0.00328713
0.000169884
0.00325837
0.00018426
0.00322732
0.000199426
0.00319368
0.000215406
0.00315752
0.000232279
0.00311847
0.000250118
0.00307659
0.000268962
0.00303151
0.000288958
0.00298322
0.000310086
0.00293136
0.000332575
0.00287584
0.000356341
0.00281633
0.000381679
0.00275265
0.000408463
0.00268449
0.000437005
0.00261157
0.000467183
0.00253363
0.000499238
0.00245035
0.000533116
0.00236133
0.00056892
0.00226637
0.000606627
0.00216494
0.000646225
0.00205692
0.000687581
0.00194177
0.000730641
0.00181935
0.000775005
0.00168937
0.000820543
0.00155148
0.000866599
0.00140598
0.000912673
0.0012522
0.000958206
0.00109101
0.00100189
0.000922203
0.00104313
0.000746616
0.00108054
0.000565445
0.00111297
0.000379365
0.00113943
0.000190108
0.00116032
0.00117237
0.00377453
2.11911e-07
0.00354288
3.65557e-06
0.00361902
4.03087e-05
0.00362103
4.93626e-05
0.00361444
5.43261e-05
0.00360637
6.10093e-05
0.00359703
6.97097e-05
0.00358631
7.93332e-05
0.00357407
8.97898e-05
0.00356031
0.000101006
0.00354483
0.000112796
0.00352773
0.00012515
0.00350873
0.000138118
0.00348792
0.000151741
0.00346505
0.000166091
0.0034401
0.000181157
0.00341299
0.000197039
0.00338351
0.000213718
0.00335168
0.000231317
0.00331721
0.00024985
0.00328014
0.000269421
0.00324015
0.000290103
0.00319721
0.000311961
0.00315104
0.000335133
0.00310151
0.000359651
0.00304843
0.000385698
0.00299149
0.000413299
0.00293061
0.000442636
0.00286528
0.000473777
0.00279554
0.000506819
0.00272076
0.000541958
0.00264094
0.000579109
0.00255547
0.000618618
0.00246423
0.000660198
0.00236664
0.000704259
0.00226254
0.000750364
0.00215132
0.00079886
0.00203282
0.000849168
0.00190646
0.000901432
0.00177209
0.000954935
0.00162936
0.00100941
0.00147795
0.00106413
0.00131824
0.00111794
0.00114959
0.00117061
0.000973079
0.00121964
0.000788784
0.00126485
0.000597516
0.0013042
0.00040128
0.00133565
0.000201504
0.00136012
0.00137385
0.00391487
2.36207e-07
0.00367458
4.14886e-06
0.00375384
4.56452e-05
0.00375612
5.59375e-05
0.00374954
6.15842e-05
0.00374141
6.91777e-05
0.00373197
7.91538e-05
0.00372113
9.01576e-05
0.00370875
0.000102169
0.00369476
0.000115028
0.00367901
0.000128518
0.0036616
0.000142637
0.00364221
0.000157466
0.00362097
0.000173036
0.0035976
0.000189444
0.00357214
0.000206648
0.00354441
0.000224793
0.00351429
0.000243823
0.00348176
0.00026392
0.00344652
0.000285053
0.00340864
0.000307389
0.00336776
0.000330968
0.00332389
0.000355901
0.00327672
0.000382323
0.00322613
0.00041028
0.00317187
0.000439989
0.00311373
0.00047146
0.00305148
0.000504942
0.00298482
0.000540455
0.00291347
0.000578227
0.00283714
0.0006183
0.00275545
0.000660864
0.00266813
0.000705953
0.00257467
0.000753713
0.00247486
0.000804117
0.002368
0.000857252
0.00225402
0.000912908
0.00213204
0.000971172
0.00200211
0.00103143
0.00186328
0.00109379
0.00171568
0.00115706
0.00155861
0.00122125
0.00139206
0.00128455
0.00121631
0.00134646
0.00103066
0.00140528
0.000836799
0.00145873
0.000635173
0.00150578
0.000426941
0.00154387
0.000214204
0.00157286
0.00158802
0.00406045
2.60152e-07
0.00381117
4.63403e-06
0.00389372
5.0927e-05
0.00389635
6.2472e-05
0.00388983
6.88135e-05
0.0038817
7.73502e-05
0.00387227
8.85892e-05
0.00386137
0.000101067
0.00384883
0.000114672
0.0038347
0.000129216
0.00381871
0.000144454
0.00380105
0.000160395
0.00378133
0.000177137
0.00375972
0.00019471
0.00373593
0.000213222
0.00370998
0.000232623
0.00368174
0.000253073
0.00365102
0.000274515
0.00361788
0.000297145
0.00358194
0.000320942
0.00354335
0.000346079
0.00350167
0.000372618
0.00345699
0.000400667
0.00340893
0.000430398
0.00335741
0.000461849
0.00330217
0.000495278
0.00324293
0.000530695
0.00317957
0.000568373
0.00311165
0.000608375
0.00303904
0.000650899
0.00296125
0.000696111
0.00287807
0.000744078
0.00278902
0.000795069
0.00269376
0.000848997
0.00259177
0.000906174
0.00248269
0.000966361
0.00236587
0.0010298
0.002241
0.00109606
0.0021073
0.00116521
0.00196454
0.00123659
0.00181185
0.00130981
0.00164918
0.001384
0.00147576
0.00145799
0.00129174
0.00153055
0.00109743
0.00159961
0.000892298
0.00166389
0.000678174
0.00171987
0.00045663
0.0017654
0.000229801
0.0017997
0.0018178
0.00421144
2.83506e-07
0.00395284
5.10523e-06
0.00403889
5.60918e-05
0.00404192
6.89021e-05
0.00403552
7.5971e-05
0.00402746
8.54539e-05
0.00401804
9.80167e-05
0.00400718
0.000111938
0.00399463
0.000127192
0.00398042
0.000143486
0.00396429
0.000160542
0.0039464
0.000178355
0.00392646
0.000197062
0.00390451
0.000216692
0.0038804
0.000237358
0.00385402
0.000259002
0.00382533
0.0002818
0.00379413
0.000305702
0.00376043
0.000330905
0.00372395
0.00035741
0.0036847
0.000385388
0.0036424
0.000414923
0.00359698
0.000446136
0.00354822
0.000479205
0.00349589
0.000514206
0.00343986
0.000551382
0.00337975
0.000590808
0.00331546
0.000632729
0.00324656
0.000677281
0.00317288
0.00072464
0.00309396
0.000775049
0.00300953
0.000828564
0.0029191
0.000885524
0.00282229
0.000945854
0.00271862
0.00100992
0.00260747
0.00107753
0.00248846
0.0011489
0.0023607
0.00122384
0.00222395
0.00130205
0.00207703
0.00138354
0.00191991
0.00146702
0.00175129
0.00155268
0.00157121
0.00163813
0.00137872
0.00172313
0.00117386
0.00180449
0.000957609
0.00188016
0.000729688
0.00194778
0.000492189
0.00200289
0.000247463
0.00204443
0.00206523
0.00436807
3.0471e-07
0.00409977
5.55671e-06
0.00418956
6.10423e-05
0.00419308
7.51498e-05
0.00418688
8.29841e-05
0.00417899
9.33947e-05
0.00416972
0.000107286
0.00415895
0.00012272
0.00414644
0.000139668
0.00413221
0.000157772
0.00411603
0.000176695
0.00409802
0.000196442
0.00407789
0.000217154
0.00405574
0.000238908
0.00403133
0.000261764
0.00400466
0.000285695
0.00397562
0.000310885
0.00394401
0.000337277
0.00390991
0.000365093
0.00387294
0.000394333
0.00383325
0.000425181
0.00379039
0.000457747
0.00374447
0.000492134
0.0036951
0.00052859
0.00364223
0.000567131
0.00358555
0.000608122
0.00352484
0.000651536
0.00345987
0.00069778
0.00339026
0.000746873
0.00331584
0.000799153
0.0032361
0.000854785
0.00315078
0.000913942
0.00305939
0.000976957
0.00296146
0.00104383
0.00285651
0.00111494
0.00274385
0.00119021
0.002623
0.00126985
0.00249307
0.00135377
0.00235345
0.00144177
0.00220331
0.00153372
0.00204153
0.00162885
0.00186774
0.00172655
0.00168043
0.00182547
0.00147967
0.00192397
0.00126422
0.00201998
0.00103393
0.00211046
0.000790288
0.00219136
0.000534604
0.00225857
0.000270046
0.002309
0.00233525
0.00453054
3.18138e-07
0.00425214
5.99271e-06
0.00434598
6.56273e-05
0.00435007
8.11417e-05
0.00434414
8.97989e-05
0.00433656
0.000101024
0.00432754
0.0001163
0.00431701
0.000133292
0.00430461
0.000151996
0.0042905
0.000171972
0.00427429
0.000192832
0.00425623
0.000214566
0.00423606
0.000237374
0.00421376
0.000261224
0.0041892
0.000286341
0.00416229
0.000312602
0.00413302
0.000340214
0.00410114
0.000369132
0.00406673
0.000399576
0.00402947
0.000431574
0.00398941
0.000465311
0.00394626
0.000500907
0.00389994
0.000538503
0.00385025
0.000578312
0.00379697
0.000620451
0.00373998
0.000665189
0.00367886
0.000712671
0.00361357
0.000763156
0.00354358
0.000816878
0.00346878
0.000874021
0.00338863
0.000934953
0.00330287
0.00099975
0.00321097
0.00106891
0.00311245
0.00114238
0.00300678
0.00122071
0.00289322
0.00130378
0.00277116
0.001392
0.00263973
0.00148525
0.00249803
0.00158355
0.002345
0.00168678
0.00217979
0.00179416
0.00200071
0.0019057
0.00180714
0.00201909
0.0015972
0.00213399
0.00137067
0.00224653
0.00112683
0.00235434
0.00086506
0.00245311
0.000587319
0.00253628
0.00029657
0.00259976
0.0026318
0.00469909
3.27145e-07
0.00441016
6.39955e-06
0.00450826
6.98122e-05
0.00451307
8.67238e-05
0.0045076
9.62106e-05
0.00450048
0.000108218
0.00449184
0.000124933
0.00448165
0.00014353
0.00446952
0.000164057
0.00445559
0.000185987
0.00443953
0.000208844
0.00442152
0.000232625
0.00440138
0.000257541
0.004379
0.000283611
0.00435441
0.00031099
0.00432737
0.000339618
0.00429801
0.000369659
0.00426599
0.000401136
0.00423144
0.000434199
0.00419402
0.000468987
0.00415382
0.000505578
0.00411052
0.000544239
0.00406407
0.000584983
0.00401425
0.000628187
0.00396089
0.000673836
0.00390378
0.000722372
0.00384268
0.000773805
0.00377734
0.00082859
0.00370742
0.000886814
0.00363264
0.000948877
0.00355259
0.00101501
0.00346691
0.00108549
0.0033751
0.00116074
0.00327666
0.00124088
0.00317098
0.00132646
0.00305732
0.00141749
0.00293496
0.00151444
0.00280281
0.0016174
0.00266013
0.00172634
0.00250529
0.00184164
0.00233722
0.00196229
0.00215444
0.00208856
0.00195475
0.00221885
0.0017371
0.00235173
0.00149856
0.00248514
0.00123842
0.00261451
0.00095641
0.0027351
0.00065312
0.00283955
0.00033244
0.00292046
0.00296422
0.00487393
3.4781e-07
0.00457405
6.7206e-06
0.00467652
7.37047e-05
0.00468231
9.1617e-05
0.00467773
0.000101817
0.00467114
0.000114889
0.00466306
0.000133014
0.00465335
0.000153274
0.00464161
0.000175751
0.00462797
0.000199697
0.00461214
0.000224617
0.00459435
0.000250504
0.00457429
0.000277583
0.00455203
0.000305903
0.0045275
0.000335594
0.0045005
0.000366595
0.00447115
0.000399104
0.00443912
0.00043311
0.00440459
0.000468827
0.00436721
0.00050635
0.00432706
0.000545821
0.00428385
0.00058747
0.00423752
0.00063138
0.00418786
0.00067788
0.00413468
0.000727053
0.00407787
0.000779255
0.00401702
0.000834666
0.00395213
0.000893569
0.00388263
0.000956345
0.00380848
0.00102311
0.00372903
0.0010945
0.0036441
0.00117047
0.00355308
0.00125185
0.00345543
0.00133853
0.00335065
0.00143136
0.00323777
0.00153037
0.00311621
0.00163612
0.00298465
0.00174898
0.00284209
0.00186899
0.00268711
0.00199669
0.00251774
0.00213174
0.00233227
0.00227409
0.0021284
0.00242277
0.00190329
0.00257695
0.00165486
0.00273361
0.00137921
0.00289021
0.00107423
0.00304006
0.000739375
0.00317439
0.000377607
0.00328225
0.00334181
0.00505528
3.62129e-07
0.00474403
6.98514e-06
0.00485145
7.68619e-05
0.00485838
9.56976e-05
0.00485474
0.000106566
0.004849
0.000120719
0.00484165
0.000140353
0.00483263
0.000162373
0.00482141
0.000186894
0.00480823
0.000212955
0.00479279
0.000240034
0.00477519
0.000268092
0.00475538
0.000297395
0.00473337
0.000327983
0.00470902
0.00036002
0.00468222
0.00039339
0.00465304
0.000428379
0.0046212
0.000464908
0.00458687
0.00050326
0.0045497
0.000543484
0.0045098
0.000585801
0.00446693
0.000630375
0.00442096
0.000677401
0.00437182
0.000727106
0.00431916
0.000779733
0.00426299
0.000835496
0.00420292
0.00089477
0.00413887
0.000957703
0.00407043
0.00102483
0.00399736
0.00109625
0.0039193
0.00117262
0.00383576
0.00125405
0.00374644
0.00134124
0.00365056
0.00143445
0.0035477
0.0015343
0.0034369
0.00164122
0.00331736
0.00175574
0.00318797
0.00187843
0.00304733
0.0020097
0.0028939
0.00215018
0.00272578
0.00229995
0.00254019
0.0024598
0.00233433
0.00262866
0.00210472
0.00280666
0.0018461
0.00299231
0.00155494
0.00318139
0.00122601
0.00336897
0.000855506
0.00354489
0.000443993
0.00369379
0.00378579
0.00524337
3.6999e-07
0.00492035
7.16033e-06
0.00503318
7.90093e-05
0.00504158
9.86246e-05
0.00503918
0.000110168
0.00503457
0.000125433
0.00502818
0.000146738
0.00501999
0.000170618
0.00500957
0.0001973
0.0049969
0.000225626
0.00498199
0.000254965
0.00496483
0.000285275
0.00494539
0.000316853
0.00492366
0.00034973
0.0048996
0.000384114
0.0048731
0.000419891
0.00484432
0.000457306
0.00481282
0.000496369
0.00477889
0.000537271
0.00474222
0.000580193
0.00470281
0.000625239
0.00466055
0.000672716
0.00461526
0.000722703
0.00456688
0.000775575
0.00451517
0.000831455
0.00446003
0.000890732
0.0044012
0.000953619
0.00433848
0.0010205
0.00427165
0.0010917
0.00420035
0.00116761
0.00412432
0.0012487
0.00404311
0.00133531
0.0039563
0.00142811
0.00386338
0.00152743
0.00376367
0.0016341
0.00365642
0.00174852
0.0035407
0.00187155
0.00341528
0.0020039
0.00327892
0.00214615
0.00312955
0.00229963
0.00296533
0.0024642
0.00278323
0.00264201
0.00257937
0.00283259
0.0023502
0.00303593
0.00208893
0.00325367
0.0017862
0.00348416
0.00143314
0.00372203
0.00101945
0.00395857
0.000537987
0.00417528
0.00432377
0.00543846
3.71115e-07
0.00510326
7.21488e-06
0.00522203
7.97855e-05
0.00523237
9.99417e-05
0.00523166
0.00011218
0.00522853
0.000128672
0.00522344
0.000151822
0.00521633
0.000177784
0.00520681
0.000206819
0.00519487
0.000237576
0.00518057
0.000269289
0.00516394
0.000301923
0.005145
0.000335812
0.00512368
0.000371037
0.00510017
0.000407762
0.00507408
0.000445946
0.00504576
0.000485749
0.0050148
0.000527297
0.00498148
0.000570687
0.00494547
0.000616223
0.00490687
0.000663899
0.00486547
0.000714168
0.00482122
0.000766984
0.00477402
0.000822877
0.00472366
0.000881852
0.00467008
0.000944423
0.00461296
0.00101076
0.00455228
0.00108128
0.00448761
0.00115641
0.00441892
0.00123639
0.00434569
0.00132199
0.00426777
0.0014133
0.00418459
0.00151137
0.00409572
0.00161633
0.00400067
0.00172925
0.00389851
0.00185072
0.00378867
0.00198149
0.00366968
0.00212296
0.00354049
0.00227542
0.0033987
0.0024415
0.0032428
0.00262017
0.00307091
0.00281398
0.00287611
0.00302747
0.00265129
0.00326081
0.00239098
0.00351408
0.00208561
0.00378961
0.00171763
0.00409001
0.00126574
0.00441043
0.000701044
0.00474001
0.00502481
0.00564081
3.51473e-07
0.00529299
7.12065e-06
0.00541848
7.86189e-05
0.00543135
9.90389e-05
0.00543289
0.000112062
0.00543168
0.000130002
0.0054282
0.000155293
0.00542246
0.000183613
0.0054139
0.000215333
0.00540277
0.000248713
0.00538919
0.000282908
0.0053732
0.000317931
0.00535486
0.000354171
0.00533413
0.000391742
0.00531122
0.000430819
0.00528579
0.000471346
0.00525812
0.000513526
0.00522791
0.000557458
0.0051954
0.000603291
0.00516034
0.000651286
0.00512274
0.000701533
0.0050826
0.000754377
0.00503967
0.000809947
0.00499408
0.000868564
0.0049454
0.000930532
0.00489389
0.000996031
0.00483904
0.00106566
0.004781
0.0011394
0.00471932
0.00121816
0.00465394
0.00130181
0.00458458
0.00139143
0.00451083
0.00148706
0.00443265
0.00158968
0.00434917
0.00169982
0.00426035
0.00181817
0.00416515
0.00194597
0.00406323
0.00208349
0.00395314
0.00223313
0.00383472
0.00239393
0.00370781
0.00256849
0.00356577
0.0027623
0.0034049
0.00297493
0.00322503
0.00320743
0.00302049
0.00346544
0.00278064
0.00375401
0.00248979
0.00408055
0.00212802
0.00445182
0.00165403
0.00488441
0.000998925
0.00539513
0.00602374
0.00585084
1.98251e-07
0.00548952
7.17793e-06
0.00562292
7.46362e-05
0.00563938
9.48526e-05
0.00564385
0.000109141
0.0056452
0.000128758
0.00564377
0.00015673
0.00563946
0.000187944
0.0056321
0.000222748
0.00562184
0.000259022
0.00560896
0.000295826
0.00559362
0.000333313
0.0055759
0.000371943
0.00555582
0.000411852
0.00553349
0.000453239
0.00550871
0.000496076
0.00548188
0.000540521
0.00545263
0.000586749
0.00542111
0.000634875
0.00538729
0.000685204
0.00535103
0.000737832
0.00531245
0.000793088
0.00527121
0.000851165
0.00522759
0.000912312
0.00518119
0.00097694
0.00513216
0.00104515
0.00508027
0.0011176
0.0050254
0.00119433
0.00496755
0.0012761
0.00490631
0.00136308
0.00484185
0.001456
0.00477355
0.00155538
0.00470156
0.00166175
0.00462531
0.00177613
0.00454455
0.00189902
0.00445846
0.00203215
0.0043678
0.00217424
0.00427304
0.00232798
0.0041686
0.00249845
0.00405253
0.00268465
0.00392783
0.00288708
0.00379204
0.00311082
0.00364039
0.00335918
0.0034679
0.00363803
0.00326788
0.00395414
0.00302807
0.00432046
0.002721
0.00475893
0.00229784
0.00530757
0.00164538
0.00604761
0.00766913
0.00846017
1.38492e-07
0.00793523
6.25644e-06
0.00813405
6.50681e-05
0.00816343
8.34071e-05
0.00817599
9.88741e-05
0.00818291
0.000122041
0.00818505
0.000154609
0.0081823
0.000190715
0.00817471
0.000230454
0.00816262
0.000271127
0.00814683
0.000311716
0.00812745
0.000352653
0.00810503
0.000394539
0.00807922
0.000437687
0.00805048
0.000482109
0.00801859
0.000527994
0.00798386
0.000575333
0.00794625
0.00062449
0.00790577
0.000675476
0.00786247
0.000728701
0.00781613
0.000784204
0.00776707
0.000842374
0.00771488
0.000903373
0.00765986
0.000967503
0.00760175
0.00103511
0.00754061
0.00110641
0.00747642
0.00118191
0.007409
0.00126183
0.0073385
0.00134676
0.00726463
0.00143704
0.00718748
0.00153329
0.00710692
0.00163603
0.0070227
0.00174608
0.00693534
0.00186356
0.00684547
0.00198899
0.00675335
0.00212438
0.00665445
0.00227326
0.00654859
0.00243396
0.00643992
0.00260725
0.006329
0.0027957
0.00621225
0.00300396
0.00609115
0.00323203
0.00596411
0.00348636
0.00583275
0.00376953
0.00569922
0.0040878
0.00557128
0.00444857
0.00548181
0.00484855
0.00550545
0.00528393
0.0059117
0.00564138
0.00547651
0.00810434
0.00846198
1.071e-07
0.00793464
3.90604e-06
0.00814821
4.2714e-05
0.00818839
6.1338e-05
0.00821028
7.93291e-05
0.00822418
0.000108332
0.00823041
0.000148411
0.00822989
0.000191248
0.00822315
0.000237263
0.00821192
0.000282392
0.00819735
0.000326429
0.00817948
0.000370513
0.00815874
0.000415423
0.00813505
0.000461442
0.00810867
0.000508592
0.00807968
0.000557026
0.00804825
0.000606854
0.00801452
0.000658379
0.00797832
0.000711749
0.00793996
0.000767241
0.00789918
0.000825071
0.00785627
0.000885454
0.00781102
0.000948718
0.00776365
0.00101502
0.00771406
0.00108482
0.00766237
0.00115824
0.00760858
0.00123583
0.00755276
0.00131776
0.00749501
0.00140465
0.00743542
0.00149677
0.00737386
0.001595
0.0073115
0.00169852
0.00724899
0.00180871
0.00718463
0.00192803
0.00711705
0.00205669
0.0070474
0.00219414
0.00697973
0.00234104
0.00691396
0.00249986
0.00684984
0.0026715
0.0067882
0.00285747
0.00673357
0.00305874
0.00668629
0.00327944
0.00665658
0.00351619
0.00664772
0.00377854
0.00668016
0.0040555
0.00677713
0.00435173
0.00698451
0.00464134
0.0073846
0.00488396
0.00800172
0.00502431
0.00467538
0.00880289
0.00846272
1.55031e-07
0.00793434
7.74069e-07
0.0081632
6.02852e-06
0.00822175
2.09838e-05
0.0082588
4.46423e-05
0.00828238
8.49451e-05
0.00829369
0.00013714
0.00829414
0.000190813
0.00828831
0.000243177
0.00827848
0.000292225
0.00826552
0.000339511
0.00824933
0.000386763
0.00823019
0.000434652
0.00820835
0.000483375
0.0081841
0.000532984
0.00815756
0.000583639
0.00812889
0.000635597
0.00809828
0.000689109
0.00806569
0.000744417
0.00803137
0.000801724
0.00799524
0.000861315
0.00795748
0.000923362
0.00791813
0.000988193
0.0078773
0.00105598
0.00783516
0.00112709
0.00779179
0.00120174
0.00774741
0.00128035
0.0077021
0.00136321
0.00765637
0.00145051
0.00761103
0.00154224
0.00756674
0.00163941
0.00752117
0.00174421
0.00747444
0.00185557
0.00742937
0.00197322
0.00738791
0.00209826
0.00734954
0.00223262
0.0073153
0.00237538
0.00728586
0.00252941
0.00726464
0.00269284
0.00725258
0.00286968
0.00725466
0.00305681
0.00727591
0.00325834
0.0073226
0.00346965
0.00741079
0.00369049
0.00754951
0.00391694
0.00776883
0.00413255
0.00808213
0.00432819
0.00850843
0.00445781
0.00902872
0.00450414
0.00424724
0.00945695
0.00846132
1.30398e-06
0.00794058
-9.81138e-06
0.00821683
-7.79381e-05
0.00830485
-4.8845e-05
0.00835057
1.29878e-06
0.00837105
6.46677e-05
0.00837531
0.000132908
0.008371
0.000195156
0.00836323
0.000250997
0.00835376
0.000301754
0.00834174
0.000351603
0.00832683
0.000401756
0.00830936
0.000452206
0.00828966
0.000503174
0.00826813
0.00055462
0.00824491
0.00060697
0.00822004
0.000660582
0.00819362
0.000715655
0.00816568
0.000772462
0.00813636
0.000831182
0.00810571
0.000892121
0.00807378
0.00095543
0.00804072
0.0010214
0.00800664
0.00109021
0.00797176
0.00116213
0.00793615
0.00123751
0.00790053
0.00131613
0.00786549
0.00139841
0.00783069
0.00148546
0.00779511
0.00157797
0.00775962
0.00167505
0.00772698
0.001777
0.00769797
0.00188471
0.00767225
0.00199909
0.00765115
0.00211949
0.00763605
0.00224785
0.00762856
0.002383
0.00763123
0.00252683
0.00764558
0.00267862
0.00767675
0.00283861
0.00772619
0.00300753
0.00780283
0.00318183
0.00790939
0.00336326
0.00805745
0.00354257
0.00825585
0.00371869
0.00851178
0.00387679
0.00883639
0.00400375
0.00921421
0.00408016
0.00966823
0.00405028
0.00392757
0.00998806
0.00845144
9.94153e-06
0.00798007
-6.56954e-05
0.00836225
-0.00027062
0.00854393
-0.000212438
0.00858681
-3.92709e-05
0.00857773
7.39203e-05
0.00856104
0.000149614
0.00854526
0.000210949
0.0085326
0.000263689
0.00851954
0.000314853
0.00850338
0.000367807
0.00848432
0.00042087
0.00846315
0.000473435
0.00844076
0.000525639
0.00841704
0.000578415
0.0083921
0.000632003
0.00836609
0.000686676
0.00833917
0.00074268
0.00831146
0.000800272
0.00828308
0.00085967
0.00825418
0.000921134
0.00822484
0.000984886
0.00819524
0.00105113
0.00816565
0.00111991
0.0081366
0.0011913
0.00810846
0.00126578
0.00808022
0.00134451
0.00805185
0.00142692
0.00802467
0.00151278
0.00800021
0.00160258
0.00797835
0.00169704
0.00795937
0.00179612
0.00794393
0.0019003
0.00793362
0.00200955
0.00792878
0.00212448
0.00793228
0.00224451
0.0079443
0.00237114
0.00796909
0.00250217
0.00800752
0.00264032
0.00806468
0.00278158
0.00814377
0.00292855
0.00824945
0.0030763
0.00838845
0.00322437
0.00856323
0.00336796
0.00878264
0.00349941
0.00904521
0.00361439
0.00935384
0.00369527
0.00969947
0.00373471
0.0100465
0.00370338
0.00359436
0.0103799
0.00851923
1.56736e-05
0.00824797
-0.000394698
0.00879279
-0.000604396
0.00889097
-0.000290599
0.00887258
-1.79109e-05
0.00880457
0.000142165
0.00877261
0.000181585
0.00875268
0.000230882
0.00874296
0.000273441
0.00872841
0.000329444
0.00870942
0.000386842
0.00868833
0.000442007
0.00866628
0.000495546
0.00864322
0.000548769
0.00861918
0.000602531
0.00859407
0.000657194
0.00856785
0.000712975
0.00854063
0.00076999
0.00851251
0.000828488
0.00848365
0.000888629
0.0084541
0.000950792
0.00842428
0.00101482
0.00839466
0.00108086
0.00836535
0.00114934
0.00833566
0.00122111
0.00830639
0.00129518
0.00827923
0.00137179
0.00825506
0.00145122
0.00823345
0.00153451
0.00821537
0.00162078
0.00820103
0.0017115
0.00819178
0.00180549
0.00818778
0.00190442
0.00819074
0.00200672
0.00820103
0.00211431
0.00822049
0.00222519
0.00825053
0.00234123
0.00829269
0.00246016
0.00835042
0.00258273
0.00842457
0.00270758
0.00852084
0.00283241
0.00863978
0.00295751
0.00878818
0.00307611
0.00896655
0.00318973
0.00917942
0.00328669
0.00942622
0.00336773
0.00970413
0.00341752
0.0100089
0.00343004
0.0103123
0.00340017
0.00330194
0.0106049
0.00816085
3.0958e-06