/*--------------------------------*- C++ -*----------------------------------*\
| =========                 |                                                 |
| \\      /  F ield         | OpenFOAM: The Open Source CFD Toolbox           |
|  \\    /   O peration     | Version:  2412                                  |
|   \\  /    A nd           | Website:  www.openfoam.com                      |
|    \\/     M anipulation  |                                                 |
\*---------------------------------------------------------------------------*/
FoamFile
{
    version     2.0;
    format      ascii;
    arch        "LSB;label=32;scalar=64";
    class       volScalarField;
    location    "15.5";
    object      T;
}
// * * * * * * * * * * * * * * * * * * * * * * * * * * * * * * * * * * * * * //

dimensions      [0 0 0 1 0 0 0];

internalField   nonuniform List<scalar> 
7000
(
1.31911
2.65686
2.71979
2.66987
2.6647
2.64802
2.64461
2.64732
2.64944
2.65156
2.65289
2.65385
2.65498
2.65643
2.65777
2.65963
2.66109
2.66324
2.66493
2.66727
2.66933
2.67175
2.67422
2.67673
2.67957
2.68223
2.68535
2.68825
2.69152
2.69473
2.69808
2.7016
2.70498
2.7087
2.71213
2.7159
2.71941
2.72305
2.72661
2.72993
2.73345
2.73631
2.73956
2.74195
2.74457
2.74666
2.74849
2.75039
2.75103
2.75264
1.31918
2.65708
2.72004
2.66997
2.66483
2.64814
2.64474
2.64744
2.64957
2.65167
2.653
2.65397
2.65509
2.65654
2.65787
2.65974
2.66119
2.66334
2.66503
2.66736
2.66942
2.67184
2.67431
2.67681
2.67965
2.68231
2.68542
2.68831
2.69158
2.69479
2.69814
2.70164
2.70502
2.70873
2.71215
2.71591
2.71941
2.72304
2.72659
2.7299
2.7334
2.73625
2.73949
2.74184
2.74447
2.7465
2.74834
2.75017
2.75074
2.7522
1.31915
2.65699
2.71993
2.66995
2.66479
2.64808
2.64468
2.64738
2.64949
2.65161
2.65292
2.6539
2.655
2.65646
2.65778
2.65965
2.66108
2.66325
2.66491
2.66727
2.66929
2.67173
2.67417
2.67669
2.6795
2.68217
2.68525
2.68817
2.6914
2.69463
2.69794
2.70146
2.70481
2.70853
2.71194
2.7157
2.7192
2.72283
2.72639
2.72968
2.73321
2.73602
2.73928
2.74162
2.74423
2.74632
2.74805
2.74993
2.75052
2.75197
1.31913
2.65681
2.71975
2.66995
2.66474
2.64797
2.64458
2.64722
2.64943
2.65144
2.65283
2.65372
2.65489
2.65627
2.65766
2.65945
2.66096
2.66302
2.66479
2.66701
2.66915
2.67146
2.67401
2.6764
2.67932
2.68185
2.68505
2.68781
2.69119
2.69423
2.6977
2.70103
2.70453
2.70807
2.71161
2.71522
2.71881
2.72235
2.72593
2.72924
2.73269
2.73564
2.73875
2.74124
2.7437
2.74584
2.74769
2.74934
2.75003
2.75143
1.31909
2.65659
2.71952
2.66997
2.66469
2.64786
2.64445
2.64713
2.64924
2.65133
2.65262
2.6536
2.65467
2.65612
2.65742
2.65928
2.66071
2.66283
2.66451
2.66679
2.66885
2.67121
2.67369
2.67612
2.67896
2.68156
2.68463
2.68752
2.69067
2.69395
2.6971
2.70072
2.70386
2.70773
2.71086
2.71484
2.718
2.72187
2.7251
2.72862
2.73192
2.73486
2.73814
2.74038
2.74318
2.74494
2.74697
2.74878
2.74915
2.75078
1.31905
2.6563
2.71923
2.67001
2.66464
2.64772
2.64427
2.64704
2.64897
2.65123
2.65231
2.65348
2.65432
2.65599
2.65704
2.65913
2.6603
2.66266
2.66405
2.6666
2.66834
2.671
2.67312
2.67586
2.67834
2.68123
2.68398
2.68709
2.69005
2.69337
2.69652
2.70002
2.70329
2.70693
2.71029
2.71394
2.71746
2.72086
2.72457
2.72747
2.73129
2.73365
2.73718
2.73941
2.74204
2.74425
2.7457
2.74775
2.74842
2.74953
1.319
2.65594
2.71886
2.67007
2.66458
2.6475
2.64409
2.64666
2.64891
2.65082
2.65222
2.65304
2.65421
2.65552
2.65691
2.65861
2.66014
2.66209
2.66388
2.66598
2.66813
2.67032
2.67288
2.67512
2.67807
2.6804
2.68366
2.68616
2.68962
2.69239
2.69592
2.69903
2.70252
2.70588
2.7094
2.71279
2.71644
2.7197
2.72337
2.72651
2.72984
2.73292
2.73551
2.73832
2.74058
2.74274
2.74478
2.74621
2.74668
2.74853
1.31894
2.6555
2.71843
2.67013
2.6645
2.64727
2.64383
2.64641
2.6486
2.65056
2.65185
2.65277
2.65379
2.6552
2.65647
2.65823
2.6597
2.66165
2.66341
2.66549
2.66761
2.66979
2.67226
2.67458
2.67733
2.67988
2.68279
2.68565
2.68859
2.69186
2.69474
2.69839
2.70124
2.70509
2.70801
2.7119
2.71486
2.71868
2.72168
2.72521
2.72831
2.73117
2.7345
2.73629
2.73936
2.74099
2.74268
2.74492
2.7455
2.74639
1.31887
2.65498
2.7179
2.67022
2.66441
2.647
2.64351
2.64615
2.64821
2.65024
2.65143
2.65239
2.65332
2.6548
2.65593
2.6578
2.65908
2.66118
2.66274
2.66494
2.66689
2.66915
2.67149
2.67382
2.67649
2.67899
2.68191
2.6846
2.68769
2.69061
2.69385
2.69693
2.7003
2.7035
2.70694
2.71013
2.71374
2.71671
2.72042
2.7231
2.72678
2.72913
2.73244
2.73471
2.73669
2.73939
2.74093
2.74226
2.74274
2.74481
1.31879
2.65438
2.71729
2.67032
2.66431
2.64664
2.64317
2.64568
2.64786
2.64976
2.651
2.65191
2.65281
2.65428
2.65537
2.65722
2.65847
2.66051
2.66208
2.66418
2.66617
2.66829
2.6707
2.67286
2.6756
2.67792
2.68085
2.68347
2.68646
2.68942
2.6924
2.69565
2.69865
2.70206
2.70511
2.70859
2.71163
2.71512
2.71806
2.72139
2.7242
2.72716
2.72981
2.73232
2.73478
2.73599
2.73835
2.74037
2.74093
2.74145
1.31869
2.65367
2.71659
2.67044
2.66419
2.64628
2.64272
2.64534
2.64728
2.64935
2.65037
2.6514
2.65217
2.65367
2.65471
2.6565
2.65777
2.65971
2.66129
2.66335
2.66525
2.66741
2.66963
2.67193
2.67437
2.67688
2.67948
2.68226
2.68497
2.68799
2.6908
2.694
2.69688
2.70022
2.70315
2.70647
2.70955
2.71263
2.71594
2.71852
2.72205
2.72402
2.72736
2.72902
2.73164
2.73385
2.73467
2.73618
2.73668
2.73903
1.31859
2.65286
2.71578
2.67057
2.66405
2.64583
2.64223
2.64477
2.64679
2.6487
2.64981
2.65069
2.65154
2.6529
2.65397
2.65569
2.65693
2.65882
2.66038
2.66232
2.66429
2.66623
2.66861
2.67058
2.67327
2.67535
2.67824
2.68055
2.68351
2.68615
2.68906
2.69202
2.69488
2.69799
2.7009
2.704
2.707
2.70992
2.713
2.71569
2.71851
2.72121
2.72345
2.72596
2.72752
2.72924
2.73157
2.73331
2.73385
2.73384
1.31846
2.65195
2.71486
2.67072
2.66388
2.64531
2.64167
2.64416
2.64612
2.64807
2.64903
2.65003
2.6507
2.65215
2.65305
2.65481
2.65595
2.65784
2.65929
2.66126
2.66304
2.66509
2.66717
2.66934
2.67164
2.674
2.67639
2.67902
2.68146
2.68434
2.68685
2.6899
2.69246
2.69556
2.69823
2.70123
2.70401
2.70687
2.7096
2.71225
2.71501
2.71694
2.71985
2.72124
2.72379
2.72505
2.72556
2.72684
2.72731
2.73002
1.31833
2.65094
2.71379
2.67108
2.66351
2.64476
2.64101
2.64349
2.64536
2.64729
2.6482
2.64915
2.64982
2.65113
2.65215
2.65367
2.65498
2.65655
2.65821
2.65984
2.66182
2.66353
2.66578
2.66764
2.67007
2.6721
2.67467
2.67686
2.67952
2.68192
2.68461
2.68722
2.68987
2.69262
2.6952
2.69797
2.70054
2.70313
2.7058
2.70789
2.71067
2.7125
2.71447
2.71639
2.71736
2.71945
2.72111
2.72234
2.72263
2.72181
1.3182
2.64987
2.7125
2.67182
2.66279
2.64413
2.64026
2.6427
2.64452
2.64637
2.64729
2.64813
2.64877
2.65007
2.65097
2.65248
2.65368
2.65525
2.65681
2.6584
2.66028
2.66194
2.66406
2.66585
2.66813
2.67014
2.67246
2.67475
2.67699
2.67957
2.68172
2.68453
2.68667
2.68949
2.69173
2.69431
2.69671
2.69891
2.70137
2.70329
2.70532
2.70721
2.70893
2.71012
2.71159
2.71144
2.71176
2.71232
2.71286
2.71537
1.31805
2.64865
2.71115
2.67238
2.66216
2.64342
2.63941
2.64185
2.64348
2.64543
2.64614
2.64705
2.64764
2.64889
2.64965
2.65121
2.65219
2.65385
2.65517
2.65684
2.65849
2.66022
2.66206
2.66394
2.66587
2.668
2.66994
2.67228
2.67422
2.6767
2.67869
2.68116
2.68328
2.68561
2.68782
2.68996
2.69214
2.69411
2.69605
2.69778
2.6994
2.70041
2.70181
2.70246
2.70296
2.70442
2.70407
2.70438
2.70318
2.7015
1.31788
2.64731
2.7097
2.67293
2.66147
2.64262
2.63844
2.64095
2.64233
2.6443
2.64496
2.64577
2.64631
2.6475
2.64824
2.64972
2.65067
2.65215
2.6535
2.65499
2.65659
2.65819
2.65993
2.66171
2.66353
2.66546
2.66735
2.66939
2.67137
2.67343
2.67546
2.67751
2.67952
2.68154
2.68341
2.6853
2.68699
2.68863
2.69019
2.6913
2.69273
2.69316
2.69369
2.69365
2.69288
2.69094
2.69031
2.68836
2.68773
2.68846
1.3177
2.64585
2.70813
2.67351
2.66072
2.64171
2.63737
2.63981
2.64112
2.64299
2.64361
2.64435
2.64485
2.64592
2.64671
2.64789
2.64905
2.65019
2.65171
2.65284
2.6546
2.65581
2.65773
2.65906
2.66102
2.66251
2.66446
2.66613
2.66799
2.66986
2.67155
2.67353
2.67505
2.67698
2.6784
2.67997
2.68133
2.68227
2.68345
2.68369
2.68441
2.68423
2.68383
2.6828
2.68161
2.67991
2.67561
2.67237
2.66665
2.66127
1.31751
2.64431
2.70648
2.6741
2.6599
2.6407
2.63617
2.63851
2.63974
2.64154
2.64211
2.64276
2.64323
2.64423
2.64494
2.64605
2.6471
2.64822
2.64956
2.65069
2.65225
2.65348
2.65507
2.65649
2.65802
2.65969
2.66105
2.66293
2.66413
2.6661
2.66725
2.66908
2.67029
2.67171
2.67302
2.67391
2.67512
2.67544
2.67612
2.67597
2.67513
2.67434
2.67182
2.66963
2.6648
2.65944
2.65417
2.6447
2.63505
2.62325
1.3173
2.64271
2.7048
2.67466
2.65896
2.63959
2.63479
2.63712
2.6382
2.63988
2.64042
2.641
2.64141
2.64234
2.64294
2.64407
2.64499
2.64603
2.64721
2.64834
2.64961
2.65089
2.65216
2.65366
2.65482
2.65649
2.65757
2.65924
2.66032
2.6618
2.66294
2.66406
2.66523
2.66591
2.66687
2.66712
2.66767
2.66752
2.66713
2.66622
2.66516
2.66252
2.66031
2.655
2.6503
2.6402
2.62726
2.6107
2.58183
2.51148
1.31729
2.64182
2.70033
2.67517
2.6575
2.63781
2.63266
2.63488
2.63581
2.63734
2.63792
2.63827
2.63879
2.63928
2.64021
2.6408
2.64197
2.64261
2.64388
2.64462
2.64594
2.64686
2.6481
2.64921
2.65037
2.65155
2.65266
2.65377
2.65484
2.65575
2.65671
2.65737
2.65803
2.65837
2.65861
2.6583
2.65768
2.65675
2.6548
2.65271
2.64849
2.64488
2.63715
2.63107
2.618
2.60587
2.58273
2.54685
2.48917
2.36415
1.31727
2.64083
2.69559
2.67535
2.65559
2.63542
2.62979
2.63192
2.6327
2.63419
2.63474
2.63504
2.63546
2.63591
2.63665
2.63725
2.63814
2.63882
2.63971
2.64055
2.64139
2.64235
2.64313
2.64416
2.64486
2.64587
2.64648
2.64739
2.64786
2.64857
2.64879
2.6493
2.64925
2.64909
2.64863
2.64807
2.64658
2.64532
2.64222
2.63978
2.63475
2.62867
2.62113
2.60754
2.59459
2.56828
2.5413
2.49123
2.41663
2.31746
1.31725
2.64016
2.69309
2.67519
2.65401
2.63312
2.62686
2.62873
2.62946
2.63089
2.63148
2.63166
2.632
2.63238
2.63297
2.63351
2.63424
2.63487
2.63561
2.63633
2.63704
2.63781
2.6385
2.63924
2.63986
2.6405
2.64099
2.64142
2.64169
2.64184
2.64168
2.64129
2.64075
2.63954
2.63835
2.63597
2.63394
2.63
2.62689
2.62055
2.61593
2.60586
2.59836
2.58331
2.5662
2.54267
2.50601
2.46356
2.39157
2.31781
1.31713
2.63901
2.69226
2.67399
2.65206
2.6303
2.6236
2.62554
2.62637
2.62787
2.62839
2.62844
2.62853
2.62878
2.62901
2.62945
2.62973
2.63021
2.63052
2.63105
2.63137
2.6319
2.63225
2.63276
2.6331
2.63355
2.63383
2.63421
2.6343
2.63437
2.63425
2.63391
2.63333
2.63205
2.63081
2.62802
2.62573
2.62094
2.61648
2.60941
2.60106
2.59123
2.57705
2.5631
2.54088
2.51783
2.48417
2.44331
2.39053
2.32814
1.31688
2.64013
2.70389
2.67066
2.65208
2.62871
2.6215
2.62423
2.62519
2.62703
2.6275
2.62745
2.6274
2.62743
2.62751
2.62759
2.62765
2.62766
2.62764
2.62758
2.62748
2.62729
2.62711
2.62674
2.62645
2.62593
2.62554
2.62468
2.62418
2.62303
2.62236
2.62084
2.61995
2.61789
2.61656
2.61388
2.61103
2.60752
2.60213
2.59675
2.58767
2.57842
2.56446
2.54844
2.52829
2.50221
2.47323
2.4343
2.39162
2.34434
1.30177
2.58651
2.69842
2.67713
2.65963
2.6361
2.62921
2.63211
2.63317
2.63469
2.63456
2.63412
2.63345
2.6329
2.63231
2.63177
2.63114
2.63056
2.6299
2.62934
2.62865
2.62811
2.62737
2.62685
2.62596
2.6254
2.62413
2.6232
2.62132
2.61998
2.61726
2.61547
2.61187
2.60961
2.60505
2.60227
2.59655
2.59289
2.58593
2.58011
2.5715
2.56186
2.55026
2.5347
2.51767
2.49417
2.46858
2.43559
2.3979
2.35775
1.72058
2.46881
2.72863
2.70676
2.68427
2.67394
2.67445
2.67598
2.67737
2.67763
2.67641
2.67498
2.6733
2.67155
2.66953
2.66737
2.66491
2.66234
2.65947
2.65655
2.6533
2.65011
2.64653
2.64312
2.63911
2.63521
2.63079
2.62766
2.62382
2.6212
2.61758
2.61473
2.61058
2.60672
2.60169
2.59638
2.59044
2.58318
2.57641
2.56679
2.55868
2.54625
2.53568
2.51967
2.50479
2.48391
2.46253
2.43515
2.40545
2.3727
1.7325
2.46186
2.72311
2.70199
2.67732
2.66831
2.67218
2.67388
2.67654
2.67737
2.67754
2.67739
2.67711
2.6768
2.67609
2.67546
2.67411
2.67314
2.67108
2.66975
2.66702
2.66523
2.66189
2.6595
2.6557
2.65295
2.64872
2.64443
2.63903
2.63344
2.62708
2.62074
2.6147
2.60853
2.60293
2.59579
2.58983
2.581
2.57348
2.56265
2.55293
2.53983
2.5272
2.51152
2.49518
2.47627
2.45547
2.43246
2.40711
2.38103
1.72925
2.46739
2.72506
2.70227
2.67373
2.66423
2.66905
2.67148
2.67463
2.67575
2.67607
2.67621
2.67634
2.67631
2.6762
2.67593
2.67531
2.67489
2.67395
2.67321
2.6717
2.67043
2.6684
2.6664
2.66378
2.66087
2.65768
2.65381
2.64988
2.64479
2.64025
2.63362
2.62774
2.61869
2.61155
2.60139
2.59346
2.58316
2.57456
2.56331
2.55297
2.54006
2.52705
2.51176
2.49564
2.47728
2.45748
2.43567
2.41208
2.38914
1.73198
2.46064
2.7205
2.69674
2.67065
2.66096
2.66552
2.66774
2.67092
2.67215
2.67256
2.67282
2.67315
2.67343
2.67369
2.6737
2.6736
2.67332
2.67289
2.67214
2.67147
2.67012
2.66913
2.66709
2.66576
2.66302
2.66122
2.65748
2.65509
2.65014
2.64704
2.64078
2.6365
2.629
2.62289
2.61374
2.60525
2.59392
2.58316
2.57037
2.55783
2.54404
2.53012
2.51478
2.49866
2.48103
2.46277
2.44272
2.42159
2.40086
1.74119
2.44243
2.70891
2.68435
2.66688
2.65748
2.66042
2.6621
2.6652
2.66624
2.6669
2.66697
2.66718
2.66729
2.6674
2.66739
2.66733
2.66713
2.66694
2.66645
2.6661
2.66529
2.6647
2.66341
2.66246
2.66038
2.65898
2.65598
2.65403
2.64998
2.64708
2.6421
2.638
2.63198
2.62632
2.61899
2.6116
2.60256
2.59294
2.58172
2.56963
2.55578
2.54116
2.52514
2.5088
2.4911
2.47284
2.45354
2.43348
2.41395
1.73617
2.43595
2.70551
2.67673
2.66904
2.65576
2.65586
2.65786
2.66084
2.66195
2.663
2.6631
2.66336
2.66353
2.66369
2.66374
2.66371
2.66359
2.66343
2.66306
2.66276
2.66207
2.66155
2.66043
2.65964
2.65791
2.65672
2.6542
2.65246
2.64913
2.64641
2.6422
2.6382
2.63305
2.62786
2.62144
2.6148
2.60689
2.59859
2.58898
2.57874
2.56705
2.55452
2.54042
2.52536
2.50893
2.49172
2.4734
2.45431
2.43569
1.3569
2.46689
2.67907
2.66841
2.64643
2.62379
2.61673
2.62077
2.62274
2.62561
2.62704
2.62805
2.62885
2.62983
2.63053
2.63158
2.63222
2.63315
2.63363
2.6344
2.63469
2.63537
2.63548
2.63559
2.63557
2.63543
2.63517
2.63454
2.63395
2.63268
2.63158
2.6296
2.62766
2.62463
2.62143
2.61686
2.61184
2.60547
2.59855
2.59031
2.58159
2.57151
2.56086
2.54903
2.53631
2.52242
2.50762
2.49178
2.47501
2.45856
1.36029
2.47631
2.68621
2.67703
2.65244
2.62344
2.61381
2.61463
2.61662
2.61859
2.61941
2.61951
2.61972
2.61976
2.62002
2.62036
2.62073
2.62105
2.62138
2.6216
2.62186
2.62193
2.62206
2.62195
2.62176
2.62132
2.6209
2.61997
2.61922
2.61775
2.6164
2.61426
2.61215
2.60927
2.60626
2.60276
2.59896
2.59455
2.58951
2.58391
2.57723
2.56968
2.56072
2.5508
2.53998
2.52831
2.51596
2.50276
2.4887
2.47491
1.34956
2.41209
2.66902
2.66945
2.65002
2.62361
2.61384
2.6139
2.6146
2.61517
2.61484
2.61397
2.61323
2.6122
2.61154
2.61085
2.61036
2.60971
2.60924
2.60859
2.60813
2.60749
2.60701
2.60632
2.60577
2.60497
2.60428
2.60341
2.60255
2.6014
2.60005
2.59841
2.59643
2.59413
2.59137
2.58825
2.58461
2.58056
2.57595
2.57069
2.56492
2.55869
2.55199
2.54462
2.53657
2.52726
2.51673
2.50565
2.49386
2.4825
1.74187
2.39621
2.67439
2.66105
2.65209
2.6382
2.63303
2.63327
2.63303
2.63274
2.63196
2.6307
2.62933
2.62763
2.62606
2.62444
2.62281
2.62105
2.61926
2.61735
2.61543
2.61341
2.61135
2.60922
2.60704
2.60485
2.60257
2.6004
2.59801
2.59552
2.59304
2.59036
2.58761
2.58453
2.58137
2.57771
2.57396
2.56955
2.56503
2.55972
2.55426
2.54794
2.54147
2.53412
2.52642
2.51831
2.51012
2.50107
2.49129
2.48168
1.34691
2.39491
2.65976
2.66565
2.64932
2.62402
2.61541
2.61404
2.61531
2.61556
2.61528
2.61492
2.61404
2.61306
2.61245
2.61153
2.61083
2.60971
2.60878
2.6074
2.6063
2.60488
2.60374
2.60222
2.60096
2.59908
2.59747
2.59497
2.59295
2.59025
2.58788
2.58484
2.58201
2.5785
2.57525
2.57137
2.56763
2.56327
2.55891
2.55395
2.54877
2.54299
2.53683
2.53016
2.52294
2.5153
2.50711
2.49862
2.48962
2.48094
1.34822
2.4057
2.66688
2.67112
2.65079
2.62203
2.61075
2.61056
2.61153
2.61225
2.61212
2.61143
2.61067
2.60968
2.60908
2.60834
2.60773
2.60684
2.60601
2.60487
2.6037
2.60203
2.60031
2.59814
2.59593
2.59344
2.59087
2.58809
2.58513
2.58204
2.57871
2.57533
2.57174
2.56819
2.56422
2.56031
2.5559
2.55162
2.54676
2.54206
2.53674
2.5316
2.52577
2.52005
2.51362
2.50721
2.50005
2.49273
2.48493
2.47753
1.34764
2.40132
2.6641
2.66916
2.64818
2.61872
2.60668
2.60653
2.60734
2.60826
2.60797
2.60714
2.6063
2.60522
2.60448
2.60376
2.60311
2.60233
2.60155
2.60063
2.59964
2.5985
2.59719
2.59571
2.59397
2.59206
2.58981
2.58744
2.58465
2.58177
2.57844
2.57503
2.57118
2.5673
2.56299
2.55859
2.55374
2.54877
2.54341
2.53789
2.53207
2.52605
2.51979
2.51327
2.5066
2.49961
2.49257
2.48509
2.47752
2.47017
1.3448
2.37824
2.64684
2.66132
2.64215
2.61429
2.60245
2.60101
2.60131
2.60155
2.60089
2.60014
2.59879
2.59771
2.59662
2.59577
2.59472
2.59381
2.59265
2.59163
2.59036
2.58925
2.58787
2.58663
2.58512
2.58369
2.58196
2.58023
2.57817
2.57606
2.5736
2.57098
2.56798
2.56472
2.56107
2.55715
2.55291
2.54834
2.54347
2.53817
2.53267
2.52671
2.52057
2.51397
2.50723
2.50006
2.49281
2.48529
2.47766
2.47031
1.75164
2.37245
2.64475
2.64104
2.62754
2.61346
2.60857
2.60882
2.6088
2.60869
2.60812
2.60747
2.60626
2.60513
2.60386
2.60276
2.6014
2.6001
2.59853
2.59701
2.59523
2.59348
2.59151
2.58954
2.58737
2.58518
2.5828
2.58035
2.57774
2.57503
2.57224
2.56929
2.56624
2.56292
2.55949
2.5557
2.55178
2.54744
2.54288
2.53792
2.53268
2.52709
2.52127
2.51515
2.50881
2.50217
2.49527
2.48811
2.48059
2.47345
1.34689
2.38781
2.65197
2.65957
2.63902
2.60862
2.59727
2.59588
2.59752
2.59884
2.59868
2.59816
2.59757
2.59629
2.59559
2.59438
2.59361
2.59213
2.59114
2.58942
2.58783
2.586
2.58414
2.58201
2.57991
2.5777
2.5756
2.57333
2.57116
2.56871
2.56615
2.56327
2.5603
2.55704
2.55369
2.55009
2.54634
2.54238
2.53829
2.53398
2.52947
2.52468
2.51959
2.51415
2.50841
2.50234
2.49602
2.48948
2.48264
2.47606
1.35057
2.41097
2.65438
2.64851
2.62661
2.59602
2.58522
2.58549
2.58728
2.58921
2.58957
2.58934
2.58888
2.58812
2.58762
2.58711
2.58664
2.58604
2.58537
2.58459
2.58369
2.58268
2.58151
2.5802
2.57869
2.57684
2.57473
2.57232
2.56967
2.56677
2.56377
2.56056
2.55722
2.55369
2.55002
2.54615
2.54213
2.53791
2.53354
2.52898
2.52425
2.51934
2.51434
2.50921
2.50386
2.49836
2.49261
2.48664
2.4804
2.47442
1.77161
2.37147
2.63734
2.61675
2.61034
2.59496
2.59226
2.59297
2.59413
2.59542
2.59518
2.59472
2.5944
2.59376
2.59323
2.59268
2.59213
2.59148
2.59079
2.59
2.58914
2.58817
2.58711
2.5859
2.58459
2.58309
2.58144
2.57956
2.57749
2.57508
2.57235
2.56931
2.56598
2.56237
2.5585
2.55439
2.55004
2.54548
2.54072
2.53576
2.53059
2.52522
2.51956
2.51374
2.50775
2.50161
2.4954
2.48909
2.48265
2.47652
1.79832
2.35428
2.62528
2.60499
2.60176
2.59179
2.58841
2.58862
2.58887
2.58943
2.58917
2.58854
2.58793
2.58688
2.58589
2.58475
2.58361
2.58226
2.58091
2.57936
2.57783
2.57611
2.57447
2.57268
2.57098
2.56914
2.56738
2.56546
2.5636
2.56165
2.55981
2.55779
2.55584
2.55366
2.55146
2.54897
2.54639
2.54344
2.54012
2.53645
2.53254
2.52837
2.52396
2.51926
2.51432
2.50908
2.50355
2.49773
2.49162
2.48572
1.76309
2.38077
2.64905
2.61839
2.6126
2.59844
2.59523
2.59734
2.59881
2.59965
2.59939
2.59889
2.59784
2.59664
2.59536
2.59405
2.59261
2.5911
2.58947
2.58778
2.58597
2.58415
2.58205
2.57988
2.57742
2.57493
2.57215
2.56937
2.56631
2.56329
2.56
2.55679
2.55333
2.54986
2.54615
2.54246
2.53853
2.53466
2.53077
2.52688
2.52281
2.51865
2.51429
2.50989
2.5053
2.50063
2.49576
2.49079
2.48556
2.48063
1.28599
2.49343
2.64417
2.64157
2.61634
2.58358
2.57149
2.57193
2.57458
2.57697
2.57825
2.57848
2.57872
2.5787
2.57864
2.57857
2.57841
2.5781
2.57762
2.57697
2.57612
2.57507
2.5739
2.57254
2.57106
2.56935
2.56762
2.56545
2.56322
2.5608
2.55819
2.55539
2.5523
2.54909
2.5456
2.54202
2.53818
2.53425
2.53009
2.52587
2.52145
2.51699
2.51251
2.50777
2.50293
2.49785
2.49268
2.48728
2.48178
2.47651
1.77235
2.36631
2.63828
2.61607
2.6097
2.59423
2.58929
2.59021
2.59064
2.59224
2.59188
2.59133
2.5909
2.59014
2.58943
2.58859
2.58785
2.5869
2.58601
2.58488
2.58379
2.58247
2.58118
2.57964
2.57812
2.57632
2.57454
2.57243
2.57012
2.5675
2.56472
2.56163
2.55858
2.55525
2.55195
2.54833
2.54472
2.54075
2.53681
2.53248
2.52818
2.52346
2.51863
2.51355
2.50841
2.50306
2.49763
2.49201
2.48629
2.48082
1.77377
2.36449
2.63615
2.61412
2.6078
2.59244
2.58748
2.58857
2.58965
2.59074
2.5913
2.59081
2.59037
2.5896
2.58876
2.58784
2.58687
2.58575
2.58452
2.58316
2.58171
2.58014
2.57847
2.57671
2.57485
2.5729
2.57084
2.56876
2.56672
2.56459
2.56243
2.56012
2.55762
2.55493
2.55203
2.549
2.54576
2.54242
2.53884
2.53518
2.53125
2.52726
2.52299
2.51866
2.51404
2.50938
2.50442
2.49944
2.49415
2.4891
1.28539
2.48975
2.64143
2.63885
2.61316
2.57843
2.56547
2.56494
2.5675
2.56955
2.57053
2.57048
2.57035
2.56997
2.56967
2.5692
2.56891
2.56829
2.56785
2.56695
2.56631
2.56514
2.56426
2.56281
2.56171
2.56007
2.55843
2.55667
2.55476
2.55276
2.55063
2.54844
2.54611
2.54372
2.54117
2.53854
2.5357
2.53279
2.52966
2.52643
2.52297
2.51941
2.51564
2.51176
2.50767
2.50346
2.49907
2.49455
2.48985
2.48534
1.76744
2.37185
2.63935
2.60878
2.60236
2.58635
2.5833
2.58545
2.58636
2.58853
2.5883
2.58779
2.58735
2.58655
2.58579
2.58492
2.5841
2.58308
2.58206
2.58086
2.57964
2.57827
2.57684
2.57529
2.57365
2.57191
2.57003
2.56807
2.56594
2.56374
2.56134
2.55876
2.556
2.55306
2.54996
2.5467
2.54328
2.53971
2.53601
2.53225
2.52833
2.52434
2.52018
2.51594
2.51152
2.50702
2.50234
2.49758
2.49263
2.48792
1.79555
2.3548
2.62266
2.59459
2.59065
2.57897
2.57569
2.57688
2.57719
2.57793
2.57775
2.57736
2.57693
2.57621
2.57552
2.57478
2.57401
2.57313
2.57218
2.57112
2.56999
2.56875
2.56742
2.56601
2.5645
2.56291
2.5612
2.55943
2.55753
2.55558
2.5535
2.55149
2.54932
2.5472
2.54489
2.5426
2.54009
2.53753
2.53469
2.53176
2.52855
2.52528
2.52178
2.51821
2.51441
2.51054
2.50644
2.50227
2.49785
2.49368
1.80017
2.34958
2.6176
2.59148
2.58785
2.5766
2.57278
2.57344
2.57362
2.57403
2.5739
2.5735
2.57303
2.57229
2.57154
2.57077
2.56994
2.56903
2.56802
2.56693
2.56572
2.56444
2.56301
2.56153
2.5599
2.55821
2.55634
2.55443
2.55233
2.55019
2.54786
2.5455
2.54294
2.54035
2.53757
2.53476
2.53177
2.52881
2.52569
2.52257
2.51929
2.51599
2.51248
2.50894
2.5052
2.50143
2.49746
2.49344
2.4892
2.48523
1.78048
2.3549
2.615
2.60194
2.59234
2.57589
2.57086
2.57132
2.57193
2.57257
2.57257
2.5721
2.5716
2.57079
2.57001
2.56925
2.56843
2.56755
2.56655
2.56551
2.56432
2.5631
2.56172
2.56032
2.55872
2.55712
2.55531
2.55349
2.55145
2.54941
2.54712
2.54484
2.54231
2.53978
2.537
2.53421
2.53117
2.52813
2.52484
2.52155
2.51801
2.51448
2.5107
2.50693
2.50292
2.4989
2.49466
2.4904
2.48591
2.48172
1.34466
2.37875
2.63694
2.63679
2.61454
2.58102
2.56676
2.56436
2.56566
2.56679
2.56675
2.56649
2.5658
2.56484
2.56391
2.56317
2.5623
2.56148
2.56044
2.55943
2.55819
2.557
2.55557
2.55417
2.55253
2.55092
2.54906
2.54722
2.54513
2.54305
2.54072
2.5384
2.53582
2.53324
2.53042
2.52758
2.52449
2.52139
2.51805
2.51468
2.51106
2.50743
2.50355
2.49964
2.49552
2.49135
2.48698
2.48258
2.47797
2.4736
1.34582
2.38605
2.6519
2.6566
2.6305
2.5919
2.57428
2.5719
2.57355
2.57483
2.5753
2.57496
2.57414
2.57317
2.5721
2.57125
2.57037
2.56949
2.56845
2.56739
2.56617
2.56495
2.56356
2.56216
2.5606
2.55902
2.55728
2.55551
2.55358
2.5516
2.54946
2.54726
2.54491
2.54249
2.53992
2.53727
2.53447
2.53157
2.52852
2.52537
2.52207
2.51866
2.5151
2.51143
2.50761
2.50367
2.4996
2.49541
2.49108
2.4869
1.34501
2.37818
2.63532
2.63572
2.61277
2.57938
2.56416
2.56215
2.56352
2.56443
2.56488
2.56445
2.56376
2.56275
2.56183
2.56101
2.56023
2.55937
2.55844
2.55741
2.55631
2.55512
2.55388
2.55252
2.55112
2.54959
2.54801
2.5463
2.54453
2.54263
2.54067
2.53856
2.5364
2.53408
2.53172
2.52918
2.52661
2.52384
2.52104
2.51805
2.51501
2.51178
2.50851
2.50504
2.50154
2.49782
2.49408
2.49012
2.48612
2.48218
1.78186
2.35311
2.61241
2.5986
2.58869
2.57079
2.56569
2.56606
2.56663
2.56772
2.56757
2.56705
2.56658
2.56572
2.565
2.56421
2.56348
2.56258
2.56171
2.56064
2.55961
2.55838
2.55719
2.5558
2.55445
2.55287
2.55134
2.54957
2.54785
2.54589
2.54397
2.5418
2.53968
2.5373
2.53496
2.53236
2.5298
2.52698
2.5242
2.52115
2.51814
2.51485
2.5116
2.50807
2.50459
2.50082
2.4971
2.49309
2.48909
2.48511
1.8024
2.34588
2.61307
2.58602
2.58251
2.57125
2.56771
2.56878
2.56906
2.56954
2.56941
2.5689
2.5684
2.56749
2.56672
2.56581
2.565
2.56397
2.56303
2.56181
2.56069
2.55928
2.558
2.55643
2.55497
2.55321
2.55156
2.54958
2.54771
2.54554
2.54346
2.54109
2.53879
2.53619
2.53365
2.53082
2.52804
2.52499
2.52198
2.51869
2.51544
2.51192
2.50843
2.50466
2.50093
2.49692
2.49296
2.48872
2.48451
2.48032
1.78918
2.35961
2.62562
2.59405
2.58748
2.57339
2.57089
2.57292
2.57439
2.57535
2.57534
2.57481
2.57436
2.57348
2.57281
2.57192
2.57119
2.57015
2.56927
2.56805
2.56702
2.56562
2.56441
2.56285
2.56146
2.55972
2.55814
2.55622
2.55442
2.55231
2.55028
2.54797
2.54574
2.54322
2.54075
2.53801
2.5353
2.53234
2.52939
2.52619
2.52301
2.51957
2.51615
2.51247
2.50881
2.50488
2.50099
2.49682
2.49268
2.48856
2.17227
2.34397
2.76494
2.85889
2.90924
2.8538
2.84956
2.84789
2.83997
2.83845
2.84051
2.84202
2.8427
2.8432
2.8442
2.84515
2.84646
2.84781
2.84853
2.84894
2.84899
2.84813
2.84658
2.84535
2.84211
2.83881
2.83506
2.83021
2.82489
2.81963
2.81338
2.80729
2.8005
2.79368
2.78654
2.77936
2.77189
2.76398
2.75548
2.74727
2.73873
2.73049
2.72186
2.71357
2.70495
2.69671
2.6882
2.68011
2.67183
2.66396
2.65601
2.64843
2.64087
2.63371
2.62661
2.61997
2.61343
2.60743
2.60156
2.59631
2.59126
2.58685
2.58276
2.57931
2.57629
2.5739
2.572
2.57074
2.56996
2.56976
2.5698
2.57001
2.57054
2.57188
2.57352
2.57588
2.57795
2.58038
2.58245
2.58483
2.58676
2.58891
2.59053
2.59229
2.59348
2.59476
2.5955
2.59627
2.59656
2.59693
2.59692
2.59686
2.59666
2.59622
2.59555
2.59476
2.594
2.59314
2.59237
2.58969
2.18014
2.25969
2.44965
2.62861
2.69581
2.74395
2.77772
2.8062
2.82328
2.83674
2.84553
2.85567
2.86233
2.86195
2.8579
2.85196
2.84341
2.83454
2.82403
2.81331
2.80205
2.79065
2.77885
2.76743
2.75552
2.74377
2.73187
2.72009
2.7083
2.69682
2.68508
2.67379
2.66226
2.65106
2.64
2.62934
2.61868
2.60773
2.59656
2.58571
2.57509
2.56477
2.55447
2.54452
2.53461
2.5251
2.51562
2.50657
2.49757
2.48894
2.48046
2.47228
2.46437
2.45672
2.44946
2.44243
2.43588
2.42959
2.42382
2.41837
2.41347
2.40896
2.40501
2.40156
2.39866
2.39634
2.39455
2.39339
2.39271
2.39261
2.39274
2.39311
2.39384
2.39531
2.39729
2.39981
2.40235
2.40492
2.40745
2.40986
2.41215
2.41419
2.41601
2.41751
2.41874
2.41965
2.42027
2.42063
2.42067
2.4206
2.4204
2.42004
2.41967
2.41888
2.41814
2.41705
2.41623
2.41513
2.41443
2.41165
2.22653
2.21197
2.27134
2.35672
2.41153
2.45889
2.49291
2.52104
2.54324
2.55977
2.57222
2.58138
2.58844
2.59054
2.58963
2.58755
2.5831
2.57782
2.57188
2.56518
2.55811
2.55064
2.54305
2.53533
2.52738
2.51937
2.51106
2.50287
2.49439
2.48617
2.47757
2.4694
2.46075
2.45263
2.44423
2.4366
2.42861
2.42058
2.41192
2.40356
2.39535
2.38736
2.37938
2.37157
2.36376
2.35614
2.34857
2.3412
2.3339
2.32685
2.3199
2.31321
2.30665
2.30039
2.29428
2.28851
2.28293
2.27774
2.27276
2.26823
2.26396
2.26019
2.25672
2.25381
2.25124
2.24926
2.24768
2.24669
2.24612
2.24606
2.24622
2.24659
2.24737
2.24858
2.25058
2.2528
2.25531
2.2577
2.26021
2.26248
2.26477
2.26671
2.2686
2.27006
2.27143
2.27232
2.27313
2.27346
2.27376
2.27371
2.27362
2.27343
2.27314
2.27252
2.27186
2.27096
2.27026
2.26938
2.26896
2.26676
2.25906
2.21953
2.21506
2.23984
2.27087
2.29333
2.3086
2.32032
2.33084
2.34001
2.34763
2.35361
2.35821
2.36174
2.3633
2.36345
2.36336
2.36318
2.36298
2.36266
2.36223
2.36157
2.36096
2.3597
2.35834
2.35657
2.35447
2.352
2.34923
2.34615
2.34279
2.33916
2.33523
2.33112
2.32693
2.32288
2.31866
2.31393
2.30862
2.3031
2.29766
2.29218
2.28672
2.28113
2.27556
2.26989
2.26427
2.25861
2.25303
2.24746
2.24198
2.23658
2.23129
2.22613
2.22111
2.21628
2.21162
2.20721
2.20301
2.19911
2.19549
2.1922
2.18925
2.18668
2.18451
2.18275
2.18145
2.18057
2.18023
2.18023
2.18046
2.18084
2.18161
2.18279
2.18467
2.18673
2.18911
2.19137
2.19378
2.19587
2.19804
2.19978
2.20154
2.2028
2.20405
2.20478
2.2055
2.20573
2.20597
2.20588
2.2058
2.20563
2.20537
2.2048
2.20426
2.20342
2.20284
2.20207
2.20184
2.19987
2.27433
2.24034
2.21847
2.21089
2.21793
2.22263
2.22469
2.22532
2.22622
2.22808
2.2307
2.23308
2.23494
2.23685
2.23942
2.24184
2.24393
2.24648
2.24904
2.25199
2.25481
2.2577
2.26026
2.26261
2.26451
2.26596
2.26689
2.26744
2.26718
2.26659
2.26562
2.26406
2.26217
2.25979
2.25738
2.25482
2.25212
2.24872
2.24475
2.24031
2.23587
2.23126
2.22664
2.22185
2.21701
2.21203
2.20703
2.20194
2.19688
2.19177
2.18673
2.18169
2.17676
2.17188
2.16717
2.16255
2.15814
2.1539
2.1499
2.14613
2.14264
2.13947
2.13659
2.13412
2.13198
2.13031
2.12898
2.12819
2.12783
2.12788
2.12806
2.12841
2.12918
2.13028
2.13208
2.13398
2.13627
2.13843
2.14077
2.14283
2.14491
2.14663
2.14827
2.14953
2.15065
2.15138
2.15197
2.1522
2.1523
2.15216
2.15204
2.15176
2.15144
2.15076
2.15019
2.1493
2.14871
2.14792
2.14777
2.14586
2.29806
2.2541
2.22982
2.20994
2.20004
2.19325
2.18745
2.18145
2.17652
2.17275
2.17091
2.17042
2.17096
2.17131
2.17241
2.17463
2.17722
2.18041
2.18337
2.18701
2.19041
2.19429
2.19766
2.20121
2.20399
2.20674
2.20856
2.21024
2.21096
2.21157
2.21137
2.21069
2.20961
2.20803
2.20639
2.2046
2.20258
2.19991
2.19664
2.19288
2.18901
2.1849
2.18077
2.17648
2.17213
2.16765
2.16312
2.1585
2.15385
2.14919
2.14452
2.1399
2.13531
2.13083
2.1264
2.12215
2.11799
2.11408
2.1103
2.10683
2.10353
2.10061
2.0979
2.09564
2.09362
2.0921
2.09089
2.09026
2.08999
2.09008
2.09028
2.09067
2.09141
2.09263
2.09423
2.0961
2.09817
2.10032
2.10247
2.1045
2.10642
2.10808
2.10957
2.11076
2.11174
2.11242
2.1129
2.1131
2.1131
2.11296
2.11281
2.11246
2.11212
2.11138
2.11083
2.10991
2.10935
2.10854
2.10844
2.10651
2.32169
2.28165
2.24788
2.22304
2.20253
2.18756
2.17516
2.16465
2.15515
2.14763
2.14173
2.13817
2.13603
2.13559
2.13566
2.13619
2.13801
2.14089
2.14406
2.14751
2.15112
2.15495
2.1587
2.16245
2.16585
2.16903
2.17161
2.17383
2.17537
2.17652
2.17698
2.17711
2.17654
2.17559
2.17457
2.17338
2.17192
2.16981
2.16713
2.16395
2.16056
2.1569
2.15317
2.14925
2.1453
2.14118
2.13703
2.13274
2.12844
2.12407
2.11971
2.11534
2.11102
2.10676
2.10258
2.09853
2.0946
2.09086
2.08728
2.08396
2.08085
2.07806
2.07552
2.07336
2.07151
2.0701
2.06905
2.06852
2.06837
2.0685
2.06873
2.0692
2.07003
2.07132
2.07291
2.07474
2.07675
2.07886
2.08096
2.08298
2.08484
2.08652
2.08797
2.08917
2.09014
2.09083
2.09132
2.0915
2.09152
2.0914