/*--------------------------------*- C++ -*----------------------------------*\
| =========                 |                                                 |
| \\      /  F ield         | OpenFOAM: The Open Source CFD Toolbox           |
|  \\    /   O peration     | Version:  2412                                  |
|   \\  /    A nd           | Website:  www.openfoam.com                      |
|    \\/     M anipulation  |                                                 |
\*---------------------------------------------------------------------------*/
FoamFile
{
    version     2.0;
    format      ascii;
    arch        "LSB;label=32;scalar=64";
    class       volVectorField;
    location    "15.5";
    object      U;
}
// * * * * * * * * * * * * * * * * * * * * * * * * * * * * * * * * * * * * * //

dimensions      [0 1 -1 0 0 0 0];

internalField   nonuniform List<vector> 
7000
(
(2.59108 -7.2487e-05 0)
(1.62057 0.000178498 0)
(0.495666 0.000209461 0)
(0.552974 0.000351369 0)
(0.654662 0.000447304 0)
(0.719858 0.000525495 0)
(0.732736 0.000593533 0)
(0.725838 0.000663909 0)
(0.715774 0.000742465 0)
(0.708077 0.000833113 0)
(0.70361 0.000932018 0)
(0.700042 0.00103548 0)
(0.695956 0.00114271 0)
(0.691099 0.00125463 0)
(0.685635 0.00137226 0)
(0.679687 0.00149617 0)
(0.673274 0.00162666 0)
(0.666362 0.00176405 0)
(0.658916 0.00190875 0)
(0.65091 0.00206132 0)
(0.64232 0.00222236 0)
(0.633125 0.00239254 0)
(0.623298 0.00257256 0)
(0.612813 0.00276319 0)
(0.601641 0.00296526 0)
(0.589751 0.00317963 0)
(0.577111 0.00340722 0)
(0.563688 0.00364898 0)
(0.549447 0.0039059 0)
(0.534351 0.00417894 0)
(0.518364 0.00446909 0)
(0.501447 0.00477724 0)
(0.483564 0.00510425 0)
(0.464676 0.00545077 0)
(0.444747 0.00581739 0)
(0.423745 0.00620423 0)
(0.401638 0.00661129 0)
(0.378405 0.00703786 0)
(0.354023 0.00748287 0)
(0.328493 0.00794431 0)
(0.301808 0.00841966 0)
(0.273998 0.00890507 0)
(0.245088 0.00939628 0)
(0.215135 0.00988749 0)
(0.184223 0.0103734 0)
(0.152421 0.0108479 0)
(0.119854 0.0113115 0)
(0.0868655 0.0117526 0)
(0.051498 0.0123399 0)
(0.0222271 0.01321 0)
(2.59121 -4.80688e-05 0)
(1.62074 0.000347838 0)
(0.495354 0.000829607 0)
(0.552713 0.00114166 0)
(0.654423 0.00137718 0)
(0.719633 0.00159965 0)
(0.732511 0.00180826 0)
(0.725617 0.00202378 0)
(0.715562 0.00226162 0)
(0.707875 0.00253202 0)
(0.703414 0.00282553 0)
(0.699849 0.00313255 0)
(0.695767 0.00345085 0)
(0.690915 0.00378268 0)
(0.685456 0.00413062 0)
(0.679513 0.00449608 0)
(0.673106 0.00487975 0)
(0.6662 0.00528237 0)
(0.65876 0.00570496 0)
(0.65076 0.00614875 0)
(0.642178 0.00661529 0)
(0.63299 0.00710605 0)
(0.62317 0.00762277 0)
(0.612694 0.00816706 0)
(0.60153 0.00874087 0)
(0.589648 0.00934588 0)
(0.577018 0.00998413 0)
(0.563604 0.0106572 0)
(0.549372 0.0113671 0)
(0.534285 0.012115 0)
(0.518308 0.0129025 0)
(0.501399 0.0137301 0)
(0.483523 0.0145983 0)
(0.46464 0.0155064 0)
(0.444716 0.0164532 0)
(0.423714 0.0174358 0)
(0.401603 0.0184504 0)
(0.378361 0.0194907 0)
(0.353964 0.0205488 0)
(0.32841 0.0216143 0)
(0.301692 0.0226738 0)
(0.273836 0.0237116 0)
(0.244865 0.024709 0)
(0.214835 0.025646 0)
(0.183827 0.0265005 0)
(0.151908 0.0272552 0)
(0.119196 0.0279036 0)
(0.0860787 0.0284216 0)
(0.0505466 0.0290718 0)
(0.0212836 0.029849 0)
(2.59133 4.76892e-05 0)
(1.62103 0.000393002 0)
(0.495562 0.00160765 0)
(0.552766 0.00198383 0)
(0.654465 0.00230866 0)
(0.719675 0.00267504 0)
(0.732554 0.00304529 0)
(0.725671 0.00342486 0)
(0.715637 0.00383587 0)
(0.707971 0.00429465 0)
(0.703524 0.00479034 0)
(0.699969 0.00531031 0)
(0.695896 0.00585125 0)
(0.691056 0.00641617 0)
(0.685609 0.00700874 0)
(0.679681 0.00763122 0)
(0.673287 0.0082849 0)
(0.666396 0.0089713 0)
(0.658972 0.00969216 0)
(0.650989 0.0104496 0)
(0.642424 0.0112465 0)
(0.633255 0.0120853 0)
(0.623456 0.0129692 0)
(0.613001 0.0139009 0)
(0.60186 0.014884 0)
(0.590003 0.0159215 0)
(0.577398 0.017017 0)
(0.564011 0.0181735 0)
(0.549808 0.0193945 0)
(0.53475 0.0206825 0)
(0.518802 0.0220403 0)
(0.501923 0.0234694 0)
(0.484077 0.0249708 0)
(0.465222 0.0265441 0)
(0.445324 0.0281873 0)
(0.424344 0.0298969 0)
(0.402251 0.0316655 0)
(0.37902 0.0334851 0)
(0.354624 0.0353409 0)
(0.32906 0.0372177 0)
(0.302316 0.0390919 0)
(0.274417 0.040939 0)
(0.245382 0.042727 0)
(0.215265 0.0444222 0)
(0.184141 0.0459884 0)
(0.152083 0.0473901 0)
(0.119201 0.0486155 0)
(0.0859396 0.0496237 0)
(0.0502671 0.0506781 0)
(0.020835 0.0517041 0)
(2.59151 5.41765e-05 0)
(1.62148 0.000536774 0)
(0.49599 0.00235483 0)
(0.552889 0.00281904 0)
(0.654587 0.0032424 0)
(0.719818 0.00376362 0)
(0.732701 0.00431002 0)
(0.725833 0.00486801 0)
(0.715828 0.00546251 0)
(0.708194 0.00611598 0)
(0.70377 0.00681885 0)
(0.700233 0.00755757 0)
(0.696177 0.0083278 0)
(0.691356 0.0091329 0)
(0.685931 0.00997695 0)
(0.680026 0.0108633 0)
(0.673657 0.0117934 0)
(0.666791 0.0127703 0)
(0.659393 0.0137957 0)
(0.651439 0.0148732 0)
(0.642905 0.0160064 0)
(0.633769 0.0171993 0)
(0.624004 0.0184558 0)
(0.613587 0.0197806 0)
(0.602485 0.021178 0)
(0.59067 0.0226531 0)
(0.57811 0.0242103 0)
(0.56477 0.0258549 0)
(0.550616 0.0275909 0)
(0.535609 0.0294234 0)
(0.519714 0.031355 0)
(0.502888 0.0333897 0)
(0.485095 0.0355276 0)
(0.466293 0.0377703 0)
(0.446444 0.0401137 0)
(0.425511 0.0425549 0)
(0.403457 0.0450833 0)
(0.380256 0.0476882 0)
(0.355879 0.0503504 0)
(0.330318 0.053047 0)
(0.303557 0.055749 0)
(0.275618 0.0584171 0)
(0.246515 0.0610128 0)
(0.216297 0.0634831 0)
(0.18504 0.0657823 0)
(0.152815 0.0678547 0)
(0.119728 0.0696709 0)
(0.0862869 0.0711779 0)
(0.0504169 0.0726063 0)
(0.0206822 0.0738027 0)
(2.59176 6.78407e-05 0)
(1.62211 0.000717592 0)
(0.496542 0.00310883 0)
(0.552999 0.00368588 0)
(0.654715 0.00421874 0)
(0.71999 0.00489426 0)
(0.732888 0.005619 0)
(0.726038 0.00636064 0)
(0.716069 0.00714589 0)
(0.708476 0.0080005 0)
(0.704085 0.00891655 0)
(0.700574 0.00988052 0)
(0.696545 0.0108876 0)
(0.691754 0.0119412 0)
(0.686361 0.0130458 0)
(0.680489 0.0142054 0)
(0.674156 0.015422 0)
(0.667328 0.0167002 0)
(0.65997 0.0180414 0)
(0.652058 0.0194511 0)
(0.64357 0.0209333 0)
(0.634483 0.022494 0)
(0.624771 0.0241377 0)
(0.614409 0.025871 0)
(0.603367 0.0276992 0)
(0.591615 0.0296294 0)
(0.579121 0.031667 0)
(0.565852 0.0338194 0)
(0.551771 0.0360918 0)
(0.536841 0.0384907 0)
(0.521026 0.0410202 0)
(0.504281 0.043685 0)
(0.48657 0.0464867 0)
(0.467848 0.049426 0)
(0.448077 0.0525001 0)
(0.427215 0.0557028 0)
(0.405225 0.0590245 0)
(0.382076 0.0624472 0)
(0.357735 0.0659519 0)
(0.332188 0.0695035 0)
(0.305416 0.0730697 0)
(0.277432 0.0765962 0)
(0.248247 0.0800301 0)
(0.217907 0.083306 0)
(0.186481 0.086355 0)
(0.154047 0.0891103 0)
(0.120698 0.0915153 0)
(0.0870026 0.0934896 0)
(0.0508489 0.09523 0)
(0.0206991 0.0965242 0)
(2.5921 8.01738e-05 0)
(1.62296 0.000901969 0)
(0.497242 0.00386197 0)
(0.553114 0.00456539 0)
(0.654858 0.00521421 0)
(0.7202 0.00604419 0)
(0.733125 0.00695403 0)
(0.7263 0.00788336 0)
(0.716376 0.00886734 0)
(0.708833 0.00993207 0)
(0.704485 0.0110698 0)
(0.70101 0.0122669 0)
(0.697016 0.0135194 0)
(0.692263 0.0148302 0)
(0.686912 0.0162046 0)
(0.681085 0.0176465 0)
(0.674799 0.0191598 0)
(0.668021 0.0207477 0)
(0.660716 0.0224153 0)
(0.652861 0.024167 0)
(0.644433 0.0260096 0)
(0.63541 0.0279485 0)
(0.625768 0.0299917 0)
(0.61548 0.0321453 0)
(0.604517 0.034418 0)
(0.59285 0.0368167 0)
(0.580446 0.0393506 0)
(0.567272 0.0420266 0)
(0.553291 0.0448536 0)
(0.538465 0.047838 0)
(0.522757 0.0509871 0)
(0.506123 0.0543055 0)
(0.488524 0.0577972 0)
(0.469914 0.0614623 0)
(0.450251 0.0652995 0)
(0.429493 0.0693004 0)
(0.407595 0.0734548 0)
(0.384525 0.0777412 0)
(0.360241 0.0821351 0)
(0.334726 0.0865981 0)
(0.307951 0.0910837 0)
(0.279922 0.0955348 0)
(0.250643 0.0998756 0)
(0.220152 0.104026 0)
(0.188516 0.107895 0)
(0.155811 0.111388 0)
(0.122128 0.114428 0)
(0.0880738 0.116902 0)
(0.0515095 0.118957 0)
(0.0208466 0.120322 0)
(2.59253 9.28397e-05 0)
(1.62403 0.00108854 0)
(0.498099 0.00462275 0)
(0.553235 0.00546032 0)
(0.655017 0.00623088 0)
(0.720453 0.0072195 0)
(0.733415 0.00831851 0)
(0.726621 0.00944312 0)
(0.716752 0.0106352 0)
(0.709271 0.0119183 0)
(0.704975 0.0132847 0)
(0.701546 0.0147223 0)
(0.697598 0.0162276 0)
(0.692894 0.0178039 0)
(0.687597 0.0194564 0)
(0.681826 0.0211896 0)
(0.675599 0.0230084 0)
(0.668883 0.0249156 0)
(0.661646 0.026919 0)
(0.653862 0.0290233 0)
(0.645511 0.0312366 0)
(0.636571 0.0335654 0)
(0.627016 0.0360193 0)
(0.616823 0.0386058 0)
(0.605961 0.0413357 0)
(0.594402 0.0442173 0)
(0.582112 0.0472617 0)
(0.569059 0.0504781 0)
(0.555206 0.0538766 0)
(0.540514 0.0574665 0)
(0.524946 0.0612557 0)
(0.508455 0.0652518 0)
(0.491002 0.0694588 0)
(0.472539 0.0738793 0)
(0.45302 0.0785114 0)
(0.432399 0.083348 0)
(0.410628 0.0883762 0)
(0.387666 0.0935742 0)
(0.363467 0.0989108 0)
(0.338003 0.104345 0)
(0.31124 0.109817 0)
(0.283168 0.11526 0)
(0.253786 0.120589 0)
(0.223118 0.125695 0)
(0.191226 0.130469 0)
(0.158183 0.134787 0)
(0.124068 0.138532 0)
(0.0895478 0.14156 0)
(0.0524178 0.143975 0)
(0.0210925 0.145448 0)
(2.59306 0.000105625 0)
(1.62536 0.00127562 0)
(0.499128 0.00538933 0)
(0.553365 0.00636479 0)
(0.655193 0.00726065 0)
(0.720749 0.00841215 0)
(0.733766 0.00970272 0)
(0.727013 0.0110302 0)
(0.71721 0.0124396 0)
(0.709799 0.0139489 0)
(0.705565 0.0155513 0)
(0.702193 0.0172372 0)
(0.698303 0.0190034 0)
(0.69366 0.0208537 0)
(0.688428 0.0227929 0)
(0.682726 0.0248266 0)
(0.676572 0.0269595 0)
(0.669933 0.0291967 0)
(0.662778 0.0315453 0)
(0.655082 0.0340124 0)
(0.646825 0.0366065 0)
(0.637986 0.0393365 0)
(0.62854 0.0422124 0)
(0.618463 0.0452445 0)
(0.607725 0.0484441 0)
(0.596299 0.0518227 0)
(0.58415 0.055392 0)
(0.571247 0.0591647 0)
(0.557553 0.0631518 0)
(0.543028 0.0673657 0)
(0.527633 0.0718163 0)
(0.511322 0.0765128 0)
(0.494053 0.0814621 0)
(0.475775 0.0866678 0)
(0.45644 0.0921293 0)
(0.435996 0.0978403 0)
(0.414391 0.103788 0)
(0.391575 0.109949 0)
(0.367495 0.116289 0)
(0.34211 0.122761 0)
(0.315376 0.1293 0)
(0.287272 0.135822 0)
(0.257778 0.142229 0)
(0.22691 0.148395 0)
(0.194711 0.154176 0)
(0.161257 0.159417 0)
(0.126605 0.163971 0)
(0.0914653 0.16764 0)
(0.0536153 0.170473 0)
(0.0214807 0.172087 0)
(2.5937 0.000118503 0)
(1.62694 0.00146231 0)
(0.500342 0.00615916 0)
(0.553507 0.00727487 0)
(0.655391 0.00829969 0)
(0.721096 0.00961797 0)
(0.734185 0.0111077 0)
(0.727484 0.0126419 0)
(0.71776 0.0142742 0)
(0.710429 0.0160178 0)
(0.70627 0.0178649 0)
(0.702967 0.0198073 0)
(0.699146 0.0218429 0)
(0.694577 0.0239757 0)
(0.689422 0.0262105 0)
(0.683803 0.0285532 0)
(0.677736 0.0310092 0)
(0.67119 0.0335851 0)
(0.664133 0.0362882 0)
(0.656544 0.0391274 0)
(0.6484 0.0421122 0)
(0.639682 0.0452532 0)
(0.630367 0.048562 0)
(0.62043 0.0520506 0)
(0.609842 0.0557322 0)
(0.598576 0.0596203 0)
(0.586599 0.063729 0)
(0.573877 0.0680729 0)
(0.560375 0.0726658 0)
(0.546053 0.0775223 0)
(0.53087 0.0826551 0)
(0.51478 0.0880761 0)
(0.497737 0.0937946 0)
(0.479689 0.0998166 0)
(0.460583 0.106144 0)
(0.440363 0.112771 0)
(0.418969 0.119686 0)
(0.396345 0.126867 0)
(0.372424 0.134277 0)
(0.347157 0.141864 0)
(0.32048 0.14956 0)
(0.29236 0.157265 0)
(0.262755 0.164867 0)
(0.231659 0.172213 0)
(0.199108 0.179138 0)
(0.165155 0.18544 0)
(0.129853 0.19092 0)
(0.0939425 0.195337 0)
(0.0551451 0.198681 0)
(0.0219879 0.20049 0)
(2.59445 0.000131311 0)
(1.62881 0.00164736 0)
(0.501757 0.00692708 0)
(0.553664 0.00818448 0)
(0.655617 0.00934044 0)
(0.721503 0.0108292 0)
(0.73468 0.0125218 0)
(0.728044 0.0142687 0)
(0.718413 0.0161315 0)
(0.711176 0.0181177 0)
(0.707102 0.0202181 0)
(0.70388 0.0224254 0)
(0.700142 0.0247386 0)
(0.69566 0.0271621 0)
(0.690598 0.0297009 0)
(0.685076 0.032361 0)
(0.679111 0.0351488 0)
(0.672674 0.0380715 0)
(0.665733 0.041138 0)
(0.658268 0.044358 0)
(0.650258 0.0477426 0)
(0.641684 0.0513039 0)
(0.632523 0.0550553 0)
(0.622752 0.0590106 0)
(0.612342 0.0631851 0)
(0.601267 0.0675945 0)
(0.589493 0.0722552 0)
(0.576989 0.0771844 0)
(0.563717 0.0823989 0)
(0.549638 0.087916 0)
(0.534711 0.0937512 0)
(0.518887 0.0999201 0)
(0.50212 0.106434 0)
(0.484352 0.113304 0)
(0.465529 0.120534 0)
(0.445588 0.128123 0)
(0.424461 0.136059 0)
(0.402082 0.144322 0)
(0.378376 0.152877 0)
(0.353273 0.161668 0)
(0.326696 0.170623 0)
(0.298585 0.179632 0)
(0.268881 0.188567 0)
(0.237546 0.197254 0)
(0.204591 0.205486 0)
(0.170055 0.213027 0)
(0.133948 0.219618 0)
(0.0970679 0.224941 0)
(0.0571059 0.228909 0)
(0.022692 0.230971 0)
(2.59532 0.000143899 0)
(1.63098 0.00182904 0)
(0.503386 0.00768562 0)
(0.55384 0.00908613 0)
(0.655873 0.0103753 0)
(0.721975 0.0120369 0)
(0.735262 0.0139368 0)
(0.728705 0.0159017 0)
(0.719184 0.0180022 0)
(0.712055 0.0202398 0)
(0.708079 0.0226025 0)
(0.704951 0.0250834 0)
(0.70131 0.0276824 0)
(0.696929 0.0304054 0)
(0.691973 0.0332564 0)
(0.686564 0.036242 0)
(0.680718 0.0393696 0)
(0.674407 0.0426473 0)
(0.667602 0.0460851 0)
(0.660281 0.0496939 0)
(0.652427 0.0534866 0)
(0.644021 0.0574766 0)
(0.63504 0.0616791 0)
(0.625462 0.0661102 0)
(0.615261 0.0707871 0)
(0.604408 0.0757281 0)
(0.592874 0.0809522 0)
(0.580625 0.0864793 0)
(0.567625 0.0923294 0)
(0.553835 0.0985229 0)
(0.539211 0.105079 0)
(0.523706 0.112018 0)
(0.507268 0.119354 0)
(0.489841 0.127104 0)
(0.471363 0.135274 0)
(0.451766 0.143869 0)
(0.430974 0.152882 0)
(0.408912 0.162297 0)
(0.385486 0.172079 0)
(0.360615 0.182175 0)
(0.334194 0.192508 0)
(0.306141 0.202966 0)
(0.276363 0.213403 0)
(0.244789 0.223624 0)
(0.211389 0.233387 0)
(0.176177 0.242392 0)
(0.139131 0.250315 0)
(0.101051 0.256761 0)
(0.0595842 0.261539 0)
(0.0235805 0.263954 0)
(2.59632 0.000155998 0)
(1.63346 0.0020053 0)
(0.505244 0.00842373 0)
(0.554041 0.00997083 0)
(0.656168 0.0113969 0)
(0.722522 0.01323 0)
(0.735942 0.015342 0)
(0.729481 0.0175294 0)
(0.72009 0.0198748 0)
(0.713083 0.0223729 0)
(0.709219 0.0250073 0)
(0.706199 0.0277707 0)
(0.702669 0.0306637 0)
(0.698405 0.0336955 0)
(0.693571 0.0368665 0)
(0.68829 0.0401853 0)
(0.68258 0.0436601 0)
(0.676414 0.0472999 0)
(0.669764 0.0511161 0)
(0.66261 0.0551208 0)
(0.654934 0.0593284 0)
(0.646721 0.063754 0)
(0.637948 0.068415 0)
(0.628594 0.0733292 0)
(0.618633 0.0785166 0)
(0.60804 0.0839977 0)
(0.596783 0.0897945 0)
(0.584832 0.0959301 0)
(0.57215 0.102428 0)
(0.558696 0.109312 0)
(0.54443 0.116606 0)
(0.529301 0.124334 0)
(0.513258 0.132518 0)
(0.496239 0.141176 0)
(0.478179 0.150325 0)
(0.459004 0.159973 0)
(0.43863 0.170121 0)
(0.416969 0.180758 0)
(0.393914 0.191858 0)
(0.36936 0.203371 0)
(0.343182 0.215223 0)
(0.315258 0.227298 0)
(0.285463 0.23944 0)
(0.253674 0.251433 0)
(0.21981 0.263 0)
(0.183827 0.273791 0)
(0.14565 0.283381 0)
(0.106111 0.291254 0)
(0.0627944 0.297084 0)
(0.024793 0.299985 0)
(2.59745 0.000165353 0)
(1.63628 0.00217567 0)
(0.507342 0.00912361 0)
(0.554275 0.0108257 0)
(0.656504 0.0123962 0)
(0.72315 0.0143921 0)
(0.736732 0.0167205 0)
(0.730386 0.0191371 0)
(0.721149 0.0217369 0)
(0.714282 0.0245057 0)
(0.710542 0.0274215 0)
(0.707644 0.0304769 0)
(0.704241 0.0336742 0)
(0.700109 0.0370195 0)
(0.695411 0.0405186 0)
(0.690276 0.0441785 0)
(0.68472 0.0480077 0)
(0.678719 0.0520162 0)
(0.672244 0.056217 0)
(0.665279 0.0606233 0)
(0.657807 0.0652516 0)
(0.649813 0.0701184 0)
(0.641278 0.0752432 0)
(0.632179 0.0806462 0)
(0.622495 0.0863496 0)
(0.612198 0.092377 0)
(0.601262 0.0987534 0)
(0.589653 0.105505 0)
(0.577339 0.11266 0)
(0.564278 0.120246 0)
(0.55043 0.128292 0)
(0.535743 0.136827 0)
(0.520165 0.145879 0)
(0.503633 0.155474 0)
(0.486076 0.165636 0)
(0.467416 0.176383 0)
(0.44756 0.187724 0)
(0.426408 0.19966 0)
(0.403836 0.212174 0)
(0.379719 0.225226 0)
(0.353899 0.238751 0)
(0.326218 0.25264 0)
(0.296499 0.266732 0)
(0.264561 0.2808 0)
(0.230248 0.294525 0)
(0.193449 0.307496 0)
(0.153982 0.31919 0)
(0.112643 0.328939 0)
(0.0669416 0.336219 0)
(0.0263577 0.339832 0)
(2.59871 0.000170436 0)
(1.63942 0.00233815 0)
(0.509677 0.00977182 0)
(0.554548 0.0116329 0)
(0.656882 0.0133531 0)
(0.723858 0.0155018 0)
(0.737641 0.0180561 0)
(0.731433 0.0207095 0)
(0.722375 0.0235738 0)
(0.715666 0.0266243 0)
(0.712066 0.0298318 0)
(0.709305 0.0331886 0)
(0.706042 0.0366988 0)
(0.702057 0.0403658 0)
(0.697516 0.0442001 0)
(0.692544 0.0482073 0)
(0.68716 0.0523963 0)
(0.681343 0.0567784 0)
(0.675067 0.061368 0)
(0.668315 0.06618 0)
(0.661073 0.0712323 0)
(0.653327 0.0765436 0)
(0.64506 0.0821354 0)
(0.636251 0.0880302 0)
(0.62688 0.0942529 0)
(0.616922 0.10083 0)
(0.606351 0.10779 0)
(0.595135 0.115163 0)
(0.583243 0.12298 0)
(0.570636 0.131276 0)
(0.557272 0.140083 0)
(0.543101 0.149438 0)
(0.52807 0.159376 0)
(0.512114 0.169932 0)
(0.495161 0.181138 0)
(0.477126 0.193025 0)
(0.457909 0.205616 0)
(0.437399 0.218924 0)
(0.415456 0.232951 0)
(0.391929 0.247674 0)
(0.366633 0.263045 0)
(0.339361 0.278969 0)
(0.30988 0.295298 0)
(0.277923 0.311803 0)
(0.243238 0.328152 0)
(0.205586 0.343865 0)
(0.164659 0.358294 0)
(0.121182 0.370572 0)
(0.0725099 0.379887 0)
(0.0285561 0.384567 0)
(2.60011 0.000178489 0)
(1.6429 0.00248081 0)
(0.512248 0.0103748 0)
(0.554868 0.0123743 0)
(0.657308 0.0142267 0)
(0.724657 0.0165445 0)
(0.738691 0.019325 0)
(0.732646 0.0222244 0)
(0.723797 0.0253684 0)
(0.717266 0.0287131 0)
(0.71382 0.032223 0)
(0.711209 0.0358907 0)
(0.708103 0.0397209 0)
(0.704283 0.0437221 0)
(0.699914 0.0478988 0)
(0.695122 0.0522595 0)
(0.68993 0.0568135 0)
(0.684318 0.0615737 0)
(0.678262 0.0665555 0)
(0.671748 0.0717759 0)
(0.664763 0.0772541 0)
(0.657296 0.0830111 0)
(0.64933 0.0890702 0)
(0.640847 0.095457 0)
(0.63183 0.102198 0)
(0.622254 0.109325 0)
(0.612096 0.116867 0)
(0.601327 0.124861 0)
(0.589916 0.133341 0)
(0.577827 0.142348 0)
(0.56502 0.15192 0)
(0.551447 0.162102 0)
(0.537053 0.172936 0)
(0.521776 0.184469 0)
(0.50554 0.196745 0)
(0.488259 0.209807 0)
(0.469827 0.223696 0)
(0.450122 0.238447 0)
(0.428992 0.254083 0)
(0.40626 0.270609 0)
(0.381711 0.288008 0)
(0.355087 0.306216 0)
(0.326087 0.325114 0)
(0.294358 0.344493 0)
(0.259503 0.364025 0)
(0.221117 0.3832 0)
(0.178645 0.401244 0)
(0.132616 0.417069 0)
(0.0800929 0.429422 0)
(0.0315867 0.435844 0)
(2.60164 0.000188674 0)
(1.64672 0.00259831 0)
(0.515087 0.0109089 0)
(0.555237 0.0130203 0)
(0.657808 0.0149847 0)
(0.725592 0.0174897 0)
(0.739915 0.0205007 0)
(0.734072 0.0236584 0)
(0.725466 0.0270992 0)
(0.719128 0.0307523 0)
(0.715849 0.0345762 0)
(0.713402 0.0385644 0)
(0.710469 0.0427231 0)
(0.706829 0.0470626 0)
(0.702647 0.0515859 0)
(0.698053 0.0563025 0)
(0.693071 0.0612236 0)
(0.687684 0.066363 0)
(0.681871 0.0717378 0)
(0.675619 0.0773662 0)
(0.668918 0.0832696 0)
(0.661759 0.089471 0)
(0.654127 0.0959958 0)
(0.646008 0.102872 0)
(0.637385 0.11013 0)
(0.628236 0.117802 0)
(0.618542 0.125924 0)
(0.608276 0.134534 0)
(0.59741 0.143674 0)
(0.58591 0.153388 0)
(0.573739 0.163723 0)
(0.560852 0.17473 0)
(0.547197 0.186464 0)
(0.532713 0.19898 0)
(0.517325 0.212338 0)
(0.500948 0.226599 0)
(0.483472 0.241826 0)
(0.46477 0.258076 0)
(0.444681 0.275407 0)
(0.423008 0.293862 0)
(0.399506 0.313467 0)
(0.373872 0.334217 0)
(0.345729 0.35605 0)
(0.314612 0.378813 0)
(0.279964 0.402272 0)
(0.241112 0.425893 0)
(0.197197 0.448791 0)
(0.148346 0.469703 0)
(0.0910118 0.486736 0)
(0.0362145 0.496225 0)
(2.60329 0.000194577 0)
(1.65086 0.00268894 0)
(0.518175 0.0113215 0)
(0.555657 0.0135304 0)
(0.658395 0.0156021 0)
(0.72669 0.0182932 0)
(0.74135 0.0215572 0)
(0.73575 0.0249904 0)
(0.727421 0.0287464 0)
(0.721292 0.0327291 0)
(0.71819 0.0368866 0)
(0.71592 0.041212 0)
(0.713172 0.0457139 0)
(0.709727 0.0504012 0)
(0.705747 0.0552806 0)
(0.701366 0.0603596 0)
(0.696613 0.0656518 0)
(0.691472 0.071172 0)
(0.685924 0.0769388 0)
(0.67996 0.0829721 0)
(0.673572 0.0892955 0)
(0.666752 0.095934 0)
(0.65949 0.102916 0)
(0.651772 0.110271 0)
(0.643586 0.118034 0)
(0.634913 0.12624 0)
(0.625735 0.134928 0)
(0.61603 0.144141 0)
(0.605775 0.153926 0)
(0.594938 0.164333 0)
(0.583487 0.175417 0)
(0.571382 0.187237 0)
(0.558576 0.199857 0)
(0.545011 0.213349 0)
(0.530618 0.227787 0)
(0.515315 0.243252 0)
(0.498995 0.259832 0)
(0.481532 0.277617 0)
(0.462761 0.296706 0)
(0.442477 0.317194 0)
(0.420418 0.33916 0)
(0.396238 0.362708 0)
(0.369494 0.387871 0)
(0.33965 0.414525 0)
(0.305935 0.442714 0)
(0.26729 0.472028 0)
(0.222423 0.501637 0)
(0.170709 0.530099 0)
(0.107371 0.554926 0)
(0.0435411 0.570195 0)
(2.60505 0.000197168 0)
(1.65529 0.00274048 0)
(0.52149 0.0115656 0)
(0.556144 0.0138569 0)
(0.659093 0.0160307 0)
(0.72799 0.0189107 0)
(0.743048 0.022447 0)
(0.737733 0.0261729 0)
(0.729724 0.0302604 0)
(0.723824 0.0345861 0)
(0.72091 0.039085 0)
(0.718826 0.0437503 0)
(0.716274 0.0485949 0)
(0.713035 0.0536294 0)
(0.709271 0.0588628 0)
(0.705118 0.0643031 0)
(0.700609 0.0699649 0)
(0.695731 0.0758643 0)
(0.690468 0.0820215 0)
(0.684815 0.088458 0)
(0.678765 0.0951992 0)
(0.672314 0.102272 0)
(0.665455 0.109706 0)
(0.658177 0.117535 0)
(0.65047 0.125795 0)
(0.64232 0.134524 0)
(0.633713 0.143765 0)
(0.624631 0.153567 0)
(0.615055 0.163979 0)
(0.60496 0.17506 0)
(0.594318 0.18687 0)
(0.583097 0.199479 0)
(0.571257 0.212963 0)
(0.558748 0.227404 0)
(0.54551 0.242899 0)
(0.53147 0.259547 0)
(0.516532 0.277467 0)
(0.500581 0.296789 0)
(0.483463 0.317647 0)
(0.464965 0.340252 0)
(0.444856 0.364667 0)
(0.422782 0.391098 0)
(0.398148 0.419922 0)
(0.370494 0.451198 0)
(0.338932 0.485059 0)
(0.30189 0.521518 0)
(0.257453 0.560246 0)
(0.203863 0.60004 0)
(0.133831 0.638339 0)
(0.0566226 0.666481 0)
(2.6069 0.000195832 0)
(1.65994 0.00274167 0)
(0.524999 0.0115666 0)
(0.556722 0.0139248 0)
(0.659939 0.0162083 0)
(0.729542 0.0193054 0)
(0.745068 0.023164 0)
(0.74008 0.0272402 0)
(0.732428 0.0317233 0)
(0.726764 0.0364448 0)
(0.724036 0.0413256 0)
(0.72214 0.0463619 0)
(0.719794 0.0515717 0)
(0.716773 0.0569698 0)
(0.713239 0.0625644 0)
(0.709331 0.0683659 0)
(0.705084 0.0743902 0)
(0.700489 0.0806562 0)
(0.695536 0.0871862 0)
(0.690219 0.0940051 0)
(0.684536 0.10114 0)
(0.678486 0.108622 0)
(0.672064 0.116481 0)
(0.665263 0.124756 0)
(0.658079 0.133482 0)
(0.650499 0.142705 0)
(0.642517 0.152469 0)
(0.634118 0.162826 0)
(0.62529 0.173833 0)
(0.616015 0.185551 0)
(0.606273 0.19805 0)
(0.596041 0.211407 0)
(0.585288 0.22571 0)
(0.573979 0.241055 0)
(0.562066 0.257557 0)
(0.549492 0.27534 0)
(0.536185 0.294536 0)
(0.52204 0.315371 0)
(0.506982 0.337927 0)
(0.490732 0.36246 0)
(0.473041 0.389395 0)
(0.453901 0.418963 0)
(0.432691 0.451646 0)
(0.408604 0.487943 0)
(0.380837 0.528307 0)
(0.347841 0.573469 0)
(0.306984 0.624248 0)
(0.255016 0.680998 0)
(0.180406 0.743063 0)
(0.0832959 0.803337 0)
(2.60879 0.000139893 0)
(1.66472 0.00273949 0)
(0.528604 0.0112294 0)
(0.557417 0.0135841 0)
(0.66099 0.015965 0)
(0.731443 0.0192631 0)
(0.747535 0.023446 0)
(0.742936 0.0278787 0)
(0.735681 0.032764 0)
(0.730247 0.0378758 0)
(0.727689 0.0431261 0)
(0.72597 0.0485231 0)
(0.723822 0.0540957 0)
(0.721015 0.0598587 0)
(0.717708 0.0658234 0)
(0.714042 0.0719987 0)
(0.71006 0.0784001 0)
(0.705758 0.085047 0)
(0.701127 0.0919634 0)
(0.696165 0.0991755 0)
(0.690874 0.106712 0)
(0.685254 0.114603 0)
(0.679304 0.122884 0)
(0.673023 0.131593 0)
(0.666406 0.140769 0)
(0.65945 0.15046 0)
(0.65215 0.160713 0)
(0.6445 0.171585 0)
(0.636493 0.183136 0)
(0.628122 0.195435 0)
(0.619374 0.208557 0)
(0.61024 0.222589 0)
(0.600701 0.237627 0)
(0.59074 0.253779 0)
(0.58033 0.271188 0)
(0.56942 0.290027 0)
(0.558031 0.310323 0)
(0.545992 0.332355 0)
(0.533202 0.356509 0)
(0.519839 0.382984 0)
(0.505617 0.412304 0)
(0.490242 0.444907 0)
(0.473467 0.481278 0)
(0.454794 0.522407 0)
(0.433581 0.569467 0)
(0.408655 0.624281 0)
(0.377635 0.689745 0)
(0.336604 0.770951 0)
(0.27096 0.878235 0)
(0.146514 1.0436 0)
(2.61117 7.91557e-05 0)
(1.67052 0.00261084 0)
(0.532335 0.0104093 0)
(0.557915 0.0128541 0)
(0.662111 0.01548 0)
(0.733774 0.0192435 0)
(0.75069 0.024052 0)
(0.746643 0.0291231 0)
(0.73992 0.034653 0)
(0.734775 0.0403335 0)
(0.732448 0.0460752 0)
(0.730998 0.0519137 0)
(0.72916 0.0578995 0)
(0.726692 0.0640572 0)
(0.723745 0.0704043 0)
(0.720462 0.0769545 0)
(0.716893 0.0837278 0)
(0.713041 0.0907494 0)
(0.708902 0.0980478 0)
(0.70448 0.105653 0)
(0.699779 0.113596 0)
(0.694805 0.121912 0)
(0.689564 0.130637 0)
(0.684057 0.13981 0)
(0.678291 0.149475 0)
(0.672268 0.159678 0)
(0.665992 0.170472 0)
(0.659469 0.181915 0)
(0.652702 0.19407 0)
(0.645698 0.20701 0)
(0.638462 0.220816 0)
(0.631002 0.235577 0)
(0.62332 0.251423 0)
(0.615444 0.268433 0)
(0.607432 0.286705 0)
(0.599061 0.30649 0)
(0.590387 0.32801 0)
(0.581883 0.351451 0)
(0.573395 0.377243 0)
(0.564704 0.405745 0)
(0.555942 0.437308 0)
(0.547191 0.472642 0)
(0.538641 0.512585 0)
(0.530518 0.558422 0)
(0.523364 0.611937 0)
(0.518355 0.675896 0)
(0.518212 0.754757 0)
(0.531152 0.855968 0)
(0.58715 0.990709 0)
(0.657324 1.1855 0)
(2.61369 5.95191e-05 0)
(1.67669 0.00195499 0)
(0.53687 0.00781299 0)
(0.559553 0.00998337 0)
(0.664758 0.0125742 0)
(0.738167 0.0167598 0)
(0.756161 0.0223023 0)
(0.752712 0.0281535 0)
(0.74645 0.0344964 0)
(0.741374 0.0408979 0)
(0.739061 0.0472887 0)
(0.737711 0.053744 0)
(0.736052 0.0603288 0)
(0.733805 0.067069 0)
(0.731111 0.0739757 0)
(0.728115 0.0810637 0)
(0.724877 0.0883559 0)
(0.721408 0.0958805 0)
(0.717707 0.103668 0)
(0.713778 0.111749 0)
(0.709631 0.120159 0)
(0.705274 0.128933 0)
(0.700717 0.138109 0)
(0.695969 0.14773 0)
(0.69104 0.157841 0)
(0.685943 0.168493 0)
(0.68069 0.17974 0)
(0.675296 0.191642 0)
(0.669779 0.204265 0)
(0.664159 0.21769 0)
(0.658455 0.232021 0)
(0.652733 0.24727 0)
(0.646967 0.26356 0)
(0.641085 0.28111 0)
(0.635337 0.300045 0)
(0.629919 0.320505 0)
(0.624722 0.342829 0)
(0.619824 0.367217 0)
(0.615447 0.393857 0)
(0.611748 0.423208 0)
(0.609005 0.455791 0)
(0.60769 0.492256 0)
(0.608476 0.533522 0)
(0.612453 0.580742 0)
(0.621447 0.635574 0)
(0.638779 0.70018 0)
(0.670446 0.777473 0)
(0.725481 0.870897 0)
(0.83667 0.980485 0)
(0.984606 1.09511 0)
(2.61516 7.04561e-05 0)
(1.68028 0.00131671 0)
(0.539752 0.00550622 0)
(0.561301 0.00796981 0)
(0.668108 0.0111736 0)
(0.743933 0.0165489 0)
(0.763373 0.0233614 0)
(0.760655 0.0303107 0)
(0.754863 0.0373866 0)
(0.749782 0.0442087 0)
(0.74748 0.0508995 0)
(0.746265 0.0576354 0)
(0.74481 0.0644966 0)
(0.742788 0.0715038 0)
(0.740329 0.0786628 0)
(0.737594 0.0859965 0)
(0.734657 0.0935383 0)
(0.731532 0.101323 0)
(0.728223 0.109383 0)
(0.724738 0.117752 0)
(0.721089 0.126464 0)
(0.717291 0.135554 0)
(0.71336 0.14506 0)
(0.709312 0.155021 0)
(0.705165 0.165482 0)
(0.700939 0.17649 0)
(0.696656 0.188095 0)
(0.69234 0.200367 0)
(0.688031 0.213354 0)
(0.683801 0.227091 0)
(0.679546 0.241696 0)
(0.675307 0.257306 0)
(0.671432 0.273982 0)
(0.667942 0.291894 0)
(0.664752 0.311234 0)
(0.662028 0.332081 0)
(0.65994 0.354613 0)
(0.658665 0.379092 0)
(0.65848 0.40581 0)
(0.659756 0.43511 0)
(0.662957 0.467448 0)
(0.66883 0.503344 0)
(0.67845 0.543458 0)
(0.693283 0.588556 0)
(0.715709 0.639493 0)
(0.749204 0.69711 0)
(0.799344 0.761685 0)
(0.871741 0.832262 0)
(0.984708 0.903894 0)
(1.12043 0.956753 0)
(2.61638 4.07441e-05 0)
(1.68337 -0.00151772 0)
(0.545131 -0.00478469 0)
(0.56728 -0.00297579 0)
(0.675885 0.00108078 0)
(0.754079 0.00914685 0)
(0.774399 0.0186968 0)
(0.771458 0.0279977 0)
(0.765071 0.0366023 0)
(0.759399 0.044422 0)
(0.756918 0.0519318 0)
(0.755788 0.0594269 0)
(0.754501 0.0669851 0)
(0.752663 0.0746275 0)
(0.750415 0.0823471 0)
(0.747949 0.09018 0)
(0.745343 0.0981716 0)
(0.742607 0.106363 0)
(0.73974 0.114792 0)
(0.736749 0.123496 0)
(0.733646 0.132513 0)
(0.73045 0.141882 0)
(0.727178 0.151644 0)
(0.72385 0.161838 0)
(0.720492 0.172513 0)
(0.717128 0.183729 0)
(0.713809 0.195501 0)
(0.710547 0.207878 0)
(0.707309 0.220965 0)
(0.704234 0.234835 0)
(0.701512 0.24954 0)
(0.699109 0.26525 0)
(0.697054 0.282048 0)
(0.695512 0.299953 0)
(0.69458 0.319121 0)
(0.694424 0.339712 0)
(0.695265 0.361891 0)
(0.697358 0.385856 0)
(0.701055 0.411836 0)
(0.706792 0.440085 0)
(0.715172 0.470884 0)
(0.727008 0.504564 0)
(0.743436 0.541405 0)
(0.76595 0.581682 0)
(0.796599 0.625482 0)
(0.838084 0.672524 0)
(0.894041 0.721752 0)
(0.967168 0.770578 0)
(1.0684 0.814782 0)
(1.18148 0.840352 0)
(2.61207 0.00229364 0)
(1.67339 -0.00675102 0)
(0.54974 -0.013704 0)
(0.58309 -0.00791996 0)
(0.696145 -0.000288225 0)
(0.777915 0.0099998 0)
(0.798525 0.0202119 0)
(0.794107 0.0298777 0)
(0.785778 0.0384118 0)
(0.778736 0.0462923 0)
(0.775619 0.0539919 0)
(0.774136 0.0616673 0)
(0.772551 0.0693533 0)
(0.770411 0.0770816 0)
(0.767871 0.0849048 0)
(0.765178 0.0928754 0)
(0.762414 0.101038 0)
(0.759582 0.109429 0)
(0.756682 0.118082 0)
(0.753727 0.127031 0)
(0.750732 0.136307 0)
(0.747719 0.145942 0)
(0.744707 0.155973 0)
(0.741726 0.166424 0)
(0.73883 0.177313 0)
(0.735989 0.188701 0)
(0.733207 0.200663 0)
(0.730663 0.213216 0)
(0.728433 0.226434 0)
(0.726498 0.240417 0)
(0.724927 0.255194 0)
(0.723826 0.270799 0)
(0.723283 0.287342 0)
(0.723444 0.304915 0)
(0.724479 0.323621 0)
(0.72656 0.343596 0)
(0.729931 0.364955 0)
(0.734884 0.387852 0)
(0.741791 0.412423 0)
(0.75112 0.438816 0)
(0.763465 0.467162 0)
(0.779601 0.497564 0)
(0.8005 0.530043 0)
(0.827414 0.564479 0)
(0.861865 0.600532 0)
(0.905685 0.63744 0)
(0.961164 0.673864 0)
(1.0299 0.707475 0)
(1.11631 0.735334 0)
(1.2092 0.749076 0)
(2.60381 0.00792223 0)
(1.64322 -0.0735134 0)
(0.585098 -0.0725215 0)
(0.623987 -0.0456778 0)
(0.731433 -0.00567741 0)
(0.809077 0.0166238 0)
(0.827088 0.0267494 0)
(0.821134 0.0354351 0)
(0.811624 0.0428256 0)
(0.804266 0.0509644 0)
(0.800891 0.0595166 0)
(0.799033 0.0679704 0)
(0.797053 0.0762025 0)
(0.794612 0.0842908 0)
(0.791888 0.092374 0)
(0.789056 0.10053 0)
(0.786175 0.108808 0)
(0.783244 0.117247 0)
(0.780264 0.125891 0)
(0.777248 0.134787 0)
(0.774214 0.143982 0)
(0.771192 0.153497 0)
(0.768195 0.163354 0)
(0.765224 0.173608 0)
(0.762369 0.184319 0)
(0.759753 0.195497 0)
(0.757358 0.207203 0)
(0.755198 0.21949 0)
(0.75339 0.232376 0)
(0.752002 0.245921 0)
(0.751114 0.260198 0)
(0.750837 0.275269 0)
(0.751297 0.291197 0)
(0.752648 0.308062 0)
(0.755069 0.325925 0)
(0.758756 0.34487 0)
(0.763957 0.36497 0)
(0.77098 0.386307 0)
(0.78017 0.408948 0)
(0.791974 0.432944 0)
(0.806924 0.458311 0)