/*--------------------------------*- C++ -*----------------------------------*\
| =========                 |                                                 |
| \\      /  F ield         | OpenFOAM: The Open Source CFD Toolbox           |
|  \\    /   O peration     | Version:  2412                                  |
|   \\  /    A nd           | Website:  www.openfoam.com                      |
|    \\/     M anipulation  |                                                 |
\*---------------------------------------------------------------------------*/
FoamFile
{
    version     2.0;
    format      ascii;
    arch        "LSB;label=32;scalar=64";
    class       volScalarField;
    location    "26.5";
    object      Ma;
}
// * * * * * * * * * * * * * * * * * * * * * * * * * * * * * * * * * * * * * //

dimensions      [0 0 0 0 0 0 0];

internalField   nonuniform List<scalar> 
7000
(
2.25598
0.994177
0.300529
0.338438
0.401062
0.442388
0.450594
0.446125
0.43977
0.434861
0.432015
0.429743
0.427144
0.424056
0.420585
0.416809
0.412743
0.408365
0.403654
0.398594
0.393172
0.387375
0.381189
0.374597
0.367584
0.360131
0.352222
0.343836
0.334955
0.325557
0.315624
0.305132
0.294062
0.282393
0.270107
0.257184
0.24361
0.229372
0.214464
0.198882
0.182632
0.165726
0.148189
0.130054
0.111368
0.0921925
0.0725907
0.0528469
0.031923
0.0155243
2.25604
0.994238
0.300326
0.338273
0.400907
0.44224
0.450447
0.44598
0.439632
0.434729
0.431888
0.42962
0.427024
0.42394
0.420474
0.416704
0.412643
0.40827
0.403565
0.398512
0.393098
0.387309
0.381131
0.374549
0.367547
0.360105
0.352209
0.343837
0.334971
0.32559
0.315675
0.305203
0.294156
0.282511
0.270251
0.257357
0.243816
0.229613
0.214745
0.199208
0.18301
0.166164
0.148701
0.13066
0.112103
0.0931172
0.073819
0.0546557
0.0351573
0.0220572
2.25617
0.994435
0.300459
0.338308
0.400937
0.442272
0.450481
0.44602
0.43969
0.434798
0.431971
0.429706
0.427121
0.424043
0.420591
0.416829
0.412784
0.40842
0.403733
0.398692
0.393298
0.387524
0.381371
0.374807
0.367833
0.360416
0.352553
0.344211
0.335386
0.326043
0.316175
0.305752
0.294762
0.283178
0.270988
0.258171
0.244717
0.230614
0.215857
0.20045
0.184403
0.167741
0.150499
0.132745
0.114565
0.0961166
0.0776338
0.0598398
0.0430409
0.0335722
2.25634
0.994741
0.30073
0.338385
0.401018
0.442372
0.450584
0.446137
0.43982
0.434956
0.432139
0.429894
0.427317
0.424261
0.420819
0.417083
0.41305
0.408717
0.404045
0.399038
0.393663
0.387929
0.3818
0.375284
0.36834
0.360978
0.353154
0.344878
0.336102
0.326837
0.317033
0.306702
0.295793
0.28432
0.272234
0.259552
0.246232
0.232296
0.217717
0.202523
0.186719
0.170346
0.153462
0.136148
0.118555
0.100896
0.0835505
0.0674574
0.0533028
0.0461803
2.25659
0.995172
0.301079
0.338454
0.401103
0.442493
0.450713
0.446288
0.439982
0.43516
0.432354
0.430142
0.427573
0.424552
0.421124
0.417426
0.413413
0.409121
0.404475
0.399514
0.394173
0.38849
0.382406
0.375948
0.369061
0.361766
0.354015
0.345816
0.337132
0.327957
0.318268
0.308045
0.297278
0.285937
0.274027
0.261509
0.248408
0.234682
0.220378
0.205464
0.190016
0.174037
0.157639
0.140921
0.124072
0.107409
0.0913717
0.0770292
0.0651083
0.0594942
2.25692
0.995744
0.301523
0.338526
0.401199
0.442638
0.450882
0.446458
0.440212
0.435395
0.432649
0.430434
0.427923
0.424902
0.421538
0.417846
0.413903
0.409621
0.405053
0.400109
0.394855
0.3892
0.383213
0.376796
0.37002
0.362782
0.355156
0.347036
0.338493
0.329426
0.319898
0.309817
0.299236
0.28808
0.276388
0.26411
0.251269
0.237852
0.223869
0.209359
0.194332
0.178893
0.163088
0.147116
0.131165
0.115612
0.100984
0.0882972
0.0781877
0.0736195
2.25734
0.99647
0.302066
0.338602
0.401306
0.442816
0.451087
0.44669
0.440473
0.435707
0.432989
0.430819
0.428332
0.425362
0.422026
0.418394
0.414484
0.410272
0.405742
0.40088
0.395673
0.390116
0.384186
0.377886
0.37118
0.364084
0.356545
0.348594
0.340162
0.331296
0.321911
0.312067
0.301672
0.290795
0.279345
0.267394
0.254872
0.241844
0.22828
0.214245
0.199772
0.184938
0.169887
0.154751
0.139833
0.125479
0.112234
0.101078
0.0924444
0.0886248
2.25785
0.997362
0.302718
0.338682
0.401426
0.443026
0.451334
0.446971
0.440792
0.436082
0.433403
0.431282
0.428833
0.425916
0.422628
0.419055
0.415202
0.411057
0.406596
0.401812
0.396689
0.391222
0.385397
0.379201
0.372625
0.365651
0.358274
0.350467
0.342237
0.333542
0.324405
0.314771
0.30468
0.294064
0.282985
0.271366
0.259289
0.246691
0.233664
0.220191
0.206374
0.192282
0.178049
0.163895
0.150053
0.136958
0.125074
0.115263
0.107842
0.104622
2.25847
0.998432
0.303488
0.33877
0.401562
0.443272
0.45163
0.4473
0.441182
0.436523
0.433903
0.431827
0.429438
0.426572
0.423352
0.419839
0.416063
0.411991
0.407618
0.402922
0.397903
0.392544
0.386841
0.380777
0.374348
0.367536
0.360333
0.352727
0.344704
0.336258
0.327369
0.318043
0.308249
0.298015
0.287295
0.276149
0.264518
0.252501
0.24004
0.227275
0.214187
0.200955
0.18767
0.174546
0.161895
0.150027
0.139452
0.130888
0.124492
0.121715
2.25919
0.999691
0.304384
0.338868
0.401716
0.443561
0.451978
0.447701
0.441634
0.437054
0.434483
0.432481
0.430142
0.427356
0.424196
0.420774
0.41707
0.4131
0.408815
0.404237
0.399326
0.394105
0.388535
0.382636
0.37637
0.369753
0.362753
0.35538
0.347607
0.339442
0.330861
0.321874
0.312462
0.302635
0.292391
0.281736
0.270695
0.259274
0.247544
0.235512
0.22332
0.210999
0.198785
0.186793
0.175337
0.164783
0.155438
0.14799
0.142489
0.140144
2.26003
1.00115
0.305417
0.338976
0.401891
0.443893
0.45239
0.448157
0.442184
0.437661
0.435178
0.43323
0.430981
0.428257
0.425197
0.421849
0.418258
0.414377
0.410222
0.405754
0.400994
0.395908
0.390516
0.384784
0.378728
0.372319
0.365568
0.358452
0.350978
0.343129
0.33491
0.326312
0.317337
0.307991
0.298276
0.288214
0.277815
0.267126
0.256171
0.245037
0.233779
0.222545
0.211437
0.200703
0.190517
0.181222
0.173164
0.166806
0.162134
0.160098
2.26099
1.00283
0.306595
0.3391
0.402092
0.444281
0.452865
0.448709
0.442805
0.438389
0.435967
0.43412
0.431935
0.429321
0.426337
0.423112
0.419612
0.415871
0.411826
0.40752
0.402896
0.398
0.392776
0.387268
0.381421
0.375278
0.368785
0.361987
0.354832
0.347364
0.339539
0.331399
0.322912
0.314119
0.305006
0.295612
0.285955
0.276072
0.266026
0.255857
0.245696
0.235597
0.22577
0.216326
0.207538
0.199607
0.192762
0.187488
0.18363
0.182023
2.26207
1.00473
0.307925
0.339242
0.402321
0.444721
0.453419
0.449335
0.443548
0.439217
0.436899
0.435128
0.433053
0.430527
0.427666
0.424542
0.421182
0.417561
0.41368
0.409517
0.405086
0.400366
0.395371
0.390078
0.384503
0.378624
0.372459
0.365984
0.359223
0.352152
0.344802
0.337151
0.329239
0.321047
0.312629
0.303974
0.295156
0.286179
0.277139
0.268075
0.259095
0.250314
0.241829
0.233864
0.226513
0.220064
0.214644
0.210543
0.207567
0.206264
2.26328
1.00684
0.309409
0.339397
0.402593
0.445218
0.454053
0.450065
0.444397
0.440181
0.43796
0.436296
0.434322
0.431916
0.42917
0.426183
0.422954
0.419493
0.415767
0.411795
0.407549
0.403056
0.398284
0.393264
0.387962
0.38241
0.376577
0.370498
0.364142
0.357549
0.350697
0.343623
0.336321
0.328827
0.321158
0.313351
0.305447
0.297497
0.289563
0.28173
0.274076
0.266728
0.259803
0.25342
0.247778
0.242928
0.239021
0.236287
0.234365
0.233711
2.26462
1.00918
0.311047
0.339556
0.402919
0.445777
0.454782
0.450908
0.445374
0.44129
0.439174
0.437629
0.435767
0.433493
0.430876
0.428037
0.424959
0.421668
0.418123
0.414349
0.410323
0.406065
0.401561
0.396821
0.391844
0.386629
0.381192
0.375518
0.369645
0.363544
0.357278
0.350805
0.344213
0.33746
0.330648
0.323753
0.316882
0.310053
0.303362
0.296883
0.290715
0.284968
0.279763
0.275235
0.271478
0.268666
0.266693
0.265721
0.265189
0.265155
2.26608
1.01176
0.312851
0.339753
0.403284
0.446422
0.455626
0.451878
0.446523
0.44256
0.44058
0.439143
0.437426
0.435274
0.432819
0.430119
0.427227
0.424101
0.420773
0.417198
0.413428
0.409414
0.405213
0.400772
0.396157
0.39131
0.386302
0.381083
0.375722
0.370183
0.364528
0.358749
0.352892
0.346992
0.341073
0.335221
0.329446
0.323879
0.318542
0.313583
0.309073
0.305151
0.301924
0.29952
0.298079
0.29758
0.298077
0.299505
0.30115
0.302675
2.26766
1.01455
0.314812
0.339982
0.403703
0.447175
0.456608
0.453012
0.447858
0.44403
0.442191
0.440874
0.439307
0.437294
0.435007
0.432468
0.429765
0.426831
0.423722
0.420383
0.416871
0.413144
0.409249
0.405158
0.400908
0.396488
0.391919
0.387218
0.38239
0.377477
0.372475
0.36745
0.362401
0.357407
0.35249
0.347729
0.343197
0.338955
0.335147
0.331828
0.329177
0.327312
0.32639
0.326515
0.327915
0.330655
0.334521
0.339626
0.344726
0.348724
2.26934
1.01755
0.316916
0.340247
0.404191
0.448061
0.457758
0.454358
0.449403
0.445753
0.444033
0.442872
0.441435
0.439598
0.437458
0.435119
0.432588
0.429886
0.426986
0.42392
0.420664
0.417261
0.413681
0.409975
0.406112
0.402148
0.398059
0.393899
0.389661
0.385396
0.38112
0.376875
0.372716
0.368675
0.364847
0.361267
0.358062
0.355306
0.35312
0.351685
0.35106
0.351507
0.353199
0.356409
0.361328
0.368067
0.376899
0.387632
0.399368
0.409971
2.27111
1.0207
0.319139
0.340562
0.404771
0.449105
0.459115
0.455935
0.451213
0.447737
0.446149
0.445136
0.443851
0.442186
0.440223
0.438077
0.435755
0.433276
0.430628
0.427826
0.424875
0.421786
0.418576
0.415246
0.41183
0.408319
0.404768
0.40116
0.397567
0.393976
0.390475
0.387062
0.383833
0.380821
0.378119
0.375818
0.373996
0.372842
0.372421
0.372922
0.374587
0.377704
0.382626
0.389494
0.398921
0.411249
0.426946
0.447105
0.470988
0.498595
2.27293
1.02394
0.32142
0.340941
0.40548
0.450366
0.46076
0.457822
0.453387
0.450055
0.448615
0.44772
0.446605
0.445087
0.443322
0.441348
0.439255
0.43699
0.434614
0.432079
0.429451
0.426692
0.423867
0.420943
0.417983
0.414971
0.41196
0.40896
0.406014
0.403164
0.400441
0.397928
0.395649
0.39373
0.392203
0.391241
0.390882
0.391311
0.392696
0.395383
0.399589
0.405685
0.413891
0.425052
0.439618
0.459156
0.485081
0.520594
0.571926
0.664903
2.27501
1.02768
0.323953
0.341215
0.406281
0.451966
0.462914
0.460349
0.456262
0.453158
0.451876
0.451203
0.450304
0.449061
0.447543
0.445881
0.444075
0.442177
0.440147
0.438046
0.435838
0.433593
0.431275
0.428961
0.426616
0.424327
0.422062
0.419921
0.417882
0.416053
0.414435
0.413141
0.412214
0.411771
0.411914
0.412686
0.414248
0.417014
0.421205
0.426896
0.434587
0.444558
0.457829
0.474816
0.497602
0.52761
0.569592
0.631146
0.729822
0.881475
2.27722
1.03165
0.326964
0.342166
0.40801
0.454835
0.466503
0.464318
0.46055
0.457504
0.456264
0.455681
0.454943
0.453877
0.452578
0.451143
0.449619
0.448016
0.446348
0.444621
0.44286
0.441076
0.439302
0.437546
0.435855
0.434235
0.432752
0.431413
0.430305
0.429437
0.42893
0.428799
0.429163
0.430045
0.431682
0.43427
0.437984
0.442901
0.449467
0.457791
0.46859
0.482303
0.49981
0.522621
0.551791
0.591353
0.643911
0.718032
0.828976
0.967131
2.27851
1.03397
0.328837
0.343226
0.410174
0.45858
0.471228
0.469541
0.4661
0.463075
0.461871
0.461406
0.460833
0.459946
0.458835
0.457607
0.456317
0.45498
0.453612
0.452222
0.450837
0.449474
0.448164
0.446929
0.445806
0.444825
0.444034
0.443473
0.443203
0.443291
0.443749
0.444653
0.446238
0.448644
0.451865
0.456153
0.461588
0.468578
0.477193
0.48816
0.501494
0.518492
0.539209
0.565767
0.59904
0.64171
0.697367
0.76775
0.864163
0.967472
2.27966
1.03608
0.33215
0.346924
0.415038
0.464995
0.478237
0.476421
0.472631
0.469258
0.467979
0.467619
0.467208
0.466498
0.465592
0.464594
0.463589
0.462563
0.461551
0.46054
0.459576
0.458657
0.457834
0.457111
0.456546
0.456156
0.456011
0.456124
0.456541
0.457352
0.458725
0.460707
0.463356
0.466845
0.471238
0.47684
0.483679
0.492268
0.502617
0.515404
0.530884
0.549716
0.572836
0.600697
0.635321
0.677092
0.728923
0.79094
0.868863
0.949901
2.2761
1.02968
0.334288
0.356823
0.427458
0.479819
0.493319
0.49052
0.485518
0.48127
0.479613
0.479058
0.478485
0.477616
0.476556
0.475463
0.4744
0.473376
0.472401
0.471489
0.470664
0.469955
0.469377
0.468978
0.468783
0.468821
0.469093
0.469761
0.470841
0.472444
0.474538
0.477326
0.480774
0.48517
0.490481
0.497075
0.504975
0.514555
0.526083
0.539789
0.556354
0.575909
0.599479
0.627361
0.660589
0.700048
0.746331
0.800695
0.8642
0.928776
2.28203
1.02254
0.35874
0.382356
0.448476
0.498368
0.510279
0.506526
0.500783
0.496401
0.4947
0.49401
0.493311
0.492362
0.491297
0.49022
0.489189
0.488192
0.487255
0.486375
0.485598
0.484925
0.484412
0.484029
0.4839
0.484055
0.484601
0.485467
0.486858
0.488705
0.491256
0.494402
0.498486
0.503351
0.509462
0.516588
0.525356
0.53546
0.547708
0.561822
0.578644
0.598172
0.621057
0.647783
0.678643
0.714585
0.755556
0.802427
0.855619
0.909176
1.87633
0.772013
0.273263
0.344117
0.417754
0.441224
0.441129
0.437148
0.433504
0.43341
0.435585
0.438473
0.441473
0.444516
0.447655
0.450903
0.454221
0.457564
0.460902
0.464218
0.467493
0.470672
0.473815
0.476955
0.480148
0.483329
0.48662
0.48994
0.493564
0.497373
0.501676
0.506365
0.511801
0.517898
0.525021
0.533155
0.542608
0.553544
0.566085
0.580723
0.5973
0.616687
0.638456
0.663782
0.692059
0.724531
0.760518
0.80099
0.845797
0.890538
1.8689
0.771404
0.282167
0.355348
0.428335
0.447791
0.443317
0.435956
0.430299
0.428405
0.428316
0.42872
0.42932
0.430225
0.431572
0.433354
0.435611
0.438218
0.441295
0.444721
0.448605
0.452672
0.457149
0.461793
0.466826
0.47198
0.47752
0.483248
0.48934
0.495664
0.502398
0.509468
0.517029
0.525164
0.533963
0.54371
0.554312
0.566333
0.579526
0.594596
0.611244
0.630222
0.651264
0.67502
0.701357
0.730664
0.762976
0.798099
0.8365
0.874175
1.86794
0.77009
0.2843
0.36506
0.443619
0.463692
0.457505
0.448128
0.441122
0.438391
0.437492
0.436894
0.436306
0.435904
0.435817
0.436088
0.436717
0.437721
0.439254
0.441237
0.443726
0.446642
0.450161
0.454163
0.458797
0.463939
0.469667
0.475918
0.48271
0.490079
0.497956
0.506543
0.515633
0.525584
0.536005
0.547448
0.559506
0.572777
0.586946
0.602621
0.619547
0.638279
0.658696
0.681195
0.705729
0.732537
0.761578
0.792779
0.826392
0.858919
1.86943
0.773373
0.290094
0.367275
0.44369
0.464289
0.459065
0.450545
0.443967
0.441604
0.441129
0.440951
0.440734
0.440623
0.440708
0.441014
0.441602
0.44251
0.443698
0.445181
0.446984
0.449219
0.451859
0.455071
0.458756
0.463137
0.468049
0.473769
0.480042
0.487239
0.494983
0.503743
0.513048
0.523419
0.53443
0.546563
0.559473
0.573572
0.588569
0.604823
0.622185
0.640924
0.661009
0.682657
0.705839
0.730686
0.757133
0.785227
0.815014
0.843663
1.87254
0.780055
0.297777
0.361234
0.429068
0.450305
0.448018
0.44195
0.436342
0.434468
0.434506
0.435036
0.435624
0.436338
0.43723
0.438402
0.439863
0.441547
0.443418
0.445525
0.447869
0.450532
0.45349
0.45686
0.460597
0.464874
0.46959
0.474999
0.480925
0.487697
0.495076
0.503399
0.512436
0.522481
0.53335
0.545261
0.558085
0.572002
0.58694
0.603041
0.620266
0.63875
0.658394
0.679337
0.701457
0.72493
0.749538
0.775262
0.802276
0.828113
1.88112
0.786634
0.300027
0.349024
0.412199
0.441241
0.444209
0.439522
0.43437
0.432088
0.431844
0.432367
0.433086
0.434006
0.435102
0.436435
0.438031
0.439887
0.442
0.444397
0.447071
0.450078
0.453388
0.457088
0.461125
0.465643
0.470548
0.476049
0.48201
0.488683
0.495928
0.503985
0.512752
0.522408
0.532894
0.54436
0.556736
0.570155
0.584548
0.600039
0.616553
0.634201
0.652899
0.672749
0.693649
0.715633
0.738555
0.762379
0.787196
0.810845
2.26308
1.106
0.407188
0.399179
0.459362
0.508056
0.519346
0.514455
0.507531
0.501484
0.497968
0.495497
0.493385
0.491368
0.48934
0.487369
0.485645
0.484156
0.483008
0.482161
0.481733
0.481685
0.482139
0.483072
0.484553
0.486619
0.489303
0.492664
0.496704
0.501514
0.507072
0.513486
0.520729
0.528922
0.538017
0.548143
0.559232
0.5714
0.584573
0.598857
0.614147
0.630542
0.647917
0.666326
0.68568
0.705969
0.727093
0.748973
0.771684
0.793292
2.2725
1.12789
0.391665
0.377127
0.449992
0.510706
0.529102
0.528219
0.523997
0.520194
0.518752
0.518377
0.518361
0.518322
0.517907
0.517279
0.516607
0.515978
0.515411
0.514936
0.51457
0.514375
0.514374
0.514647
0.51523
0.516201
0.517598
0.51953
0.521994
0.525146
0.528932
0.533548
0.538905
0.54519
0.552329
0.56046
0.569554
0.579708
0.590906
0.603178
0.61655
0.630971
0.646469
0.662946
0.680374
0.698686
0.717786
0.737582
0.758138
0.777703
2.29743
1.17661
0.434245
0.383993
0.44709
0.50338
0.521857
0.522884
0.521059
0.519874
0.520293
0.521525
0.523319
0.525121
0.526529
0.527729
0.528853
0.53
0.531149
0.532329
0.533516
0.53476
0.536054
0.537456
0.538971
0.540668
0.542566
0.544738
0.547231
0.55011
0.553443
0.557281
0.561722
0.566796
0.572624
0.579214
0.586686
0.595025
0.60433
0.614575
0.625808
0.637998
0.651173
0.665318
0.680404
0.696404
0.713217
0.73069
0.748912
0.766295
1.90075
0.805029
0.305806
0.316891
0.374008
0.414893
0.429173
0.432999
0.435822
0.439473
0.444404
0.45015
0.456588
0.463083
0.46926
0.475256
0.481222
0.487184
0.493128
0.499013
0.504836
0.510575
0.516248
0.521835
0.527372
0.532834
0.53829
0.54371
0.549188
0.554712
0.560356
0.566164
0.5722
0.578532
0.58521
0.592336
0.599934
0.608125
0.616898
0.626388
0.63655
0.647524
0.659219
0.671743
0.684979
0.698945
0.713578
0.728903
0.744917
0.760232
2.30593
1.19375
0.449588
0.386638
0.440663
0.492234
0.509234
0.509294
0.506148
0.50367
0.502413
0.502228
0.502683
0.503079
0.503403
0.503908
0.504733
0.506009
0.507705
0.509863
0.512437
0.515478
0.51894
0.522867
0.52718
0.531938
0.537023
0.542526
0.548286
0.554422
0.560807
0.567548
0.574527
0.581866
0.589458
0.597441
0.605731
0.614458
0.623563
0.633161
0.643218
0.65382
0.66495
0.67664
0.6889
0.701712
0.715084
0.728926
0.743328
0.757046
2.31117
1.20372
0.432889
0.369731
0.438372
0.500629
0.52208
0.523492
0.521273
0.519802
0.51993
0.521062
0.522791
0.524296
0.525321
0.526168
0.527003
0.527952
0.529026
0.530315
0.531824
0.533639
0.535746
0.538231
0.541079
0.544355
0.548049
0.552204
0.556816
0.5619
0.567456
0.57347
0.57995
0.586869
0.594261
0.602065
0.610335
0.618993
0.62812
0.63762
0.647597
0.657942
0.668777
0.67998
0.691671
0.703725
0.716237
0.72907
0.742351
0.754953
2.3139
1.20955
0.437065
0.371773
0.4415
0.505351
0.527726
0.529406
0.527242
0.525894
0.526367
0.527883
0.530154
0.532347
0.534066
0.535595
0.537122
0.538754
0.540486
0.542348
0.544336
0.546483
0.548804
0.551333
0.554102
0.557135
0.560476
0.564138
0.568174
0.572583
0.577423
0.582679
0.588409
0.594582
0.601251
0.608377
0.616003
0.624085
0.632654
0.641672
0.65115
0.661066
0.671407
0.682162
0.693295
0.704815
0.716655
0.728831
0.741334
0.753225
2.31688
1.21727
0.463434
0.387827
0.447096
0.506223
0.52878
0.532011
0.531132
0.530762
0.531654
0.533582
0.536121
0.538419
0.540445
0.542349
0.544307
0.546348
0.548526
0.550807
0.553238
0.555789
0.558514
0.561386
0.564464
0.567723
0.571225
0.574952
0.578965
0.58325
0.587868
0.592813
0.598134
0.603831
0.609935
0.616453
0.623398
0.63079
0.638618
0.646908
0.655625
0.6648
0.674383
0.6844
0.694788
0.705564
0.716656
0.728064
0.739807
0.750984
1.90563
0.813583
0.324709
0.323678
0.376481
0.414373
0.42726
0.430302
0.432593
0.435933
0.440703
0.446614
0.453341
0.460159
0.466867
0.473527
0.480261
0.487055
0.49392
0.500798
0.507695
0.514574
0.52145
0.528298
0.535143
0.541971
0.548809
0.555656
0.562534
0.569455
0.576436
0.583508
0.590682
0.598
0.605467
0.613137
0.621004
0.629125
0.637488
0.646137
0.655061
0.664288
0.6738
0.683624
0.693734
0.704139
0.714815
0.72575
0.736996
0.747671
2.31198
1.20858
0.464953
0.403497
0.466202
0.527385
0.549311
0.550237
0.546093
0.542261
0.540055
0.538683
0.538089
0.537692
0.536959
0.536237
0.535672
0.535519
0.535708
0.536396
0.537509
0.539123
0.541204
0.543793
0.546852
0.550409
0.554422
0.558918
0.563838
0.569207
0.574968
0.581129
0.587637
0.594504
0.601688
0.609197
0.617001
0.625104
0.633483
0.642149
0.651085
0.660299
0.66978
0.679526
0.689523
0.699758
0.710219
0.720883
0.73181
0.742173
2.29403
1.16957
0.460056
0.422686
0.485795
0.54619
0.566074
0.566113
0.562392
0.559156
0.5584
0.558803
0.559889
0.561153
0.562026
0.562665
0.563256
0.563914
0.56465
0.565473
0.566395
0.567458
0.568711
0.570195
0.571944
0.574001
0.576386
0.579129
0.582247
0.585762
0.589678
0.594016
0.59878
0.603978
0.609608
0.615666
0.622144
0.629033
0.63632
0.643988
0.652022
0.6604
0.669104
0.678116
0.687432
0.697018
0.706874
0.716961
0.727331
0.737183
1.88783
0.805071
0.340772
0.355364
0.406342
0.443121
0.452856
0.452685
0.451749
0.452601
0.455914
0.460538
0.466078
0.472142
0.478232
0.484353
0.490569
0.496889
0.503265
0.509652
0.516014
0.522339
0.528616
0.534845
0.541021
0.547155
0.553255
0.559346
0.565448
0.571591
0.577802
0.584102
0.590522
0.597082
0.603812
0.610725
0.617848
0.62519
0.632768
0.640584
0.648659
0.656985
0.665577
0.674413
0.683494
0.692808
0.70234
0.712079
0.722067
0.73156
1.87402
0.796327
0.339518
0.35666
0.398325
0.426968
0.434882
0.434835
0.433828
0.433316
0.434049
0.435683
0.43824
0.441448
0.44494
0.448772
0.453028
0.457746
0.462906
0.468488
0.474452
0.480775
0.487412
0.49434
0.501515
0.508912
0.51649
0.524228
0.532092
0.540069
0.548132
0.556292
0.564522
0.572842
0.58123
0.589715
0.598282
0.606959
0.615744
0.624641
0.633648
0.642784
0.652048
0.661454
0.670998
0.680691
0.690528
0.700502
0.710653
0.720265
1.88891
0.806045
0.345015
0.373646
0.43094
0.466893
0.47362
0.469567
0.464486
0.461384
0.460432
0.460403
0.460995
0.46196
0.462999
0.464173
0.465605
0.467366
0.469492
0.471995
0.474897
0.478209
0.481959
0.48614
0.490772
0.495837
0.501347
0.507268
0.513606
0.520321
0.527417
0.534847
0.54261
0.550662
0.558993
0.567561
0.576362
0.585354
0.594528
0.603875
0.613388
0.623046
0.632845
0.642761
0.6528
0.662939
0.673185
0.683517
0.694001
0.703894
2.34071
1.12427
0.469019
0.44756
0.513128
0.574867
0.595483
0.594873
0.589574
0.584271
0.581261
0.579352
0.577787
0.576417
0.574863
0.57313
0.571358
0.569645
0.568036
0.566558
0.565235
0.564104
0.56319
0.562542
0.562187
0.562177
0.562529
0.563302
0.564488
0.566127
0.568248
0.570859
0.573984
0.577604
0.581747
0.586381
0.591524
0.597139
0.603236
0.609768
0.616734
0.624089
0.631818
0.639912
0.648325
0.657044
0.666028
0.675264
0.684762
0.693819
1.88937
0.807236
0.346153
0.36347
0.415821
0.456081
0.468552
0.469557
0.469008
0.468986
0.471273
0.474791
0.478998
0.483732
0.488555
0.493367
0.498207
0.503135
0.50811
0.513121
0.518111
0.523087
0.528012
0.53291
0.537752
0.542575
0.547354
0.552132
0.55691
0.561717
0.566561
0.571476
0.576461
0.581569
0.586796
0.592198
0.597762
0.603544
0.609525
0.61576
0.622222
0.628959
0.635945
0.643189
0.650682
0.658434
0.666426
0.674654
0.683137
0.691242
1.8891
0.807384
0.347465
0.364537
0.416094
0.454585
0.465034
0.463969
0.461094
0.458535
0.458069
0.45891
0.460496
0.462703
0.465123
0.467712
0.470581
0.473809
0.477402
0.481345
0.485611
0.490182
0.495038
0.500159
0.505526
0.511111
0.516895
0.522854
0.52897
0.535242
0.541645
0.548178
0.554829
0.561589
0.568455
0.575419
0.582486
0.589656
0.596933
0.604316
0.611817
0.61943
0.627169
0.635029
0.643025
0.651148
0.659414
0.667805
0.676371
0.684505
2.34274
1.12796
0.472702
0.449626
0.516381
0.580619
0.603066
0.603167
0.598088
0.593019
0.590237
0.588682
0.587555
0.586704
0.585702
0.584537
0.583312
0.582188
0.581151
0.580293
0.579554
0.579044
0.5787
0.578641
0.578799
0.57928
0.580045
0.581133
0.582561
0.584335
0.586466
0.58895
0.59179
0.594983
0.598529
0.602426
0.606667
0.611246
0.616152
0.621379
0.626911
0.63274
0.638851
0.645237
0.651877
0.658768
0.665888
0.673231
0.680801
0.688042
1.88982
0.808779
0.353423
0.38141
0.439685
0.479632
0.489589
0.487908
0.484863
0.483478
0.484904
0.487579
0.490928
0.494762
0.498661
0.502611
0.506674
0.510902
0.515264
0.519747
0.524308
0.528941
0.533624
0.538354
0.543124
0.547928
0.552768
0.557646
0.56257
0.567544
0.572577
0.577683
0.582864
0.58814
0.593511
0.598997
0.604596
0.610327
0.616187
0.622189
0.628338
0.634644
0.641108
0.647733
0.654522
0.661476
0.668595
0.675868
0.683323
0.690421
1.87526
0.799751
0.351151
0.3781
0.427534
0.459446
0.467093
0.465963
0.464282
0.463568
0.464095
0.465294
0.467194
0.469479
0.47183
0.474312
0.477019
0.480003
0.48327
0.48682
0.490641
0.494727
0.49907
0.503662
0.508492
0.513549
0.518822
0.524296
0.529959
0.535798
0.541801
0.54795
0.554252
0.560684
0.567253
0.573939
0.580754
0.587679
0.594728
0.601883
0.609154
0.616524
0.624005
0.631584
0.639274
0.647058
0.654951
0.66294
0.671071
0.678772
1.87423
0.799385
0.351676
0.375348
0.422432
0.4541
0.462313
0.461851
0.460734
0.460114
0.460384
0.461209
0.462692
0.464528
0.466376
0.468278
0.470334
0.47259
0.475063
0.477753
0.48067
0.483817
0.487205
0.490833
0.494709
0.49883
0.503203
0.507821
0.512688
0.517796
0.523147
0.528733
0.534552
0.540592
0.546849
0.553309
0.559969
0.566811
0.573837
0.581033
0.588397
0.595918
0.603595
0.611412
0.619363
0.627439
0.635645
0.643975
0.652461
0.660519
1.88906
0.809113
0.35485
0.362657
0.413294
0.452093
0.463034
0.46262
0.460831
0.459585
0.459621
0.460432
0.461972
0.463875
0.465702
0.467509
0.469427
0.471519
0.473804
0.476278
0.478945
0.481803
0.48486
0.488115
0.491575
0.49524
0.499116
0.503202
0.507504
0.512019
0.516753
0.521704
0.526875
0.532262
0.537867
0.543686
0.549718
0.55596
0.562409
0.569059
0.575904
0.582938
0.590155
0.597549
0.60512
0.612863
0.620765
0.628818
0.637042
0.644865
2.31231
1.20464
0.485406
0.431469
0.492567
0.556794
0.582782
0.586274
0.58361
0.580878
0.57959
0.579275
0.579765
0.580595
0.581133
0.581424
0.581657
0.581939
0.582316
0.582784
0.58335
0.584013
0.584791
0.585686
0.586716
0.587885
0.589209
0.59069
0.592345
0.594176
0.596199
0.598415
0.60084
0.603472
0.606326
0.609401
0.612709
0.616247
0.620027
0.624042
0.628303
0.632801
0.637547
0.642527
0.647753
0.653207
0.658892
0.664785
0.670916
0.67681
2.32252
1.22873
0.466086
0.405362
0.481436
0.557494
0.588657
0.593335
0.590702
0.587839
0.586851
0.587305
0.588595
0.59041
0.592092
0.59349
0.59482
0.596233
0.597787
0.599467
0.60127
0.603181
0.60521
0.60735
0.609612
0.611989
0.614492
0.617114
0.619866
0.622741
0.625752
0.62889
0.63217
0.635584
0.639144
0.642845
0.646699
0.6507
0.654859
0.659171
0.663648
0.668282
0.673086
0.678053
0.683191
0.688491
0.693958
0.699579
0.705377
0.710916
2.31272
1.20615
0.486654
0.432532
0.494347
0.559802
0.586862
0.591011
0.588959
0.586847
0.586278
0.586935
0.588444
0.590433
0.592232
0.593826
0.595399
0.597082
0.598911
0.600886
0.602995
0.605239
0.607617
0.610135
0.612791
0.615592
0.618534
0.621625
0.624859
0.628243
0.631771
0.635452
0.639278
0.643257
0.647381
0.65166
0.656085
0.660664
0.665389
0.670268
0.675292
0.68047
0.685791
0.691266
0.696881
0.702649
0.708553
0.714604
0.720811
0.72675
1.88895
0.809179
0.356055
0.364303
0.416384
0.457003
0.469101
0.469119
0.467533
0.466519
0.467163
0.468789
0.471272
0.474228
0.477162
0.480128
0.483236
0.486564
0.490107
0.493869
0.497823
0.501977
0.506312
0.510839
0.515537
0.520419
0.525463
0.53068
0.536051
0.541585
0.547264
0.553097
0.559066
0.565182
0.571425
0.577808
0.584311
0.590946
0.597695
0.604571
0.611553
0.618658
0.625864
0.633186
0.640602
0.64813
0.655751
0.663485
0.671347
0.678834
1.87422
0.800022
0.355291
0.380471
0.428585
0.460131
0.467651
0.466483
0.464742
0.46386
0.464077
0.464929
0.466471
0.468352
0.470184
0.472035
0.474
0.476139
0.47845
0.480944
0.483609
0.486459
0.489487
0.492706
0.49611
0.49971
0.5035
0.507489
0.51167
0.516053
0.520627
0.525404
0.53037
0.535537
0.540891
0.546442
0.552175
0.5581
0.564202
0.570488
0.576945
0.583579
0.590374
0.597337
0.604453
0.611727
0.619144
0.62671
0.634436
0.641798
1.87704
0.803103
0.359362
0.395137
0.451551
0.484553
0.490475
0.486943
0.482759
0.480812
0.480801
0.481597
0.483008
0.484673
0.486271
0.487893
0.489637
0.491549
0.493624
0.495862
0.498254
0.500808
0.50352
0.5064
0.509442
0.512657
0.516039
0.519596
0.523324
0.52723
0.531309
0.535569
0.540003
0.544619
0.54941
0.554382
0.559529
0.564856
0.570356
0.576034
0.581882
0.587905
0.594093
0.600451
0.606969
0.61365
0.620483
0.627469
0.634614
0.641426
1.19153
1.0488
0.497503
0.190542
0.0108893
0.108737
0.160278
0.208617
0.230205
0.23456
0.222854
0.211382
0.201056
0.19152
0.179484
0.16503
0.147698
0.127764
0.105943
0.0827987
0.0589762
0.0352624
0.0158724
0.0232581
0.0469738
0.0712772
0.095414
0.11912
0.142434
0.165335
0.187832
0.209906
0.231537
0.252677
0.272683
0.291783
0.311319
0.331691
0.35165
0.370814
0.389322
0.407315
0.424829
0.441877
0.458444
0.474536
0.490137
0.505252
0.519866
0.533982
0.547581
0.560663
0.573204
0.585199
0.596617
0.60745
0.617662
0.627237
0.636135
0.644338
0.6518
0.658502
0.664401
0.669478
0.673696
0.677052
0.679526
0.681142
0.681907
0.682076
0.681895
0.681329
0.679985
0.677472
0.674085
0.670473
0.66679
0.663069
0.659376
0.655795
0.652425
0.649339
0.646606
0.644261
0.642332
0.640822
0.63973
0.639032
0.6387
0.638672
0.638827
0.639162
0.639793
0.640881
0.642261
0.643773
0.645317
0.646985
0.648624
0.6534
1.1219
1.03597
0.806084
0.549175
0.502172
0.431229
0.381336
0.340601
0.310333
0.291776
0.260403
0.230122
0.210548
0.208799
0.215936
0.226487
0.238945
0.252857
0.267985
0.283837
0.300213
0.31668
0.333002
0.349172
0.365901
0.382881
0.400039
0.417135
0.434228
0.451156
0.468004
0.48463
0.501123
0.517354
0.533007
0.54792
0.562916
0.578632
0.594492
0.609713
0.624427
0.638796
0.652871
0.666643
0.680093
0.693205
0.70597
0.718378
0.730419
0.742085
0.753361
0.764235
0.774691
0.784711
0.794275
0.803362
0.811944
0.82
0.827497
0.834409
0.840703
0.84635
0.851317
0.85558
0.859109
0.861893
0.863919
0.865191
0.865741
0.865748
0.865448
0.864776
0.863415
0.86102
0.857796
0.854314
0.850757
0.847186
0.843665
0.840268
0.837084
0.834182
0.831624
0.829443
0.827665
0.826289
0.825312
0.824708
0.824474
0.824498
0.82467
0.825001
0.825563
0.826524
0.827728
0.829064
0.830381
0.831792
0.832982
0.836781
1.07462
1.07544
1.00804
0.899578
0.831136
0.78084
0.744926
0.714834
0.690019
0.671926
0.656812
0.642471
0.632472
0.627334
0.625812
0.626064
0.627563
0.629962
0.633339
0.637599
0.64271
0.648477
0.654836
0.661665
0.669219
0.677375
0.686144
0.695296
0.704867
0.714668
0.724781
0.735028
0.745519
0.756063
0.766449
0.776391
0.786466
0.797246
0.808612
0.819705
0.830514
0.841129
0.851645
0.862039
0.872315
0.882421
0.892362
0.902094
0.911627
0.920917
0.929973
0.938749
0.947252
0.955432
0.963293
0.970783
0.977902
0.984596
0.990861
0.99664
1.00193
1.00667
1.01086
1.01444
1.01741
1.01973
1.02141
1.02241
1.02276
1.02263
1.02227
1.02158
1.02026
1.01804
1.01507
1.01182
1.00847
1.00512
1.00184
0.998694
0.99576
0.993106
0.990774
0.988805