/*--------------------------------*- C++ -*----------------------------------*\
| =========                 |                                                 |
| \\      /  F ield         | OpenFOAM: The Open Source CFD Toolbox           |
|  \\    /   O peration     | Version:  2412                                  |
|   \\  /    A nd           | Website:  www.openfoam.com                      |
|    \\/     M anipulation  |                                                 |
\*---------------------------------------------------------------------------*/
FoamFile
{
    version     2.0;
    format      ascii;
    arch        "LSB;label=32;scalar=64";
    class       volVectorField;
    location    "26.5";
    object      U;
}
// * * * * * * * * * * * * * * * * * * * * * * * * * * * * * * * * * * * * * //

dimensions      [0 1 -1 0 0 0 0];

internalField   nonuniform List<vector> 
7000
(
(2.59105 -7.24821e-05 0)
(1.62049 0.000178364 0)
(0.495625 0.000208986 0)
(0.552994 0.000350765 0)
(0.654684 0.000446559 0)
(0.719879 0.000524599 0)
(0.732761 0.000592442 0)
(0.725868 0.000662737 0)
(0.715805 0.000741199 0)
(0.708108 0.000831615 0)
(0.70364 0.000930258 0)
(0.700072 0.00103346 0)
(0.695987 0.00114043 0)
(0.691131 0.00125209 0)
(0.685667 0.00136948 0)
(0.67972 0.00149317 0)
(0.673308 0.00162345 0)
(0.666397 0.00176064 0)
(0.658953 0.00190518 0)
(0.650948 0.00205762 0)
(0.64236 0.00221856 0)
(0.633166 0.00238868 0)
(0.623341 0.00256867 0)
(0.612858 0.00275932 0)
(0.601687 0.00296143 0)
(0.589799 0.00317589 0)
(0.57716 0.0034036 0)
(0.563739 0.00364553 0)
(0.549498 0.00390264 0)
(0.534404 0.00417591 0)
(0.518417 0.00446632 0)
(0.5015 0.00477475 0)
(0.483616 0.00510209 0)
(0.464727 0.00544894 0)
(0.444797 0.00581591 0)
(0.423792 0.0062031 0)
(0.401683 0.00661053 0)
(0.378445 0.0070374 0)
(0.354061 0.00748276 0)
(0.328524 0.00794443 0)
(0.301837 0.00842004 0)
(0.27402 0.00890549 0)
(0.245106 0.00939683 0)
(0.215149 0.0098877 0)
(0.184222 0.0103736 0)
(0.152419 0.0108475 0)
(0.119821 0.0113135 0)
(0.0868491 0.0117555 0)
(0.051491 0.0123442 0)
(0.0221144 0.0131962 0)
(2.59117 -4.8084e-05 0)
(1.62066 0.000347464 0)
(0.495313 0.000828114 0)
(0.552733 0.00113978 0)
(0.654445 0.00137489 0)
(0.719654 0.00159693 0)
(0.732536 0.00180494 0)
(0.725647 0.00202025 0)
(0.715594 0.00225776 0)
(0.707905 0.00252754 0)
(0.703444 0.00282033 0)
(0.69988 0.00312657 0)
(0.695798 0.00344408 0)
(0.690948 0.00377513 0)
(0.685489 0.00412236 0)
(0.679548 0.00448716 0)
(0.673141 0.00487024 0)
(0.666237 0.0052723 0)
(0.658798 0.00569444 0)
(0.6508 0.0061379 0)
(0.642219 0.0066042 0)
(0.633033 0.00709484 0)
(0.623216 0.00761154 0)
(0.612741 0.00815593 0)
(0.601579 0.00872993 0)
(0.5897 0.00933526 0)
(0.57707 0.00997393 0)
(0.563658 0.0106475 0)
(0.549427 0.011358 0)
(0.534342 0.0121066 0)
(0.518364 0.0128949 0)
(0.501457 0.0137232 0)
(0.48358 0.0145924 0)
(0.464696 0.0155013 0)
(0.44477 0.0164491 0)
(0.423765 0.0174325 0)
(0.401652 0.0184481 0)
(0.378406 0.0194891 0)
(0.354006 0.0205481 0)
(0.328445 0.021614 0)
(0.301725 0.0226742 0)
(0.273861 0.023712 0)
(0.244886 0.0247099 0)
(0.214851 0.0256467 0)
(0.183827 0.0265017 0)
(0.151907 0.0272554 0)
(0.119163 0.0279055 0)
(0.0860639 0.0284259 0)
(0.0505454 0.0290766 0)
(0.0211885 0.0298264 0)
(2.5913 4.76382e-05 0)
(1.62095 0.000392392 0)
(0.49552 0.00160504 0)
(0.552785 0.0019806 0)
(0.654486 0.0023048 0)
(0.719696 0.00267042 0)
(0.732578 0.00303985 0)
(0.725701 0.00341869 0)
(0.715668 0.0038288 0)
(0.708002 0.00428672 0)
(0.703555 0.0047814 0)
(0.7 0.00530003 0)
(0.695928 0.00583967 0)
(0.691088 0.0064032 0)
(0.685643 0.00699459 0)
(0.679715 0.00761584 0)
(0.673323 0.00826859 0)
(0.666433 0.00895391 0)
(0.65901 0.00967403 0)
(0.651028 0.0104309 0)
(0.642465 0.0112274 0)
(0.633298 0.0120658 0)
(0.623502 0.0129497 0)
(0.613048 0.0138815 0)
(0.601909 0.0148649 0)
(0.590054 0.0159028 0)
(0.577451 0.0169991 0)
(0.564066 0.0181564 0)
(0.549864 0.0193785 0)
(0.534807 0.0206676 0)
(0.51886 0.0220269 0)
(0.501982 0.0234573 0)
(0.484135 0.0249604 0)
(0.46528 0.0265352 0)
(0.44538 0.0281803 0)
(0.424398 0.0298913 0)
(0.402303 0.031662 0)
(0.379067 0.0334829 0)
(0.354669 0.0353405 0)
(0.329098 0.0372184 0)
(0.302352 0.0390935 0)
(0.274445 0.0409411 0)
(0.245406 0.0427286 0)
(0.215283 0.0444239 0)
(0.184143 0.0459903 0)
(0.152083 0.0473927 0)
(0.119169 0.0486187 0)
(0.0859276 0.0496289 0)
(0.0502698 0.0506812 0)
(0.020749 0.051674 0)
(2.59147 5.41209e-05 0)
(1.6214 0.000535888 0)
(0.495948 0.00235109 0)
(0.552908 0.00281444 0)
(0.654609 0.00323712 0)
(0.719839 0.00375714 0)
(0.732726 0.00430346 0)
(0.725863 0.0048594 0)
(0.71586 0.00545213 0)
(0.708225 0.00610438 0)
(0.703801 0.00680588 0)
(0.700263 0.00754276 0)
(0.696208 0.00831123 0)
(0.691388 0.00911439 0)
(0.685964 0.00995682 0)
(0.68006 0.0108414 0)
(0.673691 0.0117703 0)
(0.666827 0.0127455 0)
(0.659431 0.0137699 0)
(0.651478 0.0148465 0)
(0.642946 0.0159792 0)
(0.633811 0.0171716 0)
(0.624049 0.0184281 0)
(0.613633 0.019753 0)
(0.602534 0.0211508 0)
(0.590721 0.0226266 0)
(0.578162 0.0241848 0)
(0.564824 0.0258306 0)
(0.550671 0.027568 0)
(0.535666 0.029402 0)
(0.51977 0.0313354 0)
(0.502946 0.0333719 0)
(0.485152 0.0355119 0)
(0.46635 0.0377567 0)
(0.4465 0.0401023 0)
(0.425564 0.0425458 0)
(0.403509 0.0450763 0)
(0.380303 0.0476837 0)
(0.355924 0.0503476 0)
(0.330356 0.0530473 0)
(0.303594 0.0557504 0)
(0.275646 0.058421 0)
(0.246539 0.0610167 0)
(0.216316 0.0634862 0)
(0.185043 0.0657853 0)
(0.152817 0.0678577 0)
(0.119701 0.0696748 0)
(0.0862755 0.071183 0)
(0.0504192 0.072608 0)
(0.0206051 0.0737638 0)
(2.59173 6.77563e-05 0)
(1.62203 0.00071644 0)
(0.496499 0.00310386 0)
(0.553018 0.00367981 0)
(0.654736 0.00421154 0)
(0.720011 0.00488564 0)
(0.732912 0.00560903 0)
(0.726067 0.00634914 0)
(0.7161 0.00713325 0)
(0.708507 0.00798602 0)
(0.704115 0.00889959 0)
(0.700605 0.00986107 0)
(0.696576 0.0108657 0)
(0.691785 0.0119169 0)
(0.686393 0.0130192 0)
(0.680522 0.0141767 0)
(0.67419 0.0153917 0)
(0.667363 0.0166676 0)
(0.660007 0.0180074 0)
(0.652097 0.0194161 0)
(0.64361 0.0208976 0)
(0.634524 0.0224578 0)
(0.624815 0.0241013 0)
(0.614454 0.025835 0)
(0.603415 0.0276637 0)
(0.591665 0.029595 0)
(0.579173 0.0316339 0)
(0.565905 0.0337881 0)
(0.551825 0.0360623 0)
(0.536897 0.0384635 0)
(0.521081 0.0409954 0)
(0.504338 0.043663 0)
(0.486625 0.0464673 0)
(0.467903 0.0494098 0)
(0.44813 0.0524865 0)
(0.427266 0.0556924 0)
(0.405275 0.0590163 0)
(0.382122 0.062442 0)
(0.357779 0.065948 0)
(0.332225 0.0695023 0)
(0.305452 0.0730704 0)
(0.27746 0.0765987 0)
(0.248271 0.0800357 0)
(0.217926 0.0833115 0)
(0.186485 0.0863597 0)
(0.154049 0.0891148 0)
(0.120672 0.091518 0)
(0.0869958 0.093492 0)
(0.050851 0.0952296 0)
(0.020623 0.096478 0)
(2.59206 8.00468e-05 0)
(1.62288 0.000900561 0)
(0.497198 0.00385573 0)
(0.553133 0.00455779 0)
(0.654879 0.00520481 0)
(0.720221 0.00603331 0)
(0.733149 0.00693927 0)
(0.72633 0.00786858 0)
(0.716407 0.0088527 0)
(0.708863 0.00991487 0)
(0.704514 0.0110489 0)
(0.701039 0.0122428 0)
(0.697046 0.013492 0)
(0.692294 0.0147999 0)
(0.686944 0.0161712 0)
(0.681118 0.0176106 0)
(0.674832 0.0191212 0)
(0.668055 0.0207071 0)
(0.660752 0.0223726 0)
(0.652898 0.0241231 0)
(0.644472 0.0259644 0)
(0.635451 0.027903 0)
(0.625811 0.0299456 0)
(0.615525 0.0320997 0)
(0.604564 0.0343728 0)
(0.592899 0.0367728 0)
(0.580497 0.0393081 0)
(0.567324 0.0419861 0)
(0.553344 0.0448155 0)
(0.53852 0.0478027 0)
(0.522813 0.0509552 0)
(0.50618 0.054277 0)
(0.48858 0.0577726 0)
(0.46997 0.0614416 0)
(0.450306 0.0652825 0)
(0.429545 0.0692874 0)
(0.407646 0.0734453 0)
(0.384571 0.0777353 0)
(0.360285 0.0821326 0)
(0.334763 0.0865975 0)
(0.307985 0.0910852 0)
(0.27995 0.0955364 0)
(0.250667 0.0998795 0)
(0.220171 0.104033 0)
(0.188521 0.107901 0)
(0.155814 0.111393 0)
(0.122103 0.114431 0)
(0.088067 0.116902 0)
(0.0515118 0.118952 0)
(0.0207744 0.120271 0)
(2.5925 9.27131e-05 0)
(1.62395 0.00108686 0)
(0.498054 0.00461538 0)
(0.553254 0.00545134 0)
(0.655037 0.00622009 0)
(0.720472 0.00720674 0)
(0.733439 0.00830274 0)
(0.726652 0.00942583 0)
(0.716784 0.0106168 0)
(0.7093 0.0118968 0)
(0.705003 0.0132594 0)
(0.701574 0.0146932 0)
(0.697627 0.016195 0)
(0.692924 0.0177677 0)
(0.687627 0.0194168 0)
(0.681857 0.0211468 0)
(0.675631 0.0229623 0)
(0.668916 0.0248676 0)
(0.66168 0.0268686 0)
(0.653898 0.0289712 0)
(0.645548 0.0311829 0)
(0.636609 0.0335111 0)
(0.627057 0.0359645 0)
(0.616865 0.0385515 0)
(0.606005 0.0412819 0)
(0.594447 0.0441648 0)
(0.582159 0.0472108 0)
(0.569107 0.0504292 0)
(0.555256 0.0538302 0)
(0.540566 0.0574228 0)
(0.524998 0.0612156 0)
(0.508509 0.0652153 0)
(0.491055 0.0694267 0)
(0.472592 0.0738519 0)
(0.453072 0.0784889 0)
(0.43245 0.0833304 0)
(0.410678 0.0883637 0)
(0.387712 0.0935663 0)
(0.363511 0.0989084 0)
(0.33804 0.104345 0)
(0.311274 0.109821 0)
(0.283196 0.115266 0)
(0.25381 0.120593 0)
(0.223136 0.125703 0)
(0.191231 0.130476 0)
(0.158186 0.134794 0)
(0.124045 0.138536 0)
(0.0895421 0.141558 0)
(0.0524188 0.143968 0)
(0.0210218 0.145391 0)
(2.59303 0.000105495 0)
(1.62527 0.00127366 0)
(0.499081 0.00538085 0)
(0.553384 0.00635444 0)
(0.655213 0.00724854 0)
(0.720769 0.00839752 0)
(0.73379 0.00968615 0)
(0.727044 0.0110103 0)
(0.717242 0.0124163 0)
(0.709827 0.0139222 0)
(0.705593 0.0155209 0)
(0.702221 0.0172026 0)
(0.698331 0.0189648 0)
(0.69369 0.0208109 0)
(0.688457 0.0227463 0)
(0.682757 0.0247762 0)
(0.676603 0.0269056 0)
(0.669965 0.02914 0)
(0.662811 0.031486 0)
(0.655117 0.0339511 0)
(0.646861 0.0365436 0)
(0.638023 0.0392726 0)
(0.628579 0.0421481 0)
(0.618503 0.0451805 0)
(0.607767 0.048381 0)
(0.596342 0.0517611 0)
(0.584195 0.0553325 0)
(0.571293 0.0591077 0)
(0.5576 0.063098 0)
(0.543076 0.0673153 0)
(0.527682 0.0717697 0)
(0.511373 0.0764703 0)
(0.494103 0.0814242 0)
(0.475825 0.0866343 0)
(0.45649 0.0921015 0)
(0.436044 0.0978176 0)
(0.414438 0.103771 0)
(0.391619 0.109937 0)
(0.367538 0.116283 0)
(0.342148 0.12276 0)
(0.315412 0.129303 0)
(0.2873 0.135831 0)
(0.257803 0.142236 0)
(0.226929 0.148405 0)
(0.194717 0.154184 0)
(0.161263 0.159424 0)
(0.126583 0.163975 0)
(0.09146 0.167636 0)
(0.0536158 0.170463 0)
(0.0214115 0.172026 0)
(2.59366 0.000118345 0)
(1.62686 0.00146009 0)
(0.500293 0.00614947 0)
(0.553525 0.00726302 0)
(0.655412 0.00828568 0)
(0.721116 0.00960121 0)
(0.734208 0.0110881 0)
(0.727514 0.0126187 0)
(0.717791 0.0142471 0)
(0.710458 0.0159867 0)
(0.706297 0.0178297 0)
(0.702994 0.0197674 0)
(0.699173 0.0217983 0)
(0.694605 0.0239261 0)
(0.689451 0.0261564 0)
(0.683832 0.0284947 0)
(0.677766 0.0309469 0)
(0.67122 0.0335192 0)
(0.664165 0.0362194 0)
(0.656576 0.0390562 0)
(0.648433 0.0420392 0)
(0.639717 0.0451791 0)
(0.630403 0.0484874 0)
(0.620467 0.0519763 0)
(0.609881 0.0556589 0)
(0.598616 0.0595487 0)
(0.586641 0.06366 0)
(0.573921 0.0680067 0)
(0.56042 0.0726037 0)
(0.546099 0.0774642 0)
(0.530917 0.0826018 0)
(0.514828 0.0880274 0)
(0.497784 0.0937513 0)
(0.479736 0.0997782 0)
(0.460629 0.106111 0)
(0.440408 0.112744 0)
(0.419013 0.119666 0)
(0.396386 0.126853 0)
(0.372465 0.134268 0)
(0.347193 0.141862 0)
(0.320516 0.14956 0)
(0.292387 0.157273 0)
(0.262781 0.164874 0)
(0.231681 0.172223 0)
(0.199114 0.179149 0)
(0.165162 0.185447 0)
(0.129834 0.190924 0)
(0.0939374 0.195331 0)
(0.0551451 0.198669 0)
(0.0219193 0.200423 0)
(2.59442 0.000131123 0)
(1.62872 0.00164489 0)
(0.501706 0.00691614 0)
(0.553682 0.00817108 0)
(0.655637 0.00932447 0)
(0.721522 0.0108101 0)
(0.734703 0.0124992 0)
(0.728073 0.0142422 0)
(0.718443 0.0161005 0)
(0.711204 0.0180821 0)
(0.707128 0.0201777 0)
(0.703906 0.0223797 0)
(0.700168 0.0246877 0)
(0.695687 0.0271056 0)
(0.690624 0.0296393 0)
(0.685103 0.0322946 0)
(0.679138 0.035078 0)
(0.672702 0.0379968 0)
(0.665763 0.0410599 0)
(0.658298 0.0442772 0)
(0.650289 0.0476598 0)
(0.641716 0.0512199 0)
(0.632557 0.0549706 0)
(0.622786 0.0589262 0)
(0.612378 0.0631017 0)
(0.601304 0.0675129 0)
(0.589532 0.0721764 0)
(0.577029 0.0771087 0)
(0.563758 0.0823275 0)
(0.549681 0.0878488 0)
(0.534754 0.0936895 0)
(0.518931 0.0998637 0)
(0.502164 0.106385 0)
(0.484397 0.113261 0)
(0.465573 0.120497 0)
(0.44563 0.128092 0)
(0.424503 0.136035 0)
(0.402121 0.144306 0)
(0.378415 0.152866 0)
(0.353306 0.161665 0)
(0.32673 0.170622 0)
(0.298612 0.179638 0)
(0.268904 0.188576 0)
(0.23757 0.197264 0)
(0.204599 0.205498 0)
(0.170063 0.213036 0)
(0.13393 0.219622 0)
(0.097063 0.224932 0)
(0.0571062 0.228893 0)
(0.0226247 0.230898 0)
(2.59529 0.000143702 0)
(1.63089 0.00182627 0)
(0.503332 0.00767352 0)
(0.553857 0.00907115 0)
(0.655893 0.0103576 0)
(0.721993 0.0120155 0)
(0.735284 0.0139121 0)
(0.728734 0.0158722 0)
(0.719214 0.0179673 0)
(0.712081 0.0201994 0)
(0.708103 0.0225566 0)
(0.704976 0.0250316 0)
(0.701334 0.0276251 0)
(0.696954 0.0303415 0)
(0.691998 0.0331868 0)
(0.686589 0.0361672 0)
(0.680743 0.0392899 0)
(0.674433 0.0425633 0)
(0.667628 0.0459973 0)
(0.660308 0.049603 0)
(0.652455 0.0533933 0)
(0.644049 0.0573819 0)
(0.635069 0.0615837 0)
(0.625493 0.066015 0)
(0.615293 0.0706931 0)
(0.604441 0.075636 0)
(0.592908 0.080863 0)
(0.580661 0.0863936 0)
(0.567662 0.0922481 0)
(0.553873 0.0984465 0)
(0.53925 0.105009 0)
(0.523746 0.111953 0)
(0.507309 0.119297 0)
(0.489882 0.127053 0)
(0.471404 0.135231 0)
(0.451805 0.143834 0)
(0.431014 0.152854 0)
(0.408948 0.162276 0)
(0.385523 0.172064 0)
(0.360646 0.182169 0)
(0.334226 0.192506 0)
(0.306169 0.20297 0)
(0.276385 0.213411 0)
(0.244812 0.223633 0)
(0.2114 0.233399 0)
(0.176186 0.242401 0)
(0.139116 0.250319 0)
(0.101045 0.25675 0)
(0.0595846 0.261519 0)
(0.0235145 0.263876 0)
(2.59628 0.000155791 0)
(1.63337 0.00200221 0)
(0.505187 0.00841053 0)
(0.554058 0.0099541 0)
(0.656187 0.0113767 0)
(0.72254 0.0132059 0)
(0.735963 0.0153133 0)
(0.729508 0.0174959 0)
(0.720118 0.0198361 0)
(0.713108 0.0223281 0)
(0.709242 0.0249561 0)
(0.706222 0.0277131 0)
(0.702691 0.0306006 0)
(0.698427 0.0336237 0)
(0.693593 0.0367886 0)
(0.688312 0.0401018 0)
(0.682602 0.0435713 0)
(0.676437 0.0472064 0)
(0.669787 0.0510183 0)
(0.662633 0.0550195 0)
(0.654958 0.0592244 0)
(0.646745 0.0636484 0)
(0.637973 0.0683085 0)
(0.62862 0.0732229 0)
(0.61866 0.0784113 0)
(0.608068 0.0838945 0)
(0.596813 0.0896944 0)
(0.584862 0.0958338 0)
(0.572181 0.102336 0)
(0.55873 0.109226 0)
(0.544464 0.116527 0)
(0.529337 0.124262 0)
(0.513294 0.132452 0)
(0.496275 0.141119 0)
(0.478216 0.150275 0)
(0.45904 0.159932 0)
(0.438666 0.170088 0)
(0.417002 0.180734 0)
(0.393948 0.191841 0)
(0.36939 0.203362 0)
(0.343211 0.21522 0)
(0.315285 0.2273 0)
(0.285484 0.239448 0)
(0.253696 0.251443 0)
(0.219822 0.263012 0)
(0.183837 0.273801 0)
(0.145636 0.283386 0)
(0.106104 0.291242 0)
(0.0627945 0.297061 0)
(0.0247285 0.299901 0)
(2.59741 0.00016523 0)
(1.63618 0.00217214 0)
(0.507281 0.00910962 0)
(0.554291 0.0108074 0)
(0.656522 0.0123737 0)
(0.723167 0.0143652 0)
(0.736752 0.0166884 0)
(0.730413 0.0190998 0)
(0.721176 0.0216939 0)
(0.714305 0.024456 0)
(0.710564 0.0273647 0)
(0.707666 0.0304129 0)
(0.704261 0.0336031 0)
(0.700128 0.0369411 0)
(0.695432 0.0404333 0)
(0.690297 0.0440866 0)
(0.684741 0.0479097 0)
(0.678739 0.0519129 0)
(0.672265 0.0561088 0)
(0.6653 0.0605114 0)
(0.657829 0.0651364 0)
(0.649835 0.0700013 0)
(0.6413 0.075125 0)
(0.632202 0.0805281 0)
(0.622518 0.0862327 0)
(0.612223 0.0922623 0)
(0.601287 0.0986418 0)
(0.58968 0.105398 0)
(0.577366 0.112557 0)
(0.564307 0.120149 0)
(0.55046 0.128202 0)
(0.535774 0.136745 0)
(0.520197 0.145804 0)
(0.503665 0.155409 0)
(0.486109 0.165579 0)
(0.467449 0.176335 0)
(0.447594 0.187685 0)
(0.426439 0.199629 0)
(0.403868 0.212151 0)
(0.379748 0.225212 0)
(0.353926 0.238745 0)
(0.326244 0.25264 0)
(0.29652 0.266738 0)
(0.264582 0.280809 0)
(0.230262 0.294536 0)
(0.193461 0.307503 0)
(0.153971 0.319194 0)
(0.112634 0.328925 0)
(0.0669413 0.336194 0)
(0.026295 0.339741 0)
(2.59867 0.000170551 0)
(1.63931 0.00233399 0)
(0.509614 0.00975675 0)
(0.554565 0.0116128 0)
(0.656901 0.0133284 0)
(0.723875 0.0154728 0)
(0.737662 0.0180221 0)
(0.731461 0.0206688 0)
(0.722403 0.0235254 0)
(0.71569 0.0265684 0)
(0.712089 0.0297683 0)
(0.709327 0.0331172 0)
(0.706063 0.0366189 0)
(0.702079 0.0402798 0)
(0.697538 0.0441064 0)
(0.692565 0.0481061 0)
(0.687182 0.0522883 0)
(0.681364 0.0566647 0)
(0.675088 0.0612489 0)
(0.668335 0.0660567 0)
(0.661094 0.0711055 0)
(0.653348 0.0764146 0)
(0.645081 0.0820051 0)
(0.636273 0.0879 0)
(0.626903 0.0941238 0)
(0.616945 0.100703 0)
(0.606375 0.107667 0)
(0.59516 0.115044 0)
(0.583269 0.122866 0)
(0.570662 0.131168 0)
(0.557299 0.139983 0)
(0.543129 0.149346 0)
(0.528098 0.159292 0)
(0.512143 0.169857 0)
(0.49519 0.181073 0)
(0.477155 0.19297 0)
(0.457939 0.205571 0)
(0.437427 0.218889 0)
(0.415484 0.232925 0)
(0.391956 0.247655 0)
(0.366659 0.263034 0)
(0.339386 0.278964 0)
(0.309901 0.2953 0)
(0.277943 0.311811 0)
(0.243249 0.328161 0)
(0.205597 0.343871 0)
(0.164651 0.358295 0)
(0.121174 0.370555 0)
(0.0725087 0.379858 0)
(0.0284949 0.384469 0)
(2.60007 0.000178104 0)
(1.64279 0.00247671 0)
(0.512182 0.0103561 0)
(0.554883 0.0123517 0)
(0.657327 0.0141999 0)
(0.724675 0.0165124 0)
(0.738712 0.0192866 0)
(0.732671 0.0221788 0)
(0.723823 0.0253148 0)
(0.717288 0.0286514 0)
(0.71384 0.0321533 0)
(0.711229 0.035813 0)
(0.708122 0.0396353 0)
(0.704302 0.0436275 0)
(0.699933 0.0477959 0)
(0.695141 0.0521485 0)
(0.689949 0.0566952 0)
(0.684336 0.0614493 0)
(0.67828 0.0664254 0)
(0.671766 0.0716412 0)
(0.664781 0.0771155 0)
(0.657313 0.08287 0)
(0.649348 0.0889276 0)
(0.640866 0.0953142 0)
(0.631849 0.102057 0)
(0.622274 0.109185 0)
(0.612116 0.116732 0)
(0.601349 0.12473 0)
(0.589939 0.133216 0)
(0.577851 0.142229 0)
(0.565045 0.151809 0)
(0.551472 0.161999 0)
(0.537079 0.172842 0)
(0.521803 0.184384 0)
(0.505568 0.19667 0)
(0.488287 0.209742 0)
(0.469855 0.223642 0)
(0.450149 0.238403 0)
(0.429018 0.25405 0)
(0.406286 0.270586 0)
(0.381735 0.287993 0)
(0.355111 0.306208 0)
(0.32611 0.325112 0)
(0.29438 0.344497 0)
(0.259516 0.364032 0)
(0.221129 0.383205 0)
(0.178639 0.401244 0)
(0.132608 0.41705 0)
(0.0800912 0.429389 0)
(0.0315269 0.435737 0)
(2.60159 0.000187954 0)
(1.6466 0.00259413 0)
(0.515013 0.0108873 0)
(0.555251 0.0129955 0)
(0.657825 0.0149561 0)
(0.725606 0.0174545 0)
(0.739932 0.0204583 0)
(0.734093 0.0236081 0)
(0.725487 0.0270401 0)
(0.719145 0.0306845 0)
(0.715865 0.0344999 0)
(0.713418 0.0384795 0)
(0.710483 0.0426297 0)
(0.706842 0.0469588 0)
(0.70266 0.0514732 0)
(0.698065 0.0561814 0)
(0.693083 0.0610947 0)
(0.687696 0.0662273 0)
(0.681882 0.0715956 0)
(0.675629 0.077219 0)
(0.668928 0.0831181 0)
(0.661769 0.0893166 0)
(0.654137 0.0958398 0)
(0.646019 0.102716 0)
(0.637396 0.109975 0)
(0.628249 0.117649 0)
(0.618555 0.125775 0)
(0.608291 0.13439 0)
(0.597426 0.143536 0)
(0.585927 0.153257 0)
(0.573757 0.163601 0)
(0.560872 0.174616 0)
(0.547218 0.18636 0)
(0.532735 0.198885 0)
(0.517348 0.212254 0)
(0.500971 0.226526 0)
(0.483496 0.241763 0)
(0.464795 0.258024 0)
(0.444706 0.275366 0)
(0.423032 0.293831 0)
(0.39953 0.313445 0)
(0.373894 0.334205 0)
(0.345749 0.356045 0)
(0.314634 0.378814 0)
(0.279978 0.402277 0)
(0.241125 0.425897 0)
(0.197195 0.448788 0)
(0.148338 0.46968 0)
(0.0910093 0.486697 0)
(0.0361561 0.496106 0)
(2.60324 0.000194251 0)
(1.65073 0.00268394 0)
(0.518095 0.0112997 0)
(0.555671 0.0135039 0)
(0.65841 0.0155707 0)
(0.726701 0.0182554 0)
(0.741363 0.0215124 0)
(0.735766 0.0249362 0)
(0.727437 0.0286813 0)
(0.721305 0.0326547 0)
(0.718202 0.0368035 0)
(0.715931 0.0411198 0)
(0.71318 0.0456121 0)
(0.709733 0.0502893 0)
(0.705753 0.0551588 0)
(0.701372 0.0602293 0)
(0.696618 0.0655131 0)
(0.691475 0.0710255 0)
(0.685926 0.0767851 0)
(0.679961 0.0828124 0)
(0.673572 0.0891309 0)
(0.666752 0.0957658 0)
(0.659489 0.102746 0)
(0.651772 0.1101 0)
(0.643586 0.117864 0)
(0.634914 0.126071 0)
(0.625738 0.134763 0)
(0.616035 0.143981 0)
(0.605781 0.153773 0)
(0.594947 0.164187 0)
(0.583498 0.17528 0)
(0.571395 0.187109 0)
(0.558591 0.19974 0)
(0.545027 0.213243 0)
(0.530637 0.227692 0)
(0.515334 0.243169 0)
(0.499016 0.25976 0)
(0.481553 0.277558 0)
(0.462783 0.296657 0)
(0.442499 0.317156 0)
(0.42044 0.339128 0)
(0.396262 0.362687 0)
(0.369515 0.387858 0)
(0.339674 0.414519 0)
(0.305952 0.442713 0)
(0.267303 0.47203 0)
(0.222422 0.501632 0)
(0.170702 0.530074 0)
(0.107365 0.554884 0)
(0.043483 0.570063 0)
(2.605 0.000196897 0)
(1.65515 0.00273501 0)
(0.521403 0.0115431 0)
(0.556155 0.0138284 0)
(0.659106 0.0159962 0)
(0.727999 0.0188691 0)
(0.743057 0.0223978 0)
(0.737742 0.0261134 0)
(0.729734 0.0301894 0)
(0.723833 0.0345048 0)
(0.720917 0.0389942 0)
(0.718831 0.0436497 0)
(0.716275 0.0484839 0)
(0.713034 0.0535079 0)
(0.70927 0.0587309 0)
(0.705116 0.064162 0)
(0.700605 0.0698148 0)
(0.695724 0.0757058 0)
(0.69046 0.0818553 0)
(0.684804 0.0882855 0)
(0.678753 0.0950214 0)
(0.672301 0.10209 0)
(0.665441 0.109522 0)
(0.658163 0.11735 0)
(0.650456 0.12561 0)
(0.642307 0.134341 0)
(0.633701 0.143586 0)
(0.624621 0.153392 0)
(0.615047 0.163811 0)
(0.604954 0.174899 0)
(0.594316 0.186717 0)
(0.583098 0.199336 0)
(0.57126 0.21283 0)
(0.558755 0.227283 0)
(0.54552 0.242789 0)
(0.531483 0.259451 0)
(0.516547 0.277383 0)
(0.500598 0.296717 0)
(0.483481 0.317588 0)
(0.464983 0.340204 0)
(0.444874 0.364631 0)
(0.422805 0.39107 0)
(0.398168 0.419902 0)
(0.370514 0.451184 0)
(0.338952 0.485051 0)
(0.301908 0.521513 0)
(0.257457 0.560237 0)
(0.20386 0.600011 0)
(0.133822 0.638292 0)
(0.0565603 0.666333 0)
(2.60684 0.000195374 0)
(1.65979 0.00273598 0)
(0.524904 0.0115441 0)
(0.55673 0.0138947 0)
(0.659947 0.0161705 0)
(0.729547 0.0192596 0)
(0.745071 0.0231093 0)
(0.740082 0.0271764 0)
(0.73243 0.0316495 0)
(0.726766 0.0363606 0)
(0.724036 0.041231 0)
(0.722139 0.0462566 0)
(0.719787 0.0514554 0)
(0.716763 0.0568422 0)
(0.71323 0.0624256 0)
(0.70932 0.0682166 0)
(0.70507 0.0742305 0)
(0.700473 0.0804868 0)
(0.695517 0.0870081 0)
(0.690197 0.0938195 0)
(0.684513 0.100949 0)
(0.678461 0.108425 0)
(0.672037 0.116282 0)
(0.665236 0.124554 0)
(0.658051 0.133281 0)
(0.650472 0.142505 0)
(0.64249 0.152273 0)
(0.634093 0.162635 0)
(0.625267 0.173647 0)
(0.615994 0.185373 0)
(0.606256 0.197881 0)
(0.596027 0.211248 0)
(0.585278 0.225561 0)
(0.573973 0.240919 0)
(0.562064 0.257433 0)
(0.549494 0.275228 0)
(0.536191 0.294437 0)
(0.52205 0.315284 0)
(0.506994 0.337853 0)
(0.490747 0.362397 0)
(0.473059 0.389344 0)
(0.453921 0.418921 0)
(0.43271 0.451614 0)
(0.408625 0.487921 0)
(0.380857 0.528293 0)
(0.34786 0.573458 0)
(0.306992 0.624237 0)
(0.255015 0.680965 0)
(0.180394 0.743008 0)
(0.0832309 0.803166 0)
(2.60873 0.000142037 0)
(1.66457 0.00273046 0)
(0.528499 0.0112114 0)
(0.557418 0.0135567 0)
(0.660994 0.0159258 0)
(0.731444 0.0192134 0)
(0.747537 0.0233861 0)
(0.742941 0.0278081 0)
(0.735688 0.0326819 0)
(0.730257 0.0377822 0)
(0.727701 0.0430209 0)
(0.725984 0.0484062 0)
(0.723834 0.0539668 0)
(0.721027 0.0597195 0)
(0.717722 0.065673 0)
(0.714057 0.0718372 0)
(0.710074 0.0782276 0)
(0.705769 0.0848647 0)
(0.701135 0.0917722 0)
(0.69617 0.0989764 0)
(0.690875 0.106506 0)
(0.685252 0.114392 0)
(0.679299 0.12267 0)
(0.673013 0.131376 0)
(0.666393 0.140552 0)
(0.659434 0.150243 0)
(0.652131 0.160499 0)
(0.64448 0.171375 0)
(0.636472 0.182932 0)
(0.6281 0.195238 0)
(0.619354 0.208369 0)
(0.61022 0.22241 0)
(0.600684 0.23746 0)
(0.590726 0.253625 0)
(0.58032 0.271045 0)
(0.569413 0.2899 0)
(0.558026 0.310211 0)
(0.545993 0.332255 0)
(0.533207 0.356419 0)
(0.519846 0.382906 0)
(0.505628 0.412239 0)
(0.49026 0.444852 0)
(0.473486 0.481235 0)
(0.454815 0.522373 0)
(0.433602 0.569442 0)
(0.408677 0.624261 0)
(0.377648 0.689727 0)
(0.336607 0.770912 0)
(0.270944 0.878169 0)
(0.14644 1.04339 0)
(2.6111 8.1504e-05 0)
(1.67034 0.00260031 0)
(0.532254 0.0103863 0)
(0.557938 0.0128216 0)
(0.662136 0.0154357 0)
(0.733801 0.019188 0)
(0.750721 0.0239855 0)
(0.746677 0.0290445 0)
(0.739959 0.0345617 0)
(0.73482 0.0402293 0)
(0.732496 0.0459579 0)
(0.731049 0.0517833 0)
(0.729214 0.0577559 0)
(0.726748 0.0639026 0)
(0.723804 0.070238 0)
(0.720523 0.0767765 0)
(0.716955 0.0835389 0)
(0.713103 0.0905507 0)
(0.708965 0.0978404 0)
(0.704542 0.105438 0)
(0.699839 0.113375 0)
(0.694863 0.121686 0)
(0.689618 0.130407 0)
(0.684109 0.139578 0)
(0.678338 0.149242 0)
(0.67231 0.159445 0)
(0.666029 0.170242 0)
(0.6595 0.181687 0)
(0.652727 0.193847 0)
(0.645718 0.206793 0)
(0.638478 0.220606 0)
(0.631013 0.235376 0)
(0.623328 0.251231 0)
(0.615449 0.268254 0)
(0.607438 0.286539 0)
(0.599068 0.306334 0)
(0.590389 0.327868 0)
(0.581879 0.351323 0)
(0.573394 0.377128 0)
(0.564713 0.405645 0)
(0.555956 0.437222 0)
(0.547207 0.47257 0)
(0.538659 0.512524 0)
(0.530537 0.55837 0)
(0.523383 0.611893 0)
(0.518373 0.675857 0)
(0.518228 0.754723 0)
(0.531152 0.855921 0)
(0.587123 0.990631 0)
(0.657198 1.1853 0)
(2.61361 5.93726e-05 0)
(1.67649 0.00194265 0)
(0.536777 0.00776487 0)
(0.559572 0.00992535 0)
(0.66478 0.0125065 0)
(0.738191 0.0166814 0)
(0.756189 0.0222119 0)
(0.752746 0.0280517 0)
(0.746489 0.0343827 0)
(0.741419 0.0407708 0)
(0.739111 0.0471477 0)
(0.737766 0.0535892 0)
(0.736111 0.0601603 0)
(0.733869 0.0668876 0)
(0.731178 0.0737818 0)
(0.728187 0.080858 0)
(0.724953 0.0881394 0)
(0.721488 0.0956544 0)
(0.71779 0.103434 0)
(0.713863 0.111508 0)
(0.709718 0.119913 0)
(0.705363 0.128683 0)
(0.700807 0.137857 0)
(0.696059 0.147478 0)
(0.69113 0.15759 0)
(0.686031 0.168244 0)
(0.680775 0.179494 0)
(0.675377 0.191402 0)
(0.669856 0.204031 0)
(0.66423 0.217462 0)
(0.65852 0.2318 0)
(0.652791 0.247059 0)
(0.647021 0.26336 0)
(0.641136 0.280917 0)
(0.635374 0.299863 0)
(0.629948 0.320331 0)
(0.624749 0.342666 0)
(0.619846 0.367066 0)
(0.615467 0.393722 0)
(0.611769 0.423087 0)
(0.609024 0.455682 0)
(0.607711 0.492161 0)
(0.608496 0.533438 0)
(0.612472 0.580665 0)
(0.621463 0.635504 0)
(0.638787 0.700114 0)
(0.670454 0.777411 0)
(0.725473 0.870829 0)
(0.836622 0.980395 0)
(0.984475 1.09496 0)
(2.61506 7.02072e-05 0)
(1.68005 0.00130474 0)
(0.539634 0.00545852 0)
(0.56132 0.00791019 0)
(0.668131 0.011103 0)
(0.743955 0.0164656 0)
(0.7634 0.0232632 0)
(0.760687 0.0301976 0)
(0.7549 0.0372582 0)
(0.749823 0.044064 0)
(0.747526 0.0507382 0)
(0.746316 0.0574582 0)
(0.744866 0.064304 0)
(0.742848 0.0712961 0)
(0.740394 0.0784408 0)
(0.737665 0.0857614 0)
(0.734732 0.0932913 0)
(0.731612 0.101065 0)
(0.728307 0.109116 0)
(0.724826 0.117478 0)
(0.721181 0.126184 0)
(0.717388 0.13527 0)
(0.71346 0.144774 0)
(0.709416 0.154736 0)
(0.705271 0.165199 0)
(0.701047 0.17621 0)
(0.696766 0.187821 0)
(0.692451 0.2001 0)
(0.688141 0.213098 0)
(0.683906 0.226846 0)
(0.679652 0.241457 0)
(0.675413 0.257077 0)
(0.671526 0.273765 0)
(0.668026 0.291686 0)
(0.664832 0.311036 0)
(0.6621 0.331895 0)
(0.660005 0.354438 0)
(0.658721 0.378929 0)
(0.658532 0.405657 0)
(0.659801 0.434968 0)
(0.662998 0.467317 0)
(0.668868 0.503224 0)
(0.678475 0.543347 0)
(0.6933 0.588452 0)
(0.715727 0.639395 0)
(0.749211 0.697019 0)
(0.79934 0.761596 0)
(0.871715 0.83217 0)
(0.984641 0.903785 0)
(1.12028 0.956613 0)
(2.61627 3.68836e-05 0)
(1.68312 -0.00152794 0)
(0.544996 -0.00484957 0)
(0.567289 -0.00305232 0)
(0.675899 0.000995871 0)
(0.75409 0.00905063 0)
(0.774411 0.0185848 0)
(0.771475 0.0278688 0)
(0.765091 0.0364546 0)
(0.759423 0.0442555 0)
(0.756947 0.0517471 0)
(0.755822 0.059225 0)
(0.75454 0.0667669 0)
(0.752707 0.0743924 0)
(0.750465 0.0820965 0)
(0.748004 0.0899153 0)
(0.745402 0.0978942 0)
(0.742672 0.106074 0)
(0.739809 0.114494 0)
(0.736823 0.123189 0)
(0.733726 0.1322 0)
(0.730534 0.141565 0)
(0.727267 0.151325 0)
(0.723944 0.16152 0)
(0.720591 0.172197 0)
(0.717232 0.183416 0)
(0.713917 0.195197 0)
(0.710664 0.207584 0)
(0.707432 0.220679 0)
(0.704349 0.23456 0)
(0.701625 0.249277 0)
(0.699229 0.264998 0)
(0.697174 0.281809 0)
(0.695627 0.29973 0)
(0.694691 0.318913 0)
(0.69453 0.339514 0)
(0.695364 0.361704 0)
(0.697447 0.385681 0)
(0.701137 0.411671 0)
(0.706865 0.439928 0)
(0.715236 0.470736 0)
(0.727062 0.504422 0)
(0.743477 0.541268 0)
(0.765978 0.581553 0)
(0.796619 0.625358 0)
(0.83809 0.672404 0)
(0.894026 0.721635 0)
(0.967124 0.770461 0)
(1.0683 0.814663 0)
(1.18132 0.840218 0)
(2.61195 0.00228831 0)
(1.67309 -0.00676333 0)
(0.549522 -0.0137848 0)
(0.583063 -0.00801585 0)
(0.696125 -0.000387556 0)
(0.777882 0.00988882 0)
(0.798484 0.0200825 0)
(0.794061 0.0297286 0)
(0.785728 0.0382409 0)
(0.778686 0.0461005 0)
(0.775571 0.0537805 0)
(0.774092 0.0614371 0)
(0.772508 0.0691048 0)
(0.770369 0.0768155 0)
(0.767835 0.0846219 0)
(0.765147 0.0925769 0)
(0.762388 0.100725 0)
(0.759562 0.109103 0)
(0.756668 0.117745 0)
(0.753719 0.126684 0)
(0.750731 0.135953 0)
(0.747726 0.145583 0)
(0.744724 0.15561 0)
(0.741751 0.166064 0)
(0.73886 0.176957 0)
(0.736033 0.188348 0)
(0.733267 0.200317 0)
(0.730725 0.212881 0)
(0.7285 0.226107 0)
(0.726576 0.240101 0)
(0.725014 0.254897 0)
(0.723923 0.270518 0)
(0.723388 0.287077 0)
(0.723555 0.304666 0)
(0.724587 0.323389 0)
(0.726666 0.343378 0)
(0.730042 0.364753 0)
(0.734992 0.387665 0)
(0.741895 0.412247 0)
(0.751215 0.438651 0)
(0.76355 0.467005 0)
(0.779674 0.497414 0)
(0.800559 0.529897 0)
(0.827458 0.564338 0)
(0.861891 0.600393 0)
(0.905692 0.637301 0)
(0.961146 0.673726 0)
(1.02986 0.707335 0)
(1.11621 0.735201 0)
(1.20904 0.748949 0)
(2.60368 0.00790327 0)
(1.6429 -0.0735102 0)
(0.584827 -0.0725432 0)
(0.623923 -0.0457581 0)
(0.731372 -0.0057586 0)
(0.80899 0.0165326 0)
(0.826986 0.0266318 0)
(0.821024 0.0352887 0)
(0.811508 0.0426519 0)
(0.804149 0.0507656 0)
(0.800776 0.0592947 0)
(0.798918 0.0677259 0)
(0.796937 0.0759357 0)
(0.794496 0.0840039 0)
(0.791772 0.0920676 0)
(0.788941 0.100205 0)
(0.786062 0.108466 0)
(0.783134 0.11689 0)
(0.780157 0.12552 0)
(0.777145 0.134403 0)
(0.774116 0.143587 0)
(0.771099 0.153098 0)
(0.768115 0.162951 0)
(0.765157 0.173201 0)
(0.762302 0.183912 0)
(0.759694 0.195094 0)
(0.757316 0.206802 0)
(0.755169 0.219096 0)
(0.753372 0.231995 0)
(0.751999 0.245555 0)
(0.751126 0.259847 0)
(0.750861 0.274936 0)
(0.751335 0.290883 0)
(0.7527 0.307768 0)
(0.755132 0.325649 0)
(0.758828 0.344616 0)
(0.764041 0.364736 0)
(0.771068 0.38609 0)
(0.780261 0.408748 0)