/*--------------------------------*- C++ -*----------------------------------*\
| =========                 |                                                 |
| \\      /  F ield         | OpenFOAM: The Open Source CFD Toolbox           |
|  \\    /   O peration     | Version:  2412                                  |
|   \\  /    A nd           | Website:  www.openfoam.com                      |
|    \\/     M anipulation  |                                                 |
\*---------------------------------------------------------------------------*/
FoamFile
{
    version     2.0;
    format      ascii;
    arch        "LSB;label=32;scalar=64";
    class       volScalarField;
    location    "9.5";
    object      Ma;
}
// * * * * * * * * * * * * * * * * * * * * * * * * * * * * * * * * * * * * * //

dimensions      [0 0 0 0 0 0 0];

internalField   nonuniform List<scalar> 
7000
(
2.8211
2.37431
1.49411
0.733605
0.308159
0.379173
0.455325
0.484613
0.486429
0.481433
0.476753
0.474461
0.473204
0.471789
0.469751
0.466566
0.462124
0.456858
0.450966
0.444804
0.438522
0.431833
0.424226
0.415973
0.40768
0.399406
0.39096
0.38207
0.372903
0.363093
0.352231
0.340622
0.326754
0.310854
0.295221
0.279503
0.263527
0.24727
0.230274
0.211716
0.192299
0.173206
0.154572
0.136249
0.116905
0.0962871
0.0739092
0.0510604
0.0290996
0.0102657
2.82094
2.37413
1.49527
0.733877
0.307234
0.378228
0.454557
0.483854
0.485557
0.480401
0.475594
0.4733
0.472151
0.470909
0.469082
0.466113
0.461871
0.456776
0.451012
0.44494
0.438715
0.432059
0.424465
0.416202
0.40789
0.399602
0.391161
0.382307
0.373223
0.363566
0.35293
0.341639
0.328225
0.312721
0.297439
0.282052
0.266299
0.250131
0.233004
0.214114
0.194084
0.174206
0.154798
0.135906
0.116417
0.0962118
0.0749603
0.054115
0.034923
0.0188565
2.81887
2.37444
1.48873
0.723851
0.298478
0.374484
0.452819
0.482992
0.485175
0.480237
0.475547
0.473289
0.472118
0.470839
0.46898
0.46599
0.461741
0.456649
0.45089
0.444825
0.438607
0.431953
0.424374
0.416165
0.40792
0.399708
0.391344
0.382562
0.373531
0.363907
0.353282
0.341978
0.328539
0.313061
0.297823
0.282494
0.266818
0.250746
0.23376
0.215062
0.195324
0.175736
0.15666
0.138082
0.11905
0.0996253
0.0797213
0.0609506
0.0443308
0.0307639
2.82026
2.37755
1.49625
0.734432
0.307941
0.37877
0.454797
0.484004
0.485562
0.480342
0.475503
0.473188
0.472018
0.470772
0.468977
0.466071
0.461915
0.456906
0.451217
0.445207
0.439028
0.432399
0.424844
0.416656
0.408426
0.400231
0.391901
0.383159
0.374167
0.36459
0.354011
0.342744
0.329337
0.313915
0.298752
0.283509
0.267955
0.252062
0.235338
0.216995
0.197717
0.178638
0.160124
0.14215
0.123819
0.10534
0.0868548
0.0700007
0.0554832
0.0437639
2.82086
2.37584
1.49763
0.734392
0.308276
0.379415
0.455305
0.484528
0.486063
0.480849
0.476032
0.473703
0.47249
0.471181
0.469317
0.466344
0.462129
0.457096
0.45141
0.445412
0.439258
0.432663
0.425148
0.41701
0.408828
0.400676
0.39239
0.383705
0.374769
0.365271
0.354812
0.343683
0.330426
0.315224
0.30031
0.28532
0.270047
0.254478
0.238126
0.220223
0.201449
0.18294
0.165047
0.147786
0.130281
0.112863
0.095821
0.0807102
0.0679467
0.0577169
2.82042
2.37248
1.49974
0.73331
0.304811
0.377243
0.454045
0.483951
0.485814
0.480774
0.476013
0.473711
0.472501
0.471174
0.46928
0.466268
0.462019
0.45693
0.451196
0.445194
0.439067
0.432523
0.42511
0.417131
0.409113
0.401127
0.392997
0.384465
0.375679
0.366327
0.356045
0.34512
0.332093
0.317194
0.302627
0.287993
0.273125
0.258025
0.24215
0.224764
0.206491
0.18858
0.171345
0.154871
0.138286
0.122012
0.106419
0.0929139
0.0816798
0.0727188
2.8222
2.37334
1.5022
0.734798
0.307396
0.379141
0.455207
0.485077
0.48693
0.481911
0.477228
0.474989
0.473818
0.472506
0.470616
0.467605
0.463348
0.458253
0.452521
0.446517
0.440391
0.433851
0.426463
0.418534
0.410564
0.402625
0.394554
0.386093
0.377379
0.368133
0.357999
0.347263
0.334488
0.319907
0.305702
0.291474
0.277075
0.262521
0.247214
0.230453
0.212754
0.195508
0.178989
0.163376
0.147794
0.132726
0.118555
0.106524
0.096657
0.0887818
2.82264
2.37413
1.50756
0.73807
0.309465
0.380344
0.456037
0.486022
0.487848
0.48274
0.477936
0.475622
0.474422
0.473125
0.471292
0.468376
0.464227
0.459227
0.453587
0.447674
0.441632
0.435171
0.427876
0.420064
0.4122
0.404363
0.396404
0.388062
0.379462
0.370367
0.360429
0.34993
0.337479
0.323298
0.309534
0.295791
0.281933
0.267986
0.253319
0.237251
0.220228
0.203737
0.188023
0.173325
0.158814
0.144976
0.13218
0.121512
0.112861
0.105956
2.82105
2.37417
1.51209
0.738481
0.306972
0.379007
0.455399
0.485857
0.487902
0.482847
0.478003
0.475697
0.474552
0.473359
0.471675
0.468936
0.464963
0.46008
0.454538
0.448711
0.44274
0.436345
0.429149
0.421488
0.413771
0.406079
0.398282
0.390119
0.381689
0.37281
0.36315
0.35298
0.340947
0.327253
0.314012
0.300842
0.287629
0.274432
0.260521
0.245273
0.228978
0.213319
0.19848
0.184764
0.171398
0.158798
0.147323
0.13792
0.130382
0.124294
2.82133
2.37735
1.5105
0.737736
0.308037
0.37952
0.455167
0.485663
0.487704
0.482625
0.477781
0.475537
0.474507
0.473486
0.472021
0.469537
0.465832
0.461096
0.455671
0.449942
0.444041
0.437688
0.430576
0.423083
0.415529
0.408004
0.400389
0.392431
0.384203
0.375564
0.366227
0.356433
0.344869
0.331764
0.319147
0.306642
0.294163
0.281821
0.268767
0.254466
0.239061
0.224327
0.210411
0.19776
0.185624
0.174272
0.164057
0.155819
0.14931
0.144008
2.8201
2.37986
1.51948
0.746882
0.310642
0.380358
0.455632
0.486295
0.488506
0.483493
0.478642
0.476338
0.475258
0.474223
0.472795
0.47041
0.466845
0.462222
0.456917
0.451305
0.445515
0.439262
0.432293
0.425007
0.417637
0.410286
0.402861
0.39512
0.387107
0.378739
0.369754
0.360368
0.349319
0.33683
0.324873
0.31309
0.301413
0.290016
0.277914
0.264679
0.25035
0.23669
0.223842
0.212322
0.201457
0.191407
0.182474
0.175392
0.169839
0.165236
2.82181
2.38283
1.52845
0.749583
0.311271
0.380885
0.456027
0.487009
0.489467
0.484464
0.479599
0.477254
0.476154
0.475132
0.473757
0.47148
0.468054
0.463536
0.458343
0.452846
0.447167
0.441025
0.434216
0.427148
0.419981
0.412832
0.405627
0.398139
0.390387
0.38233
0.373746
0.364819
0.35435
0.342569
0.331343
0.320345
0.309517
0.2991
0.288025
0.27596
0.262864
0.250423
0.238817
0.228596
0.219123
0.210426
0.202807
0.196887
0.192332
0.188424
2.82409
2.38177
1.5361
0.751002
0.311151
0.380883
0.456116
0.487835
0.49062
0.485605
0.480781
0.478477
0.477452
0.476545
0.475318
0.473225
0.469967
0.465508
0.460372
0.454921
0.449275
0.443199
0.436517
0.429679
0.422723
0.415749
0.408738
0.401511
0.394044
0.38632
0.378187
0.369773
0.359941
0.348954
0.33856
0.328441
0.318549
0.309184
0.299231
0.288447
0.276697
0.265589
0.255376
0.246625
0.238713
0.231507
0.225259
0.220576
0.217051
0.21384
2.82109
2.37426
1.53534
0.749572
0.310428
0.381177
0.456341
0.488802
0.49186
0.486931
0.482129
0.479798
0.478781
0.477917
0.476773
0.474839
0.471791
0.467475
0.462479
0.457153
0.451616
0.445658
0.439189
0.432597
0.425927
0.419201
0.412426
0.405488
0.398341
0.390966
0.383304
0.37543
0.366289
0.356139
0.346605
0.337425
0.328539
0.320284
0.311542
0.302145
0.291913
0.282332
0.273694
0.266585
0.260464
0.254961
0.250334
0.247058
0.244764
0.242399
2.79394
2.37379
1.53665
0.756689
0.312294
0.381782
0.456776
0.489625
0.492973
0.488063
0.483223
0.480827
0.4798
0.478979
0.477939
0.476213
0.473426
0.46928
0.464463
0.459302
0.453914
0.448118
0.441943
0.435661
0.429337
0.42294
0.416484
0.409917
0.403183
0.396261
0.389141
0.381878
0.373512
0.364312
0.355765
0.347631
0.33984
0.332765
0.325342
0.317443
0.308819
0.300849
0.29396
0.288752
0.284637
0.281102
0.278376
0.276934
0.276186
0.274784
2.79483
2.37608
1.54316
0.761313
0.313502
0.382451
0.457282
0.490698
0.494341
0.489466
0.484585
0.482118
0.481093
0.480333
0.479408
0.477901
0.475338
0.471332
0.466656
0.461616
0.456333
0.450686
0.444792
0.438808
0.432822
0.426788
0.420695
0.414549
0.408318
0.401963
0.395498
0.388989
0.381546
0.373319
0.365796
0.358807
0.352235
0.346513
0.340592
0.334371
0.327522
0.321307
0.316365
0.313239
0.311648
0.310582
0.310338
0.311223
0.312675
0.313111
2.82187
2.3913
1.54957
0.763698
0.312261
0.381984
0.457158
0.491497
0.495686
0.491104
0.486393
0.483998
0.483062
0.482405
0.481603
0.480285
0.477898
0.474044
0.46947
0.464513
0.459271
0.453747
0.448114
0.442426
0.436779
0.431118
0.425391
0.419646
0.413916
0.408173
0.40241
0.396716
0.390305
0.383221
0.376855
0.371126
0.365848
0.361558
0.357335
0.35297
0.348137
0.343868
0.341132
0.340458
0.341704
0.343864
0.347011
0.351527
0.356681
0.359701
2.82093
2.39375
1.55373
0.76927
0.313236
0.382381
0.457427
0.492535
0.497266
0.493023
0.488469
0.486081
0.485159
0.484533
0.483794
0.482593
0.480364
0.476694
0.47226
0.467435
0.462327
0.457037
0.451712
0.446365
0.44108
0.435827
0.430533
0.425255
0.420074
0.414981
0.409965
0.405139
0.399806
0.39391
0.38879
0.384423
0.38055
0.377856
0.375524
0.373171
0.370544
0.368418
0.368258
0.370478
0.375478
0.381765
0.389628
0.399676
0.411247
0.421196
2.81925
2.38524
1.56012
0.769122
0.311885
0.382062
0.457482
0.493468
0.498812
0.494898
0.490493
0.488113
0.487213
0.486649
0.486021
0.484979
0.482906
0.479472
0.475232
0.470578
0.465697
0.460735
0.455794
0.450835
0.445932
0.4411
0.436276
0.431524
0.426945
0.422546
0.418326
0.414409
0.410218
0.405534
0.401637
0.398654
0.396219
0.395164
0.394926
0.39469
0.394592
0.395195
0.398105
0.403547
0.412877
0.424947
0.43983
0.458983
0.482588
0.509356
2.8195
2.3954
1.56226
0.774618
0.312342
0.38221
0.457707
0.494707
0.500703
0.497195
0.493055
0.49082
0.490136
0.48988
0.489605
0.488917
0.487229
0.484137
0.480119
0.47558
0.47076
0.465873
0.461095
0.456381
0.451754
0.447229
0.442759
0.438439
0.434404
0.430677
0.427245
0.424227
0.421137
0.417757
0.415242
0.413694
0.412798
0.413408
0.415304
0.417468
0.420134
0.423568
0.429646
0.4389
0.453318
0.473129
0.497858
0.532175
0.582731
0.674719
2.7938
2.38408
1.56697
0.775015
0.310857
0.381795
0.457853
0.496421
0.503523
0.500797
0.497189
0.495104
0.494524
0.494454
0.494357
0.493779
0.4923
0.489554
0.485808
0.481515
0.476994
0.472429
0.468004
0.463688
0.459507
0.455525
0.451699
0.448088
0.444851
0.442062
0.439724
0.437925
0.436312
0.43457
0.433664
0.434023
0.435278
0.438184
0.443154
0.448565
0.454996
0.462779
0.473342
0.488177
0.509533
0.540592
0.582134
0.64134
0.73794
0.887996
2.8157
2.39376
1.57286
0.781732
0.30964
0.381116
0.457998
0.498916
0.507795
0.50643
0.503847
0.501957
0.501293
0.50121
0.501124
0.500477
0.499039
0.496456
0.492839
0.488705
0.484356
0.479993
0.475787
0.47175
0.467917
0.46437
0.46111
0.458197
0.455763
0.453884
0.452573
0.451851
0.451554
0.451557
0.452537
0.454775
0.457948
0.462776
0.470147
0.478828
0.488755
0.500547
0.515563
0.535685
0.562598
0.60137
0.655
0.727962
0.83655
0.968686
2.79138
2.3884
1.57639
0.784119
0.31202
0.384092
0.462702
0.508002
0.519726
0.520001
0.518244
0.515932
0.514391
0.513164
0.511988
0.510405
0.508265
0.505245
0.501353
0.49713
0.492834
0.488619
0.48461
0.480851
0.477323
0.474128
0.471325
0.469027
0.467328
0.466235
0.465734
0.465896
0.467069
0.468801
0.471287
0.475101
0.480054
0.486704
0.496177
0.507696
0.520637
0.535722
0.554316
0.57803
0.608515
0.648716
0.704324
0.774173
0.870818
0.967757
2.81286
2.38761
1.56125
0.783584
0.324091
0.397467
0.478635
0.52908
0.543496
0.544064
0.542019
0.539543
0.537464
0.5351
0.532457
0.529443
0.525877
0.521555
0.516489
0.511089
0.505855
0.50098
0.496372
0.492196
0.488542
0.485336
0.482569
0.480475
0.479111
0.47838
0.478432
0.479728
0.482038
0.484824
0.488547
0.493732
0.500198
0.508347
0.519373
0.533035
0.548397
0.565843
0.586454
0.611744
0.642991
0.681249
0.731098
0.79087
0.870846
0.947778
2.79777
2.39141
1.56827
0.804231
0.382908
0.428429
0.494498
0.541209
0.553094
0.55014
0.545777
0.542451
0.541488
0.541486
0.540599
0.538487
0.53572
0.532219
0.527856
0.522838
0.517674
0.512836
0.508098
0.503724
0.499858
0.496542
0.493894
0.491969
0.490676
0.490108
0.49082
0.49283
0.49564
0.499206
0.504129
0.510442
0.51811
0.527487
0.539605
0.554467
0.571298
0.590026
0.611421
0.636597
0.666714
0.702012
0.744642
0.795523
0.856914
0.920499
2.78957
2.29493
1.34222
0.713768
0.410763
0.436102
0.484929
0.521685
0.53137
0.529159
0.525704
0.523107
0.523062
0.524763
0.527073
0.528938
0.529328
0.52889
0.527513
0.525161
0.52226
0.518827
0.515251
0.512063
0.508907
0.506088
0.503851
0.502144
0.501031
0.500829
0.502115
0.504482
0.507521
0.511718
0.517461
0.524594
0.533177
0.543375
0.556094
0.57158
0.589109
0.60846
0.629851
0.654059
0.682049
0.714009
0.750839
0.793056
0.842237
0.891481
2.74261
2.06676
1.29377
0.518974
0.353782
0.387855
0.428115
0.446169
0.450352
0.449863
0.447811
0.447375
0.449593
0.453589
0.459156
0.465815
0.472843
0.478894
0.483161
0.486841
0.490144
0.492938
0.495143
0.496711
0.498078
0.499481
0.500701
0.501794
0.502905
0.504786
0.507682
0.511308
0.515441
0.520554
0.527181
0.535138
0.544484
0.555354
0.568567
0.584298
0.60198
0.621548
0.642806
0.66586
0.691615
0.720503
0.752677
0.788409
0.828093
0.867558
2.70995
2.06432
1.28278
0.524105
0.381236
0.412675
0.447638
0.460113
0.460319
0.456694
0.451568
0.447786
0.445206
0.443325
0.442184
0.44225
0.443723
0.446369
0.450158
0.454334
0.45839
0.462688
0.46724
0.472039
0.477018
0.481852
0.486627
0.491181
0.495675
0.500707
0.506249
0.511971
0.518139
0.525115
0.533077
0.542127
0.552417
0.564232
0.578063
0.593772
0.611151
0.630333
0.651181
0.673799
0.697636
0.723841
0.752529
0.782865
0.816261
0.848478
2.69028
2.04431
1.27228
0.529711
0.393305
0.428745
0.466616
0.478211
0.475494
0.468859
0.461685
0.456747
0.452909
0.449148
0.445229
0.441492
0.438431
0.436831
0.436838
0.438107
0.440683
0.444429
0.448795
0.453918
0.459865
0.465993
0.472217
0.478671
0.485644
0.493138
0.500842
0.508739
0.517025
0.525908
0.535817
0.546839
0.558698
0.571706
0.585947
0.601522
0.618429
0.636937
0.656835
0.678219
0.701107
0.725294
0.751213
0.778246
0.807065
0.834119
2.69253
2.04552
1.27491
0.52848
0.394824
0.430923
0.469244
0.481084
0.478899
0.472641
0.465818
0.461188
0.457447
0.453545
0.449366
0.44516
0.44129
0.438474
0.436984
0.436722
0.437704
0.439929
0.443442
0.448126
0.453849
0.460313
0.467192
0.474442
0.481831
0.489636
0.498
0.507034
0.516671
0.526891
0.538204
0.550735
0.563837
0.577603
0.592125
0.607627
0.624061
0.641572
0.660381
0.680318
0.701866
0.72433
0.74785
0.772316
0.797967
0.82268
2.73995
2.06014
1.29372
0.517385
0.384143
0.415991
0.450559
0.462217
0.462508
0.458781
0.454042
0.450781
0.448416
0.446353
0.444464
0.442766
0.441463
0.44119
0.441958
0.443365
0.445429
0.448306
0.452013
0.456566
0.46192
0.468014
0.474762
0.48216
0.489976
0.497967
0.505961
0.514212
0.523272
0.533402
0.544264
0.555944
0.568758
0.58252
0.596985
0.612227
0.628185
0.644947
0.662901
0.681719
0.701856
0.722558
0.744097
0.7664
0.789382
0.811614
2.81985
2.07425
1.30609
0.499315
0.35365
0.386912
0.425701
0.440932
0.443765
0.442173
0.438594
0.43661
0.436208
0.436953
0.43827
0.440128
0.442643
0.446108
0.450313
0.454785
0.459518
0.464584
0.469816
0.475223
0.480962
0.48693
0.493282
0.500122
0.507201
0.514445
0.521978
0.529882
0.537684
0.545582
0.554681
0.565041
0.576321
0.588791
0.602442
0.61695
0.632257
0.648175
0.665057
0.682538
0.70098
0.720129
0.739665
0.760412
0.781112
0.801216
2.79768
2.32646
1.41158
0.758521
0.447013
0.462809
0.505728
0.536761
0.541416
0.532522
0.521325
0.511539
0.50508
0.500576
0.496663
0.493844
0.492359
0.491822
0.49229
0.493699
0.495537
0.497936
0.500609
0.503638
0.507292
0.511515
0.516181
0.521363
0.52745
0.533976
0.540437
0.54704
0.554016
0.560829
0.567976
0.576294
0.585699
0.596165
0.607613
0.620341
0.634523
0.649339
0.665134
0.68129
0.698315
0.716319
0.734394
0.75352
0.77254
0.790694
2.82004
2.414
1.6133
0.839239
0.40055
0.44879
0.515674
0.567755
0.580687
0.575785
0.56685
0.557592
0.551529
0.54677
0.541825
0.537179
0.533275
0.529977
0.527166
0.524778
0.523332
0.522804
0.52284
0.523687
0.525281
0.527534
0.530536
0.534353
0.538923
0.544225
0.550254
0.556753
0.563482
0.570407
0.577151
0.584175
0.592533
0.601971
0.612187
0.623248
0.63563
0.649385
0.66426
0.679814
0.69585
0.712823
0.729738
0.747568
0.765199
0.781834
2.79127
2.42288
1.6448
0.866444
0.406733
0.444592
0.503382
0.550981
0.563761
0.562367
0.557343
0.552238
0.549621
0.54797
0.546127
0.544234
0.542243
0.539907
0.537206
0.534235
0.531821
0.530588
0.529641
0.529096
0.52917
0.530124
0.53216
0.535284
0.53921
0.54404
0.549587
0.555861
0.562778
0.570107
0.577739
0.585938
0.594826
0.60425
0.614294
0.625031
0.636914
0.649912
0.663825
0.678548
0.693601
0.709607
0.725481
0.742165
0.758848
0.774481
2.838
2.12629
1.37995
0.523378
0.297365
0.346735
0.398915
0.42579
0.438442
0.446879
0.45393
0.462406
0.472795
0.483657
0.493578
0.502016
0.509163
0.515119
0.519561
0.522329
0.523973
0.525443
0.526712
0.527608
0.528405
0.52958
0.531292
0.533725
0.537316
0.541563
0.546171
0.552028
0.558899
0.566487
0.574728
0.583668
0.593136
0.602968
0.613374
0.624703
0.637115
0.650182
0.663763
0.678037
0.692529
0.707704
0.722843
0.73834
0.753987
0.76858
2.79236
2.44039
1.6694
0.888634
0.416583
0.430867
0.478485
0.516553
0.525587
0.521225
0.515161
0.510112
0.507968
0.508117
0.509913
0.512768
0.516066
0.519381
0.522322
0.524631
0.526245
0.527258
0.528364
0.529361
0.529914
0.530844
0.532408
0.534453
0.537314
0.54126
0.546162
0.551692
0.55812
0.565559
0.573796
0.582853
0.592651
0.602907
0.613691
0.625236
0.637463
0.650213
0.663305
0.677002
0.690904
0.70525
0.719622
0.734176
0.748876
0.762595
2.78892
2.45413
1.69613
0.909801
0.383054
0.415667
0.476715
0.527223
0.540697
0.537797
0.531688
0.525236
0.521714
0.520051
0.519222
0.519087
0.519808
0.521129
0.522603
0.524027
0.525215
0.526158
0.527101
0.528132
0.529132
0.530318
0.532034
0.534533
0.537985
0.542308
0.547378
0.553425
0.560438
0.568243
0.576808
0.586044
0.595762
0.605855
0.616427
0.627363
0.638625
0.65043
0.662691
0.675584
0.688728
0.702224
0.715879
0.729675
0.743655
0.756735
2.81417
2.46576
1.70582
0.915923
0.379895
0.410161
0.472116
0.523441
0.537178
0.53426
0.528114
0.521582
0.517766
0.515506
0.513739
0.512412
0.512019
0.512523
0.513462
0.514937
0.516773
0.518867
0.521091
0.523528
0.526078
0.528896
0.532212
0.535955
0.540265
0.545434
0.551492
0.558148
0.56547
0.573477
0.582039
0.591084
0.600531
0.610348
0.620431
0.630763
0.641382
0.65227
0.663446
0.674938
0.686611
0.698533
0.710806
0.723484
0.736453
0.748778
2.813
2.48074
1.72186
0.937321
0.409028
0.417239
0.472469
0.517745
0.529254
0.525835
0.519317
0.512871
0.508587
0.505664
0.503711
0.502634
0.502377
0.502951
0.504497
0.506795
0.509648
0.512988
0.516826
0.521203
0.525729
0.530268
0.535311
0.540692
0.546283
0.552258
0.558668
0.565489
0.572894
0.580709
0.588926
0.597533
0.606535
0.615806
0.625224
0.6349
0.644761
0.654889
0.66516
0.675631
0.686316
0.697137
0.708346
0.719654
0.731667
0.74295
2.91536
2.22902
1.50329
0.604014
0.307399
0.350757
0.408479
0.445765
0.464263
0.47357
0.479705
0.485286
0.491219
0.496815
0.501256
0.50453
0.507204
0.509571
0.512084
0.514982
0.518298
0.522001
0.526015
0.530367
0.535113
0.540068
0.545268
0.550795
0.55643
0.562203
0.568142
0.574184
0.580531
0.587322
0.594586
0.602216
0.610193
0.618635
0.627494
0.636781
0.646225
0.655958
0.665834
0.675805
0.68585
0.695948
0.706285
0.71688
0.727876
0.738441
2.78855
2.47642
1.72369
0.936097
0.408311
0.4156
0.465976
0.505569
0.513778
0.508118
0.502173
0.498307
0.497294
0.498279
0.500348
0.50308
0.505844
0.508947
0.512687
0.516795
0.521457
0.526655
0.532045
0.537666
0.543428
0.549082
0.554546
0.559874
0.565223
0.570657
0.576096
0.581418
0.586756
0.592475
0.598669
0.605287
0.612336
0.619713
0.627397
0.635601
0.644573
0.654073
0.663916
0.673886
0.684038
0.694142
0.704398
0.714652
0.725227
0.735254
2.80914
2.485
1.71412
0.921399
0.389722
0.406656
0.460828
0.502372
0.509498
0.500653
0.491743
0.485565
0.482828
0.482769
0.484763
0.488445
0.493412
0.499024
0.505421
0.512451
0.519833
0.527419
0.534844
0.542038
0.548855
0.555356
0.561602
0.567505
0.573068
0.578167
0.58289
0.587519
0.592189
0.597087
0.60229
0.607801
0.613649
0.619983
0.626784
0.633976
0.641909
0.650842
0.660403
0.670377
0.680731
0.691287
0.70192
0.712678
0.72345
0.73363
2.77579
2.39047
1.63744
0.662631
0.335731
0.374623
0.431341
0.474589
0.491288
0.495359
0.496491
0.49701
0.498913
0.50123
0.503807
0.506979
0.510844
0.515209
0.520259
0.526003
0.532214
0.538579
0.544887
0.551121
0.557102
0.562674
0.567745
0.5724
0.576712
0.580807
0.584791
0.588846
0.593082
0.597532
0.602313
0.607622
0.613471
0.619629
0.625976
0.632674
0.639931
0.648028
0.657112
0.666717
0.676802
0.687287
0.697957
0.708842
0.719803
0.730214
2.78517
2.43367
1.70711
0.712231
0.365239
0.38139
0.434725
0.482403
0.50571
0.516502
0.522921
0.527247
0.530484
0.531802
0.532509
0.533546
0.534641
0.53558
0.536758
0.538972
0.541848
0.545022
0.548421
0.551901
0.555402
0.558954
0.56263
0.566375
0.570154
0.574103
0.578176
0.582418
0.586979
0.59197
0.597534
0.603592
0.610193
0.617101
0.624208
0.631639
0.639375
0.647551
0.656228
0.665372
0.674961
0.684929
0.695223
0.705853
0.716721
0.727043
2.78812
2.44574
1.71888
0.731843
0.379692
0.389098
0.446529
0.4981
0.521982
0.531107
0.535524
0.53792
0.537939
0.537282
0.537807
0.53892
0.539349
0.53902
0.539255
0.54037
0.541691
0.543202
0.544866
0.546903
0.549194
0.551805
0.554834
0.558362
0.562321
0.566802
0.571613
0.576454
0.581648
0.587389
0.593481
0.599942
0.606959
0.614333
0.62192
0.629823
0.637981
0.646511
0.655356
0.664549
0.674027
0.683754
0.693712
0.703794
0.714084
0.723851
2.78894
2.51337
1.76672
0.958318
0.399942
0.382438
0.42845
0.467978
0.477372
0.473288
0.470091
0.471274
0.475733
0.482595
0.491486
0.500719
0.5091
0.516293
0.52232
0.527566
0.532524
0.536933
0.540807
0.544418
0.547836
0.551219
0.554837
0.558781
0.563089
0.567795
0.572866
0.578282
0.584069
0.590016
0.595801
0.601628
0.607884
0.614615
0.621733
0.629098
0.636736
0.644815
0.653367
0.662331
0.671576
0.681049
0.690808
0.700759
0.711066
0.720899
2.76184
2.49159
1.74961
0.788441
0.40213
0.38087
0.436665
0.486471
0.505591
0.509033
0.507105
0.504349
0.503589
0.505619
0.509367
0.513909
0.518407
0.522401
0.526077
0.529613
0.533086
0.536501
0.539982
0.543629
0.547459
0.551463
0.555671
0.56025
0.565273
0.570629
0.576147
0.5818
0.587618
0.593561
0.5997
0.605785
0.611584
0.617714
0.624284
0.631248
0.63852
0.645987
0.653668
0.661748
0.670439
0.67953
0.688957
0.698629
0.708584
0.718083
2.75613
2.53321
1.78902
0.838348
0.438362
0.393461
0.448213
0.501285
0.525771
0.532643
0.530502
0.525833
0.52271
0.521713
0.521814
0.522754
0.524759
0.526531
0.528385
0.530303
0.5323
0.534743
0.537799
0.541457
0.545622
0.550235
0.555295
0.560713
0.566336
0.57207
0.57792
0.583861
0.58986
0.595893
0.601985
0.608106
0.614219
0.620544
0.627114
0.633865
0.640919
0.648265
0.655785
0.663603
0.671752
0.680255
0.689046
0.698119
0.707438
0.716339
2.80344
2.52932
1.76174
0.96918
0.38919
0.359515
0.404086
0.445084
0.456865
0.4561
0.456235
0.459753
0.466403
0.475672
0.4862
0.496133
0.504654
0.512023
0.518705
0.524705
0.530211
0.535481
0.540645
0.545772
0.550926
0.556159
0.561437
0.566682
0.57191
0.577125
0.582323
0.587558
0.59275
0.597843
0.603206
0.608931
0.614932
0.621147
0.627613
0.63445
0.641645
0.649024
0.656598
0.664483
0.672615
0.681014
0.689609
0.698375
0.707298
0.715751
2.8131
2.49778
1.85426
0.847948
0.441629
0.384707
0.43457
0.482637
0.503086
0.506671
0.503715
0.50203
0.502242
0.504525
0.509071
0.513691
0.517351
0.520628
0.524067
0.527901
0.532192
0.536889
0.541857
0.547011
0.552368
0.557889
0.563413
0.56883
0.574087
0.57916
0.584087
0.588991
0.593898
0.598806
0.604071
0.609662
0.615524
0.621723
0.628326
0.635208
0.642405
0.64986
0.65752
0.665364
0.67331
0.681459
0.689704
0.698132
0.706716
0.714855
2.80218
2.49941
1.8317
0.838147
0.437639
0.381581
0.442192
0.502109
0.528575
0.530651
0.523783
0.518071
0.514372
0.51248
0.513275
0.51493
0.516308
0.518092
0.520722
0.524135
0.528433
0.533562
0.53938
0.545709
0.552354
0.559086
0.56567
0.571916
0.577818
0.58333
0.588378
0.593351
0.598351
0.603337
0.608465
0.613964
0.619808
0.625913
0.632266
0.638857
0.645661
0.652643
0.659759
0.666995
0.674363
0.681882
0.689592
0.697463
0.705537
0.7132
2.7953
2.51081
1.82253
0.821157
0.433979
0.383906
0.442437
0.501069
0.525506
0.525894
0.518584
0.512004
0.507305
0.504612
0.504663
0.505953
0.507637
0.510255
0.513833
0.518329
0.523934
0.530591
0.538086
0.546103
0.554328
0.562391
0.569736
0.576251
0.582215
0.587693
0.592884
0.597934
0.6028
0.607482
0.612435
0.617885
0.623322
0.628826
0.6344
0.64017
0.646147
0.652334
0.658765
0.665418
0.672317
0.679427
0.686764
0.694323
0.702182
0.709757
2.78762
2.47999
1.79548
0.785462
0.405158
0.387337
0.444654
0.497404
0.519532
0.520206
0.512874
0.506292
0.501481
0.499515
0.501348
0.504083
0.506572
0.509432
0.513026
0.517635
0.52343
0.530301
0.538024
0.546197
0.553908
0.560603
0.566783
0.572565
0.578125
0.583623
0.589084
0.594284
0.599328
0.604847
0.610647
0.616216
0.621582
0.626937
0.632215
0.637665
0.643326
0.64933
0.655686
0.662324
0.669215
0.676337
0.683656
0.691266
0.69912
0.706703
2.79142
2.4828
1.74397
0.929168
0.352764
0.35258
0.401775
0.442382
0.452743
0.451938
0.45129
0.454003
0.460741
0.470509
0.481685
0.492587
0.502466
0.511238
0.518813
0.525312
0.530953
0.53598
0.54087
0.545945
0.5507
0.555038
0.559213
0.563522
0.567877
0.572477
0.577603
0.583136
0.588898
0.595034
0.601683
0.608416
0.615157
0.621932
0.628731
0.635579
0.642446
0.649333
0.656333
0.663449
0.670672
0.678138
0.685667
0.693489
0.701488
0.709159
2.79727
2.49353
1.77125
0.953224
0.356938
0.352329
0.397483
0.432507
0.440203
0.439603
0.442682
0.450933
0.46301
0.476337
0.489631
0.502265
0.513513
0.522608
0.529706
0.535345
0.53841
0.539713
0.540595
0.54165
0.543078
0.545247
0.548175
0.55172
0.556056
0.561302
0.567549
0.574554
0.582048
0.590089
0.598457
0.606841
0.615237
0.623637
0.632025
0.640182
0.64827
0.656303
0.664203
0.672047
0.679736
0.687449
0.695114
0.702858
0.710681
0.718062
2.78277
2.47655
1.71532
0.911442
0.336878
0.347291
0.397574
0.438675
0.450887
0.451819
0.454777
0.462701
0.474784
0.488531
0.501289
0.512805
0.522577
0.529926
0.534743
0.537594
0.538617
0.538751
0.539175
0.53995
0.541038
0.542745
0.545225
0.548395
0.55247
0.557702
0.564187
0.571696
0.580086
0.58923
0.598821
0.608551
0.618242
0.62771
0.636741
0.645359
0.653709
0.661808
0.669761
0.677665
0.685451
0.693162
0.700862
0.708722
0.717004
0.724794
2.761
2.48784
1.7185
0.760713
0.399336
0.386582
0.443618
0.494879
0.511941
0.507272
0.499761
0.494427
0.493711
0.497531
0.501513
0.504078
0.506108
0.508382
0.511167
0.514473
0.518289
0.522832
0.528021
0.533782
0.539806
0.546045
0.55229
0.558311
0.564387
0.570529
0.576745
0.582943
0.589125
0.596134
0.604061
0.61183
0.619368
0.626639
0.63366
0.640525
0.647362
0.654281
0.661319
0.668542
0.675978
0.683593
0.69139
0.699486
0.70812
0.716316
2.8162
2.51059
1.81234
0.795949
0.413243
0.378713
0.43486
0.488592
0.507657
0.506479
0.499706
0.494261
0.493473
0.495233
0.497008
0.49811
0.499643
0.502121
0.505771
0.51084
0.517286
0.524611
0.531772
0.538955
0.54652
0.554138
0.561602
0.568719
0.575268
0.581083
0.586218
0.590861
0.59532
0.59992
0.604768
0.60988
0.61515
0.620569
0.626106
0.631809
0.637763
0.644009
0.650661
0.65775
0.665259
0.673229
0.68159
0.690304
0.699481
0.708262
2.78388
2.49457
1.80234
0.775494
0.396267
0.365044
0.418962
0.472112
0.49301
0.495383
0.492527
0.490567
0.493032
0.497772
0.502261
0.505355
0.508156
0.511349
0.51543
0.520595
0.527004
0.53371
0.539804
0.546432
0.553581
0.560863
0.56803
0.57474
0.580751
0.586482
0.591625
0.595722
0.599203
0.602701
0.606467
0.610772
0.615407
0.620426
0.625613
0.631049
0.636751
0.642759
0.649268
0.656212
0.663679
0.67174
0.680244
0.689255
0.698745
0.7079
1.18597
0.973558
0.447923
0.182891
0.0315453
0.130501
0.163689
0.200923
0.214682
0.213176
0.197992
0.185868
0.173866
0.161339
0.146392
0.129049
0.109076
0.0868925
0.0633199
0.0394169
0.0190451
0.0213446
0.044797
0.0693833
0.0938593
0.117892
0.141467
0.1646
0.187224
0.209327
0.230859
0.251684
0.271433
0.290653
0.310527
0.330743
0.350165
0.368728
0.386674
0.404087
0.421026
0.437507
0.453548
0.469186
0.484455
0.499384
0.514032
0.528405
0.542533
0.556431
0.57007
0.58348
0.596616
0.609407
0.62188
0.633952
0.645628
0.656828
0.66753
0.677623
0.687147
0.695946
0.703985
0.71123
0.717535
0.722979
0.727441
0.731016
0.733599
0.735323
0.736034
0.7363
0.735961
0.735508
0.734278
0.732026
0.729162
0.726197
0.72348
0.72083
0.718557
0.716718
0.715234
0.714385
0.714008
0.714203
0.714675
0.715537
0.71669
0.718355
0.720513
0.723083
0.725876
0.728764
0.731621
0.734473
0.737161
0.739692
0.741776
0.746282
1.11127
0.988511
0.749262
0.506957
0.4773
0.409053
0.362851
0.327577
0.306667
0.286892
0.257621
0.232719
0.224042
0.227604
0.237345
0.250711
0.267336
0.284668
0.302207
0.319684
0.336648
0.353176
0.370124
0.387295
0.404543
0.421886
0.439356
0.456868
0.474277
0.491578
0.50866
0.525235
0.540791
0.555515
0.57041
0.585983
0.601402
0.615998
0.629979
0.643511
0.656637
0.669353
0.681667
0.693611
0.705207
0.716482
0.72747
0.738198
0.748731
0.75911
0.769376
0.779579
0.789758
0.799797
0.80962
0.81926
0.828571
0.837547
0.846177
0.85439
0.862103
0.869392
0.876146
0.882348
0.887983
0.892857
0.897098
0.900593
0.903268
0.905331
0.906507
0.907299
0.90771
0.90794
0.90773
0.906698
0.905054
0.903306
0.901722
0.900391
0.899331
0.898563
0.898226
0.898274
0.898899
0.899897
0.901139
0.902616
0.904378
0.906475
0.908942
0.911704
0.91464
0.91762
0.920521
0.923247
0.925834
0.928063
0.929878
0.933059
1.06278
1.0428
0.960662
0.852008
0.790587
0.74843
0.717353
0.692296
0.674964
0.663521
0.650974
0.641914
0.637434
0.636594
0.638211
0.640651
0.643544
0.646563
0.649912
0.65364
0.657971
0.663015
0.668933
0.675789
0.683456
0.69202
0.701532
0.711922
0.722946
0.734173
0.745182
0.75582
0.765924
0.775604
0.785631
0.796455
0.807808
0.818908
0.829735
0.840396
0.85091
0.861304
0.87163
0.881921
0.892167
0.902326
0.912338
0.922137
0.931669
0.940891
0.94974
0.958222
0.966439
0.974071
0.980782
0.987097
0.993101
0.998755
1.004
1.00883
1.01324
1.01728
1.02094
1.02423
1.02718
1.02961
1.03161
1.0331
1.03433
1.03502
1.03499
1.03476
1.03436
1.03392
1.03307
1.03167
1.02971
1.02787
1.02609
1.02472
1.02355
1.02288
1.02253
1.02267
1.02348
1.02442
1.02592
1.02736
1.0292
1.03125
1.03356
1.03635
1.03901
1.04217
1.04493
1.04803
1.05063