/*--------------------------------*- C++ -*----------------------------------*\
| =========                 |                                                 |
| \\      /  F ield         | OpenFOAM: The Open Source CFD Toolbox           |
|  \\    /   O peration     | Version:  2412                                  |
|   \\  /    A nd           | Website:  www.openfoam.com                      |
|    \\/     M anipulation  |                                                 |
\*---------------------------------------------------------------------------*/
FoamFile
{
    version     2.0;
    format      ascii;
    arch        "LSB;label=32;scalar=64";
    class       volScalarField;
    location    "9.5";
    object      p;
}
// * * * * * * * * * * * * * * * * * * * * * * * * * * * * * * * * * * * * * //

dimensions      [1 -1 -2 0 0 0 0];

internalField   nonuniform List<scalar> 
7000
(
1.19059
1.22312
3.02959
5.80387
11.3713
11.0825
10.3951
10.0558
10.0037
10.021
10.0562
10.0722
10.0763
10.0799
10.0883
10.1066
10.1401
10.1845
10.2326
10.2814
10.3276
10.3722
10.4117
10.4526
10.4921
10.5312
10.5718
10.6121
10.6569
10.7017
10.7496
10.8005
10.8487
10.9016
10.9556
11.0112
11.0671
11.1244
11.1806
11.2325
11.2847
11.3341
11.3801
11.4216
11.4579
11.4894
11.5146
11.5354
11.5492
11.5564
1.19133
1.22182
3.0285
5.80265
11.3687
11.0812
10.3959
10.0563
10.0034
10.0204
10.0554
10.0716
10.0756
10.0793
10.0876
10.1058
10.1393
10.1837
10.2318
10.2806
10.3269
10.3714
10.411
10.4519
10.4913
10.5304
10.571
10.6114
10.6562
10.7009
10.7487
10.7995
10.8478
10.9006
10.9546
11.0102
11.0661
11.1234
11.1796
11.2315
11.2838
11.3331
11.3793
11.4206
11.4569
11.4884
11.5138
11.5345
11.5483
11.5559
1.19588
1.21451
3.03442
5.81085
11.361
11.0729
10.3935
10.0553
10.0019
10.0189
10.054
10.0703
10.0743
10.0779
10.0862
10.1042
10.1376
10.1819
10.23
10.2789
10.3251
10.3697
10.4093
10.4502
10.4896
10.5287
10.5692
10.6094
10.6541
10.6986
10.7463
10.7969
10.845
10.8976
10.9513
11.0067
11.0624
11.1196
11.1756
11.2273
11.2796
11.3285
11.3748
11.4158
11.452
11.4833
11.5087
11.5292
11.5433
11.5519
1.19201
1.2156
3.02872
5.79199
11.3646
11.0803
10.3997
10.0552
10.0002
10.017
10.0519
10.0683
10.0722
10.0756
10.0837
10.1015
10.1348
10.179
10.2272
10.2761
10.3224
10.3669
10.4066
10.4475
10.4868
10.5258
10.5662
10.6064
10.6508
10.6951
10.7424
10.7928
10.8404
10.8928
10.9461
11.0012
11.0566
11.1133
11.169
11.2204
11.2724
11.3209
11.367
11.4077
11.4437
11.4749
11.5001
11.5206
11.535
11.5447
1.19256
1.21935
3.02229
5.77757
11.3611
11.0768
10.3998
10.0537
9.99766
10.0143
10.049
10.0653
10.0691
10.0724
10.0803
10.0978
10.1309
10.1751
10.2232
10.2722
10.3184
10.363
10.4027
10.4436
10.4829
10.5217
10.5619
10.6019
10.646
10.6899
10.7369
10.7868
10.8338
10.8857
10.9386
10.9931
11.0481
11.1042
11.1593
11.2103
11.2619
11.31
11.3555
11.3959
11.4317
11.4629
11.4878
11.5084
11.5232
11.5337
1.19596
1.21955
3.01378
5.75813
11.3531
11.0687
10.3976
10.0515
9.99437
10.0108
10.0451
10.0613
10.0649
10.0681
10.0757
10.0928
10.1257
10.1697
10.2178
10.2668
10.3131
10.3576
10.3975
10.4383
10.4775
10.5162
10.5562
10.5958
10.6395
10.683
10.7294
10.7788
10.8251
10.8763
10.9284
10.9823
11.0366
11.0918
11.1462
11.1967
11.2476
11.2953
11.3399
11.38
11.4154
11.4465
11.4712
11.4919
11.507
11.5182
1.19397
1.22551
3.00554
5.73864
11.3471
11.0654
10.3979
10.0491
9.99014
10.0063
10.04
10.056
10.0594
10.0624
10.0698
10.0865
10.119
10.1629
10.211
10.2601
10.3064
10.3508
10.3909
10.4316
10.4706
10.5092
10.5488
10.5881
10.6312
10.6741
10.7198
10.7685
10.8138
10.8642
10.9154
10.9684
11.0218
11.0758
11.1293
11.1791
11.2292
11.2764
11.3197
11.3593
11.3944
11.4253
11.4497
11.4704
11.4857
11.4975
1.1939
1.22495
2.99703
5.71564
11.3417
11.0621
10.3975
10.0454
9.98453
10.0003
10.0334
10.0492
10.0524
10.0552
10.0623
10.0785
10.1107
10.1543
10.2024
10.2515
10.2978
10.3423
10.3825
10.4231
10.4619
10.5003
10.5395
10.5784
10.6208
10.6629
10.7078
10.7555
10.7998
10.8491
10.8992
10.9512
11.0032
11.0558
11.1082
11.1571
11.2062
11.2525
11.2944
11.3336
11.368
11.3984
11.4225
11.4431
11.4586
11.4708
1.1974
1.21588
2.99078
5.69449
11.3333
11.0536
10.3929
10.0395
9.97708
9.99243
10.0251
10.0408
10.0438
10.0464
10.0532
10.0688
10.1006
10.144
10.192
10.241
10.2874
10.3317
10.3722
10.4126
10.4512
10.4893
10.528
10.5665
10.608
10.6493
10.6931
10.7396
10.7827
10.8306
10.8795
10.9301
10.9805
11.0315
11.082
11.1304
11.1781
11.2231
11.2632
11.302
11.3353
11.365
11.3887
11.4091
11.4246
11.4372
1.19971
1.21377
2.99015
5.6776
11.3235
11.0461
10.3866
10.0311
9.9677
9.98281
10.0152
10.0307
10.0335
10.036
10.0424
10.0573
10.0885
10.1316
10.1795
10.2284
10.2748
10.3189
10.3598
10.4
10.4383
10.476
10.5141
10.552
10.5926
10.6329
10.6755
10.7206
10.7622
10.8085
10.8558
10.9048
10.9531
11.0025
11.0505
11.0982
11.1441
11.1872
11.2254
11.2636
11.2954
11.3241
11.3471
11.3673
11.3825
11.3954
1.19935
1.20068
2.98925
5.64287
11.3212
11.0419
10.3804
10.0221
9.95696
9.97166
10.0035
10.0188
10.0215
10.0237
10.0297
10.044
10.0743
10.117
10.1647
10.2134
10.2599
10.3037
10.345
10.3849
10.4229
10.4602
10.4976
10.5348
10.5742
10.6134
10.6547
10.6982
10.738
10.7825
10.8278
10.8749
10.9207
10.968
11.0134
11.0601
11.1028
11.144
11.1802
11.2169
11.2471
11.2744
11.2964
11.3161
11.331
11.3443
1.19178
1.20091
2.98057
5.6214
11.318
11.0367
10.3682
10.0111
9.94428
9.95885
9.99009
10.0051
10.0076
10.0096
10.0151
10.0287
10.0579
10.1001
10.1475
10.196
10.2425
10.2861
10.3277
10.3672
10.4048
10.4415
10.4781
10.5146
10.5526
10.5904
10.6302
10.6718
10.7098
10.7521
10.7952
10.8398
10.8826
10.9277
10.9701
11.015
11.0539
11.0926
11.1263
11.1607
11.1887
11.2142
11.2348
11.2535
11.2679
11.2814
1.184
1.21185
2.96657
5.60263
11.302
11.0186
10.3568
10.0007
9.9304
9.94444
9.97474
9.98945
9.99174
9.99353
9.9987
10.0115
10.0394
10.0809
10.1279
10.1759
10.2225
10.2659
10.3075
10.3466
10.3837
10.4197
10.4553
10.4912
10.5275
10.5639
10.6018
10.6414
10.6771
10.7169
10.7574
10.7992
10.8386
10.8807
10.9197
10.9618
10.9965
11.0318
11.0625
11.0936
11.1186
11.1414
11.16
11.1773
11.1908
11.2046
1.18128
1.24174
2.96474
5.54997
11.2695
10.9932
10.3555
9.99065
9.91522
9.9282
9.95723
9.9719
9.97416
9.97577
9.98044
9.99238
10.0189
10.0594
10.1057
10.1532
10.1998
10.2429
10.2842
10.3229
10.3594
10.3947
10.4292
10.464
10.4986
10.5333
10.5692
10.6065
10.6397
10.6767
10.7142
10.7526
10.7881
10.8266
10.8618
10.8999
10.9296
10.9606
10.9871
11.0137
11.0346
11.0532
11.0689
11.0836
11.0955
11.1094
1.20957
1.2701
2.88742
5.4992
11.2654
10.9881
10.3448
9.97673
9.89771
9.91008
9.93821
9.95274
9.95496
9.9564
9.9606
9.97165
9.99655
10.0357
10.0811
10.1278
10.1742
10.217
10.258
10.296
10.3318
10.366
10.3995
10.4328
10.4657
10.4985
10.5321
10.5668
10.5972
10.6309
10.6649
10.6994
10.7304
10.7647
10.7953
10.8282
10.8519
10.8775
10.8983
10.9189
10.9338
10.9466
10.9573
10.9677
10.9768
10.9905
1.20772
1.26623
2.8833
5.46169
11.2508
10.9723
10.3338
9.96274
9.87949
9.89104
9.918
9.93232
9.93444
9.93569
9.93933
9.9496
9.97236
10.0101
10.0541
10.1
10.1457
10.1883
10.2286
10.2658
10.3006
10.3338
10.3658
10.3974
10.4285
10.4591
10.4901
10.5217
10.5492
10.5793
10.6094
10.6392
10.6649
10.6945
10.7196
10.7456
10.7626
10.7811
10.7943
10.8065
10.8128
10.8168
10.8192
10.8222
10.8258
10.8377
1.19208
1.19133
2.96833
5.44835
11.2319
10.949
10.3224
9.94794
9.86042
9.87107
9.89679
9.91086
9.91277
9.9138
9.91686
9.9261
9.94677
9.98251
10.025
10.0698
10.1144
10.1567
10.196
10.2323
10.266
10.2978
10.3283
10.358
10.3869
10.415
10.4432
10.4712
10.4955
10.5215
10.547
10.5715
10.5913
10.6153
10.6335
10.6513
10.6604
10.6698
10.6729
10.6729
10.668
10.658
10.6465
10.6357
10.6279
10.6356
1.19538
1.17901
2.97365
5.4012
11.2162
10.9332
10.3126
9.9331
9.84111
9.85074
9.87498
9.88866
9.89019
9.89094
9.89335
9.90138
9.91977
9.95296
9.99359
10.0373
10.0806
10.122
10.1603
10.1955
10.2279
10.2581
10.2867
10.3143
10.3407
10.3661
10.3912
10.4153
10.436
10.4574
10.4776
10.4959
10.5092
10.5265
10.5363
10.5442
10.5441
10.5418
10.5332
10.5157
10.4932
10.4627
10.4279
10.3914
10.3584
10.3515
1.18744
1.20843
2.96037
5.35607
11.1975
10.9162
10.3021
9.91749
9.82103
9.82957
9.85213
9.8653
9.86635
9.86671
9.86837
9.87514
9.89108
9.92124
9.95988
10.002
10.0441
10.0843
10.1215
10.1554
10.1863
10.2148
10.2413
10.2664
10.2901
10.3125
10.334
10.3538
10.3707
10.3866
10.4011
10.4125
10.4191
10.4276
10.4276
10.4243
10.4149
10.3967
10.3698
10.331
10.2854
10.223
10.1483
10.063
9.97218
9.9155
1.1954
1.1802
2.97264
5.31606
11.1848
10.9
10.2924
9.90308
9.80057
9.80771
9.82806
9.84081
9.84154
9.84149
9.84257
9.84807
9.86137
9.88818
9.92443
9.96462
10.0052
10.0439
10.0797
10.1121
10.1412
10.1676
10.1918
10.2142
10.2349
10.2539
10.2714
10.2866
10.299
10.309
10.317
10.3209
10.3201
10.3179
10.3091
10.292
10.2695
10.2312
10.1841
10.1191
10.039
9.92945
9.78957
9.61138
9.38605
9.14399
1.20552
1.26167
2.88381
5.2555
11.1712
10.8855
10.2831
9.88535
9.77345
9.77813
9.79467
9.80694
9.80742
9.80675
9.80736
9.81114
9.82177
9.84443
9.87776
9.91554
9.95412
9.99123
10.0254
10.056
10.0831
10.1071
10.1283
10.1474
10.1642
10.179
10.1915
10.201
10.2079
10.2101
10.2097
10.2056
10.1951
10.1799
10.1557
10.1229
10.0808
10.0194
9.94323
9.84159
9.70794
9.52596
9.26688
8.87876
8.21927
6.79142
1.19444
1.1843
2.97725
5.21958
11.1741
10.8815
10.2757
9.86665
9.74247
9.74381
9.7552
9.76695
9.7675
9.7663
9.76589
9.76826
9.77616
9.79379
9.82309
9.85735
9.89321
9.92797
9.95994
9.98829
10.0128
10.0337
10.0514
10.0664
10.0786
10.0881
10.0946
10.0979
10.0975
10.0926
10.0822
10.0659
10.0432
10.0125
9.97526
9.92242
9.85479
9.76951
9.65885
9.51371
9.32084
9.06228
8.69042
8.14911
7.35682
6.06512
1.21008
1.24554
2.8853
5.1757
11.1569
10.8659
10.265
9.83399
9.68995
9.68844
9.69792
9.71333
9.71723
9.7163
9.71505
9.71679
9.72302
9.73718
9.76266
9.79362
9.82699
9.85961
9.8895
9.91589
9.93777
9.9558
9.97004
9.9808
9.98836
9.99235
9.99287
9.99068
9.98371
9.96768
9.94704
9.92068
9.88642
9.84129
9.78958
9.71772
9.62917
9.51963
9.37846
9.19958
8.96804
8.66506
8.26806
7.73158
7.04588
6.14204
1.19284
1.21354
3.00057
5.20562
11.2102
10.9294
10.2989
9.81344
9.63576
9.62766
9.6392
9.66108
9.66873
9.66824
9.66683
9.66808
9.67263
9.68329
9.70429
9.73141
9.76249
9.79185
9.81906
9.84288
9.86278
9.87744
9.88845
9.89533
9.89836
9.89785
9.89439
9.88493
9.86874
9.84419
9.81597
9.78041
9.73557
9.6783
9.61322
9.52717
9.42241
9.29427
9.13671
8.94105
8.69713
8.39214
8.02096
7.55747
7.02152
6.35178
1.20503
1.25224
2.83799
5.339
10.9466
10.8035
10.2857
9.77284
9.5715
9.55958
9.57207
9.59714
9.60693
9.60684
9.60472
9.60603
9.61018
9.6197
9.63783
9.66226
9.68992
9.71796
9.74362
9.76583
9.78369
9.79663
9.80509
9.80877
9.80851
9.80571
9.79733
9.78009
9.75628
9.7279
9.69283
9.64914
9.5962
9.52979
9.45453
9.35899
9.2447
9.10775
8.94332
8.74582
8.50934
8.22732
7.89553
7.50458
7.05743
6.56018
1.2169
1.25716
3.35044
6.52458
10.3937
10.3483
10.0139
9.64722
9.50669
9.50678
9.5201
9.54467
9.55494
9.55456
9.55257
9.55257
9.55473
9.56132
9.57555
9.5966
9.62047
9.64464
9.66823
9.68884
9.70497
9.71666
9.72308
9.72441
9.72284
9.71693
9.70295
9.68088
9.65245
9.6199
9.57957
9.53028
9.47117
9.39902
9.31702
9.21662
9.09845
8.95964
8.79663
8.60618
8.38508
8.12996
7.83778
7.50861
7.14066
6.74167
0.889653
2.23543
2.59337
7.79509
10.0374
9.90406
9.60328
9.4563
9.4365
9.4485
9.47516
9.49339
9.49843
9.49778
9.49609
9.4962
9.4979
9.50263
9.51353
9.52957
9.54888
9.56983
9.5909
9.60947
9.62517
9.63518
9.64067
9.64112
9.63882
9.63084
9.61326
9.58935
9.558
9.52222
9.47834
9.42538
9.36269
9.28738
9.20262
9.10061
8.98259
8.84641
8.68951
8.50989
8.30598
8.07617
7.82001
7.53252
7.22903
6.8988
0.912696
2.2287
2.64931
7.85389
9.90672
9.78768
9.52102
9.39627
9.39723
9.41633
9.45476
9.47655
9.48313
9.48323
9.4826
9.48095
9.48084
9.48232
9.48605
9.49354
9.5066
9.52164
9.53637
9.5494
9.56043
9.56789
9.57162
9.57085
9.56669
9.55561
9.53453
9.50859
9.47676
9.43842
9.39185
9.33642
9.27149
9.19587
9.10908
9.00835
8.89326
8.76279
8.61464
8.44762
8.26085
8.05392
7.8271
7.58054
7.3194
7.03788
0.910829
2.26816
2.7141
7.9334
9.94173
9.79419
9.47321
9.33204
9.33809
9.36977
9.42007
9.44801
9.45748
9.45984
9.46079
9.4614
9.46173
9.4641
9.46648
9.47059
9.47767
9.48793
9.49739
9.50754
9.51489
9.51876
9.51863
9.51584
9.50792
9.49189
9.47018
9.44315
9.40995
9.36903
9.32208
9.2655
9.20023
9.12504
9.03857
8.94057
8.82982
8.70477
8.56529
8.41064
8.24035
8.05467
7.84929
7.63483
7.40959
7.16753
0.922694
2.2592
2.68226
7.93214
9.91227
9.76226
9.43975
9.30193
9.30954
9.34428
9.39738
9.42777
9.43936
9.44349
9.44582
9.44728
9.44783
9.44969
9.45168
9.45406
9.45829
9.46439
9.47064
9.47647
9.48004
9.48046
9.47886
9.47372
9.46211
9.44294
9.41871
9.39015
9.35509
9.3127
9.26547
9.20807
9.14231
9.06758
8.98309
8.88815
8.78206
8.664
8.53367
8.39078
8.23502
8.06423
7.88419
7.69371
7.49432
7.28215
0.895916
2.26861
2.53061
7.86143
9.7906
9.66651
9.4003
9.29543
9.30442
9.33763
9.38627
9.41694
9.43083
9.43649
9.43896
9.43979
9.43951
9.43942
9.43908
9.43984
9.44186
9.44537
9.44901
9.45187
9.45233
9.45143
9.44765
9.43899
9.42434
9.40534
9.38086
9.35049
9.31298
9.26903
9.21864
9.16048
9.09558
9.02219
8.94011
8.84888
8.74789
8.6369
8.51515
8.38238
8.23884
8.08527
7.92382
7.75311
7.575
7.38677
0.828426
2.30312
2.4137
7.87596
9.87507
9.73169
9.44198
9.31766
9.31558
9.33535
9.37842
9.41264
9.42898
9.43438
9.43528
9.43472
9.43253
9.42944
9.42619
9.42479
9.42482
9.42597
9.42654
9.42672
9.42583
9.4227
9.41573
9.40451
9.38861
9.36718
9.34078
9.3096
9.26996
9.22632
9.17623
9.1186
9.05548
8.98514
8.90608
8.81946
8.72404
8.61947
8.50573
8.38273
8.25
8.11077
7.96369
7.80929
7.64886
7.47984
1.19356
1.24983
3.21643
6.24606
10.1684
10.1375
9.82468
9.46411
9.33889
9.35041
9.38837
9.43393
9.45471
9.45756
9.4543
9.44801
9.43936
9.43004
9.42286
9.4163
9.41172
9.40866
9.40435
9.40122
9.39643
9.38962
9.37995
9.36588
9.35012
9.32778
9.30121
9.2692
9.23256
9.18594
9.13689
9.08081
9.01803
8.94868
8.87299
8.78979
8.69912
8.60116
8.49593
8.3838
8.26406
8.13698
8.00286
7.86226
7.71658
7.56377
1.18626
1.1652
2.91655
4.98925
10.7054
10.5537
10.0929
9.53743
9.32753
9.33148
9.36157
9.41554
9.44195
9.44537
9.44283
9.43742
9.42745
9.41688
9.4062
9.39546
9.38918
9.38207
9.3757
9.36952
9.36174
9.35272
9.34144
9.32684
9.30881
9.28652
9.25878
9.22666
9.18895
9.14808
9.09708
9.04425
8.98495
8.91873
8.8465
8.7677
8.68398
8.59215
8.49383
8.38894
8.27824
8.16102
8.03764
7.9087
7.77524
7.63581
1.19349
1.22089
2.80216
4.72533
10.4593
10.3872
10.0139
9.54437
9.36952
9.37125
9.39363
9.4341
9.45284
9.45266
9.44928
9.44129
9.42946
9.41589
9.40218
9.38818
9.37765
9.36591
9.35465
9.34407
9.33247
9.32013
9.30578
9.28936
9.26929
9.24589
9.21921
9.18849
9.15273
9.11201
9.06546
9.01383
8.95638
8.89316
8.82471
8.74928
8.66975
8.58288
8.49053
8.3924
8.28855
8.17956
8.06579
7.94761
7.8257
7.69815
0.941571
2.06566
2.40701
6.9662
9.88101
9.7732
9.48866
9.34329
9.32527
9.34033
9.37408
9.40563
9.42353
9.42938
9.42895
9.42598
9.41845
9.40537
9.39111
9.37647
9.36203
9.35029
9.33638
9.32239
9.30822
9.2934
9.27668
9.25894
9.23953
9.21484
9.18791
9.15641
9.1202
9.0798
9.03489
8.98516
8.92988
8.87006
8.80431
8.73497
8.65923
8.57792
8.49108
8.39954
8.30272
8.20046
8.09351
7.98232
7.86805
7.74961
1.193
1.20814
2.7692
4.57083
10.202
10.3082
9.99092
9.5879
9.42769
9.41771
9.42847
9.45072
9.45933
9.45789
9.4524
9.44138
9.42829
9.4129
9.39629
9.37953
9.36219
9.34449
9.32932
9.31096
9.29295
9.27491
9.25593
9.23577
9.21351
9.1883
9.16053
9.12836
9.09411
9.05507
9.01125
8.96272
8.90953
8.85158
8.78868
8.72139
8.64814
8.57065
8.48869
8.40171
8.31028
8.21448
8.11471
8.01151
7.90551
7.79541
1.19526
1.21386
2.76132
4.30167
10.3938
10.4306
10.0437
9.54936
9.35486
9.35291
9.37147
9.40909
9.42869
9.43205
9.4304
9.42549
9.41611
9.40372
9.38904
9.37295
9.35569
9.33721
9.31842
9.29887
9.2785
9.25782
9.23601
9.21277
9.1883
9.16199
9.13301
9.10144
9.06625
9.02736
8.98438
8.93719
8.88599
8.83039
8.77007
8.70554
8.63638
8.56294
8.48455
8.40145
8.31477
8.22439
8.13091
8.03444
7.93546
7.83278
1.18022
1.1474
2.83978
4.27727
10.3547
10.4424
10.0542
9.55355
9.35664
9.35504
9.37362
9.41083
9.42884
9.43041
9.42825
9.42273
9.41474
9.40264
9.38835
9.37193
9.35411
9.33477
9.31365
9.2928
9.26917
9.24546
9.22069
9.1948
9.16739
9.13918
9.10796
9.07453
9.03876
8.99972
8.95733
8.91145
8.86153
8.80839
8.75012
8.68831
8.62243
8.55227
8.47786
8.39952
8.31759
8.23244
8.14385
8.05236
7.9587
7.86208
1.1717
1.14428
2.80859
4.2059
10.0737
10.3529
10.006
9.55761
9.38394
9.37757
9.39199
9.41954
9.4304
9.42902
9.42529
9.41904
9.41057
9.39958
9.38594
9.3694
9.35073
9.33036
9.30824
9.28555
9.25983
9.23408
9.20661
9.1776
9.1471
9.11486
9.08129
9.04608
9.00941
8.96972
8.92776
8.88322
8.83541
8.78416
8.72878
8.66966
8.60671
8.53986
8.46901
8.39472
8.31686
8.23624
8.15277
8.06672
7.97863
7.88778
0.875821
2.01267
2.12201
6.38327
9.97396
9.87378
9.572
9.37981
9.32977
9.34188
9.3725
9.40107
9.41464
9.41693
9.41582
9.41289
9.40742
9.3975
9.38363
9.36703
9.34821
9.32696
9.30375
9.27838
9.25157
9.22154
9.19113
9.15906
9.12542
9.09093
9.05477
9.01752
8.9792
8.93916
8.8972
8.85276
8.80548
8.75558
8.70251
8.64639
8.58695
8.52381
8.4574
8.387
8.3132
8.23629
8.15701
8.07568
7.99257
7.90695
1.18227
1.19671
2.72591
4.19446
10.1001
10.3263
9.98649
9.55373
9.38558
9.38115
9.39398
9.41437
9.42152
9.42065
9.41763
9.41202
9.40255
9.39134
9.3768
9.35908
9.33943
9.31628
9.29101
9.26386
9.23515
9.20443
9.1724
9.13848
9.1029
9.06613
9.0286
8.98953
8.94994
8.90915
8.86677
8.82299
8.77734
8.72922
8.67862
8.62507
8.56875
8.50861
8.44515
8.37876
8.30927
8.23663
8.16171
8.08443
8.00528
7.92364
1.1747
1.12555
2.82934
4.26795
10.3197
10.447
10.0554
9.56957
9.37944
9.37156
9.38402
9.40361
9.41126
9.41074
9.40846
9.40348
9.3948
9.3822
9.3675
9.34902
9.32759
9.30335
9.27725
9.24893
9.21878
9.18668
9.15275
9.1174
9.08068
9.04306
9.00442
8.965
8.92451
8.88334
8.84134
8.79791
8.75268
8.70585
8.6563
8.60439
8.55042
8.49338
8.4328
8.36973
8.30366
8.23484
8.16319
8.08951
8.01421
7.93668
0.98233
1.7401
1.93221
5.59709
10.1168
10.0689
9.76104
9.45518
9.3375
9.34123
9.36007
9.38968
9.40326
9.4066
9.40457
9.39885
9.38799
9.37436
9.35834
9.33891
9.31582
9.29029
9.26268
9.23342
9.20234
9.1701
9.13576
9.10012
9.06317
9.02493
8.98541
8.94512
8.9042
8.86277
8.82051
8.77729
8.73274
8.68669
8.6386
8.58855
8.53551
8.48102
8.42276
8.36186
8.29879
8.2332
8.1652
8.09512
8.02342
7.94926
0.968397
1.68792
1.82284
5.32221
9.99918
10.0923
9.82818
9.50351
9.37174
9.36375
9.37491
9.3974
9.40665
9.4048
9.39778
9.38355
9.36853
9.35244
9.33562
9.31802
9.29511
9.27039
9.24382
9.21539
9.18528
9.15358
9.12081
9.08548
9.04903
9.01123
8.97201
8.93203
8.89126
8.84948
8.80676
8.76356
8.71891
8.67284
8.62523
8.57577
8.52417
8.47062
8.41447
8.35582
8.29481
8.23173
8.1667
8.09985
8.03109
7.95972
0.984426
1.64576
1.83092
5.25083
10.0298
10.2699
9.99518
9.6081
9.4333
9.40322
9.40915
9.42309
9.42089
9.41611
9.40283
9.38297
9.36313
9.34465
9.33061
9.30994
9.28716
9.26314
9.23721
9.20972
9.18043
9.14971
9.11669
9.08288
9.046
9.00811
8.96886
8.92804
8.88616
8.84351
8.79984
8.75564
8.71083
8.66434
8.6167
8.56763
8.51671
8.46388
8.40882
8.35164
8.29236
8.23108
8.16811
8.10314
8.03673
7.96813
1.17306
1.15147
2.65474
4.14877
10.0192
10.488
10.1344
9.66985
9.46711
9.43035
9.43109
9.4321
9.42622
9.41356
9.39514
9.3754
9.3563
9.33819
9.32064
9.30121
9.28097
9.2573
9.23276
9.20682
9.17913
9.14953
9.11774
9.08373
9.04747
9.00926
8.96923
8.9279
8.88524
8.84191
8.79659
8.75153
8.70543
8.658
8.60934
8.55959
8.50812
8.4554
8.40068
8.34445
8.28666
8.22727
8.16618
8.10382
8.04016
7.97433
1.00765
1.58268
1.78938
4.97682
9.82865
10.38
10.1074
9.68763
9.49112
9.44961
9.45207
9.45739
9.45399
9.44219
9.41712
9.39647
9.37413
9.35284
9.33195
9.31044
9.2876
9.26365
9.23882
9.21258
9.18464
9.15489
9.12306
9.08907
9.05277
9.01432
8.97383
8.93172
8.88822
8.8431
8.79814
8.75076
8.703
8.65527
8.60585
8.55538
8.50353
8.45036
8.3958
8.33999
8.2827
8.22384
8.16393
8.10299
8.04105
7.97753
1.02028
1.52941
1.78835
4.74257
9.54931
10.3999
10.1724
9.74961
9.52724
9.46653
9.46197
9.46499
9.46331
9.4546
9.43339
9.415
9.39201
9.37029
9.34786
9.32435
9.30002
9.27523
9.2493
9.22218
9.19355
9.16316
9.13079
9.09611
9.05916
9.01982
8.97845
8.93519
8.89038
8.84431
8.79798
8.75001
8.70118
8.6522
8.60192
8.5504
8.49854
8.44478
8.38992
8.33408
8.27703
8.21895
8.15999
8.10022
8.03969
7.97794
1.16326
1.10601
2.72988
4.04407
9.95421
10.543
10.2017
9.75375
9.53951
9.48318
9.4779
9.47365
9.46981
9.46123
9.44499
9.42678
9.40741
9.38765
9.36537
9.34059
9.31503
9.28858
9.26116
9.23252
9.20239
9.17056
9.13672
9.10076
9.06268
9.02265
8.98019
8.93741
8.89127
8.8447
8.79743
8.74886
8.69934
8.64939
8.598
8.54633
8.49322
8.43919
8.38429
8.32846
8.27171
8.21417
8.15594
8.09701
8.03747
7.97689
0.959934
1.62782
1.48426
5.0598
9.51454
10.4147
10.1793
9.76026
9.54938
9.49159
9.49356
9.49853
9.49695
9.48898
9.47438
9.45304
9.43238
9.41026
9.38506
9.35762
9.3291
9.29984
9.26966
9.23843
9.20592
9.17193
9.13639
9.09939
9.06069
9.02022
8.97774
8.93466
8.88882
8.842
8.7943
8.74531
8.69525
8.64447
8.5927
8.54021
8.48694
8.43288
8.378
8.32234
8.26599
8.20898
8.15134
8.09314
8.03449
7.97486
1.00603
1.60251
1.51272
5.06309
9.6045
10.5739
10.3095
9.80639
9.54519
9.47392
9.48148
9.49789
9.49722
9.49161
9.47818
9.45513
9.43443
9.41347
9.38887
9.36097
9.33092
9.29963
9.26753
9.23452
9.20042
9.16506
9.12846
9.09029
9.05199
9.01135
8.96916
8.92639
8.88157
8.83558
8.78788
8.7396
8.68931
8.63826
8.58621
8.53332
8.47971
8.42542
8.37056
8.31516
8.25928
8.20292
8.14613
8.0888
8.03098
7.97232
0.972761
1.61198
1.55946
5.07093
9.69059
10.5553
10.2772
9.77621
9.52538
9.47282
9.48473
9.50752
9.50656
9.50092
9.48503
9.45998
9.43777
9.41445
9.38696
9.35619
9.32319
9.28918
9.25468
9.21984
9.18458
9.14932
9.11154
9.07447
9.03634
8.99683
8.95641
8.91459
8.87111
8.82572
8.78017
8.73167
8.68163
8.63053
8.57847
8.5255
8.47181
8.41752
8.36283
8.30777
8.25237
8.19663
8.14051
8.0841
8.02742
7.96984
0.978758
1.63187
1.63419
5.23403
9.94443
10.4678
10.1873
9.75544
9.55125
9.51351
9.52358
9.5414
9.53704
9.5258
9.49893
9.46705
9.43737
9.40791
9.37437
9.33779
9.29998
9.26215
9.22588
9.19062
9.15374
9.11885
9.08367
9.04799
9.01192
8.97512
8.9375
8.89752
8.8558
8.81477
8.76896
8.72159
8.67262
8.62205
8.57006
8.51706
8.46341
8.40937
8.35487
8.30011
8.24516
8.19005
8.13474
8.07917
8.02332
7.96664
1.17853
1.17258
2.70497
4.25707
10.2929
10.5542
10.1985
9.78579
9.60989
9.57873
9.57416
9.56901
9.55493
9.52663
9.49218
9.45609
9.42
9.38144
9.34108
9.29982
9.25969
9.22131
9.18632
9.15268
9.1196
9.08769
9.05537
9.02348
8.98936
8.95579
8.92074
8.8839
8.84447
8.80395
8.761
8.71445
8.66626
8.61609
8.56418
8.51109
8.45715
8.40268
8.34813
8.29358
8.23909
8.18462
8.1301
8.07545
8.02058
7.96483
1.18056
1.16244
2.66367
4.09176
10.1659
10.5168
10.1829
9.80995
9.66567
9.64152
9.63547
9.61953
9.58702
9.53968
9.49259
9.44481
9.39834
9.34934
9.30523
9.2617
9.21928
9.18078
9.14608
9.1134
9.08214
9.05259
9.0228
8.99346
8.96405
8.9337
8.90274
8.86848
8.83267
8.7943
8.75249
8.70711
8.65982
8.60956
8.55726
8.50382
8.44961
8.39503
8.34027
8.28569
8.23141
8.17741
8.12352
8.06974
8.01596
7.96158
1.18303
1.19018
2.75586
4.29234
10.4971
10.61
10.2419
9.84558
9.68455
9.65101
9.64095
9.61908
9.58074
9.52868
9.47248
9.41865
9.36669
9.31599
9.2691
9.22634
9.18475
9.14854
9.11532
9.08487
9.05639
9.02956
9.0032
8.97688
8.95086
8.92372
8.89529
8.86371
8.82993
8.7931
8.75196
8.70712
8.65916
8.60876
8.55548
8.50119
8.44602
8.39062
8.33546
8.28088
8.22695
8.1737
8.12037
8.0677
8.01512
7.96188
0.994025
1.61358
1.82668
5.1354
10.136
10.5986
10.2916
9.83863
9.61489
9.5794
9.58864
9.58428
9.56769
9.52077
9.45562
9.39453
9.34119
9.28896
9.24018
9.19387
9.15241
9.11518
9.08267
9.05353
9.02713
9.00383
8.97965
8.95622
8.93277
8.9078
8.88123
8.85111
8.81679
8.78398
8.74302
8.6985
8.65081
8.6
8.54677
8.49215
8.43657
8.38177
8.32637
8.27233
8.2191
8.16671
8.11437
8.06263
8.0113
7.9591
0.959583
1.60477
1.65502
5.10567
9.99044
10.6797
10.3663
9.86453
9.625
9.58271
9.58941
9.58676
9.57388
9.53326
9.46864
9.40612
9.34627
9.28851
9.23532
9.18626
9.14356
9.10531
9.06852
9.04084
9.01599
8.99364
8.97226
8.95122
8.92896
8.90491
8.87951
8.85113
8.81881
8.78249
8.74222
8.69791
8.65001
8.59891
8.54541
8.49028
8.43452
8.37886
8.3237
8.26953
8.21635
8.1641
8.11243
8.06116
8.00987
7.95772
0.97746
1.62939
1.59736
5.2523
10.0528
10.5546
10.235
9.78104
9.57333
9.54888
9.55925
9.56681
9.56141
9.53305
9.47388
9.4098
9.34804
9.28782
9.23194
9.1796
9.13647
9.09358
9.0577
9.03017
9.00603
8.98483
8.965
8.94553
8.92257
8.90212
8.87561
8.8468
8.81466
8.77882
8.73882
8.69478
8.64692
8.59582
8.54225
8.4871
8.43128
8.37555
8.32047
8.26638
8.21338
8.16137
8.11009
8.05917
8.0082
7.9562
2.87869
2.41978
3.07214
4.01464
3.93913
3.95846
3.92864
3.92076
3.92341
3.94816
3.99573
4.04935
4.09553
4.13956
4.18831
4.24518
4.30914
4.3777
4.44845
4.51871
4.58657
4.65472
4.71473
4.76853
4.81585
4.85693
4.89183
4.92065
4.94382
4.96132
4.97337
4.98006
4.98173
4.9803
4.97532
4.96455
4.94906
4.92965
4.90657
4.88016
4.85074
4.81867
4.78445
4.74858
4.71161
4.67407
4.63638
4.59892
4.56207
4.52591
4.49065
4.4567
4.42371
4.39171
4.361
4.33161
4.3035
4.27672
4.25136
4.2275
4.20521
4.18455
4.16574
4.14871
4.13353
4.12045
4.10971
4.10101
4.09443
4.09009
4.0877
4.0875
4.08781
4.08877
4.09107
4.09589
4.1039
4.11254
4.12083
4.12855
4.13566
4.14186
4.1468
4.15024
4.15185
4.15156
4.15092
4.14985
4.14773
4.14367
4.13798
4.13098
4.12308
4.11479
4.10629
4.09776
4.08934
4.08118
4.07359
4.0685
3.86711
3.44585
3.64989
4.06954
3.96998
3.94224
3.91497
3.90451
3.91124
3.9424
4.00674
4.06079
4.10002
4.13829
4.18393
4.23907
4.30323
4.37174
4.44292
4.51343
4.58215
4.64892
4.7091
4.76264
4.80979
4.85073
4.88563
4.91454
4.93788
4.95553
4.96791
4.97463
4.97603
4.9749
4.97058
4.96041
4.94329
4.92337
4.90045
4.87427
4.84507
4.81326
4.77932
4.74375
4.70707
4.66979
4.63236
4.5951
4.55841
4.52247
4.48726
4.45346
4.42077
4.38874
4.3582
4.32896
4.30098
4.27434
4.24911
4.22538
4.20318
4.18265
4.16389
4.14703
4.13193
4.11874
4.10817
4.09952
4.09312
4.0888
4.08659
4.08666
4.08706
4.08809
4.0904
4.09514
4.10327
4.11226
4.12103
4.12905
4.13631
4.14277
4.14785
4.15153
4.15308
4.15281
4.15206
4.15086
4.1486
4.14458
4.13895
4.13191
4.12389
4.11534
4.10657
4.09783
4.08935
4.08085
4.07346
4.06966
4.93065
4.26669
4.10064
4.12394
4.09986
4.04332
3.99104
3.97119
3.97342
3.98566
4.0167
4.06464
4.11015
4.15412
4.2015
4.25583
4.31692
4.38249
4.45076
4.5182
4.58437
4.64779
4.70614
4.75854
4.80469
4.84468
4.87894
4.90719
4.9303
4.94752
4.95941
4.96613
4.96715
4.96624
4.96267
4.95384
4.93593
4.91457
4.89118
4.86512
4.83618
4.80468
4.77111
4.73598
4.69976
4.66295
4.62595
4.58909
4.55269
4.51712
4.48209
4.44835
4.41641
4.38391
4.35351
4.32474
4.297
4.27058
4.24563
4.22212
4.20023
4.17997
4.16134
4.14468
4.12998
4.1169
4.10629
4.09772
4.09212
4.08765
4.08602
4.08619
4.08674
4.08791
4.09031
4.09511
4.10302
4.11211
4.1212
4.12952
4.13693
4.14356
4.14884
4.15251
4.1542
4.15392
4.15307
4.15169
4.14925
4.1452
4.1396
4.13262
4.12449
4.1157
4.10661
4.09757
4.08871
4.08025
4.07201
4.06982
5.50465
4.85709
4.49457
4.33073
4.28224
4.21333
4.14032
4.08801
4.06299
4.06433
4.07409
4.1001
4.15215
4.20021
4.24488
4.29181
4.34439
4.40223
4.46382
4.52656
4.58862
4.64842
4.70412
4.7547
4.7993
4.83782
4.87062
4.89744
4.91911
4.93529
4.94651
4.95304
4.9534
4.95256
4.94924
4.94136
4.92456
4.90156
4.87723
4.85113
4.82254
4.79151
4.75844
4.72384
4.68818
4.6519
4.61548
4.5791
4.5432
4.50801
4.47344
4.44027
4.40811
4.37676
4.34696
4.31843
4.29118
4.26526
4.24083
4.2178
4.19638
4.17658
4.15847
4.14199
4.12751
4.11488
4.10472
4.09648
4.09046
4.08653
4.08508
4.0853
4.08603
4.08761
4.0903
4.09497
4.10242
4.11135
4.12047
4.12916
4.13664
4.1435
4.14886
4.15303
4.15474
4.15444
4.1536
4.1522
4.14967
4.14558
4.13991
4.13308
4.12489
4.11595
4.1066
4.09724
4.08804
4.07933
4.07041
4.06794
5.90194
5.33862
4.9284
4.67967
4.53858
4.42899
4.33052
4.25132
4.19959
4.17668
4.17767
4.18501
4.205
4.24549
4.28895
4.33312
4.37968
4.42998
4.48378
4.53968
4.59594
4.65083
4.70267
4.75035
4.7922
4.82917
4.86035
4.88574
4.90621
4.92128
4.93193
4.93782
4.93793
4.93713
4.93415
4.92665
4.91079
4.88725
4.86224
4.83587
4.80742
4.77676
4.74421
4.71018
4.67513
4.63949
4.60356
4.56778
4.53248
4.49777
4.46387
4.43109
4.39932
4.36865
4.33925
4.3112
4.28451
4.25918
4.23535
4.21294
4.19222
4.17294
4.15552
4.13982
4.1255
4.11365
4.10384
4.09606
4.09035
4.08674
4.0858
4.08609
4.08691
4.08869
4.09152
4.09612
4.10292
4.11118
4.12001
4.12846
4.13602
4.14278
4.14819
4.15208
4.15416
4.15384
4.15306
4.15165
4.14901
4.14491
4.13933
4.13257
4.12419
4.11527
4.1057
4.09622
4.08664
4.07754
4.06764
4.06479
6.21713
5.74305
5.3422
5.0388
4.82643
4.67015
4.54409
4.44191
4.36565
4.31686
4.29301
4.29248
4.29667
4.31045
4.34028
4.38033
4.42238
4.46544
4.51058
4.55798
4.60668
4.65518
4.70193
4.74554
4.78476
4.81953
4.8484
4.87243
4.89119
4.90505
4.91432
4.91937
4.91931
4.91839
4.91526
4.90764
4.89175
4.86867
4.8437
4.81724
4.78889
4.75859
4.72656
4.69317
4.65886
4.62396
4.58881
4.5538
4.51918
4.48515
4.45197
4.41982
4.38871
4.35881
4.33019
4.3029
4.27699
4.25251
4.22946
4.20797
4.18798
4.16967
4.1528
4.13779
4.12458
4.11323
4.10384
4.09647
4.09111
4.08766
4.08697
4.08728
4.08812
4.08984
4.09286
4.09727
4.10324
4.1106
4.11861
4.1265
4.13376
4.14018
4.14544
4.14927
4.15151
4.15126
4.15051
4.14922
4.14673
4.14303
4.13719
4.13073
4.12213
4.11354
4.1037
4.09445
4.08437
4.0751
4.06434
4.06165
6.46995
6.07208
5.70155
5.38144
5.12698
4.93051
4.77539
4.65031
4.55175
4.47933
4.43211
4.4081
4.40127
4.40336
4.41164
4.43107
4.46507
4.50086
4.53875
4.57851
4.61957
4.66102
4.70184
4.74058
4.77632
4.80802
4.83532
4.85725
4.87457
4.8872
4.89549
4.89951
4.89939
4.89837
4.89499
4.88701
4.87052
4.84833
4.82404
4.79787
4.76973
4.73975
4.7082
4.67543
4.64181
4.60767
4.57329
4.53903
4.50517
4.47186
4.43942
4.408
4.37761
4.34847
4.32067
4.2942
4.26916
4.24564
4.22351
4.20305
4.18398
4.16659
4.15068
4.13663
4.12429
4.11371
4.10495
4.09812
4.09323
4.09005
4.08944
4.08975
4.09062
4.09241
4.09499
4.09916
4.10432
4.1106
4.11742
4.12428
4.13075
4.13652
4.1413
4.14482
4.14697
4.14674
4.14608
4.14491
4.14261