/*--------------------------------*- C++ -*----------------------------------*\
| =========                 |                                                 |
| \\      /  F ield         | OpenFOAM: The Open Source CFD Toolbox           |
|  \\    /   O peration     | Version:  2412                                  |
|   \\  /    A nd           | Website:  www.openfoam.com                      |
|    \\/     M anipulation  |                                                 |
\*---------------------------------------------------------------------------*/
FoamFile
{
    version     2.0;
    format      ascii;
    arch        "LSB;label=32;scalar=64";
    class       surfaceScalarField;
    location    "9.5";
    object      phi;
}
// * * * * * * * * * * * * * * * * * * * * * * * * * * * * * * * * * * * * * //

dimensions      [1 0 -1 0 0 0 0];

oriented        oriented;

internalField   nonuniform List<scalar> 
13790
(
0.00287842
-7.30485e-07
0.00288623
4.11137e-07
0.00289007
-2.7134e-06
0.00287768
-6.62582e-06
0.00287093
2.63132e-06
0.00285361
1.14934e-05
0.00284678
1.04586e-05
0.00284702
7.32353e-06
0.0028472
6.04021e-06
0.00284674
6.09766e-06
0.00284304
7.03622e-06
0.00283638
8.44026e-06
0.00282753
1.01647e-05
0.0028165
1.19015e-05
0.00280299
1.36914e-05
0.00278653
1.55394e-05
0.00277006
1.74691e-05
0.00275091
1.96255e-05
0.00272806
2.19366e-05
0.00270282
2.44209e-05
0.00267406
2.70476e-05
0.0026372
2.98162e-05
0.00259173
3.26394e-05
0.00254414
3.55721e-05
0.00249785
3.8703e-05
0.00245346
4.20865e-05
0.00240876
4.57735e-05
0.00236283
4.97974e-05
0.00231566
5.42507e-05
0.00226074
5.91246e-05
0.00219816
6.44563e-05
0.00212419
7.0045e-05
0.00202695
7.54138e-05
0.00193006
8.08203e-05
0.00183744
8.6527e-05
0.00174448
9.22752e-05
0.00165159
9.80256e-05
0.00155047
0.000103073
0.0014406
0.000107197
0.00131829
0.000110255
0.0011999
0.000113394
0.00108227
0.000117339
0.000968162
0.000122436
0.000844565
0.000128874
0.000710892
0.000135213
0.00056799
0.000141756
0.000419734
0.000148293
0.0002673
0.00015489
0.000118075
0.000150996
0.000119129
0.00298425
-1.99171e-06
0.00299206
2.41054e-06
0.00299873
-6.53489e-06
0.0029823
-9.76927e-06
0.00296917
1.24759e-05
0.00295325
2.29909e-05
0.00294826
1.84485e-05
0.00294783
1.40779e-05
0.00294683
1.27751e-05
0.00294518
1.32287e-05
0.00294095
1.46215e-05
0.00293445
1.7037e-05
0.00292618
1.99185e-05
0.00291596
2.3095e-05
0.00290331
2.65753e-05
0.00288754
3.04039e-05
0.00287166
3.4557e-05
0.00285274
3.91297e-05
0.00282974
4.40587e-05
0.00280402
4.93185e-05
0.00277451
5.48729e-05
0.00273645
6.06906e-05
0.0026893
6.6499e-05
0.00263979
7.25715e-05
0.00259162
7.89631e-05
0.0025455
8.57924e-05
0.00249921
9.31467e-05
0.00245188
0.000101087
0.00240367
0.0001098
0.00234795
0.000119272
0.00228487
0.000129519
0.00221094
0.000140543
0.00211284
0.000151421
0.00201422
0.000162177
0.00191982
0.000173871
0.00182493
0.000186152
0.00172949
0.000198485
0.00162452
0.000210231
0.00150902
0.000220617
0.00137868
0.000228949
0.00125044
0.000236763
0.0011222
0.000245423
0.000997988
0.000254915
0.000865994
0.000265947
0.0007265
0.000276128
0.000580434
0.000286427
0.000432109
0.000296747
0.000283306
0.000306223
0.000136237
0.00029996
0.000256473
0.00308905
1.83184e-06
0.00310152
9.70966e-08
0.00308704
6.72586e-06
0.00303191
2.25502e-05
0.00302897
1.84693e-05
0.0030401
1.28971e-05
0.00304956
1.19232e-05
0.00305332
1.57045e-05
0.00305434
1.75205e-05
0.00305378
1.94577e-05
0.00304995
2.22962e-05
0.00304311
2.58496e-05
0.00303427
3.01397e-05
0.00302336
3.48758e-05
0.00300997
4.01465e-05
0.00299348
4.59456e-05
0.00297697
5.23201e-05
0.00295731
5.93933e-05
0.00293345
6.70112e-05
0.00290676
7.51435e-05
0.00287609
8.36861e-05
0.00283653
9.25535e-05
0.00278784
0.000101474
0.00273687
0.000110678
0.00268733
0.000120363
0.00263991
0.00013072
0.00259229
0.000141881
0.00254344
0.000153963
0.00249353
0.000167241
0.00243565
0.000181656
0.00236991
0.000197205
0.00229268
0.000213902
0.00219063
0.000230474
0.00208819
0.000246863
0.00199006
0.000264741
0.00189147
0.000283695
0.00179222
0.000302694
0.00168334
0.000321154
0.00156374
0.000337767
0.00142931
0.000351517
0.00129698
0.000364392
0.00116443
0.000378029
0.00103549
0.000392509
0.000898406
0.000407844
0.000754092
0.000421766
0.000603641
0.000435303
0.000451997
0.000448501
0.00030073
0.000460036
0.000149336
0.000453365
0.00040697
0.00320624
4.81921e-09
0.00322688
-3.5417e-07
0.00322455
7.33766e-06
0.00320866
2.39442e-05
0.00319825
3.04012e-05
0.00318299
2.55476e-05
0.00317418
2.13277e-05
0.00317103
2.26486e-05
0.00316897
2.46755e-05
0.00316662
2.71789e-05
0.00316192
3.0847e-05
0.00315475
3.53746e-05
0.00314571
4.07618e-05
0.0031347
4.68731e-05
0.00312128
5.37937e-05
0.00310479
6.15576e-05
0.00308822
7.03127e-05
0.00306826
7.99605e-05
0.00304389
9.04673e-05
0.00301649
0.00010168
0.00298487
0.000113417
0.00294396
0.000125566
0.00289359
0.000137732
0.00284073
0.000150211
0.00278929
0.000163291
0.00274007
0.000177257
0.00269071
0.000192322
0.00264001
0.000208643
0.00258819
0.000226689
0.00252813
0.000246291
0.00245981
0.000267433
0.00237941
0.000290178
0.00227334
0.000312717
0.00216688
0.000335029
0.00206484
0.000359312
0.00196227
0.00038504
0.00185918
0.000410707
0.00174648
0.000435822
0.00162306
0.00045849
0.00148474
0.000477621
0.00134871
0.000495477
0.00121248
0.000514204
0.00107987
0.000533955
0.000938323
0.000554316
0.000788873
0.000572549
0.000632929
0.000589516
0.000475897
0.000605565
0.000319199
0.00061915
0.0001607
0.000614067
0.000568876
0.00332865
-1.85757e-06
0.0033364
8.40939e-07
0.0033392
6.66128e-06
0.00332545
2.41785e-05
0.00332144
3.65754e-05
0.00330658
3.85488e-05
0.00329631
3.22882e-05
0.00329187
3.04283e-05
0.00328948
3.22298e-05
0.003287
3.52647e-05
0.00328217
3.98557e-05
0.00327453
4.54794e-05
0.00326471
5.21702e-05
0.00325272
5.98227e-05
0.00323818
6.85034e-05
0.00322055
7.83058e-05
0.00320301
8.92746e-05
0.00318226
0.000101621
0.00315701
0.00011491
0.00312865
0.000129175
0.00309599
0.000144167
0.00305373
0.000159688
0.00300177
0.00017515
0.00294722
0.000191092
0.00289405
0.000207737
0.00284308
0.000225466
0.00279192
0.000244562
0.00273927
0.000265206
0.0026854
0.000288054
0.00262319
0.0003129
0.00255258
0.00033977
0.00246933
0.000368678
0.0023598
0.00039734
0.00225013
0.000425822
0.00214497
0.000456762
0.00203912
0.000489451
0.00193288
0.000522067
0.0018167
0.000554032
0.00168955
0.00058279
0.00154692
0.000607341
0.00140673
0.000630194
0.00126627
0.000654158
0.00112962
0.00067962
0.000983375
0.00070573
0.000828276
0.000728982
0.000665942
0.000750066
0.000502112
0.000769149
0.000338228
0.000785308
0.000171266
0.000783405
0.000741377
0.00345037
-1.14926e-07
0.0034439
-1.50908e-06
0.00345202
7.61304e-06
0.00342873
3.08916e-05
0.00341896
4.82025e-05
0.00341371
4.4319e-05
0.00341257
3.59688e-05
0.00341081
3.56545e-05
0.00340947
3.87082e-05
0.00340733
4.28743e-05
0.00340248
4.88189e-05
0.00339469
5.58951e-05
0.00338443
6.42051e-05
0.00337176
7.36365e-05
0.00335636
8.42646e-05
0.00333785
9.61506e-05
0.0033193
0.000109623
0.0032971
0.000124449
0.00327056
0.000140491
0.00324104
0.00015766
0.00320728
0.000175714
0.00316378
0.000194453
0.00311084
0.000213286
0.00305537
0.000232673
0.00300133
0.000252985
0.00294943
0.000274627
0.00289716
0.000297909
0.00284319
0.000323126
0.00278771
0.000350906
0.00272361
0.000381165
0.00265091
0.000413957
0.00256505
0.000449165
0.00245227
0.000484076
0.00233959
0.00051893
0.0022316
0.000556655
0.00212286
0.000596413
0.0020142
0.000636361
0.00189499
0.000675562
0.00176415
0.000710877
0.0016164
0.000741057
0.00147114
0.000768914
0.00132569
0.000798391
0.00118425
0.00082993
0.00103272
0.000862696
0.000871274
0.000891721
0.000701943
0.000917579
0.000530209
0.000940347
0.000357791
0.000959801
0.000181771
0.000961913
0.0009243
0.00358685
2.82659e-07
0.00356652
6.50642e-07
0.00357585
7.28184e-06
0.00356544
2.95304e-05
0.00356587
5.15896e-05
0.00355756
5.27678e-05
0.00354953
4.53207e-05
0.0035449
4.31406e-05
0.00354292
4.56957e-05
0.00354094
5.04648e-05
0.00353645
5.76317e-05
0.00352882
6.63869e-05
0.00351833
7.66058e-05
0.00350512
8.80732e-05
0.00348899
0.000100799
0.0034696
0.000114951
0.00345016
0.000130814
0.00342705
0.000148329
0.00339946
0.000167146
0.00336873
0.00018729
0.00333364
0.000208491
0.00328848
0.000230538
0.00323382
0.000252782
0.00317647
0.00027575
0.00312047
0.000299821
0.00306659
0.000325474
0.00301235
0.000353073
0.00295619
0.000382967
0.00289849
0.000415821
0.00283208
0.000451583
0.0027569
0.00049034
0.00266825
0.000531939
0.00255203
0.000573195
0.0024359
0.000614433
0.0023247
0.000658991
0.00221292
0.00070594
0.00210182
0.000753352
0.00197974
0.00080006
0.00184554
0.000842333
0.00169265
0.000878615
0.00154182
0.000911919
0.00139084
0.000947487
0.00124386
0.000985634
0.00108657
0.00102573
0.000918224
0.00106136
0.000741156
0.001093
0.00056048
0.00112007
0.00037859
0.00114348
0.000192345
0.00115064
0.00111773
0.00371989
-8.71238e-07
0.00369711
3.46533e-06
0.00371114
3.52783e-06
0.00371237
2.15751e-05
0.00371319
5.61618e-05
0.00370199
6.53099e-05
0.0036899
5.76456e-05
0.00368286
5.19237e-05
0.00367933
5.35515e-05
0.003676
5.88923e-05
0.0036704
6.73024e-05
0.0036621
7.76933e-05
0.00365113
8.96817e-05
0.00363762
0.000103024
0.00362129
0.000117749
0.00360191
0.000134035
0.00358238
0.000152338
0.00355894
0.000172505
0.00353092
0.000194158
0.00349955
0.00021738
0.00346364
0.000241837
0.00341725
0.00026737
0.00336131
0.000293148
0.00330242
0.000319885
0.00324476
0.000347907
0.00318917
0.000377747
0.00313319
0.00040982
0.00307494
0.000444524
0.00301508
0.000482582
0.00294645
0.000523948
0.00286889
0.000568716
0.0027777
0.00061676
0.00265846
0.000664427
0.00253926
0.000712112
0.00242507
0.000763587
0.00231033
0.000817901
0.00219664
0.000872928
0.00207152
0.0009276
0.00193379
0.00097735
0.00177581
0.00102032
0.00161924
0.00105957
0.00146251
0.00110185
0.00130926
0.00114744
0.00114559
0.00119552
0.000969598
0.00123868
0.000784097
0.0012769
0.000593564
0.00130921
0.000400961
0.0013376
0.000204004
0.00135007
0.00132267
0.00384638
-8.51159e-07
0.0038335
1.07889e-06
0.00384544
2.42329e-06
0.00383469
2.77577e-05
0.00383104
6.75265e-05
0.00382992
7.23635e-05
0.00382417
6.22363e-05
0.00381799
5.81663e-05
0.00381412
6.10306e-05
0.00381002
6.75433e-05
0.00380386
7.73756e-05
0.00379555
8.92648e-05
0.00378477
0.000102794
0.00377168
0.000117842
0.00375589
0.000134493
0.00373709
0.000152961
0.00371785
0.000173826
0.0036941
0.000196802
0.0036656
0.000221459
0.00363344
0.000247934
0.00359655
0.000275803
0.00354882
0.000304961
0.00349185
0.00033436
0.0034318
0.000365002
0.00337281
0.000397092
0.00331575
0.000431238
0.00325827
0.000467905
0.00319807
0.000507476
0.00313615
0.00055081
0.00306555
0.0005978
0.00298602
0.00064864
0.0028927
0.000703178
0.00277087
0.000757314
0.0026488
0.000811515
0.00253184
0.000869997
0.00241451
0.000931824
0.00229901
0.000994797
0.00217162
0.00105804
0.00203077
0.00111624
0.0018675
0.00116685
0.00170448
0.00121255
0.00154164
0.00126213
0.00138134
0.00131572
0.00121099
0.0013728
0.00102656
0.00142479
0.000831708
0.00147049
0.000630383
0.00150891
0.000426054
0.00154314
0.00021643
0.00156223
0.00153998
0.00399327
2.02532e-06
0.00397161
3.7696e-06
0.00397331
6.28907e-06
0.00397174
3.70905e-05
0.0039801
6.94147e-05
0.00397777
7.59277e-05
0.00396442
6.99733e-05
0.00395598
6.57238e-05
0.00395084
6.95863e-05
0.00394563
7.69713e-05
0.00393922
8.77207e-05
0.00393135
0.000100638
0.00392132
0.000115367
0.00390928
0.000131955
0.00389463
0.000150509
0.00387745
0.000171259
0.0038591
0.000194876
0.00383517
0.000220885
0.00380626
0.000248859
0.0037732
0.000278816
0.00373507
0.000310334
0.00368555
0.000343181
0.00362759
0.000376488
0.00356651
0.000411118
0.00350635
0.000447347
0.00344795
0.000485852
0.00338903
0.000527156
0.00332698
0.000571666
0.00326289
0.000620242
0.00319031
0.000672906
0.00310887
0.000729852
0.00301342
0.000790833
0.00288942
0.000851427
0.00276517
0.00091222
0.00264594
0.000977799
0.00252638
0.00104726
0.00240942
0.00111847
0.00228039
0.00119085
0.0021367
0.00125811
0.00196901
0.0013176
0.00179923
0.00137119
0.00162961
0.00142899
0.00146138
0.00149083
0.00128444
0.0015582
0.0010909
0.00162004
0.000885423
0.00167451
0.000671729
0.00172018
0.000454411
0.00176103
0.000231114
0.00178755
0.00177175
0.00412225
3.44514e-06
0.00413693
-1.58762e-06
0.00414963
6.53315e-06
0.00415943
3.2194e-05
0.00414698
8.22854e-05
0.00413255
8.88708e-05
0.00411574
7.83606e-05
0.00410676
7.3634e-05
0.00410106
7.87916e-05
0.0040951
8.71167e-05
0.0040878
9.88627e-05
0.00407911
0.000112823
0.00406833
0.00012872
0.00405573
0.00014672
0.00404075
0.000166995
0.00402367
0.000189823
0.00400544
0.000215972
0.00398129
0.000244925
0.00395207
0.000276202
0.00391839
0.000309731
0.0038794
0.000345044
0.00382866
0.000381728
0.00377011
0.000419153
0.00370817
0.000457957
0.00364676
0.000498472
0.00358684
0.000541455
0.00352634
0.000587492
0.0034623
0.000636961
0.00339601
0.000690835
0.0033215
0.000749154
0.00323819
0.000812189
0.00314072
0.000879632
0.00301454
0.000946701
0.00288792
0.00101414
0.00276636
0.00108684
0.00264469
0.00116397
0.00252645
0.00124355
0.00239636
0.00132542
0.00224996
0.00140216
0.00207896
0.0014716
0.00190297
0.00153408
0.00172691
0.00160136
0.00155021
0.00167294
0.00136581
0.00175133
0.00116294
0.00182437
0.000946479
0.00188929
0.000719387
0.00194423
0.000486841
0.00199395
0.00024755
0.00202867
0.00201956
0.00427187
1.02575e-06
0.00431814
-5.46181e-06
0.0043152
5.35927e-06
0.00431803
3.87827e-05
0.00430771
9.10201e-05
0.00428983
9.83533e-05
0.00427259
8.45658e-05
0.00426392
8.22796e-05
0.00425728
8.91396e-05
0.00425058
9.82422e-05
0.00424225
0.000110746
0.00423291
0.000125546
0.00422161
0.000142536
0.00420861
0.000161896
0.00419341
0.000183803
0.00417646
0.000208583
0.00415822
0.000237134
0.00413373
0.000268903
0.0041041
0.000303441
0.00406973
0.000340571
0.00402982
0.000379795
0.00397795
0.000420423
0.00391877
0.000462147
0.00385603
0.000505372
0.00379343
0.000550379
0.00373211
0.000597959
0.00367012
0.000648788
0.0036043
0.000703231
0.00353589
0.000762448
0.00345962
0.00082636
0.00337462
0.000895445
0.00327542
0.000969269
0.00314775
0.00104283
0.00301933
0.00111707
0.00289568
0.00119706
0.00277193
0.00128204
0.00265202
0.00137003
0.00252083
0.00146158
0.00237176
0.00154823
0.00219826
0.00162827
0.00201663
0.00170063
0.00183476
0.00177833
0.00165042
0.00186122
0.00145863
0.00195238
0.00124585
0.00203891
0.00101742
0.00211606
0.00077537
0.0021825
0.000526067
0.00224283
0.000267728
0.00228858
0.00228706
0.00443932
-1.44877e-06
0.00449305
-5.96764e-06
0.00448983
4.30555e-06
0.00447462
5.14984e-05
0.00446475
9.1509e-05
0.00444641
0.000100482
0.00443681
9.14322e-05
0.00442876
9.23979e-05
0.00442036
9.97705e-05
0.00441251
0.0001095
0.00440373
0.000122486
0.00439465
0.000137947
0.00438381
0.000155892
0.00437134
0.000176647
0.00435688
0.000200317
0.00434075
0.000227181
0.00432213
0.000258246
0.00429662
0.000293058
0.00426585
0.000331036
0.00423005
0.000371843
0.00418857
0.00041505
0.00413539
0.000459775
0.00407563
0.00050582
0.00401248
0.000553578
0.00394853
0.000603202
0.00388521
0.000655423
0.00382122
0.000710999
0.0037536
0.000770432
0.00368277
0.000834808
0.00360481
0.000904199
0.00351832
0.000979204
0.00341756
0.00105925
0.00328889
0.00113923
0.00315946
0.00122034
0.00303448
0.00130764
0.00290925
0.00140046
0.00278798
0.00149703
0.00265608
0.0015983
0.00250478
0.00169519
0.00232931
0.00178644
0.00214221
0.00186941
0.00195486
0.00195875
0.00176361
0.00205434
0.00156514
0.00216036
0.00134251
0.00226334
0.00110083
0.00235622
0.000841961
0.00243687
0.000572724
0.00251103
0.000291937
0.0025702
0.00257819
0.00463649
-4.59503e-06
0.00466698
7.23956e-07
0.00464181
1.52122e-05
0.00461582
3.50783e-05
0.00462372
8.79353e-05
0.0046263
0.000105109
0.0046105
0.000101862
0.00460046
0.000101951
0.00459125
0.000109963
0.00458201
0.000120388
0.0045724
0.000134094
0.00456281
0.00015034
0.00455162
0.000169249
0.00453893
0.000191273
0.00452454
0.000216552
0.00450931
0.0002454
0.00449092
0.00027898
0.00446507
0.00031674
0.00443374
0.000358165
0.00439713
0.00040271
0.00435432
0.000450028
0.00430034
0.000498917
0.00424023
0.000549507
0.00417701
0.000601929
0.00411254
0.00065638
0.0040478
0.000713415
0.00398201
0.000773835
0.00391279
0.000838345
0.00383961
0.000907848
0.00375991
0.00098264
0.00367193
0.00106338
0.00356984
0.00114945
0.00344047
0.00123584
0.00330992
0.00132387
0.00318356
0.00141849
0.00305716
0.00151917
0.00293461
0.00162417
0.00280231
0.00173517
0.00264952
0.0018425
0.00247333
0.00194511
0.00228251
0.00203985
0.00209086
0.00214176
0.00189361
0.00225176
0.00168942
0.00237465
0.0014577
0.00249727
0.00120252
0.00260944
0.000924695
0.00270955
0.000632191
0.00280214
0.000323466
0.00287981
0.00290041
0.00486484
7.32291e-07
0.00431937
1.78591e-06
0.00476638
3.69518e-06
0.00481218
4.02802e-05
0.00481135
9.54053e-05
0.00480312
0.000112912
0.00478738
0.000108778
0.00477651
0.00011115
0.00476597
0.00012041
0.00475498
0.000131639
0.00474379
0.000146006
0.00473338
0.000162844
0.00472185
0.000182489
0.00470913
0.000205562
0.00469527
0.000232273
0.00468176
0.000262963
0.00466361
0.00029888
0.00463751
0.000339484
0.00460576
0.000384304
0.00456864
0.00043262
0.00452462
0.000484121
0.00447051
0.00053734
0.00441073
0.000592641
0.00434793
0.000649845
0.00428352
0.000709227
0.00421795
0.0007712
0.00415096
0.000836539
0.00408084
0.000906132
0.00400634
0.000980787
0.00392572
0.00106101
0.00383688
0.00114737
0.0037343
0.00123932
0.00360547
0.00133218
0.00347544
0.00142694
0.00334905
0.00152881
0.00322231
0.00163746
0.00309895
0.00175106
0.00296693
0.00187181
0.00281348
0.00199009
0.00263734
0.00210446
0.00244282
0.00221146
0.0022477
0.00232623
0.00204595
0.00245194
0.00183694
0.00259395
0.0015965
0.00274035
0.00132698
0.00287682
0.00102917
0.00300175
0.000708593
0.00312001
0.00036416
0.00322296
0.00326256
0.00504073
2.20511e-06
0.00449046
9.68336e-06
0.00494573
-9.20767e-06
0.00500168
3.55092e-05
0.00499997
9.95462e-05
0.00498745
0.000120211
0.0049742
0.000117666
0.00496216
0.000121146
0.00495025
0.000131112
0.00493699
0.000142965
0.00492387
0.000157783
0.00491252
0.000175059
0.00490074
0.000195351
0.00488816
0.000219306
0.004875
0.000247354
0.00486308
0.000279953
0.00484447
0.000318097
0.0048176
0.000361647
0.00478485
0.000409886
0.00474665
0.00046202
0.00470106
0.000517666
0.00464689
0.000575388
0.00458734
0.000635399
0.00452478
0.00069736
0.00446046
0.000761627
0.00439427
0.000828512
0.00432624
0.000898655
0.0042556
0.000973077
0.00418081
0.00105269
0.00410029
0.0011382
0.00401203
0.00123004
0.00391087
0.00132777
0.00378332
0.00142697
0.0036536
0.00152828
0.00352771
0.00163705
0.00340203
0.00175328
0.00327977
0.00187532
0.00315068
0.00200598
0.00299886
0.00213587
0.00282514
0.00226274
0.00262815
0.00238285
0.00243076
0.00251093
0.00222551
0.00265333
0.00201487
0.00281565
0.00176884
0.00298986
0.00148578
0.00315763
0.00116509
0.0033166
0.000811775
0.00347002
0.000422921
0.00361128
0.00368305
0.00512186
-6.69761e-07
0.00522748
1.03827e-06
0.00520679
3.52478e-07
0.00517504
3.9256e-05
0.00517078
9.72202e-05
0.00516518
0.000120668
0.00516284
0.000123123
0.00515278
0.000128307
0.00514216
0.000139358
0.00512903
0.000152092
0.0051158
0.00016774
0.00510467
0.000185792
0.00509336
0.000207036
0.00508119
0.000232174
0.00506839
0.000261845
0.00505706
0.000296546
0.00503797
0.000337134
0.00501002
0.000383744
0.00497566
0.000435443
0.00493546
0.000491554
0.0048876
0.000551166
0.00483317
0.000613496
0.00477407
0.00067815
0.00471212
0.000744823
0.00464822
0.000813824
0.00458162
0.000885445
0.00451231
0.000960159
0.00444056
0.00103906
0.00436558
0.00112329
0.00428547
0.0012136
0.00419831
0.00131047
0.00409959
0.00141357
0.00397556
0.00151897
0.00384832
0.00162667
0.00372453
0.0017422
0.0036012
0.0018658
0.0034806
0.00199572
0.00335666
0.00213611
0.00320924
0.00227791
0.00304106
0.00241754
0.0028445
0.00255172
0.00264704
0.00269309
0.00244188
0.00285169
0.00223254
0.00303542
0.00198435
0.00324245
0.00169128
0.00344819
0.00135014
0.00365107
0.00095916
0.0038569
0.00050749
0.00406156
0.00418742
0.00529571
4.80619e-07
0.00543512
-5.88916e-06
0.00541655
3.44346e-06
0.00538032
3.95931e-05
0.00537057
9.81476e-05
0.00536467
0.000123482
0.00536222
0.000127689
0.00535401
0.000133093
0.00534509
0.000145122
0.00533207
0.000159117
0.00531795
0.000176116
0.00530605
0.000195587
0.0052943
0.000218229
0.00528167
0.000244945
0.00526828
0.000276386
0.00525652
0.000313234
0.00523695
0.000356162
0.00520797
0.000405657
0.00517245
0.000460681
0.0051307
0.000520636
0.00508199
0.000584378
0.00502793
0.000651132
0.00496968
0.000720415
0.0049084
0.000791713
0.004845
0.000865241
0.00477859
0.000941351
0.00470893
0.00102043
0.00463688
0.00110358
0.00456231
0.0011921
0.00448324
0.00128683
0.00439788
0.00138832
0.00430244
0.00149641
0.00418274
0.00160755
0.00405915
0.00172105
0.00393916
0.00184254
0.00382004
0.00197271
0.00370328
0.00210984
0.00358758
0.00225895
0.00344754
0.00241289
0.00328776
0.00256535
0.00309739
0.00271202
0.00290464
0.00286651
0.00270116
0.00304526
0.00249692
0.00324916
0.0022564
0.00348971
0.00196145
0.0037407
0.00160605
0.00399991
0.00117875
0.00427892
0.000654446
0.00458208
0.00483809
0.0055219
-1.59949e-06
0.00566318
4.30184e-06
0.00560956
-7.95416e-08
0.00555549
3.48971e-05
0.00555749
9.66338e-05
0.00557027
0.000123272
0.00556726
0.000126698
0.00556249
0.000134171
0.00555532
0.000148286
0.005542
0.000164265
0.00552678
0.000183368
0.00551419
0.000204727
0.00550227
0.000229103
0.00548951
0.000257453
0.00547632
0.000290787
0.00546362
0.000329663
0.00544334
0.000374779
0.0054135
0.000426925
0.00537707
0.00048535
0.00533448
0.000549053
0.00528642
0.000616863
0.00523424
0.000687981
0.00517788
0.000761825
0.0051176
0.000837704
0.00505464
0.000915655
0.00498858
0.000996002
0.00491926
0.00107911
0.00484782
0.00116612
0.00477443
0.00125848
0.00469725
0.00135716
0.00461466
0.00146272
0.00452361
0.00157513
0.00440942
0.00169151
0.00428944
0.00181022
0.00417341
0.00193714
0.00405921
0.00207324
0.0039468
0.0022161
0.00384242
0.0023729
0.00371761
0.00253575
0.00357064
0.00270051
0.00338896
0.00286482
0.00320273
0.00303095
0.00301236
0.00322277
0.00281935
0.00344402
0.00260347
0.00371566
0.00232546
0.00401918
0.00197575
0.00434375
0.00152847
0.00472035
0.000923249
0.00518499
0.00575716
0.00570019
-1.65148e-06
0.00588578
-9.14303e-06
0.00582798
9.31661e-06
0.00576875
3.47288e-05
0.00576742
9.28429e-05
0.00577794
0.000119892
0.00578524
0.000124923
0.00578338
0.000132915
0.00577818
0.00014881
0.00576516
0.000166628
0.00574966
0.000188029
0.00573791
0.000211175
0.00572828
0.000237054
0.00571841
0.00026704
0.00570769
0.000302756
0.00569695
0.000344306
0.0056783
0.000392416
0.00564877
0.000448137
0.00561137
0.000510746
0.00556668
0.000578775
0.00551638
0.000650985
0.00546281
0.000726452
0.00540629
0.000804646
0.00534603
0.000884697
0.00528249
0.000966519
0.0052153
0.00105047
0.00514479
0.00113693
0.00507289
0.00122707
0.00500028
0.00132246
0.00492514
0.00142426
0.00484564
0.00153308
0.00475913
0.00164893
0.00465191
0.00176927
0.00453905
0.00189264
0.00443073
0.00202366
0.00432522
0.00216318
0.00422152
0.00231152
0.00413059
0.00247355
0.00401781
0.00264864
0.00388351
0.00282242
0.00372484
0.00299721
0.00355261
0.00317492
0.00338247
0.00337649
0.00321232
0.00360961
0.00304168
0.00389856
0.00281353
0.00424883
0.00251365
0.00463855
0.00211057
0.00511701
0.0015078
0.00578296
0.0072601
0.00843376
7.6055e-07
0.0076549
7.39104e-06
0.00829861
-7.29492e-06
0.00829627
2.75845e-05
0.00832321
7.81801e-05
0.00835851
0.000106015
0.00838491
0.000112262
0.00839268
0.000121028
0.00839364
0.00014104
0.00837994
0.000163943
0.00836029
0.000190574
0.00834482
0.000217681
0.00833304
0.000246741
0.00832109
0.000279742
0.00830515
0.000318931
0.00828701
0.000364572
0.0082603
0.000417524
0.0082187
0.000478517
0.0081657
0.00054694
0.00810356
0.000620919
0.00803463
0.000699112
0.00796145
0.000780341
0.00788424
0.00086379
0.00780193
0.000948592
0.00771556
0.0010346
0.00762517
0.00112236
0.00753048
0.00121234
0.00743397
0.00130568
0.0073377
0.00140405
0.00724014
0.00150879
0.00713872
0.00162056
0.00703003
0.00173953
0.00689778
0.00186272
0.00675794
0.00198865
0.00662544
0.00212401
0.0064946
0.00226934
0.00636691
0.00242055
0.0062714
0.00258363
0.00616301
0.00276312
0.00602407
0.00294588
0.0058647
0.00313005
0.00567766
0.0033151
0.00550554
0.00351734
0.00534776
0.00374745
0.00524563
0.00401873
0.00514851
0.00435546
0.00504814
0.00473157
0.00504644
0.00511038
0.00541141
0.00541288
0.00519928
0.00747338
0.00824005
-1.56713e-06
0.00856966
-6.1282e-06
0.00843366
7.83873e-06
0.00831312
1.69771e-05
0.00831778
5.87022e-05
0.00836482
7.71578e-05
0.00841426
7.62972e-05
0.00844639
9.14825e-05
0.00846408
0.000121374
0.00846338
0.000153579
0.00845002
0.000188224
0.00843297
0.000220786
0.00841701
0.000254725
0.00840145
0.000292715
0.00838126
0.000336729
0.00835728
0.000388079
0.00832557
0.000446851
0.00828186
0.000513246
0.00822811
0.000586846
0.00816704
0.000666092
0.00809975
0.000749336
0.00802817
0.000835075
0.00795276
0.000922396
0.00787279
0.00101047
0.00778953
0.00109914
0.0077039
0.00118901
0.00761617
0.00128085
0.0075283
0.00137601
0.00744177
0.0014761
0.00735539
0.00158219
0.00726747
0.00169513
0.007177
0.00181361
0.007072
0.0019388
0.00695026
0.00206982
0.0068374
0.00220584
0.00673234
0.00234982
0.00663269
0.00249984
0.00656575
0.00265934
0.00650667
0.00283619
0.00642745
0.00301897
0.00633209
0.00320086
0.00622312
0.00338151
0.0061323
0.00357044
0.00607402
0.00377527
0.00608443
0.00399607
0.00621399
0.00425015
0.00643133
0.00452368
0.00680189
0.00473692
0.00734316
0.00486043
0.00446188
0.00807361
0.00840307
1.65186e-06
0.00763129
3.8312e-06
0.00832414
-2.45133e-06
0.00831406
-1.95743e-05
0.00836708
7.41208e-06
0.00844712
1.99801e-05
0.00854998
1.75724e-05
0.00861798
4.11193e-05
0.00865497
8.67587e-05
0.00867314
0.000134907
0.00866368
0.000181991
0.00863605
0.000226739
0.00859851
0.000271377
0.00855835
0.000319285
0.00851538
0.000370829
0.00847171
0.00042793
0.00842505
0.000490939
0.00837071
0.000560305
0.00831001
0.000636454
0.00824625
0.000718196
0.00817886
0.000803858
0.00810827
0.000892352
0.00803486
0.000982101
0.00795743
0.00107218
0.00787613
0.00116243
0.00779353
0.00125339
0.00771131
0.00134546
0.00763149
0.00144061
0.00755369
0.00154054
0.00747796
0.00164568
0.00740444
0.00175582
0.00732789
0.00187464
0.00724009
0.00200159
0.00714012
0.00212985
0.00705076
0.00226329
0.00696973
0.00240407
0.00689726
0.00254916
0.00685652
0.00270093
0.00684285
0.00286811
0.00682026
0.00304246
0.00678408
0.0032145
0.00674911
0.00338135
0.00673059
0.00354526
0.00675415
0.00371276
0.00684208
0.00387836
0.00704592
0.00403839
0.00738221
0.00420837
0.00782281
0.00431283
0.00831467
0.00437804
0.0040968
0.00868341
0.00830822
-1.01935e-06
0.00872899
-4.2008e-06
0.00818681
-1.75749e-05
0.00839831
-0.000187271
0.0086518
-0.000226988
0.00880944
-0.000107917
0.00894107
-4.81471e-05
0.00900232
1.04888e-05
0.00902716
6.7821e-05
0.00904142
0.00012324
0.00904282
0.000179441
0.00901761
0.000236857
0.00895911
0.000295641
0.00888272
0.000357411
0.00880065
0.000421893
0.00872109
0.000488564
0.00864322
0.000559104
0.00856432
0.000633484
0.00848156
0.000711851
0.0083992
0.000794548
0.00832061
0.000879452
0.00823992
0.000967012
0.00815725
0.00105516
0.00807469
0.00114371
0.00799135
0.00123248
0.0079054
0.00132143
0.00782125
0.00141164
0.00774189
0.00150465
0.00766803
0.00160165
0.00759962
0.00170242
0.00753346
0.00181034
0.00746486
0.00192659
0.00739272
0.00204728
0.00731454
0.00217046
0.00724755
0.0022998
0.00718959
0.00243422
0.00714329
0.0025711
0.00712585
0.0027118
0.00714997
0.00286479
0.00717846
0.00302422
0.00720154
0.00318098
0.00722372
0.00332765
0.00726467
0.00346481
0.00734147
0.00359446
0.00746922
0.00371376
0.00766896
0.0038109
0.00798572
0.00389752
0.00838634
0.00393773
0.00887829
0.00390663
0.00380583
0.00918275
0.00841506
1.08892e-05
0.00751755
-2.03385e-05
0.00836321
-0.000117895
0.00892036
-0.000676799
0.00916878
-0.000525182
0.00923131
-0.000210921
0.00919131
-1.45143e-05
0.00912625
8.06305e-05
0.00907676
0.000124026
0.00904739
0.000162791
0.00903235
0.000204824
0.00902683
0.000252082
0.00901838
0.000307876
0.00899014
0.000373116
0.00891705
0.000445555
0.00883407
0.000525559
0.00875302
0.000608408
0.00867194
0.000694334
0.00858999
0.000782619
0.00850419
0.000871178
0.00842718
0.000961179
0.00834794
0.00105017
0.00826631
0.00113697
0.00818318
0.00122358
0.00809962
0.00130893
0.00801641
0.00139391
0.00793626
0.00148023
0.00785944
0.00156878
0.00778823
0.00165999
0.00772127
0.00175597
0.00765727
0.0018588
0.00759567
0.00196743
0.0075324
0.00207937
0.00747581
0.00219585
0.00743067
0.00231794
0.00739486
0.00244302
0.00737354
0.00256933
0.00737996
0.00269704
0.007431
0.00283276
0.00749778
0.00297344
0.00756702
0.00311127
0.00763488
0.00323742
0.00771483
0.0033487
0.00782412
0.00344571
0.0079696
0.00352809
0.00815925
0.00358571
0.00842001
0.00361774
0.00875043
0.00360923
0.00912353
0.00355666
0.00346059
0.0094961
0.00826287
6.14048e-05
0.00846259
-0.000241395
0.00826938
3.99404e-05
0.00855738
-0.00106174
0.00866718
-0.000657144
0.00871823
-0.000269519
0.00872767
-8.73292e-06
0.00870086
0.000129328
0.00867718
0.000164997
0.0086559
0.000199315
0.00865299
0.000221634
0.00865805
0.000254283
0.00867279
0.000298986
0.00869052
0.000356521
0.0086988
0.000429444
0.00867455
0.000514839
0.00863222
0.000609555
0.00858551
0.000709034
0.008533
0.000809664
0.00847482
0.000911203
0.00841297
0.00101171
0.00834446
0.00110877
0.00828301
0.00120258
0.00821893
0.00129209
0.00815012
0.00137791
0.00808045
0.00146235
0.00801161
0.00154539
0.00794527
0.00162895
0.00788085
0.00171434
0.00782088
0.00180343
0.00776482
0.00189814
0.00770744
0.00199677
0.00765395
0.0020988
0.00761427
0.00220521
0.00758746
0.00231667
0.00757231
0.00243003
0.00757302
0.00254344
0.00759873
0.00265632
0.00767042
0.00277447
0.00776569
0.00289554
0.00787095
0.00301312
0.00797541
0.00312043
0.00808311
0.00321102
0.00820829
0.00328238
0.00835793
0.00333625
0.00853535
0.00336749
0.00874849
0.00337036
0.00901145
0.00332526