/*--------------------------------*- C++ -*----------------------------------*\
| =========                 |                                                 |
| \\      /  F ield         | OpenFOAM: The Open Source CFD Toolbox           |
|  \\    /   O peration     | Version:  2412                                  |
|   \\  /    A nd           | Website:  www.openfoam.com                      |
|    \\/     M anipulation  |                                                 |
\*---------------------------------------------------------------------------*/
FoamFile
{
    version     2.0;
    format      ascii;
    arch        "LSB;label=32;scalar=64";
    class       volScalarField;
    location    "9.5";
    object      T;
}
// * * * * * * * * * * * * * * * * * * * * * * * * * * * * * * * * * * * * * //

dimensions      [0 0 0 1 0 0 0];

internalField   nonuniform List<scalar> 
7000
(
1.0935
1.32681
1.90331
2.48579
2.71898
2.69835
2.6783
2.66433
2.6594
2.65978
2.6602
2.66131
2.6621
2.66286
2.66368
2.66438
2.66299
2.65964
2.65828
2.65807
2.65871
2.66255
2.67354
2.68917
2.70219
2.70922
2.71118
2.71029
2.70573
2.70108
2.70013
2.70352
2.72317
2.75404
2.77137
2.77477
2.76949
2.76216
2.76368
2.78102
2.7983
2.79957
2.7864
2.76402
2.75647
2.76086
2.772
2.76665
2.75921
2.7725
1.09368
1.32709
1.90077
2.48585
2.71961
2.69823
2.67774
2.66422
2.65973
2.66025
2.66084
2.66189
2.6625
2.66316
2.66392
2.66455
2.66308
2.65963
2.65824
2.65801
2.65862
2.6624
2.67329
2.68894
2.70201
2.70907
2.71104
2.71017
2.70563
2.70091
2.69986
2.70284
2.72109
2.75223
2.77068
2.7749
2.77036
2.76263
2.76352
2.77881
2.7951
2.79625
2.78373
2.76289
2.75622
2.76111
2.77201
2.76665
2.75838
2.77122
1.09558
1.32644
1.90308
2.49768
2.72337
2.69832
2.67742
2.66416
2.65944
2.65981
2.66023
2.66138
2.6622
2.66299
2.66381
2.66446
2.663
2.65959
2.65825
2.65805
2.65871
2.66263
2.67367
2.68921
2.70217
2.70917
2.71112
2.71026
2.70574
2.70106
2.70004
2.70312
2.72158
2.75233
2.77045
2.77459
2.77013
2.7628
2.76388
2.7792
2.79414
2.79441
2.78061
2.761
2.75531
2.76062
2.77173
2.76683
2.75766
2.77001
1.0945
1.32336
1.90076
2.48667
2.71817
2.6969
2.67736
2.66373
2.65928
2.65982
2.66051
2.66162
2.66223
2.66287
2.66361
2.66418
2.66266
2.6593
2.65803
2.65786
2.65852
2.66242
2.67337
2.68884
2.70184
2.70894
2.71097
2.71019
2.70585
2.70122
2.70021
2.70327
2.72166
2.7521
2.76986
2.77383
2.76942
2.76236
2.76354
2.77884
2.79335
2.79348
2.77945
2.7596
2.75388
2.75942
2.77101
2.76692
2.75677
2.76837
1.09391
1.32597
1.89852
2.4874
2.71742
2.69599
2.67698
2.66356
2.65911
2.65967
2.66024
2.66133
2.66195
2.66262
2.66338
2.66398
2.66255
2.65912
2.65775
2.65756
2.65821
2.66208
2.67297
2.68828
2.7011
2.7081
2.71013
2.70943
2.70538
2.70105
2.70017
2.70338
2.72206
2.75212
2.76944
2.77313
2.76847
2.76138
2.76257
2.77797
2.7928
2.79314
2.77937
2.75874
2.75246
2.75757
2.76974
2.76663
2.75554
2.76673
1.09437
1.33079
1.89306
2.4904
2.71933
2.69665
2.67655
2.66296
2.65898
2.65963
2.66054
2.66159
2.66207
2.6626
2.66321
2.66364
2.66202
2.65876
2.65767
2.65758
2.65834
2.66239
2.67332
2.68834
2.70085
2.70758
2.70948
2.70875
2.70476
2.70066
2.69991
2.70323
2.72205
2.75186
2.76885
2.77238
2.76732
2.75933
2.76017
2.77554
2.79197
2.79303
2.77998
2.75839
2.75131
2.75595
2.76835
2.76601
2.75452
2.76457
1.09273
1.33073
1.89225
2.49049
2.71694
2.69461
2.67583
2.66278
2.65888
2.65955
2.66029
2.66114
2.66152
2.66201
2.6626
2.66308
2.66158
2.6584
2.65732
2.65725
2.65802
2.66206
2.67288
2.68769
2.70007
2.70682
2.70878
2.70814
2.70437
2.70038
2.69963
2.70289
2.7215
2.75114
2.76821
2.77183
2.76672
2.75798
2.75834
2.77304
2.79091
2.79282
2.78088
2.75834
2.75026
2.754
2.76632
2.76483
2.75289
2.763
1.09249
1.33073
1.88673
2.48998
2.71573
2.69335
2.67453
2.66161
2.65836
2.65926
2.66038
2.66117
2.66144
2.6618
2.6623
2.66267
2.66109
2.658
2.65702
2.65701
2.65783
2.66194
2.67273
2.68731
2.69958
2.70634
2.70837
2.70785
2.70442
2.70058
2.69983
2.70299
2.72109
2.75013
2.76691
2.77055
2.76551
2.75645
2.75655
2.77084
2.78968
2.79227
2.78118
2.75802
2.74902
2.75204
2.76413
2.7633
2.75166
2.7601
1.0942
1.33109
1.87904
2.49459
2.71749
2.69239
2.67242
2.65997
2.65775
2.65898
2.66059
2.66132
2.66149
2.66174
2.66208
2.66227
2.66051
2.65763
2.65683
2.65688
2.65779
2.66199
2.67263
2.6867
2.69859
2.70522
2.70731
2.70698
2.70411
2.70064
2.7
2.70307
2.72057
2.74908
2.76578
2.76949
2.76438
2.75412
2.75338
2.76631
2.78709
2.79082
2.78089
2.75722
2.74718
2.74962
2.76146
2.76095
2.74908
2.75799
1.09399
1.32828
1.88259
2.50069
2.71481
2.69005
2.67077
2.65837
2.65709
2.65882
2.66092
2.66166
2.66178
2.66191
2.66204
2.66186
2.65949
2.65688
2.65634
2.6565
2.65763
2.66217
2.67283
2.68623
2.69755
2.70388
2.70593
2.70571
2.70335
2.70043
2.69997
2.70306
2.72019
2.74773
2.7639
2.76752
2.76223
2.75063
2.7488
2.75972
2.78145
2.7869
2.77909
2.75525
2.74349
2.7453
2.7575
2.75827
2.74615
2.75325
1.09565
1.32534
1.87814
2.49474
2.71449
2.68937
2.669
2.65659
2.65608
2.65814
2.6606
2.6615
2.66165
2.66179
2.66189
2.66163
2.65906
2.65657
2.65615
2.65638
2.65764
2.66239
2.67289
2.68557
2.69643
2.70268
2.70483
2.7048
2.70303
2.7005
2.70015
2.70317
2.71977
2.74661
2.76252
2.76616
2.76081
2.74784
2.74479
2.75383
2.77552
2.78205
2.77572
2.75342
2.74107
2.74207
2.75371
2.75494
2.74375
2.75036
1.09419
1.32163
1.87143
2.50169
2.71452
2.68745
2.66638
2.65464
2.65484
2.65734
2.6601
2.66115
2.66131
2.66143
2.66148
2.66111
2.65836
2.65603
2.65573
2.65605
2.65746
2.66245
2.67282
2.68482
2.69527
2.70143
2.70367
2.70381
2.70255
2.70044
2.7002
2.70317
2.71903
2.74461
2.75996
2.76362
2.75849
2.74492
2.74092
2.74849
2.76959
2.7769
2.77152
2.74997
2.73676
2.73732
2.7483
2.74999
2.73827
2.74388
1.09178
1.3226
1.86558
2.5113
2.71341
2.6853
2.66337
2.65222
2.65311
2.65683
2.66004
2.66113
2.66124
2.66125
2.66111
2.66041
2.65741
2.65557
2.65549
2.65594
2.65753
2.66253
2.6726
2.6833
2.69293
2.69921
2.70185
2.70231
2.70165
2.70022
2.70015
2.70313
2.71847
2.74264
2.75705
2.76047
2.75546
2.74144
2.7365
2.74278
2.76343
2.77199
2.76767
2.74652
2.73184
2.73164
2.74288
2.7455
2.73439
2.73961
1.09279
1.32964
1.87284
2.5184
2.71044
2.68238
2.66198
2.6501
2.65094
2.65499
2.65883
2.66042
2.66072
2.66083
2.6607
2.65984
2.65653
2.65503
2.6551
2.65574
2.65763
2.663
2.67261
2.68255
2.69112
2.69713
2.70001
2.70073
2.70046
2.69971
2.6998
2.70283
2.71748
2.74044
2.7545
2.75804
2.75343
2.73951
2.73403
2.73927
2.7587
2.76744
2.76374
2.74314
2.72608
2.72435
2.73406
2.738
2.72672
2.73
1.1144
1.32915
1.86783
2.51369
2.71052
2.6818
2.65922
2.64762
2.64865
2.65327
2.65785
2.65992
2.66037
2.66054
2.66032
2.65906
2.65539
2.65444
2.65469
2.65559
2.65787
2.66368
2.6726
2.6818
2.68946
2.6952
2.69838
2.69937
2.6993
2.69887
2.69901
2.70197
2.71568
2.73668
2.74943
2.75268
2.74851
2.7351
2.72906
2.7334
2.75235
2.76227
2.75929
2.73843
2.71984
2.71683
2.72576
2.72917
2.71835
2.72287
1.11376
1.32673
1.86609
2.51918
2.70973
2.68047
2.65624
2.64456
2.6457
2.65087
2.65644
2.65921
2.65993
2.66019
2.65985
2.65809
2.65438
2.65407
2.65451
2.65568
2.65831
2.66422
2.67226
2.68065
2.68754
2.69294
2.69655
2.69811
2.69831
2.69811
2.69821
2.70066
2.71286
2.73299
2.74545
2.74868
2.74467
2.73066
2.7233
2.72624
2.74426
2.75579
2.75403
2.73507
2.71154
2.70593
2.71306
2.71876
2.70889
2.70768
1.09424
1.31328
1.87089
2.53542
2.71023
2.67947
2.65402
2.64187
2.64306
2.64852
2.65482
2.65824
2.65922
2.65962
2.6593
2.65725
2.65388
2.65389
2.65455
2.65605
2.65939
2.66527
2.67213
2.67923
2.68499
2.68961
2.69346
2.69583
2.69668
2.69679
2.69705
2.69922
2.70977
2.72806
2.73975
2.74294
2.73951
2.72557
2.71637
2.71758
2.73324
2.7469
2.74629
2.729
2.70436
2.69449
2.69849
2.70266
2.69158
2.6935
1.09545
1.31058
1.87301
2.53895
2.7097
2.67922
2.65201
2.63861
2.63974
2.64524
2.65243
2.6568
2.65821
2.65885
2.65863
2.65666
2.65377
2.65394
2.6548
2.65663
2.6604
2.66578
2.6716
2.67768
2.68274
2.68679
2.69056
2.69338
2.69468
2.695
2.69538
2.69725
2.70631
2.7231
2.73394
2.73691
2.73376
2.71947
2.70809
2.70758
2.72009
2.73603
2.73759
2.7238
2.69338
2.67945
2.6807
2.68378
2.67202
2.66486
1.09539
1.31794
1.86926
2.55233
2.71021
2.67925
2.64954
2.63502
2.63617
2.64198
2.65006
2.65521
2.65696
2.65769
2.65745
2.65565
2.65387
2.65433
2.65554
2.65795
2.66162
2.6659
2.6702
2.67515
2.67969
2.68345
2.68711
2.69002
2.69145
2.69182
2.69212
2.6935
2.70071
2.71623
2.72722
2.73059
2.72839
2.71509
2.70033
2.69729
2.70574
2.72216
2.72479
2.71536
2.68329
2.66144
2.65632
2.65482
2.64074
2.62597
1.09635
1.30829
1.87511
2.55998
2.71067
2.67919
2.64707
2.6314
2.6325
2.63845
2.64764
2.65402
2.65652
2.65753
2.65736
2.6557
2.65402
2.65447
2.6557
2.65825
2.66191
2.66583
2.66901
2.67248
2.67601
2.67945
2.68335
2.68681
2.68868
2.6892
2.68948
2.69059
2.69654
2.70981
2.71914
2.72189
2.71989
2.70678
2.69011
2.68417
2.68866
2.70533
2.71065
2.70456
2.67424
2.63913
2.62669
2.61642
2.58708
2.51201
1.11429
1.31715
1.86928
2.5738
2.71298
2.67973
2.64472
2.62682
2.62766
2.63315
2.64262
2.65012
2.65356
2.65495
2.65529
2.6547
2.65417
2.65479
2.65629
2.65871
2.66138
2.66423
2.66639
2.66888
2.67175
2.67444
2.67763
2.68097
2.68318
2.68395
2.68422
2.68506
2.68975
2.70136
2.71039
2.7132
2.712
2.70108
2.67985
2.66825
2.66771
2.67771
2.68537
2.68279
2.66151
2.61355
2.577
2.55023
2.49692
2.37099
1.09898
1.30777
1.87786
2.58739
2.71627
2.68152
2.64343
2.62095
2.62105
2.62503
2.6328
2.64181
2.64842
2.65203
2.65393
2.65506
2.65567
2.65662
2.65811
2.65947
2.66098
2.66268
2.66409
2.66601
2.66855
2.671
2.67364
2.6762
2.67773
2.67806
2.67803
2.67817
2.68069
2.68923
2.69684
2.69937
2.69862
2.69068
2.66969
2.65256
2.64649
2.6497
2.65568
2.65385
2.64227
2.59971
2.54151
2.48373
2.41105
2.33126
1.11686
1.31193
1.87218
2.59366
2.7177
2.68128
2.64151
2.61049
2.60756
2.60956
2.61531
2.62637
2.63736
2.6461
2.65147
2.65491
2.65667
2.65793
2.65952
2.66004
2.66031
2.66076
2.66116
2.66203
2.66409
2.66641
2.66877
2.67038
2.67074
2.67054
2.66964
2.66935
2.67036
2.67628
2.68261
2.68456
2.68385
2.67738
2.65769
2.63664
2.6248
2.62313
2.62503
2.62333
2.6155
2.59182
2.53134
2.47158
2.37987
2.32162
1.09998
1.31214
1.8988
2.58672
2.71948
2.67112
2.63059
2.59483
2.58962
2.59128
2.59493
2.60104
2.61305
2.62907
2.64337
2.65352
2.65952
2.66226
2.66322
2.66285
2.66097
2.65831
2.65688
2.65649
2.65679
2.65816
2.66089
2.66309
2.66381
2.66355
2.66303
2.66197
2.66283
2.66737
2.67188
2.67288
2.67203
2.66666
2.64904
2.62496
2.60697
2.59886
2.59659
2.59345
2.58673
2.57373
2.53319
2.48455
2.39524
2.33144
1.1129
1.31636
1.85025
2.4817
2.69283
2.65154
2.63442
2.60866
2.5988
2.60047
2.60093
2.60169
2.60291
2.60664
2.6192
2.63773
2.65316
2.66259
2.66769
2.66898
2.66684
2.66142
2.6569
2.65339
2.6509
2.64981
2.64968
2.65002
2.65033
2.65099
2.65124
2.65184
2.65415
2.65816
2.66013
2.66012
2.65886
2.65351
2.63751
2.61353
2.59144
2.57804
2.57146
2.56667
2.55899
2.54928
2.5281
2.4912
2.43588
2.36601
1.11369
1.37882
2.03141
2.51024
2.67193
2.64311
2.63068
2.6089
2.59858
2.59955
2.59956
2.60071
2.60273
2.60406
2.60751
2.61625
2.63349
2.64857
2.6593
2.66654
2.6693
2.66923
2.66631
2.65934
2.65379
2.64946
2.64576
2.64303
2.64085
2.64042
2.63997
2.64121
2.64516
2.64866
2.64947
2.64906
2.64738
2.64243
2.62837
2.60509
2.5808
2.56219
2.55121
2.54436
2.53661
2.52822
2.51491
2.49433
2.45704
2.41343
1.09172
1.62707
2.46216
2.55466
2.59844
2.58502
2.56656
2.56213
2.56359
2.56737
2.57359
2.58058
2.5815
2.58133
2.58137
2.58256
2.58709
2.60186
2.62844
2.65046
2.66358
2.66897
2.66975
2.66871
2.66445
2.65679
2.6498
2.64387
2.63986
2.63698
2.63579
2.63628
2.63941
2.64284
2.64346
2.64301
2.64132
2.63648
2.6233
2.60131
2.57661
2.55342
2.53636
2.52655
2.51848
2.50981
2.50115
2.48764
2.46641
2.43977
1.11607
1.61651
2.46786
2.55405
2.59405
2.58063
2.56311
2.5585
2.55954
2.5623
2.56791
2.57737
2.58541
2.58878
2.5894
2.5882
2.58581
2.58634
2.58926
2.598
2.61385
2.63023
2.64375
2.65137
2.65261
2.65146
2.64815
2.64394
2.64036
2.63778
2.63579
2.63527
2.63554
2.63589
2.6359
2.63526
2.63272
2.62626
2.61276
2.59354
2.57173
2.54869
2.52782
2.5099
2.50019
2.49039
2.48095
2.47397
2.46102
2.44691
1.13045
1.62872
2.4554
2.55846
2.59443
2.57889
2.55904
2.55261
2.55484
2.55786
2.56225
2.57011
2.58014
2.58765
2.59114
2.59171
2.59034
2.58464
2.57791
2.57575
2.57682
2.58051
2.58971
2.5999
2.60788
2.61771
2.62653
2.63162
2.63384
2.63437
2.63416
2.63374
2.63309
2.63149
2.62657
2.61906
2.6114
2.6017
2.58959
2.57466
2.5581
2.53878
2.5197
2.50153
2.48507
2.4739
2.46279
2.45285
2.44284
2.43671
1.12857
1.63215
2.45416
2.55551
2.59142
2.57642
2.55595
2.54974
2.5513
2.55489
2.55967
2.56642
2.57559
2.58397
2.58868
2.58983
2.58907
2.58481
2.57781
2.57138
2.5677
2.56751
2.56885
2.57162
2.57549
2.57951
2.58427
2.59127
2.60411
2.61628
2.62314
2.62498
2.62462
2.62247
2.61546
2.60309
2.59105
2.57963
2.56857
2.55632
2.54385
2.53049
2.51532
2.5006
2.48424
2.4709
2.45801
2.44657
2.43641
2.42505
1.0914
1.64174
2.46698
2.54447
2.58354
2.57076
2.55293
2.55092
2.55227
2.55648
2.56197
2.57014
2.58021
2.58827
2.59224
2.59296
2.59201
2.58751
2.57981
2.5728
2.56832
2.56573
2.56465
2.5645
2.56425
2.56329
2.56307
2.56346
2.56508
2.56928
2.57842
2.59002
2.59803
2.59895
2.5976
2.59382
2.58513
2.57404
2.56294
2.55143
2.54039
2.52949
2.51605
2.50293
2.48732
2.47386
2.46088
2.4489
2.43916
2.42727
1.03315
1.65407
2.49194
2.53294
2.57366
2.56466
2.54732
2.54315
2.54473
2.54837
2.55344
2.55846
2.56722
2.57365
2.57724
2.57811
2.57755
2.57447
2.56965
2.56662
2.56585
2.56617
2.56775
2.56964
2.57011
2.56977
2.56778
2.5642
2.5614
2.56042
2.56081
2.56314
2.57084
2.58214
2.58854
2.58924
2.58724
2.58074
2.56977
2.55763
2.54547
2.53457
2.52194
2.51069
2.49747
2.48391
2.47288
2.45838
2.44947
2.4378
1.10821
1.35336
1.9847
2.48745
2.64679
2.62397
2.60366
2.59309
2.57837
2.57859
2.57583
2.57259
2.57166
2.5734
2.57983
2.58551
2.5874
2.58743
2.58526
2.58172
2.58113
2.58192
2.58505
2.58942
2.59253
2.59354
2.59296
2.58982
2.58115
2.57181
2.56695
2.5663
2.56841
2.57657
2.58714
2.59361
2.5962
2.59577
2.59294
2.58554
2.57201
2.55907
2.54401
2.5318
2.51825
2.50249
2.49076
2.47576
2.46577
2.45532
1.0973
1.29314
1.859
2.55966
2.70083
2.65191
2.63353
2.60247
2.59252
2.5969
2.60167
2.60603
2.60767
2.61172
2.62088
2.63078
2.63676
2.63902
2.63911
2.63749
2.63131
2.62287
2.61571
2.60914
2.6045
2.60246
2.6017
2.60073
2.5993
2.59689
2.59256
2.58818
2.58646
2.58816
2.59545
2.60498
2.60947
2.61005
2.60929
2.60648
2.59833
2.58489
2.56737
2.54954
2.53295
2.51424
2.50017
2.48333
2.47156
2.46064
1.11966
1.28326
1.85436
2.57821
2.69688
2.65459
2.64466
2.62177
2.6225
2.62704
2.63475
2.64021
2.64348
2.64708
2.65219
2.65614
2.65739
2.65739
2.65672
2.65405
2.64497
2.62701
2.61007
2.5972
2.5896
2.58618
2.58585
2.58754
2.5918
2.59586
2.5999
2.60321
2.60577
2.60884
2.61264
2.61536
2.61595
2.61552
2.61397
2.6103
2.60133
2.5875
2.57025
2.55103
2.53348
2.51299
2.49726
2.47924
2.46483
2.45248
1.03144
1.61723
2.39651
2.5051
2.56113
2.54958
2.54997
2.55252
2.56327
2.57662
2.58851
2.59803
2.60556
2.61303
2.62185
2.63183
2.64036
2.64452
2.64548
2.6448
2.64015
2.62693
2.60887
2.59191
2.57861
2.56879
2.56354
2.56274
2.56433
2.57127
2.58463
2.59558
2.60352
2.60956
2.61371
2.61534
2.61532
2.61444
2.61128
2.60383
2.59088
2.57519
2.55798
2.53841
2.52059
2.5009
2.4842
2.46743
2.45255
2.44006
1.12003
1.26988
1.84495
2.58722
2.6687
2.6535
2.63011
2.61714
2.61077
2.61321
2.61312
2.61178
2.61086
2.61083
2.61081
2.61138
2.61273
2.61445
2.61604
2.61713
2.61718
2.61519
2.60683
2.59606
2.58763
2.57783
2.56818
2.56334
2.56237
2.5629
2.56536
2.5719
2.57972
2.58686
2.59318
2.597
2.59778
2.59724
2.59479
2.58833
2.5777
2.56407
2.54957
2.5324
2.51567
2.4978
2.48174
2.46622
2.45207
2.43997
1.1223
1.2572
1.84516
2.63619
2.71081
2.65955
2.64636
2.6203
2.61638
2.62057
2.62546
2.63074
2.63133
2.63065
2.62925
2.62631
2.62057
2.61317
2.60643
2.60123
2.59863
2.59794
2.59691
2.59458
2.59255
2.59097
2.58859
2.58424
2.57809
2.57261
2.56975
2.5677
2.5664
2.56639
2.56669
2.56698
2.56779
2.56892
2.56875
2.56772
2.56536
2.55978
2.55193
2.53984
2.52637
2.51107
2.49558
2.48018
2.46533
2.45223
1.10412
1.24867
1.84748
2.65389
2.70815
2.66635
2.65315
2.62498
2.61916
2.62296
2.62786
2.6332
2.63428
2.63388
2.63287
2.63017
2.62305
2.61277
2.60343
2.59431
2.58719
2.5827
2.58131
2.5819
2.58425
2.58632
2.5866
2.58616
2.58471
2.5809
2.575
2.56978
2.56529
2.5613
2.55829
2.55635
2.5554
2.55528
2.55588
2.55646
2.55632
2.55536
2.55319
2.54888
2.54322
2.53591
2.52649
2.51457
2.50154
2.48821
1.10636
1.2375
1.84173
2.63733
2.67961
2.67257
2.64771
2.6258
2.62413
2.62934
2.63492
2.63731
2.63674
2.63418
2.62715
2.61668
2.6044
2.59196
2.57943
2.5691
2.56233
2.55907
2.55833
2.5589
2.562
2.56799
2.57242
2.57593
2.57956
2.58162
2.58178
2.58083
2.57789
2.57452
2.57066
2.56676
2.56306
2.56053
2.55957
2.5587
2.55808
2.55675
2.55534
2.55327
2.55003
2.54595
2.53936
2.53234
2.52103
2.51024
0.987876
1.5302
2.26999
2.5196
2.60545
2.58112
2.56532
2.56472
2.57
2.58171
2.59269
2.60054
2.60567
2.60705
2.60662
2.60512
2.60144
2.59715
2.59001
2.58007
2.57026
2.56286
2.55894
2.55795
2.55846
2.56074
2.56381
2.5669
2.57113
2.57603
2.58105
2.58642
2.59085
2.59343
2.59395
2.59349
2.59209
2.58877
2.58397
2.57749
2.57166
2.56537
2.55971
2.5547
2.5502
2.54614
2.54079
2.53397
2.52517
2.51531
1.12485
1.23971
1.83629
2.63321
2.69018
2.67502
2.64452
2.62545
2.61284
2.61323
2.61004
2.60572
2.60391
2.60234
2.60239
2.60422
2.60957
2.61401
2.61468
2.61363
2.60981
2.60321
2.59599
2.58794
2.5799
2.57378
2.57051
2.56977
2.56998
2.57068
2.57278
2.57759
2.58434
2.59013
2.59377
2.59575
2.59619
2.59589
2.5947
2.59115
2.58355
2.57344
2.56205
2.5513
2.54098
2.53243
2.52402
2.51687
2.50892
2.50128
1.11045
1.23227
1.85275
2.66187
2.71665
2.6985
2.67318
2.65217
2.63272
2.6309
2.62237
2.61003
2.60014
2.59223
2.58771
2.58753
2.5892
2.5941
2.59881
2.60242
2.60482
2.60486
2.60442
2.60335
2.60205
2.59946
2.59488
2.58935
2.58369
2.58008
2.57921
2.5797
2.58107
2.58252
2.58405
2.58603
2.58826
2.58942
2.58937
2.58817
2.58365
2.57385
2.561
2.54701
2.53226
2.51814
2.50542
2.49343
2.48318
2.47382
1.10287
1.3857
2.07612
2.44137
2.61211
2.59783
2.59637
2.59067
2.59279
2.59738
2.59755
2.5967
2.59437
2.59412
2.59581
2.59895
2.60062
2.60118
2.60127
2.6012
2.60111
2.60146
2.60233
2.60254
2.60238
2.6024
2.60279
2.60279
2.60252
2.60183
2.60065
2.59827
2.59487
2.59151
2.58811
2.58362
2.57832
2.57426
2.57239
2.57133
2.56907
2.56344
2.55294
2.54054
2.52697
2.51301
2.49999
2.48745
2.4767
2.46698
1.1008
1.35112
1.98539
2.39706
2.61389
2.60513
2.59694
2.58015
2.57488
2.57652
2.57931
2.58399
2.59505
2.61562
2.63596
2.649
2.65429
2.65462
2.65176
2.64298
2.6315
2.62052
2.61143
2.60522
2.60195
2.60077
2.60074
2.60142
2.60237
2.60257
2.60239
2.60167
2.59969
2.59594
2.58936
2.58134
2.57185
2.56292
2.55568
2.54919
2.54351
2.53759
2.5308
2.52318
2.51476
2.50599
2.49722
2.48824
2.47993
2.47243
1.10115
1.34353
1.97378
2.38514
2.61375
2.61882
2.61164
2.58917
2.58312
2.58558
2.59066
2.60318
2.63189
2.66105
2.6789
2.68612
2.68708
2.68431
2.67334
2.65357
2.63125
2.60996
2.5924
2.57785
2.56815
2.5629
2.56121
2.56158
2.56331
2.56484
2.56741
2.57261
2.57692
2.57813
2.57762
2.57554
2.5705
2.56409
2.55765
2.55075
2.5442
2.53717
2.53012
2.52269
2.51527
2.50801
2.50101
2.49491
2.48939
2.48466
1.12825
1.21285
1.80018
2.65349
2.70933
2.69409
2.67451
2.64768
2.61961
2.60673
2.60299
2.60428
2.61322
2.62722
2.63682
2.64254
2.64538
2.64589
2.64484
2.64007
2.62843
2.61376
2.59876
2.58438
2.5727
2.56432
2.55816
2.55385
2.55099
2.54919
2.54837
2.54829
2.54859
2.55035
2.55527
2.56187
2.56677
2.56902
2.56917
2.56862
2.5671
2.56335
2.55731
2.54934
2.54069
2.53187
2.52242
2.51312
2.50316
2.49363
1.126
1.30544
1.92977
2.32668
2.62708
2.64286
2.63039
2.60552
2.60443
2.60842
2.62366
2.64532
2.65802
2.66046
2.65808
2.65001
2.64126
2.63529
2.63155
2.62847
2.62447
2.61925
2.61281
2.6054
2.59767
2.59036
2.58371
2.57657
2.56849
2.56053
2.55433
2.55019
2.54768
2.54672
2.54707
2.54973
2.55594
2.56165
2.56537
2.56706
2.56733
2.56703
2.56588
2.56267
2.55593
2.54698
2.53639
2.52499
2.51271
2.50066
1.13313
1.27144
1.89462
2.29104
2.61435
2.64124
2.62139
2.59825
2.59967
2.60973
2.64162
2.67853
2.6977
2.70353
2.70176
2.68854
2.66198
2.6367
2.61592
2.60181
2.59461
2.59095
2.5886
2.58667
2.58517
2.58373
2.58155
2.57874
2.5761
2.574
2.57208
2.57023
2.56858
2.5674
2.56707
2.56744
2.56862
2.56952
2.56966
2.56927
2.56777
2.56513
2.5619
2.55731
2.55109
2.54297
2.53343
2.52254
2.51081
2.49917
1.11725
1.19967
1.82445
2.64223
2.71204
2.709
2.68915
2.64245
2.61575
2.61075
2.61378
2.62154
2.62919
2.6368
2.64173
2.64332
2.64288
2.64046
2.6348
2.62785
2.62056
2.61295
2.60545
2.59848
2.59197
2.5858
2.58033
2.57608
2.57289
2.57072
2.56961
2.56968
2.57099
2.57395
2.57642
2.57737
2.57736
2.57701
2.57589
2.5731
2.5687
2.5637
2.5581
2.55103
2.5429
2.53351
2.52344
2.51283
2.50198
2.49166
1.08687
1.31486
1.788
2.32383
2.61399
2.65157
2.63583
2.61961
2.62273
2.63771
2.66662
2.68052
2.68256
2.67784
2.66503
2.65301
2.6459
2.64221
2.63909
2.63478
2.62909
2.62264
2.6163
2.61016
2.60333
2.59552
2.58778
2.58101
2.57575
2.57226
2.57043
2.57013
2.57083
2.57252
2.57315
2.57304
2.57247
2.57099
2.56803
2.56436
2.55953
2.55386
2.54758
2.54074
2.53391
2.52629
2.51865
2.51028
2.50159
2.4932
1.09465
1.31418
1.81836
2.32418
2.62073
2.64542
2.61988
2.61281
2.62449
2.65739
2.69395
2.7075
2.70779
2.70081
2.68376
2.6645
2.64736
2.63215
2.61928
2.61025
2.60385
2.59918
2.59554
2.59227
2.58893
2.58552
2.58259
2.58085
2.58051
2.58124
2.58331
2.58468
2.58481
2.58453
2.58338
2.5802
2.57537
2.56965
2.56346
2.55689
2.55019
2.54358
2.53733
2.53146
2.52582
2.52018
2.51422
2.50806
2.50155
2.49536
1.10063
1.30046
1.83779
2.33206
2.6174
2.64471
2.62451
2.62347
2.63861
2.67533
2.70878
2.71823
2.71629
2.70499
2.68355
2.65908
2.63492
2.61212
2.59453
2.5837
2.57745
2.57411
2.57245
2.5718
2.57183
2.57308
2.57754
2.58501
2.59286
2.59978
2.60439
2.60627
2.60638
2.60539
2.60145
2.59334
2.58491
2.57635
2.56832
2.56016
2.55195
2.54384
2.5357
2.52783
2.52012
2.51283
2.50584
2.49916
2.49249
2.48608
1.10477
1.3187
1.85846
2.36886
2.62553
2.64634
2.6323
2.63288
2.64553
2.67975
2.71936
2.73217
2.72952
2.7102
2.67344
2.63732
2.60798
2.58645
2.57381
2.56753
2.56463
2.56366
2.56385
2.56577
2.5726
2.58637
2.60195
2.6166
2.62805
2.63502
2.63776
2.6378
2.63524
2.62726
2.61521
2.60302
2.59166
2.58022
2.56976
2.55871
2.54736
2.53518
2.52245
2.50995
2.49814
2.48738
2.47804
2.46949
2.46231
2.45594
1.12404
1.23537
1.81462
2.69479
2.75378
2.73456
2.68354
2.62985
2.61908
2.62311
2.63912
2.65486
2.65979
2.65869
2.65456
2.64825
2.64104
2.63426
2.62992
2.62783
2.62666
2.62463
2.61922
2.60958
2.60113
2.59654
2.59551
2.59632
2.5994
2.60332
2.60587
2.60675
2.60633
2.60372
2.59721
2.58888
2.57932
2.56873
2.55729
2.54509
2.53279
2.52083
2.50903
2.49784
2.4877
2.47786
2.46986
2.46215
2.45589
2.45056
1.12041
1.23086
1.80371
2.70913
2.74123
2.72457
2.69103
2.64164
2.61896
2.61476
2.61423
2.61595
2.62318
2.64282
2.66516
2.68044
2.68729
2.68772
2.68259
2.6705
2.66221
2.65446
2.64087
2.62203
2.60117
2.58019
2.56246
2.55097
2.54515
2.54341
2.54356
2.54489
2.54726
2.54891
2.54951
2.54939
2.54812
2.54539
2.54045
2.53532
2.52922
2.52246
2.51597
2.50947
2.5041
2.49882
2.49437
2.49
2.48597
2.48231
1.12986
1.23632
1.84574
2.6855
2.77199
2.7402
2.69765
2.64614
2.62525
2.62305
2.62432
2.62579
2.62842
2.63718
2.65529
2.6709
2.67921
2.68086
2.67906
2.6738
2.66678
2.65496
2.63415
2.60945
2.58609
2.56552
2.54909
2.53899
2.53454
2.53357
2.53388
2.53507
2.5365
2.53746
2.53795
2.53823
2.53851
2.5393
2.54124
2.54396
2.54649
2.54874
2.55015
2.55029
2.55005
2.54938
2.54785
2.54448
2.53756
2.53029
1.12543
1.30941
1.97864
2.33549
2.60742
2.64387
2.63914
2.64567
2.6759
2.7225
2.74329
2.74074
2.71673
2.67773
2.64341
2.61897
2.60512
2.59939
2.59846
2.5998
2.60141
2.60113
2.59934
2.59661
2.59505
2.59502
2.59668
2.60085
2.60526
2.60898
2.61139
2.61186
2.60981
2.60132
2.58562
2.57024
2.55728
2.54768
2.54149
2.53813
2.53676
2.53665
2.53709
2.53727
2.53709
2.53652
2.53515
2.53205
2.5255
2.51861
1.08469
1.29466
1.86187
2.3174
2.60204
2.64011
2.64937
2.67479
2.7189
2.74668
2.75304
2.7397
2.70466
2.66967
2.63576
2.60672
2.58605
2.57333
2.567
2.56402
2.56369
2.56667
2.57685
2.59134
2.60467
2.61555
2.62303
2.62698
2.62816
2.62795
2.62668
2.62314
2.61556
2.603
2.58654
2.56762
2.54884
2.53171
2.51748
2.50642
2.49827
2.49285
2.48911
2.48651
2.48477
2.48308
2.48142
2.4796
2.47659
2.47376
1.10794
1.30814
1.8569
2.33035
2.5945
2.6475
2.6572
2.678
2.7193
2.74502
2.74869
2.73463
2.69855
2.66117
2.62465
2.59425
2.57297
2.56016
2.55288
2.54969
2.55044
2.5578
2.57536
2.59363
2.60858
2.61905
2.62485
2.62662
2.62544
2.62012
2.61358
2.60956
2.60637
2.59998
2.58954
2.57397
2.5564
2.53761
2.52055
2.50557
2.49337
2.48415
2.47668
2.47147
2.46763
2.46424
2.46193
2.45968
2.45744
2.45565
2.17548
2.47916
2.70005
2.82428
3.07645
2.97725
2.96557
2.95807
2.95001
2.95016
2.95149
2.95296
2.95136
2.95077
2.94843
2.94589
2.94402
2.94308
2.94298
2.94311
2.94283
2.9432
2.94226
2.94091
2.93808
2.93414
2.92947
2.92346
2.91684
2.90946
2.90175
2.89386
2.88475
2.87554
2.86622
2.85563
2.84447
2.83305
2.82114
2.80915
2.79691
2.78456
2.77225
2.75993
2.74771
2.73578
2.72391
2.71234
2.70111
2.69002
2.67941
2.66913
2.6592
2.64976
2.64051
2.632
2.62384
2.61628
2.60915
2.60297
2.59708
2.59226
2.58837
2.58521
2.58337
2.58208
2.58214
2.58266
2.58409
2.58575
2.58912
2.59138
2.59532
2.59788
2.60224
2.60754
2.61236
2.61731
2.62154
2.62674
2.63109
2.63477
2.63891
2.64186
2.64521
2.64741
2.64956
2.65088
2.6523
2.65266
2.65248
2.6519
2.65115
2.65017
2.64932
2.648
2.64701
2.64579
2.64463
2.64157
2.18858
2.33758
2.49223
2.63117
2.6743
2.73583
2.80042
2.84824
2.88815
2.90423
2.9212
2.95178
2.97022
2.97072
2.96505
2.94013
2.88132
2.82991
2.79244
2.76713
2.75106
2.74286
2.73814
2.73504
2.73239
2.72815
2.72064
2.71026
2.6986
2.68532
2.67178
2.66091
2.65262
2.6447
2.63663
2.62873
2.6204
2.61175
2.60261
2.59299
2.58317
2.57355
2.5644
2.55574
2.54763
2.54013
2.53319
2.52675
2.52054
2.51432
2.50773
2.50075
2.49299
2.48468
2.47631
2.46765
2.45928
2.451
2.44263
2.43436
2.42647
2.41827
2.41025
2.4023
2.3942
2.38675
2.37944
2.37275
2.36689
2.36094
2.35651
2.35187
2.34811
2.34438
2.34136
2.33947
2.33814
2.33712
2.33626
2.33542
2.33467
2.33421
2.33363
2.33342
2.33274
2.33208
2.3315
2.33102
2.33045
2.32967
2.32869
2.32769
2.32669
2.32579
2.32518
2.32501
2.32502
2.32584
2.32598
2.32786
2.23209
2.247
2.31692
2.39494
2.44019
2.46866
2.4874
2.50566
2.52298
2.5349
2.55019
2.56109
2.56724
2.57213
2.5716
2.56993
2.56751
2.56664
2.56692
2.56832
2.56883
2.56848
2.56725
2.56438
2.55984
2.55196
2.53966
2.52305
2.50405
2.48533
2.46936
2.45744
2.44804
2.43886
2.4287
2.41958
2.4108
2.40149
2.39157
2.38146
2.37141
2.36132
2.35099
2.34043
2.32989
2.31979
2.31057
2.30261
2.2962
2.29153
2.28861
2.28749
2.28779
2.28995
2.29528
2.30174
2.30853
2.31542
2.32244
2.32933
2.33598
2.34183
2.34666
2.35037
2.35267
2.35379
2.35362
2.35282
2.34997
2.34643
2.34311
2.33875
2.33397
2.32841
2.32341
2.31861
2.31445
2.30939
2.30483
2.29969
2.29496
2.28965
2.2849
2.28004
2.2744
2.27006
2.26456
2.26056
2.25616
2.25214
2.24838
2.24388
2.24086
2.23619
2.23337
2.2289
2.22622
2.22198
2.21969
2.21382
2.2621
2.23593
2.24678
2.2745
2.30355
2.32117
2.33146
2.33906
2.34541
2.34988
2.35218
2.35349
2.3569
2.35871
2.36067
2.36117
2.36186
2.36331
2.36506
2.36677
2.36787
2.36867
2.36926
2.36923
2.36888
2.36817
2.36681
2.36521
2.36461
2.36494
2.36593
2.36634
2.36626
2.36583
2.36413
2.35976
2.35509
2.34984
2.34322
2.33499
2.32567
2.31585
2.3057
2.29497
2.28346
2.27116
2.25832
2.24536
2.23284
2.22111
2.21039
2.20077
2.19199
2.18373
2.17612
2.16947
2.1639
2.15917
2.15538
2.1532
2.1527
2.15296
2.15375
2.15593
2.15826
2.16247
2.1688
2.17565
2.18556
2.19586
2.20666
2.21879
2.23028
2.24095
2.25088
2.25996
2.26771
2.27362
2.2775
2.27908
2.27915
2.27846
2.27653
2.27179
2.26761
2.2608
2.25563
2.24852
2.2429
2.23592
2.22998
2.22304
2.21797
2.21189
2.20787
2.2031
2.20025
2.19645
2.19491
2.19029
2.28489
2.25046
2.23283
2.23424
2.24031
2.24483
2.2469
2.24824
2.25014
2.25132
2.25346
2.25388
2.25522
2.25807
2.26041
2.26293
2.26488
2.26746
2.27045
2.27355
2.27732
2.2809
2.28424
2.28779
2.28959
2.29146
2.29339
2.29389
2.2937
2.29301
2.29125
2.2886
2.28573
2.28361
2.28043
2.27628
2.27214
2.26746
2.26217
2.25593
2.24877
2.24104
2.23307
2.22489
2.21647
2.20788
2.19935
2.19103
2.18288
2.17484
2.16687
2.15896
2.15096
2.14289
2.13507
2.12761
2.12068
2.11487
2.1102
2.10618
2.10313
2.10186
2.10189
2.10232
2.1039
2.10587
2.10939
2.11335
2.11739
2.12302
2.12849
2.1339
2.13997
2.14618
2.15234
2.15899
2.16561
2.17188
2.17775
2.18305
2.18746
2.19117
2.19442
2.19655
2.19699
2.19677
2.1962
2.19496
2.19288
2.18971
2.18561
2.18139
2.17625
2.17019
2.16542
2.15874
2.15501
2.14847
2.14603
2.1388
2.32993
2.27253
2.24341
2.22562
2.21538
2.20846
2.20349
2.19956
2.19654
2.1956
2.19596
2.19704
2.1992
2.20083
2.20488
2.20908
2.21293
2.21648
2.22032
2.22423
2.22841
2.23277
2.23671
2.24008
2.24259
2.24484
2.24608
2.24654
2.24728
2.24768
2.24759
2.24737
2.24687
2.24616
2.24452
2.24205
2.23939
2.23598
2.23193
2.22703
2.22116
2.21446
2.2071
2.19904
2.19016
2.1805
2.17039
2.16016
2.14993
2.13967
2.12942
2.11936
2.10989
2.1012
2.09368
2.08744
2.08221
2.07845
2.07586
2.07404
2.07343
2.07351
2.07401
2.07521
2.07673
2.07922
2.08139
2.08432
2.08735
2.09053
2.09399
2.09767
2.10141
2.10502
2.11005
2.11571
2.12186
2.12827
2.13465
2.14092
2.14697
2.15262
2.1574
2.16135
2.16495
2.16729
2.16846
2.16866
2.16848
2.16773
2.16629
2.16296
2.16067
2.15566
2.15269
2.14622
2.14261
2.13494
2.13193
2.12245
2.38498
2.31888
2.26676
2.23628
2.21535
2.19945
2.18634
2.17627
2.16856
2.16324
2.16012
2.16016
2.16119
2.16281
2.16658
2.16977
2.17617
2.18212
2.18794
2.19417
2.19966
2.20499
2.21017
2.21412
2.21754
2.22004
2.22177
2.22239
2.22231
2.222
2.22121
2.2207
2.21969
2.21891
2.21734
2.21538
2.21322
2.21049
2.20732
2.20358
2.19901
2.19349
2.18697
2.1795
2.17112
2.16185
2.15173
2.14092
2.12969
2.11839
2.10752
2.0975
2.08874
2.08155
2.07601
2.07204
2.0693
2.0676
2.06665
2.06655
2.06673
2.06724
2.06835
2.06977
2.07143
2.0733
2.07553
2.07779
2.07976
2.08213
2.08386
2.08548
2.08767
2.08892
2.09083
2.09379
2.09696
2.10066
2.10486
2.10944
2.11429
2.11939
2.12428
2.12851
2.13237
2.13527
2.13716
2.13786