/*--------------------------------*- C++ -*----------------------------------*\
| =========                 |                                                 |
| \\      /  F ield         | OpenFOAM: The Open Source CFD Toolbox           |
|  \\    /   O peration     | Version:  2412                                  |
|   \\  /    A nd           | Website:  www.openfoam.com                      |
|    \\/     M anipulation  |                                                 |
\*---------------------------------------------------------------------------*/
FoamFile
{
    version     2.0;
    format      ascii;
    arch        "LSB;label=32;scalar=64";
    class       volVectorField;
    location    "9.5";
    object      U;
}
// * * * * * * * * * * * * * * * * * * * * * * * * * * * * * * * * * * * * * //

dimensions      [0 1 -1 0 0 0 0];

internalField   nonuniform List<vector> 
7000
(
(2.95003 -1.27478e-05 0)
(2.7349 0.0002355 0)
(2.06127 4.09651e-06 0)
(1.15663 -0.000189349 0)
(0.508132 0.0006 0)
(0.622852 0.000979789 0)
(0.745161 0.00079366 0)
(0.791022 0.000487439 0)
(0.793251 0.000338437 0)
(0.785158 0.000337712 0)
(0.777588 0.000438287 0)
(0.774012 0.0005959 0)
(0.772075 0.000781752 0)
(0.769876 0.00095721 0)
(0.766668 0.00111957 0)
(0.761569 0.0012702 0)
(0.754121 0.00141355 0)
(0.745058 0.0015656 0)
(0.735262 0.00172782 0)
(0.725187 0.00190409 0)
(0.715029 0.00209374 0)
(0.704631 0.00229928 0)
(0.693645 0.00251994 0)
(0.682133 0.00275958 0)
(0.67015 0.00301931 0)
(0.657401 0.00330149 0)
(0.643729 0.00361127 0)
(0.628987 0.00395506 0)
(0.613375 0.0043367 0)
(0.596722 0.00476064 0)
(0.578763 0.0052317 0)
(0.560033 0.00573077 0)
(0.539174 0.00623906 0)
(0.515825 0.00676208 0)
(0.491413 0.00725664 0)
(0.465521 0.00769226 0)
(0.43848 0.00807389 0)
(0.410871 0.00836792 0)
(0.382718 0.00860213 0)
(0.352955 0.00881062 0)
(0.321552 0.00905536 0)
(0.289655 0.00937537 0)
(0.257831 0.00982656 0)
(0.226277 0.0104437 0)
(0.193769 0.0111892 0)
(0.159534 0.0120557 0)
(0.122363 0.0130227 0)
(0.0837781 0.0139399 0)
(0.0463809 0.013611 0)
(0.013916 0.0099257 0)
(2.9501 -0.00112683 0)
(2.73498 0.00059103 0)
(2.0615 -0.00291264 0)
(1.15706 -0.00397767 0)
(0.506666 0.000361302 0)
(0.621281 0.00275601 0)
(0.743821 0.00263194 0)
(0.789763 0.00197077 0)
(0.791876 0.00165315 0)
(0.783542 0.0016474 0)
(0.775789 0.00180794 0)
(0.772198 0.00209193 0)
(0.770411 0.00244198 0)
(0.768478 0.00281559 0)
(0.765604 0.00321636 0)
(0.760846 0.00364752 0)
(0.753712 0.00410204 0)
(0.744912 0.00459618 0)
(0.735315 0.0051269 0)
(0.72538 0.00569241 0)
(0.715307 0.00628887 0)
(0.704949 0.00692012 0)
(0.693967 0.00757476 0)
(0.682435 0.00827014 0)
(0.670418 0.00899893 0)
(0.65764 0.00975797 0)
(0.643967 0.0105535 0)
(0.629272 0.0113977 0)
(0.613782 0.0122991 0)
(0.597352 0.0132737 0)
(0.57973 0.0143414 0)
(0.56145 0.0154942 0)
(0.541172 0.016711 0)
(0.518486 0.0180011 0)
(0.49472 0.0193071 0)
(0.469393 0.0205598 0)
(0.442704 0.0217447 0)
(0.415121 0.0227996 0)
(0.386612 0.0237533 0)
(0.356073 0.0246188 0)
(0.323481 0.0254495 0)
(0.290121 0.0262533 0)
(0.256853 0.0270382 0)
(0.22417 0.0279143 0)
(0.191107 0.0288555 0)
(0.157042 0.0299383 0)
(0.120865 0.0311082 0)
(0.0841124 0.0320473 0)
(0.0489329 0.0311405 0)
(0.0179348 0.0257622 0)
(2.95051 2.84012e-05 0)
(2.73466 0.000659706 0)
(2.05373 -9.60001e-05 0)
(1.14397 0.00132098 0)
(0.492562 0.00213532 0)
(0.615142 0.00239234 0)
(0.740935 0.00219381 0)
(0.788346 0.00224183 0)
(0.791207 0.00230985 0)
(0.78321 0.00249687 0)
(0.77562 0.00281935 0)
(0.772102 0.00328662 0)
(0.770308 0.00385816 0)
(0.768332 0.00449165 0)
(0.765412 0.00518918 0)
(0.760619 0.00594752 0)
(0.753469 0.00675551 0)
(0.744673 0.00762783 0)
(0.735085 0.00856239 0)
(0.725157 0.00955551 0)
(0.715092 0.0106005 0)
(0.704743 0.0116998 0)
(0.693789 0.0128387 0)
(0.682314 0.0140425 0)
(0.670374 0.0153 0)
(0.65769 0.0166078 0)
(0.644115 0.0179763 0)
(0.629505 0.0194285 0)
(0.614067 0.0209785 0)
(0.597648 0.0226487 0)
(0.579989 0.024467 0)
(0.561627 0.0264436 0)
(0.541243 0.028559 0)
(0.518459 0.0307888 0)
(0.494611 0.0330725 0)
(0.469225 0.0353027 0)
(0.442505 0.0374033 0)
(0.414919 0.0393431 0)
(0.386439 0.0411428 0)
(0.355963 0.0428097 0)
(0.323467 0.0443694 0)
(0.290173 0.045821 0)
(0.256944 0.047145 0)
(0.224255 0.0485006 0)
(0.191201 0.049928 0)
(0.157299 0.0515436 0)
(0.121565 0.05327 0)
(0.0854832 0.0545095 0)
(0.0507155 0.0533602 0)
(0.0200372 0.0471178 0)
(2.95049 0.000857119 0)
(2.73506 -5.50351e-05 0)
(2.06284 0.00381555 0)
(1.15811 0.00762921 0)
(0.507679 0.00439452 0)
(0.622019 0.00264289 0)
(0.744163 0.00229207 0)
(0.789932 0.00287214 0)
(0.791811 0.00330016 0)
(0.783376 0.0036957 0)
(0.775582 0.00421998 0)
(0.771964 0.00486756 0)
(0.770137 0.00563806 0)
(0.768192 0.00649599 0)
(0.76536 0.0074521 0)
(0.760686 0.00850359 0)
(0.753673 0.00965019 0)
(0.745011 0.0108903 0)
(0.735536 0.0122281 0)
(0.725688 0.0136489 0)
(0.715672 0.0151342 0)
(0.705343 0.0166853 0)
(0.694396 0.0182906 0)
(0.682926 0.0199759 0)
(0.670987 0.0217347 0)
(0.658312 0.0235688 0)
(0.64476 0.0254963 0)
(0.630178 0.027551 0)
(0.614763 0.0297604 0)
(0.598354 0.0321427 0)
(0.580683 0.0347321 0)
(0.562272 0.0375468 0)
(0.541806 0.0405586 0)
(0.518928 0.0437256 0)
(0.494985 0.0469703 0)
(0.469507 0.0501583 0)
(0.442738 0.0531605 0)
(0.415178 0.0559815 0)
(0.386805 0.0586242 0)
(0.356527 0.0611082 0)
(0.324308 0.0634144 0)
(0.291292 0.0655206 0)
(0.258299 0.0674243 0)
(0.22575 0.0692774 0)
(0.192739 0.071218 0)
(0.158872 0.0733422 0)
(0.123263 0.0755646 0)
(0.0872831 0.07707 0)
(0.0521651 0.0759288 0)
(0.021302 0.0696305 0)
(2.95032 -0.000777692 0)
(2.73579 0.00021895 0)
(2.06354 0.00245954 0)
(1.15823 0.00510023 0)
(0.508164 0.00386112 0)
(0.622964 0.00434937 0)
(0.744932 0.00416432 0)
(0.790756 0.00428473 0)
(0.792597 0.00455152 0)
(0.784175 0.00494038 0)
(0.776398 0.00554767 0)
(0.772752 0.0063169 0)
(0.770854 0.00724698 0)
(0.768805 0.00831614 0)
(0.765857 0.00953318 0)
(0.761074 0.0108999 0)
(0.753966 0.0124089 0)
(0.745244 0.0140623 0)
(0.735744 0.0158461 0)
(0.725893 0.017748 0)
(0.715893 0.019738 0)
(0.705588 0.0218109 0)
(0.694669 0.0239396 0)
(0.683227 0.0261664 0)
(0.671305 0.0284759 0)
(0.658641 0.0308732 0)
(0.645107 0.0333872 0)
(0.630559 0.036063 0)
(0.615189 0.0389503 0)
(0.598841 0.0420696 0)
(0.581256 0.0454636 0)
(0.562939 0.0491569 0)
(0.542564 0.0531093 0)
(0.519795 0.0572621 0)
(0.495965 0.061505 0)
(0.470574 0.0656681 0)
(0.443903 0.0695809 0)
(0.416479 0.0732708 0)
(0.38828 0.076721 0)
(0.358228 0.0799949 0)
(0.326253 0.0830387 0)
(0.293452 0.0858099 0)
(0.260593 0.0883286 0)
(0.228087 0.0907137 0)
(0.195018 0.0931964 0)
(0.161062 0.0958399 0)
(0.125378 0.0985445 0)
(0.0891934 0.100333 0)
(0.0533987 0.0993488 0)
(0.0221382 0.0934157 0)
(2.95049 -0.000551661 0)
(2.73688 -0.000288836 0)
(2.06346 0.00292032 0)
(1.15721 0.00687308 0)
(0.502609 0.00596931 0)
(0.619458 0.0060297 0)
(0.742805 0.00529509 0)
(0.789721 0.00526946 0)
(0.792165 0.00566683 0)
(0.784037 0.00622427 0)
(0.776399 0.00703132 0)
(0.772786 0.0080162 0)
(0.770869 0.0091874 0)
(0.768763 0.0105241 0)
(0.765737 0.0120319 0)
(0.760856 0.0137128 0)
(0.753653 0.0155691 0)
(0.744848 0.0175945 0)
(0.735288 0.0197745 0)
(0.725421 0.0221028 0)
(0.715451 0.0245482 0)
(0.705219 0.0271044 0)
(0.694428 0.0297386 0)
(0.68316 0.032499 0)
(0.671415 0.0353645 0)
(0.658927 0.0383385 0)
(0.645562 0.0414554 0)
(0.631176 0.0447751 0)
(0.615951 0.0483527 0)
(0.599739 0.0522261 0)
(0.5823 0.0564517 0)
(0.564134 0.0610467 0)
(0.543922 0.0659662 0)
(0.521351 0.0711456 0)
(0.497733 0.0764227 0)
(0.472529 0.0815885 0)
(0.446048 0.086461 0)
(0.418827 0.0910546 0)
(0.390837 0.0953556 0)
(0.361004 0.0994595 0)
(0.329202 0.103299 0)
(0.296515 0.106797 0)
(0.263656 0.110015 0)
(0.231054 0.113022 0)
(0.197807 0.116127 0)
(0.163642 0.119368 0)
(0.127737 0.122616 0)
(0.0911524 0.12478 0)
(0.0545258 0.124112 0)
(0.022761 0.118748 0)
(2.95014 6.55062e-05 0)
(2.73781 -0.00059067 0)
(2.06641 0.00320529 0)
(1.15957 0.00850848 0)
(0.506621 0.00799362 0)
(0.622325 0.00733875 0)
(0.744598 0.00617449 0)
(0.791524 0.00609293 0)
(0.793962 0.00662474 0)
(0.785871 0.00736929 0)
(0.77833 0.00839934 0)
(0.774788 0.00963686 0)
(0.772913 0.0110898 0)
(0.770818 0.0127317 0)
(0.767787 0.0145634 0)
(0.7629 0.0165906 0)
(0.755685 0.0188279 0)
(0.746859 0.0212447 0)
(0.73728 0.0238371 0)
(0.727383 0.026598 0)
(0.71738 0.0294968 0)
(0.707114 0.0325337 0)
(0.696307 0.0356824 0)
(0.685041 0.0389855 0)
(0.673298 0.0424224 0)
(0.660814 0.045995 0)
(0.647462 0.0497414 0)
(0.633092 0.0537371 0)
(0.617878 0.0580338 0)
(0.601689 0.0626859 0)
(0.584294 0.0677656 0)
(0.566192 0.073283 0)
(0.546092 0.079188 0)
(0.523694 0.0854175 0)
(0.500278 0.091753 0)
(0.475282 0.0979469 0)
(0.449025 0.103818 0)
(0.422035 0.109352 0)
(0.394274 0.114556 0)
(0.364667 0.119539 0)
(0.333002 0.12425 0)
(0.300368 0.128568 0)
(0.267419 0.132583 0)
(0.234614 0.13631 0)
(0.20109 0.14013 0)
(0.166611 0.144067 0)
(0.130357 0.147948 0)
(0.0932252 0.150606 0)
(0.0556568 0.150404 0)
(0.0232695 0.145729 0)
(2.95028 9.7229e-05 0)
(2.73872 0.00153453 0)
(2.07075 0.00216976 0)
(1.16463 0.00595094 0)
(0.50993 0.00723334 0)
(0.624139 0.0084947 0)
(0.745758 0.00797072 0)
(0.792881 0.00755742 0)
(0.79537 0.00784652 0)
(0.787167 0.00859861 0)
(0.779482 0.00979796 0)
(0.775803 0.0113011 0)
(0.773856 0.0130641 0)
(0.771756 0.0150332 0)
(0.768793 0.0171994 0)
(0.764028 0.019575 0)
(0.75696 0.0221815 0)
(0.748275 0.0249978 0)
(0.738832 0.0280088 0)
(0.729053 0.031221 0)
(0.719152 0.0345989 0)
(0.708974 0.0381503 0)
(0.698258 0.0418376 0)
(0.687091 0.0457169 0)
(0.67543 0.0497548 0)
(0.663022 0.0539519 0)
(0.649751 0.0583521 0)
(0.635457 0.063043 0)
(0.620303 0.0680827 0)
(0.60418 0.0735289 0)
(0.586869 0.0794683 0)
(0.56886 0.0859161 0)
(0.548904 0.0928096 0)
(0.526715 0.100089 0)
(0.503533 0.107494 0)
(0.478783 0.114747 0)
(0.452789 0.121657 0)
(0.426055 0.128194 0)
(0.398535 0.134379 0)
(0.369162 0.1403 0)
(0.33763 0.145968 0)
(0.305023 0.151207 0)
(0.271922 0.15614 0)
(0.238825 0.16068 0)
(0.204944 0.165327 0)
(0.170052 0.170071 0)
(0.133326 0.174692 0)
(0.0955205 0.177978 0)
(0.0569153 0.178354 0)
(0.0237828 0.174417 0)
(2.95092 -0.000851496 0)
(2.73914 0.000904385 0)
(2.07273 0.00051623 0)
(1.16636 0.00572421 0)
(0.505964 0.00851921 0)
(0.621813 0.0099251 0)
(0.744406 0.00921495 0)
(0.792355 0.00871204 0)
(0.795353 0.00910887 0)
(0.787282 0.0100434 0)
(0.7796 0.011469 0)
(0.775917 0.0132262 0)
(0.774036 0.0152464 0)
(0.772077 0.0174872 0)
(0.769319 0.0199497 0)
(0.7648 0.0226502 0)
(0.75797 0.025626 0)
(0.749475 0.0288438 0)
(0.740181 0.0322822 0)
(0.73051 0.0359558 0)
(0.720686 0.0398218 0)
(0.710566 0.0439035 0)
(0.699925 0.0481375 0)
(0.688859 0.0526095 0)
(0.677298 0.0572679 0)
(0.665004 0.0621124 0)
(0.651875 0.0671922 0)
(0.637739 0.0725998 0)
(0.622738 0.0784094 0)
(0.606781 0.0846723 0)
(0.589661 0.0914888 0)
(0.571847 0.0988828 0)
(0.552131 0.106778 0)
(0.530244 0.115116 0)
(0.507379 0.123609 0)
(0.482952 0.131955 0)
(0.457288 0.139949 0)
(0.430871 0.147548 0)
(0.403616 0.154817 0)
(0.3745 0.161762 0)
(0.343123 0.168509 0)
(0.31055 0.174799 0)
(0.277252 0.180783 0)
(0.243793 0.186252 0)
(0.209506 0.191863 0)
(0.174104 0.197546 0)
(0.136785 0.203038 0)
(0.098167 0.207079 0)
(0.0583813 0.208144 0)
(0.0243244 0.204978 0)
(2.95093 0.00015664 0)
(2.73992 0.0014873 0)
(2.07252 0.00187528 0)
(1.16659 0.00880718 0)
(0.507444 0.00994395 0)
(0.622372 0.0106471 0)
(0.743788 0.00998062 0)
(0.791789 0.00970561 0)
(0.794917 0.0103318 0)
(0.786877 0.0114275 0)
(0.77926 0.0130284 0)
(0.775673 0.0149843 0)
(0.773962 0.0172259 0)
(0.772255 0.0197299 0)
(0.769807 0.0225008 0)
(0.765632 0.0255555 0)
(0.759123 0.0289412 0)
(0.750874 0.0326083 0)
(0.741764 0.0365313 0)
(0.732217 0.0407173 0)
(0.722476 0.0451195 0)
(0.712401 0.0497638 0)
(0.701818 0.0545826 0)
(0.690847 0.0596648 0)
(0.679374 0.0649548 0)
(0.667188 0.0704567 0)
(0.6542 0.076228 0)
(0.640234 0.0823637 0)
(0.625405 0.0889558 0)
(0.609641 0.0960529 0)
(0.592754 0.103765 0)
(0.575185 0.112117 0)
(0.555766 0.121027 0)
(0.534247 0.130437 0)
(0.511765 0.140037 0)
(0.487724 0.149504 0)
(0.462445 0.158632 0)
(0.436412 0.167351 0)
(0.409458 0.175797 0)
(0.380639 0.183882 0)
(0.34949 0.191876 0)
(0.316994 0.199394 0)
(0.283496 0.20656 0)
(0.249652 0.21314 0)
(0.214937 0.219846 0)
(0.178934 0.226625 0)
(0.140889 0.233168 0)
(0.101302 0.238132 0)
(0.0601822 0.239999 0)
(0.0249967 0.23764 0)
(2.95188 0.00190467 0)
(2.73977 0.00118557 0)
(2.08237 0.00276377 0)
(1.17964 0.00905238 0)
(0.511689 0.0108394 0)
(0.623642 0.012038 0)
(0.74428 0.0114306 0)
(0.792535 0.0110385 0)
(0.796052 0.0117848 0)
(0.78817 0.013007 0)
(0.780588 0.0147458 0)
(0.776919 0.0168414 0)
(0.775122 0.0192521 0)
(0.773379 0.0219846 0)
(0.770969 0.0250514 0)
(0.76692 0.028468 0)
(0.76058 0.0322838 0)
(0.752492 0.0364287 0)
(0.743544 0.0408715 0)
(0.73414 0.0455996 0)
(0.724526 0.0505659 0)
(0.714561 0.0557834 0)
(0.704098 0.0612157 0)
(0.693265 0.0669178 0)
(0.681912 0.0728471 0)
(0.669857 0.0790165 0)
(0.65702 0.0854903 0)
(0.643227 0.0923622 0)
(0.628572 0.0997467 0)
(0.613001 0.107687 0)
(0.596347 0.116304 0)
(0.579022 0.125622 0)
(0.559911 0.135552 0)
(0.538782 0.146045 0)
(0.516706 0.156768 0)
(0.493088 0.167384 0)
(0.468231 0.1777 0)
(0.442628 0.187611 0)
(0.416011 0.197308 0)
(0.387559 0.206678 0)
(0.356743 0.21608 0)
(0.324383 0.225015 0)
(0.290751 0.233541 0)
(0.256548 0.241471 0)
(0.22139 0.249463 0)
(0.184748 0.257541 0)
(0.145864 0.265355 0)
(0.105124 0.271473 0)
(0.0624147 0.274314 0)
(0.0258143 0.272812 0)
(2.95172 0.00129981 0)
(2.73935 -0.00231917 0)
(2.09091 0.00195512 0)
(1.18556 0.00925432 0)
(0.51269 0.0125191 0)
(0.624251 0.0136528 0)
(0.744542 0.012461 0)
(0.793392 0.0122088 0)
(0.797411 0.0132617 0)
(0.789604 0.0146757 0)
(0.782039 0.0165943 0)
(0.778315 0.0188726 0)
(0.776476 0.0214831 0)
(0.774738 0.0244388 0)
(0.772389 0.0277583 0)
(0.768474 0.0314704 0)
(0.762302 0.035644 0)
(0.754367 0.0402132 0)
(0.745567 0.0451447 0)
(0.736296 0.0504136 0)
(0.726805 0.0559677 0)
(0.716961 0.0617919 0)
(0.706634 0.0678826 0)
(0.695949 0.0742516 0)
(0.684735 0.0808636 0)
(0.672834 0.087738 0)
(0.660172 0.0949449 0)
(0.646584 0.102572 0)
(0.63214 0.110773 0)
(0.6168 0.119568 0)
(0.600426 0.129099 0)
(0.583387 0.13939 0)
(0.564628 0.150349 0)
(0.543934 0.161935 0)
(0.522305 0.173801 0)
(0.499156 0.185601 0)
(0.474758 0.197152 0)
(0.44962 0.208331 0)
(0.423393 0.21936 0)
(0.395388 0.230164 0)
(0.365013 0.241117 0)
(0.332885 0.251656 0)
(0.299238 0.261774 0)
(0.264761 0.2713 0)
(0.229178 0.28086 0)
(0.191854 0.290513 0)
(0.152007 0.299887 0)
(0.109903 0.307445 0)
(0.0653073 0.311492 0)
(0.026898 0.310955 0)
(2.95083 -0.000331599 0)
(2.73913 -0.00409843 0)
(2.0981 0.0018133 0)
(1.19006 0.0118251 0)
(0.512372 0.0130828 0)
(0.623981 0.014404 0)
(0.74425 0.0135047 0)
(0.794349 0.0138504 0)
(0.798995 0.0150771 0)
(0.79135 0.0165569 0)
(0.783914 0.0185404 0)
(0.780255 0.0209173 0)
(0.778521 0.0236836 0)
(0.776939 0.0268586 0)
(0.774781 0.0304515 0)
(0.771094 0.034485 0)
(0.765123 0.0390406 0)
(0.757306 0.0440659 0)
(0.748569 0.0495132 0)
(0.739316 0.0553388 0)
(0.729816 0.0614955 0)
(0.719979 0.0679429 0)
(0.7097 0.0746987 0)
(0.699082 0.0817457 0)
(0.687954 0.0890514 0)
(0.676172 0.0966416 0)
(0.663662 0.104588 0)
(0.65029 0.112978 0)
(0.636084 0.121997 0)
(0.621011 0.131654 0)
(0.604975 0.142103 0)
(0.588287 0.153368 0)
(0.569957 0.165364 0)
(0.549785 0.178054 0)
(0.528686 0.191081 0)
(0.506088 0.204096 0)
(0.482229 0.216934 0)
(0.457622 0.229453 0)
(0.431864 0.241901 0)
(0.404409 0.254275 0)
(0.37459 0.266932 0)
(0.342815 0.279296 0)
(0.309287 0.291271 0)
(0.274651 0.302689 0)
(0.238699 0.314154 0)
(0.20067 0.325783 0)
(0.159728 0.337141 0)
(0.115984 0.346592 0)
(0.0690656 0.352207 0)
(0.0283297 0.352807 0)
(2.94906 -0.00175715 0)
(2.73775 -0.00124082 0)
(2.10113 0.00375891 0)
(1.18948 0.0110956 0)
(0.510912 0.0126907 0)
(0.624111 0.014865 0)
(0.744398 0.0147633 0)
(0.795577 0.015339 0)
(0.800656 0.0166728 0)
(0.7932 0.0182732 0)
(0.78589 0.0203612 0)
(0.782253 0.0228537 0)
(0.780547 0.0257751 0)
(0.779032 0.029172 0)
(0.77699 0.033052 0)
(0.773508 0.0374292 0)
(0.767794 0.0423988 0)
(0.760206 0.047918 0)
(0.751651 0.0539185 0)
(0.742547 0.0603301 0)
(0.733168 0.0671195 0)
(0.723457 0.0742183 0)
(0.713331 0.0816589 0)
(0.702865 0.0894025 0)
(0.691891 0.0974175 0)
(0.680281 0.105735 0)
(0.667954 0.114427 0)
(0.654812 0.123594 0)
(0.640855 0.133415 0)
(0.626056 0.14393 0)
(0.610364 0.155287 0)
(0.594048 0.167518 0)
(0.576189 0.180559 0)
(0.556598 0.194371 0)
(0.536099 0.208585 0)
(0.514152 0.222858 0)
(0.49093 0.237037 0)
(0.466945 0.250969 0)
(0.441783 0.26493 0)
(0.415014 0.278988 0)
(0.385908 0.293515 0)
(0.354653 0.307924 0)
(0.321409 0.32206 0)
(0.286762 0.335731 0)
(0.250545 0.349526 0)
(0.211817 0.363632 0)
(0.169666 0.377555 0)
(0.123981 0.38955 0)
(0.0741536 0.397312 0)
(0.0303135 0.399358 0)
(2.94942 -0.000818808 0)
(2.7367 0.00124691 0)
(2.10011 0.00393703 0)
(1.19966 0.00993345 0)
(0.513979 0.0131934 0)
(0.62501 0.0158831 0)
(0.744694 0.016106 0)
(0.796514 0.0167872 0)
(0.802087 0.0183043 0)
(0.794745 0.020053 0)
(0.787476 0.0222818 0)
(0.783795 0.0249182 0)
(0.782082 0.0280044 0)
(0.78063 0.0316051 0)
(0.77872 0.0357331 0)
(0.775489 0.040405 0)
(0.770106 0.0457414 0)
(0.76282 0.0517086 0)
(0.754515 0.0582316 0)
(0.745628 0.0652218 0)
(0.736437 0.0726576 0)
(0.726926 0.0804301 0)
(0.717039 0.0885889 0)
(0.706812 0.0970678 0)
(0.696094 0.105833 0)
(0.684765 0.114916 0)
(0.672741 0.124393 0)
(0.659942 0.13437 0)
(0.646343 0.145007 0)
(0.63192 0.15639 0)
(0.61666 0.168644 0)
(0.600806 0.181824 0)
(0.583517 0.195895 0)
(0.564602 0.210818 0)
(0.544807 0.22622 0)
(0.523634 0.241784 0)
(0.50119 0.257364 0)
(0.477971 0.272776 0)
(0.453565 0.288344 0)
(0.427677 0.304197 0)
(0.399488 0.320776 0)
(0.368958 0.337464 0)
(0.336229 0.354098 0)
(0.30178 0.370474 0)
(0.265463 0.38715 0)
(0.226107 0.404418 0)
(0.182672 0.421733 0)
(0.134716 0.437215 0)
(0.0811849 0.448062 0)
(0.0331224 0.452212 0)
(2.94951 0.000781581 0)
(2.73685 0.00236875 0)
(2.10803 -0.00161553 0)
(1.20831 0.0100451 0)
(0.515871 0.0140467 0)
(0.625921 0.0169852 0)
(0.745072 0.0173754 0)
(0.797764 0.0183946 0)
(0.803823 0.0200842 0)
(0.79662 0.0219286 0)
(0.789431 0.024228 0)
(0.785732 0.0269236 0)
(0.784049 0.0300968 0)
(0.782694 0.0338349 0)
(0.780935 0.0381754 0)
(0.777956 0.0431417 0)
(0.772888 0.0488512 0)
(0.765866 0.0553026 0)
(0.757742 0.0623859 0)
(0.748996 0.0699952 0)
(0.739906 0.078111 0)
(0.730512 0.0865979 0)
(0.720804 0.0954926 0)
(0.710772 0.104714 0)
(0.700299 0.114238 0)
(0.689283 0.124098 0)
(0.677635 0.134371 0)
(0.66528 0.145169 0)
(0.652177 0.156635 0)
(0.638292 0.168894 0)
(0.623623 0.182051 0)
(0.608405 0.196174 0)
(0.591863 0.211255 0)
(0.573787 0.227279 0)
(0.554871 0.243876 0)
(0.534673 0.260756 0)
(0.51319 0.277786 0)
(0.490932 0.294718 0)
(0.467525 0.311977 0)
(0.442794 0.329752 0)
(0.415817 0.348529 0)
(0.386319 0.367776 0)
(0.354468 0.387289 0)
(0.320569 0.406936 0)
(0.284477 0.427117 0)
(0.244744 0.448461 0)
(0.200088 0.47038 0)
(0.149586 0.490877 0)
(0.0914205 0.506436 0)
(0.0374369 0.513861 0)
(2.95183 0.000453306 0)
(2.74037 0.00320073 0)
(2.1195 -0.00216154 0)
(1.21599 0.00994772 0)
(0.513876 0.0140376 0)
(0.625026 0.0174961 0)
(0.744533 0.0184558 0)
(0.798624 0.0197964 0)
(0.805567 0.0216797 0)
(0.798884 0.0236679 0)
(0.792078 0.0260941 0)
(0.788584 0.0289055 0)
(0.787073 0.0322176 0)
(0.785891 0.0361277 0)
(0.78431 0.0407058 0)
(0.781562 0.0459851 0)
(0.776785 0.0520678 0)
(0.769995 0.059001 0)
(0.761988 0.0666309 0)
(0.753322 0.0748586 0)
(0.744276 0.0836341 0)
(0.734929 0.0928427 0)
(0.725314 0.102454 0)
(0.715402 0.112398 0)
(0.705113 0.122658 0)
(0.69436 0.13327 0)
(0.68306 0.144315 0)
(0.671144 0.155909 0)
(0.658576 0.16819 0)
(0.645311 0.181301 0)
(0.631333 0.195345 0)
(0.616882 0.210401 0)
(0.601255 0.226477 0)
(0.584209 0.24359 0)
(0.56637 0.261386 0)
(0.547378 0.279596 0)
(0.527075 0.298094 0)
(0.506024 0.316602 0)
(0.483938 0.335637 0)
(0.460683 0.355453 0)
(0.435316 0.376517 0)
(0.407322 0.398618 0)
(0.37691 0.421338 0)
(0.344099 0.444879 0)
(0.308813 0.469467 0)
(0.269367 0.496027 0)
(0.223961 0.524198 0)
(0.17092 0.552046 0)
(0.106933 0.575317 0)
(0.0443168 0.58867 0)
(2.95249 -1.27809e-05 0)
(2.74037 -0.00143262 0)
(2.12639 0.000812404 0)
(1.22571 0.0107443 0)
(0.515427 0.0141345 0)
(0.625636 0.0179143 0)
(0.744667 0.0193266 0)
(0.799791 0.0208096 0)
(0.807597 0.0228305 0)
(0.801471 0.0249547 0)
(0.795055 0.027528 0)
(0.791708 0.0304937 0)
(0.790272 0.0339863 0)
(0.789155 0.0381254 0)
(0.787665 0.0429995 0)
(0.785084 0.0486539 0)
(0.780582 0.0551751 0)
(0.774046 0.0626366 0)
(0.766209 0.0708547 0)
(0.757694 0.0797474 0)
(0.748792 0.0892111 0)
(0.739597 0.0991488 0)
(0.73016 0.109476 0)
(0.720465 0.120136 0)
(0.710448 0.131114 0)
(0.700036 0.142448 0)
(0.689153 0.154226 0)
(0.677737 0.166569 0)
(0.665764 0.179621 0)
(0.653184 0.193526 0)
(0.639984 0.208407 0)
(0.626404 0.224357 0)
(0.611818 0.241385 0)
(0.595956 0.259547 0)
(0.579384 0.27851 0)
(0.561816 0.298033 0)
(0.542937 0.317987 0)
(0.523399 0.338117 0)
(0.503007 0.358987 0)
(0.481573 0.380965 0)
(0.458329 0.404239 0)
(0.432438 0.429374 0)
(0.404255 0.455885 0)
(0.37363 0.483994 0)
(0.340179 0.513808 0)
(0.302157 0.547006 0)
(0.257275 0.583751 0)
(0.20272 0.622584 0)
(0.13226 0.659096 0)
(0.0567403 0.68523 0)
(2.95064 -0.000272839 0)
(2.73828 -0.000528211 0)
(2.133 0.000394915 0)
(1.22871 0.0101387 0)
(0.513256 0.0139973 0)
(0.625114 0.0180083 0)
(0.744406 0.0194874 0)
(0.800752 0.0211729 0)
(0.809543 0.0234888 0)
(0.803997 0.025908 0)
(0.797952 0.028807 0)
(0.794722 0.0320773 0)
(0.793355 0.0358522 0)
(0.792331 0.0402697 0)
(0.79099 0.0454485 0)
(0.788652 0.0514439 0)
(0.784519 0.0583498 0)
(0.778343 0.0662724 0)
(0.770784 0.0750469 0)
(0.762516 0.0845776 0)
(0.753831 0.0947229 0)
(0.74485 0.105367 0)
(0.735646 0.116408 0)
(0.726221 0.127787 0)
(0.716527 0.139487 0)
(0.706505 0.151543 0)
(0.696092 0.164041 0)
(0.685234 0.17711 0)
(0.673912 0.190898 0)
(0.662085 0.205555 0)
(0.649744 0.221226 0)
(0.637113 0.238017 0)
(0.623668 0.255946 0)
(0.609118 0.275097 0)
(0.59397 0.295178 0)
(0.578025 0.315981 0)
(0.560831 0.337337 0)
(0.543142 0.359122 0)
(0.524897 0.38163 0)
(0.505527 0.405739 0)
(0.484917 0.431446 0)
(0.462358 0.459747 0)
(0.437555 0.490294 0)
(0.410143 0.523429 0)
(0.380194 0.559342 0)
(0.346131 0.600661 0)
(0.304747 0.64884 0)
(0.252085 0.704079 0)
(0.177256 0.763926 0)
(0.0822455 0.821294 0)
(2.9522 -0.00092974 0)
(2.73985 -0.00104617 0)
(2.13926 0.00198514 0)
(1.23934 0.00977339 0)
(0.514056 0.0138228 0)
(0.625351 0.0179565 0)
(0.744425 0.0194563 0)
(0.802208 0.0213544 0)
(0.812032 0.0240439 0)
(0.80716 0.026841 0)
(0.801708 0.0301774 0)
(0.798885 0.0338288 0)
(0.797962 0.0379303 0)
(0.797458 0.0426393 0)
(0.796669 0.0481522 0)
(0.794887 0.0544934 0)
(0.791344 0.0617648 0)
(0.785657 0.070121 0)
(0.778373 0.0794353 0)
(0.770201 0.0895624 0)
(0.761479 0.100336 0)
(0.75241 0.111625 0)
(0.743131 0.123321 0)
(0.733696 0.135352 0)
(0.724091 0.147699 0)
(0.71428 0.160398 0)
(0.704212 0.173537 0)
(0.693843 0.187248 0)
(0.68315 0.201684 0)
(0.672092 0.217003 0)
(0.660659 0.233366 0)
(0.649054 0.250893 0)
(0.636835 0.269605 0)
(0.623714 0.289651 0)
(0.610165 0.31072 0)
(0.596015 0.332558 0)
(0.580801 0.355166 0)
(0.565129 0.378461 0)
(0.549394 0.402677 0)
(0.532944 0.428677 0)
(0.515657 0.456813 0)
(0.497094 0.488117 0)
(0.476924 0.522412 0)
(0.454795 0.560489 0)
(0.43102 0.603131 0)
(0.404749 0.653412 0)
(0.372858 0.715565 0)
(0.331139 0.79457 0)
(0.265078 0.899019 0)
(0.142866 1.05979 0)
(2.94913 -0.000155242 0)
(2.73613 -0.000861032 0)
(2.14238 0.000255168 0)
(1.24333 0.00870083 0)
(0.511859 0.0126221 0)
(0.624766 0.0168041 0)
(0.744357 0.0184673 0)
(0.804312 0.0203558 0)
(0.815881 0.0232177 0)
(0.812217 0.0262124 0)
(0.807684 0.0298288 0)
(0.805282 0.0336922 0)
(0.804668 0.0380175 0)
(0.804512 0.0430408 0)
(0.804059 0.0490718 0)
(0.802565 0.0561357 0)
(0.799452 0.0642984 0)
(0.794244 0.073672 0)
(0.787295 0.0841093 0)
(0.779321 0.0953624 0)
(0.770732 0.107218 0)
(0.761801 0.119511 0)
(0.752697 0.132121 0)
(0.743509 0.144977 0)
(0.734261 0.158081 0)
(0.724942 0.171491 0)
(0.715525 0.185314 0)
(0.705982 0.199702 0)
(0.696296 0.214826 0)
(0.686437 0.230858 0)
(0.676402 0.247973 0)
(0.666346 0.266303 0)
(0.656014 0.285804 0)
(0.64506 0.306676 0)
(0.633734 0.328795 0)
(0.622306 0.3519 0)
(0.610343 0.375917 0)
(0.598314 0.400801 0)
(0.5866 0.426827 0)
(0.574589 0.45467 0)
(0.562973 0.485111 0)
(0.551381 0.519083 0)
(0.539615 0.557203 0)
(0.528186 0.600308 0)
(0.518183 0.649979 0)
(0.511288 0.708776 0)
(0.509617 0.783313 0)
(0.52129 0.881591 0)
(0.576205 1.01375 0)
(0.646035 1.20509 0)
(2.95175 -8.60697e-05 0)
(2.73744 0.000662961 0)
(2.15536 0.000151491 0)
(1.25742 0.00695618 0)
(0.510204 0.010885 0)
(0.623916 0.01465 0)
(0.744463 0.0161835 0)
(0.807489 0.0189307 0)
(0.821772 0.0232103 0)
(0.82005 0.0275822 0)
(0.816891 0.0324557 0)
(0.815012 0.0372413 0)
(0.814705 0.0422882 0)
(0.814811 0.0479449 0)
(0.814552 0.0544977 0)
(0.813126 0.0620989 0)
(0.810152 0.0708327 0)
(0.805138 0.0807566 0)
(0.798251 0.091773 0)
(0.790206 0.103627 0)
(0.781529 0.116095 0)
(0.772541 0.128997 0)
(0.763452 0.142183 0)
(0.754393 0.155573 0)
(0.745416 0.169177 0)
(0.736522 0.183049 0)
(0.727696 0.197313 0)
(0.718922 0.212136 0)
(0.710188 0.227702 0)
(0.701481 0.244194 0)
(0.692807 0.261794 0)
(0.684177 0.280534 0)
(0.675499 0.300488 0)
(0.666826 0.322002 0)
(0.658286 0.34488 0)
(0.649773 0.368888 0)
(0.640995 0.393787 0)
(0.632554 0.419658 0)
(0.625081 0.446513 0)
(0.61827 0.475299 0)
(0.612626 0.506836 0)
(0.608573 0.541767 0)
(0.606551 0.581366 0)
(0.607728 0.626266 0)
(0.613727 0.677979 0)
(0.628765 0.738124 0)
(0.658641 0.810283 0)
(0.711895 0.899666 0)
(0.821357 1.00631 0)
(0.967805 1.11843 0)
(2.94996 -0.000305766 0)
(2.73565 -0.00127301 0)
(2.15693 -0.000391075 0)
(1.26281 0.000497015 0)
(0.514365 0.00359975 0)
(0.628912 0.00526086 0)
(0.751999 0.00508811 0)
(0.820733 0.00845287 0)
(0.839124 0.0145245 0)
(0.839759 0.0207456 0)
(0.837661 0.0270388 0)
(0.83547 0.0330057 0)
(0.834448 0.0391672 0)
(0.83348 0.0461021 0)
(0.831934 0.0540021 0)
(0.829248 0.063101 0)
(0.825176 0.0734148 0)
(0.819325 0.0848612 0)
(0.811796 0.097304 0)
(0.803239 0.110456 0)
(0.794204 0.124044 0)
(0.785002 0.137913 0)
(0.775814 0.151898 0)
(0.766795 0.165932 0)
(0.757993 0.180057 0)
(0.749411 0.194379 0)
(0.741063 0.20901 0)
(0.732937 0.224161 0)
(0.725021 0.240039 0)
(0.717327 0.256806 0)
(0.709706 0.274558 0)
(0.702317 0.293523 0)
(0.695673 0.313983 0)
(0.689407 0.335997 0)
(0.683229 0.359213 0)
(0.67743 0.383466 0)
(0.671948 0.408631 0)
(0.667207 0.434802 0)
(0.664065 0.461863 0)
(0.662507 0.490599 0)
(0.662758 0.521759 0)
(0.666047 0.556068 0)
(0.673235 0.594419 0)
(0.685723 0.637404 0)
(0.705924 0.685682 0)
(0.736987 0.739977 0)
(0.784878 0.799804 0)
(0.855417 0.865785 0)
(0.966236 0.933323 0)
(1.09953 0.982524 0)
(2.95012 0.000777877 0)
(2.73497 0.00124391 0)
(2.15134 0.00474056 0)
(1.2602 -0.0117752 0)
(0.53445 0.00155155 0)
(0.649589 0.00405981 0)
(0.776299 0.0021223 0)
(0.852244 0.00599902 0)
(0.874496 0.0139556 0)
(0.875504 0.0228665 0)
(0.872539 0.0319701 0)
(0.869201 0.0408122 0)
(0.867393 0.0494932 0)
(0.865665 0.0583866 0)
(0.863048 0.0675783 0)
(0.85898 0.0771895 0)
(0.853133 0.0874245 0)
(0.84528 0.0984287 0)
(0.835628 0.110291 0)
(0.824889 0.122969 0)
(0.813861 0.136164 0)
(0.80296 0.14979 0)
(0.792355 0.163662 0)
(0.782291 0.177679 0)
(0.772861 0.191807 0)
(0.763967 0.206115 0)
(0.755597 0.220727 0)
(0.747775 0.235843 0)
(0.740369 0.251639 0)
(0.733221 0.268198 0)
(0.726565 0.285764 0)
(0.720903 0.304826 0)
(0.716126 0.325418 0)
(0.711638 0.347196 0)
(0.707606 0.370149 0)
(0.704446 0.394112 0)
(0.70217 0.418919 0)
(0.701028 0.444597 0)
(0.701935 0.471019 0)
(0.705135 0.498601 0)
(0.710799 0.527997 0)
(0.720166 0.559873 0)
(0.734443 0.594669 0)
(0.755106 0.632741 0)
(0.784328 0.673997 0)
(0.823965 0.718014 0)
(0.8781 0.763502 0)
(0.949384 0.807888 0)
(1.04775 0.847756 0)
(1.15758 0.868496 0)
(2.95147 -0.00127249 0)
(2.74373 -0.00309513 0)
(2.13287 -0.0386012 0)
(1.26071 -0.12542 0)
(0.624687 -0.0676878 0)
(0.696927 -0.0314035 0)
(0.802515 -0.0125455 0)
(0.874122 -0.00146729 0)
(0.891599 0.00727491 0)
(0.887013 0.0156988 0)
(0.879853 0.0244874 0)
(0.874299 0.0339508 0)
(0.872485 0.0443001 0)
(0.872454 0.0557283 0)
(0.872248 0.0680652 0)
(0.870783 0.0811862 0)
(0.867451 0.0947109 0)
(0.861648 0.108424 0)
(0.853439 0.122228 0)
(0.843258 0.136026 0)
(0.83201 0.149773 0)
(0.820515 0.163425 0)
(0.809076 0.176943 0)
(0.798107 0.19049 0)
(0.787836 0.204113 0)
(0.778354 0.217904 0)
(0.769727 0.232071 0)
(0.7619 0.246778 0)
(0.754592 0.262085 0)
(0.747929 0.278178 0)
(0.742543 0.295502 0)
(0.738429 0.314326 0)
(0.734989 0.334373 0)
(0.732164 0.355476 0)
(0.730338 0.377712 0)
(0.729674 0.400835 0)
(0.730337 0.424669 0)
(0.732528 0.449131 0)
(0.737031 0.474081 0)
(0.744205 0.499641 0)
(0.754201 0.526286 0)
(0.768157 0.554459 0)
(0.787211 0.584464 0)
(0.812625 0.616275 0)
(0.845976 0.649467 0)
(0.888695 0.683048 0)
(0.94301 0.715916 0)
(1.01066 0.745066 0)
(1.09461 0.768436 0)
(1.18356 0.777128 0)
(2.9438 0.0214692 0)
(2.69423 -0.0538606 0)
(1.91302 -0.00324987 0)
(1.11673 -0.1783 0)
(0.663323 -0.104047 0)
(0.707826 -0.0407325 0)
(0.786498 0.00614637 0)
(0.842217 0.026315 0)
(0.855927 0.0332446 0)
(0.852313 0.03821 0)
(0.846535 0.0424552 0)
(0.842221 0.0482029 0)
(0.841991 0.0560228 0)
(0.844247 0.065879 0)
(0.847556 0.0776246 0)
(0.85069 0.0910207 0)
(0.852485 0.105533 0)
(0.852229 0.120714 0)
(0.849398 0.136099 0)
(0.844113 0.151284 0)
(0.836939 0.166113 0)
(0.828244 0.180316 0)
(0.818694 0.193901 0)
(0.808982 0.206993 0)
(0.799368 0.219776 0)
(0.790251 0.232573 0)
(0.781884 0.245606 0)
(0.774139 0.259116 0)
(0.767003 0.273206 0)
(0.761057 0.288242 0)
(0.756829 0.304624 0)
(0.753852 0.322328 0)
(0.751589 0.341238 0)
(0.750382 0.361235 0)
(0.750556 0.382229 0)
(0.752205 0.403984 0)
(0.75555 0.426298 0)
(0.760665 0.448979 0)
(0.768206 0.471862 0)