/*--------------------------------*- C++ -*----------------------------------*\
| =========                 |                                                 |
| \\      /  F ield         | OpenFOAM: The Open Source CFD Toolbox           |
|  \\    /   O peration     | Version:  2412                                  |
|   \\  /    A nd           | Website:  www.openfoam.com                      |
|    \\/     M anipulation  |                                                 |
\*---------------------------------------------------------------------------*/
FoamFile
{
    version     2.0;
    format      ascii;
    arch        "LSB;label=32;scalar=64";
    class       volScalarField;
    location    "20";
    object      Ma;
}
// * * * * * * * * * * * * * * * * * * * * * * * * * * * * * * * * * * * * * //

dimensions      [0 0 0 0 0 0 0];

internalField   nonuniform List<scalar> 
7000
(
2.25609
0.99436
0.300651
0.338441
0.401069
0.442407
0.450618
0.446148
0.439793
0.434883
0.432037
0.429764
0.427165
0.424077
0.420606
0.416831
0.412764
0.408385
0.403674
0.398613
0.393192
0.387394
0.381208
0.374615
0.367602
0.360148
0.352239
0.343852
0.334971
0.325572
0.315638
0.305145
0.294075
0.282405
0.270119
0.257195
0.24362
0.229382
0.214473
0.19889
0.18264
0.165733
0.148195
0.130059
0.111372
0.0921962
0.0725936
0.0528489
0.0319247
0.0155254
2.25614
0.994421
0.300448
0.338275
0.400914
0.442259
0.45047
0.446004
0.439655
0.434751
0.43191
0.429641
0.427045
0.423962
0.420495
0.416725
0.412664
0.408291
0.403586
0.398532
0.393117
0.387328
0.38115
0.374567
0.367564
0.360123
0.352226
0.343853
0.334987
0.325605
0.315689
0.305217
0.294169
0.282523
0.270262
0.257368
0.243826
0.229623
0.214754
0.199216
0.183017
0.166171
0.148707
0.130665
0.112107
0.0931207
0.0738217
0.0546575
0.0351589
0.0220583
2.25627
0.994618
0.300581
0.33831
0.400944
0.442292
0.450504
0.446044
0.439713
0.43482
0.431992
0.429727
0.427143
0.424065
0.420612
0.41685
0.412804
0.408441
0.403754
0.398711
0.393318
0.387543
0.381389
0.374825
0.367851
0.360433
0.35257
0.344227
0.335401
0.326058
0.31619
0.305765
0.294775
0.28319
0.271
0.258182
0.244727
0.230623
0.215866
0.200458
0.18441
0.167747
0.150505
0.13275
0.114569
0.09612
0.0776364
0.0598415
0.0430425
0.0335736
2.25645
0.994924
0.300852
0.338388
0.401025
0.442391
0.450607
0.446161
0.439843
0.434979
0.432161
0.429916
0.427338
0.424283
0.42084
0.417104
0.413071
0.408737
0.404065
0.399057
0.393683
0.387948
0.381819
0.375302
0.368358
0.360996
0.353171
0.344894
0.336118
0.326852
0.317047
0.306716
0.295806
0.284332
0.272246
0.259563
0.246242
0.232305
0.217725
0.202531
0.186726
0.170353
0.153467
0.136153
0.118559
0.100899
0.0835531
0.0674593
0.0533046
0.0461821
2.25669
0.995354
0.301201
0.338457
0.40111
0.442513
0.450736
0.446311
0.440005
0.435182
0.432376
0.430163
0.427594
0.424573
0.421145
0.417447
0.413434
0.409142
0.404496
0.399534
0.394193
0.38851
0.382425
0.375966
0.369079
0.361784
0.354032
0.345832
0.337147
0.327972
0.318282
0.308059
0.297291
0.285949
0.274039
0.26152
0.248418
0.234691
0.220387
0.205472
0.190023
0.174044
0.157645
0.140926
0.124076
0.107412
0.0913744
0.0770313
0.0651104
0.0594962
2.25702
0.995927
0.301645
0.338529
0.401206
0.442658
0.450906
0.446482
0.440235
0.435418
0.432671
0.430456
0.427944
0.424924
0.42156
0.417867
0.413924
0.409642
0.405073
0.400129
0.394875
0.389219
0.383232
0.376814
0.370038
0.362799
0.355173
0.347052
0.338509
0.329441
0.319913
0.309831
0.29925
0.288093
0.2764
0.264121
0.251279
0.237861
0.223878
0.209367
0.194339
0.1789
0.163093
0.147121
0.131169
0.115616
0.100987
0.0882996
0.0781901
0.0736219
2.25744
0.996653
0.302188
0.338604
0.401313
0.442836
0.45111
0.446714
0.440497
0.435729
0.433011
0.43084
0.428354
0.425383
0.422048
0.418415
0.414505
0.410292
0.405762
0.4009
0.395693
0.390136
0.384205
0.377905
0.371198
0.364101
0.356562
0.34861
0.340178
0.331311
0.321926
0.312081
0.301686
0.290807
0.279357
0.267405
0.254882
0.241854
0.228289
0.214254
0.199779
0.184945
0.169893
0.154756
0.139837
0.125483
0.112237
0.10108
0.0924471
0.0886276
2.25796
0.997545
0.30284
0.338685
0.401433
0.443046
0.451357
0.446995
0.440815
0.436104
0.433425
0.431304
0.428855
0.425938
0.422649
0.419076
0.415223
0.411077
0.406616
0.401832
0.396709
0.391241
0.385416
0.37922
0.372644
0.365669
0.358291
0.350484
0.342253
0.333558
0.32442
0.314785
0.304694
0.294077
0.282997
0.271377
0.2593
0.246701
0.233674
0.220199
0.206382
0.192289
0.178054
0.163901
0.150058
0.136961
0.125078
0.115266
0.107846
0.104625
2.25857
0.998614
0.303609
0.338773
0.401569
0.443292
0.451654
0.447324
0.441205
0.436545
0.433925
0.431849
0.42946
0.426594
0.423373
0.419861
0.416084
0.412012
0.407639
0.402942
0.397923
0.392563
0.38686
0.380796
0.374366
0.367554
0.36035
0.352744
0.34472
0.336273
0.327384
0.318057
0.308263
0.298027
0.287307
0.27616
0.264529
0.25251
0.240049
0.227283
0.214195
0.200963
0.187676
0.174552
0.1619
0.150032
0.139456
0.130892
0.124496
0.121719
2.25929
0.999874
0.304506
0.338871
0.401723
0.443581
0.452002
0.447725
0.441658
0.437077
0.434505
0.432503
0.430164
0.427378
0.424218
0.420795
0.417091
0.41312
0.408836
0.404257
0.399346
0.394124
0.388555
0.382654
0.376388
0.369771
0.36277
0.355397
0.347623
0.339457
0.330876
0.321888
0.312476
0.302648
0.292403
0.281747
0.270706
0.259284
0.247553
0.23552
0.223328
0.211007
0.198791
0.186799
0.175342
0.164788
0.155443
0.147994
0.142493
0.140148
2.26013
1.00134
0.305539
0.33898
0.401899
0.443913
0.452413
0.448181
0.442207
0.437684
0.435201
0.433252
0.431003
0.428279
0.425219
0.421871
0.41828
0.414398
0.410243
0.405774
0.401014
0.395928
0.390535
0.384803
0.378746
0.372337
0.365586
0.358469
0.350995
0.343145
0.334925
0.326326
0.317351
0.308004
0.298289
0.288226
0.277826
0.267136
0.256181
0.245046
0.233788
0.222552
0.211444
0.200709
0.190522
0.181227
0.173168
0.166811
0.162138
0.160102
2.26109
1.00301
0.306716
0.339104
0.4021
0.4443
0.452889
0.448733
0.442829
0.438412
0.43599
0.434142
0.431957
0.429343
0.426359
0.423134
0.419633
0.415892
0.411848
0.407541
0.402917
0.39802
0.392796
0.387287
0.38144
0.375296
0.368803
0.362004
0.354849
0.34738
0.339555
0.331414
0.322926
0.314133
0.305019
0.295625
0.285967
0.276082
0.266036
0.255866
0.245705
0.235605
0.225777
0.216333
0.207545
0.199613
0.192767
0.187493
0.183635
0.182028
2.26218
1.00491
0.308046
0.339247
0.40233
0.44474
0.453442
0.449359
0.443572
0.43924
0.436922
0.435151
0.433076
0.430549
0.427689
0.424564
0.421204
0.417582
0.413701
0.409538
0.405107
0.400386
0.395391
0.390097
0.384522
0.378642
0.372477
0.366001
0.35924
0.352169
0.344818
0.337166
0.329253
0.32106
0.312642
0.303986
0.295168
0.28619
0.27715
0.268085
0.259104
0.250323
0.241837
0.233871
0.22652
0.22007
0.21465
0.210549
0.207573
0.20627
2.26339
1.00702
0.309529
0.3394
0.402603
0.445236
0.454076
0.450089
0.444421
0.440204
0.437983
0.436319
0.434345
0.431938
0.429192
0.426205
0.422976
0.419515
0.415788
0.411815
0.40757
0.403076
0.398304
0.393283
0.387981
0.382429
0.376595
0.370515
0.364159
0.357565
0.350712
0.343638
0.336335
0.328841
0.321172
0.313364
0.305459
0.297508
0.289574
0.28174
0.274085
0.266737
0.259811
0.253429
0.247786
0.242935
0.239028
0.236293
0.234371
0.233718
2.26472
1.00936
0.311167
0.33956
0.402929
0.445795
0.454805
0.450931
0.445398
0.441313
0.439197
0.437652
0.43579
0.433515
0.430898
0.428059
0.424981
0.421689
0.418144
0.41437
0.410344
0.406085
0.401581
0.39684
0.391863
0.386647
0.38121
0.375535
0.369663
0.363561
0.357294
0.350821
0.344228
0.337474
0.330662
0.323766
0.316895
0.310064
0.303374
0.296894
0.290726
0.284978
0.279772
0.275243
0.271485
0.268674
0.266701
0.265728
0.265196
0.265162
2.26618
1.01193
0.312971
0.339758
0.403293
0.446441
0.455649
0.451903
0.446548
0.442584
0.440603
0.439166
0.437449
0.435297
0.432842
0.430142
0.42725
0.424123
0.420794
0.41722
0.413449
0.409434
0.405234
0.400792
0.396176
0.391329
0.386321
0.381101
0.375739
0.370199
0.364544
0.358765
0.352907
0.347007
0.341087
0.335234
0.329459
0.323891
0.318553
0.313594
0.309084
0.305162
0.301935
0.29953
0.298088
0.297588
0.298085
0.299514
0.301158
0.302683
2.26776
1.01473
0.314932
0.339987
0.403713
0.447194
0.456632
0.453037
0.447884
0.444054
0.442215
0.440898
0.439331
0.437317
0.43503
0.432491
0.429788
0.426853
0.423744
0.420405
0.416892
0.413165
0.409269
0.405179
0.400927
0.396507
0.391938
0.387236
0.382408
0.377494
0.372492
0.367466
0.362417
0.357422
0.352505
0.347743
0.34321
0.338969
0.33516
0.33184
0.329188
0.327323
0.326401
0.326525
0.327925
0.330665
0.33453
0.339635
0.344735
0.348734
2.26944
1.01772
0.317034
0.340252
0.404202
0.44808
0.457783
0.454383
0.449429
0.445777
0.444057
0.442896
0.441459
0.439622
0.437482
0.435142
0.432611
0.429909
0.427008
0.423942
0.420686
0.417282
0.413702
0.409995
0.406133
0.402168
0.398078
0.393918
0.389679
0.385413
0.381137
0.376892
0.372732
0.368691
0.364862
0.361282
0.358076
0.35532
0.353133
0.351698
0.351073
0.351519
0.353211
0.356421
0.361339
0.368079
0.37691
0.387643
0.399379
0.409983
2.27121
1.02087
0.319257
0.340568
0.404783
0.449126
0.45914
0.455961
0.451239
0.447762
0.446174
0.445161
0.443876
0.442211
0.440248
0.438101
0.435779
0.4333
0.430651
0.427849
0.424898
0.421808
0.418598
0.415267
0.411851
0.40834
0.404788
0.401179
0.397587
0.393995
0.390494
0.387079
0.38385
0.380837
0.378135
0.375833
0.374011
0.372857
0.372435
0.372936
0.3746
0.377717
0.382639
0.389507
0.398934
0.411262
0.426959
0.447118
0.471002
0.49861
2.27303
1.02411
0.321536
0.340949
0.405493
0.450387
0.460785
0.457849
0.453414
0.450081
0.44864
0.447745
0.44663
0.445112
0.443347
0.441372
0.439279
0.437014
0.434637
0.432101
0.429474
0.426714
0.423889
0.420964
0.418004
0.414991
0.411981
0.408979
0.406034
0.403182
0.40046
0.397946
0.395666
0.393747
0.39222
0.391258
0.390898
0.391327
0.392712
0.395398
0.399603
0.405699
0.413905
0.425066
0.439632
0.459171
0.485096
0.520609
0.571943
0.664922
2.2751
1.02784
0.324056
0.341213
0.406286
0.45198
0.462931
0.460367
0.456281
0.453176
0.451894
0.451221
0.450322
0.44908
0.447562
0.4459
0.444095
0.442196
0.440167
0.438065
0.435857
0.433612
0.431294
0.42898
0.426635
0.424346
0.422081
0.41994
0.4179
0.416071
0.414453
0.413159
0.412231
0.411789
0.411931
0.412703
0.414265
0.41703
0.421221
0.426912
0.434604
0.444574
0.457846
0.474832
0.497619
0.527626
0.569611
0.631167
0.729848
0.881512
2.27731
1.03181
0.327065
0.342166
0.408017
0.454849
0.46652
0.464336
0.460569
0.457521
0.456281
0.455698
0.45496
0.453894
0.452595
0.45116
0.449636
0.448033
0.446364
0.444637
0.442877
0.441093
0.439319
0.437562
0.435872
0.434252
0.432769
0.43143
0.430322
0.429454
0.428947
0.428816
0.42918
0.430062
0.431699
0.434287
0.438001
0.442919
0.449484
0.457809
0.468607
0.482322
0.499828
0.522641
0.551811
0.591375
0.643934
0.71806
0.829012
0.967186
2.27859
1.03412
0.328936
0.343226
0.410181
0.458595
0.471246
0.46956
0.46612
0.463094
0.461889
0.461424
0.460851
0.459964
0.458853
0.457624
0.456334
0.454997
0.453628
0.452238
0.450853
0.449489
0.44818
0.446944
0.445822
0.444841
0.444049
0.443488
0.443218
0.443307
0.443765
0.444669
0.446254
0.44866
0.451881
0.45617
0.461604
0.468596
0.477211
0.488179
0.501513
0.518511
0.539231
0.565788
0.599067
0.641736
0.697398
0.767788
0.864207
0.96754
2.27975
1.03623
0.332249
0.346925
0.415046
0.465011
0.478258
0.476443
0.472653
0.469279
0.468
0.467639
0.467228
0.466517
0.465612
0.464613
0.463608
0.462582
0.46157
0.460558
0.459594
0.458674
0.457851
0.457128
0.456562
0.456173
0.456027
0.45614
0.456558
0.457367
0.458741
0.460723
0.463372
0.466861
0.471255
0.476857
0.483696
0.492285
0.502636
0.515422
0.530905
0.549736
0.572859
0.600722
0.635346
0.677126
0.728954
0.790991
0.86891
0.949981
2.27619
1.02984
0.334398
0.356836
0.427475
0.479844
0.49335
0.490553
0.485553
0.481304
0.479645
0.479089
0.478516
0.477646
0.476585
0.475492
0.474427
0.473403
0.472426
0.471514
0.470687
0.469977
0.469398
0.468999
0.468802
0.46884
0.469111
0.469779
0.470858
0.472461
0.474555
0.477343
0.480791
0.485188
0.490499
0.497093
0.504995
0.514573
0.526103
0.53981
0.556374
0.575934
0.5995
0.627392
0.660614
0.700086
0.746365
0.800744
0.864253
0.928843
2.28211
1.02268
0.358854
0.382382
0.4485
0.498398
0.510315
0.506566
0.500825
0.496441
0.494739
0.494049
0.493349
0.492399
0.491333
0.490256
0.489223
0.488226
0.487288
0.486406
0.485629
0.484955
0.484441
0.484057
0.483926
0.48408
0.484625
0.48549
0.48688
0.488726
0.491278
0.494422
0.498507
0.50337
0.509482
0.516607
0.525376
0.535481
0.547727
0.561848
0.578664
0.598201
0.62108
0.647816
0.678673
0.714624
0.755596
0.802476
0.855676
0.909244
1.87636
0.772075
0.27336
0.344128
0.417728
0.441221
0.441141
0.437162
0.433518
0.433422
0.435597
0.438485
0.441486
0.44453
0.44767
0.450918
0.454238
0.457581
0.46092
0.464237
0.467513
0.470693
0.473836
0.476977
0.48017
0.483351
0.486642
0.489963
0.493586
0.497395
0.501697
0.506389
0.511821
0.517922
0.525041
0.53318
0.542627
0.55357
0.566105
0.58075
0.597322
0.616716
0.638484
0.663815
0.692094
0.72457
0.760561
0.801039
0.845853
0.890604
1.86892
0.771458
0.282255
0.355364
0.428316
0.447785
0.443326
0.435972
0.430312
0.428414
0.428324
0.428727
0.429327
0.430231
0.431579
0.43336
0.435619
0.438226
0.441303
0.44473
0.448615
0.452684
0.457161
0.461808
0.466841
0.471997
0.477535
0.483266
0.489357
0.495685
0.502415
0.50949
0.517048
0.525188
0.533982
0.543734
0.554333
0.566358
0.579549
0.594622
0.611269
0.630252
0.651293
0.675054
0.701393
0.730705
0.76302
0.79815
0.836557
0.874239
1.86796
0.770146
0.284388
0.365079
0.443606
0.463693
0.457519
0.448151
0.441142
0.438406
0.437505
0.436906
0.436318
0.435915
0.435827
0.436097
0.436726
0.437729
0.439261
0.441245
0.443733
0.446651
0.450168
0.454175
0.458804
0.463952
0.469676
0.475933
0.482722
0.490097
0.49797
0.506562
0.515649
0.525606
0.536023
0.547471
0.559527
0.572802
0.58697
0.602648
0.619574
0.638309
0.658727
0.681229
0.705766
0.732578
0.761623
0.792829
0.826448
0.858982
1.86945
0.773424
0.29018
0.367295
0.443678
0.464289
0.45908
0.450567
0.443986
0.441619
0.441142
0.440963
0.440746
0.440635
0.440719
0.441025
0.441612
0.442519
0.443707
0.445189
0.446992
0.449227
0.451868
0.455079
0.458764
0.463145
0.468058
0.473779
0.480052
0.487251
0.494996
0.503758
0.513063
0.523437
0.534448
0.546584
0.559493
0.573595
0.588592
0.604849
0.622212
0.640953
0.66104
0.682691
0.705876
0.730727
0.757178
0.785276
0.815069
0.843722
1.87255
0.780099
0.297857
0.36125
0.42905
0.450297
0.448024
0.441963
0.436353
0.434476
0.434511
0.435042
0.435629
0.436343
0.437236
0.438407
0.439867
0.441552
0.443422
0.44553
0.447874
0.450537
0.453495
0.456866
0.460603
0.46488
0.469596
0.475006
0.480933
0.487706
0.495085
0.50341
0.512448
0.522496
0.533365
0.545279
0.558104
0.572023
0.586963
0.603066
0.620293
0.638779
0.658425
0.67937
0.701493
0.724969
0.749581
0.775308
0.802327
0.828169
1.88113
0.78668
0.300109
0.349035
0.412176
0.441233
0.444213
0.43953
0.434378
0.432093
0.431847
0.432369
0.433088
0.434007
0.435104
0.436436
0.438032
0.439888
0.442001
0.444398
0.447073
0.45008
0.45339
0.45709
0.461128
0.465645
0.470552
0.476053
0.482014
0.488689
0.495934
0.503993
0.51276
0.522419
0.532906
0.544374
0.556752
0.570172
0.584568
0.600061
0.616578
0.634228
0.652929
0.672782
0.693684
0.715671
0.738597
0.762424
0.787245
0.810898
2.26316
1.10615
0.407305
0.399213
0.459387
0.508089
0.519385
0.514495
0.507573
0.501522
0.498004
0.495531
0.493419
0.491399
0.48937
0.487397
0.485671
0.484181
0.483032
0.482183
0.481754
0.481703
0.482156
0.483088
0.484568
0.486632
0.489316
0.492676
0.496716
0.501526
0.507083
0.513498
0.520741
0.528935
0.53803
0.548157
0.559247
0.571416
0.584592
0.598877
0.614169
0.630566
0.647944
0.666355
0.685712
0.706005
0.727133
0.749015
0.771731
0.793342
2.27258
1.12805
0.391779
0.377152
0.450014
0.510739
0.529145
0.528265
0.524043
0.520239
0.518796
0.51842
0.518404
0.518364
0.517948
0.517318
0.516645
0.516015
0.515447
0.514971
0.514603
0.514407
0.514404
0.514675
0.515257
0.516227
0.517622
0.519553
0.522016
0.525166
0.528953
0.533566
0.538925
0.545208
0.552349
0.560479
0.569575
0.579729
0.590927
0.6032
0.616574
0.630997
0.646496
0.662975
0.680406
0.69872
0.717823
0.737622
0.758182
0.77775
2.2975
1.17677
0.434357
0.384017
0.447109
0.503407
0.521891
0.522921
0.521097
0.519912
0.520331
0.521563
0.523358
0.525159
0.526567
0.527767
0.528891
0.530038
0.531187
0.532367
0.533553
0.534797
0.536089
0.537491
0.539004
0.540701
0.542598
0.544769
0.54726
0.550138
0.55347
0.557307
0.561748
0.566821
0.572648
0.579238
0.586709
0.595049
0.604354
0.614602
0.625835
0.638027
0.651203
0.66535
0.680438
0.69644
0.713255
0.730731
0.748956
0.766341
1.90077
0.805059
0.305863
0.316886
0.373999
0.414884
0.429168
0.432997
0.435822
0.439475
0.444408
0.450156
0.456595
0.463092
0.46927
0.475269
0.481236
0.4872
0.493146
0.499032
0.504856
0.510596
0.516271
0.521859
0.527397
0.53286
0.538317
0.543737
0.549215
0.55474
0.560384
0.566192
0.572228
0.578559
0.585237
0.592363
0.599961
0.608152
0.616925
0.626415
0.636578
0.647553
0.65925
0.671774
0.685013
0.698981
0.713616
0.728943
0.744959
0.760277
2.30601
1.19391
0.4497
0.386664
0.44068
0.492257
0.509262
0.509325
0.506178
0.503701
0.502443
0.502258
0.502712
0.503108
0.503431
0.503935
0.504759
0.506035
0.50773
0.509888
0.512461
0.515502
0.518964
0.522891
0.527204
0.531963
0.537048
0.542551
0.548312
0.554449
0.560834
0.567575
0.574555
0.581895
0.589487
0.597471
0.605761
0.614488
0.623594
0.633192
0.64325
0.653852
0.664983
0.676674
0.688935
0.701748
0.715122
0.728966
0.74337
0.757091
2.31125
1.20388
0.432997
0.369749
0.438389
0.500655
0.522114
0.523529
0.521309
0.519839
0.519966
0.521097
0.522827
0.524331
0.525356
0.526203
0.527037
0.527985
0.529059
0.530347
0.531855
0.533669
0.535776
0.53826
0.541108
0.544384
0.548078
0.552232
0.556845
0.561929
0.567485
0.573499
0.579979
0.586899
0.594292
0.602096
0.610367
0.619025
0.628152
0.637653
0.64763
0.657976
0.668813
0.680016
0.691708
0.703762
0.716275
0.729109
0.742392
0.754996
2.31397
1.20971
0.437172
0.371791
0.441516
0.505378
0.52776
0.529444
0.52728
0.525932
0.526404
0.527921
0.530191
0.532385
0.534104
0.535632
0.537159
0.53879
0.540522
0.542383
0.544371
0.546517
0.548838
0.551367
0.554135
0.557168
0.560509
0.56417
0.568206
0.572615
0.577454
0.58271
0.588441
0.594614
0.601284
0.60841
0.616036
0.624119
0.632689
0.641707
0.651186
0.661103
0.671444
0.682201
0.693335
0.704856
0.716698
0.728875
0.741379
0.75327
2.31695
1.21742
0.463545
0.387857
0.447116
0.506247
0.528811
0.532045
0.531168
0.530797
0.53169
0.533618
0.536157
0.538455
0.540482
0.542385
0.544343
0.546384
0.548562
0.550843
0.553274
0.555824
0.55855
0.561421
0.564499
0.567757
0.57126
0.574986
0.578999
0.583284
0.587902
0.592847
0.598167
0.603865
0.609969
0.616487
0.623433
0.630824
0.638654
0.646944
0.655662
0.664838
0.674422
0.68444
0.694828
0.705606
0.716699
0.728108
0.739853
0.751031
1.90564
0.813604
0.324755
0.323677
0.376475
0.414368
0.427256
0.430299
0.43259
0.435931
0.440702
0.446614
0.453342
0.460161
0.466871
0.473533
0.480268
0.487064
0.49393
0.50081
0.507709
0.514589
0.521467
0.528317
0.535163
0.541993
0.548832
0.55568
0.562559
0.569481
0.576464
0.583536
0.590711
0.59803
0.605498
0.613169
0.621037
0.629158
0.637523
0.646172
0.655097
0.664324
0.673838
0.683663
0.693774
0.70418
0.714857
0.725794
0.737041
0.747718
2.31205
1.20873
0.465058
0.403531
0.466229
0.527419
0.549352
0.550282
0.546139
0.542307
0.5401
0.538727
0.538132
0.537735
0.537001
0.536278
0.535711
0.535557
0.535744
0.536431
0.537543
0.539155
0.541236
0.543824
0.546883
0.550439
0.554452
0.558947
0.563868
0.569237
0.574998
0.581159
0.587668
0.594535
0.60172
0.60923
0.617035
0.625138
0.633518
0.642184
0.651122
0.660336
0.669818
0.679566
0.689563
0.699799
0.710262
0.720926
0.731855
0.742219
2.29409
1.16969
0.460153
0.422727
0.485828
0.546228
0.566118
0.566159
0.562439
0.559202
0.558445
0.558848
0.559934
0.561198
0.56207
0.562709
0.5633
0.563958
0.564693
0.565516
0.566437
0.5675
0.568751
0.570235
0.571983
0.57404
0.576423
0.579166
0.582283
0.585798
0.589713
0.594051
0.598814
0.604013
0.609642
0.615701
0.622179
0.629068
0.636356
0.644025
0.652059
0.660439
0.669143
0.678156
0.687473
0.69706
0.706917
0.717005
0.727376
0.73723
1.88784
0.805087
0.340822
0.355375
0.406347
0.443125
0.452859
0.452687
0.451751
0.452603
0.455916
0.46054
0.46608
0.472147
0.478237
0.48436
0.490577
0.496899
0.503276
0.509665
0.516029
0.522356
0.528634
0.534865
0.541042
0.547177
0.553278
0.559371
0.565473
0.571618
0.57783
0.584131
0.590551
0.597113
0.603842
0.610757
0.61788
0.625223
0.632801
0.640619
0.648694
0.657022
0.665614
0.674452
0.683533
0.692848
0.702381
0.712122
0.722111
0.731605
1.87402
0.796333
0.339557
0.35667
0.398324
0.426962
0.434876
0.434831
0.433824
0.433312
0.434044
0.435678
0.438234
0.441441
0.444933
0.448765
0.453021
0.457739
0.4629
0.468483
0.474448
0.480772
0.48741
0.49434
0.501516
0.508915
0.516495
0.524235
0.532101
0.54008
0.548144
0.556307
0.564538
0.57286
0.581249
0.589737
0.598304
0.606983
0.615769
0.624668
0.633677
0.642814
0.652079
0.661487
0.671033
0.680727
0.690564
0.700539
0.710693
0.720306
1.88891
0.806061
0.345067
0.373666
0.430946
0.466905
0.473636
0.469582
0.464499
0.461395
0.460443
0.460413
0.461004
0.461968
0.463006
0.464179
0.46561
0.467371
0.469496
0.471998
0.474899
0.47821
0.481959
0.486141
0.490772
0.495838
0.501347
0.50727
0.513608
0.520324
0.527421
0.534852
0.542617
0.55067
0.559004
0.567573
0.576376
0.585369
0.594546
0.603894
0.61341
0.623068
0.63287
0.642787
0.652828
0.662969
0.673217
0.68355
0.694036
0.703931
2.34077
1.12437
0.469107
0.447606
0.513168
0.574913
0.595537
0.59493
0.589632
0.584328
0.581317
0.579407
0.577842
0.57647
0.574916
0.573183
0.571409
0.569696
0.568085
0.566606
0.565282
0.564149
0.563234
0.562584
0.562227
0.562215
0.562565
0.563336
0.564521
0.566158
0.568278
0.570886
0.57401
0.577629
0.581771
0.586405
0.591547
0.597162
0.603259
0.60979
0.616757
0.624113
0.631843
0.639937
0.648352
0.657072
0.666057
0.675295
0.684793
0.693852
1.88937
0.80725
0.346198
0.363485
0.415829
0.456089
0.468561
0.469566
0.469017
0.468995
0.471283
0.4748
0.479007
0.483742
0.488566
0.493379
0.49822
0.503149
0.508125
0.513137
0.518128
0.523105
0.528031
0.53293
0.537773
0.542597
0.547377
0.552155
0.556933
0.561741
0.566586
0.571501
0.576486
0.581594
0.586822
0.592223
0.597787
0.603569
0.60955
0.615786
0.622248
0.628985
0.635971
0.643217
0.65071
0.658462
0.666454
0.674684
0.683167
0.691273
1.8891
0.807397
0.347508
0.364552
0.416102
0.454593
0.465043
0.463979
0.461104
0.458545
0.458078
0.458918
0.460503
0.462709
0.465128
0.467718
0.470586
0.473814
0.477407
0.48135
0.485616
0.490187
0.495043
0.500165
0.505532
0.511118
0.516903
0.522863
0.52898
0.535252
0.541656
0.54819
0.554843
0.561604
0.56847
0.575436
0.582504
0.589675
0.596952
0.604337
0.611839
0.619453
0.627193
0.635053
0.64305
0.651175
0.659441
0.667833
0.676399
0.684534
2.34279
1.12805
0.472786
0.44967
0.516421
0.580664
0.603119
0.603224
0.598145
0.593076
0.590293
0.588738
0.58761
0.586759
0.585756
0.584591
0.583366
0.582241
0.581203
0.580345
0.579605
0.579094
0.578748
0.578688
0.578844
0.579325
0.580088
0.581175
0.582601
0.584375
0.586504
0.588987
0.591826
0.595018
0.598563
0.602459
0.6067
0.611278
0.616183
0.62141
0.626941
0.632771
0.638882
0.645267
0.651908
0.658799
0.665919
0.673263
0.680833
0.688074
1.88982
0.80879
0.35347
0.38143
0.439693
0.479645
0.489605
0.487925
0.484879
0.483493
0.484918
0.487593
0.490941
0.494776
0.498676
0.502626
0.506689
0.510918
0.515281
0.519764
0.524327
0.52896
0.533644
0.538375
0.543146
0.54795
0.552792
0.55767
0.562595
0.56757
0.572604
0.577711
0.582891
0.588168
0.593539
0.599026
0.604626
0.610357
0.616217
0.622219
0.628369
0.634675
0.641139
0.647765
0.654554
0.661509
0.668628
0.675901
0.683356
0.690455
1.87525
0.799754
0.35119
0.378117
0.427538
0.459451
0.4671
0.465972
0.464291
0.463576
0.464102
0.465301
0.4672
0.469485
0.471836
0.474317
0.477024
0.480007
0.483275
0.486824
0.490645
0.494732
0.499074
0.503666
0.508497
0.513555
0.518828
0.524303
0.529967
0.535807
0.541811
0.547961
0.554264
0.560697
0.567267
0.573954
0.58077
0.587697
0.594747
0.601903
0.609175
0.616546
0.624028
0.631608
0.639298
0.647084
0.654978
0.662967
0.6711
0.678801
1.87423
0.799384
0.351711
0.375363
0.422435
0.454103
0.462318
0.461857
0.460741
0.460121
0.46039
0.461215
0.462697
0.464532
0.46638
0.468281
0.470337
0.472592
0.475065
0.477754
0.480671
0.483817
0.487205
0.490832
0.494708
0.49883
0.503202
0.50782
0.512687
0.517795
0.523147
0.528734
0.534553
0.540594
0.546851
0.553312
0.559973
0.566816
0.573844
0.58104
0.588405
0.595928
0.603606
0.611424
0.619377
0.627453
0.635661
0.643993
0.65248
0.660539
1.88906
0.809126
0.354895
0.362673
0.413304
0.452102
0.463045
0.462632
0.460843
0.459597
0.459632
0.460442
0.461981
0.463884
0.465711
0.467517
0.469434
0.471526
0.47381
0.476284
0.47895
0.481808
0.484864
0.488119
0.491578
0.495243
0.499119
0.503205
0.507506
0.512021
0.516755
0.521706
0.526876
0.532263
0.537868
0.543687
0.54972
0.555962
0.562411
0.569062
0.575908
0.582943
0.59016
0.597555
0.605127
0.612871
0.620774
0.628828
0.637053
0.644877
2.31236
1.20474
0.485483
0.431503
0.492596
0.55683
0.582824
0.58632
0.583657
0.580925
0.579637
0.579322
0.579811
0.580641
0.581179
0.58147
0.581702
0.581985
0.582361
0.582829
0.583394
0.584058
0.584834
0.585729
0.586759
0.587927
0.58925
0.590731
0.592385
0.594216
0.596238
0.598453
0.600877
0.603508
0.606362
0.609436
0.612743
0.61628
0.620059
0.624073
0.628334
0.632832
0.637576
0.642557
0.647782
0.653236
0.65892
0.664813
0.670944
0.676838
2.32258
1.22885
0.466165
0.405388
0.481462
0.557529
0.588701
0.593383
0.590751
0.587888
0.5869
0.587353
0.588642
0.590457
0.59214
0.593537
0.594868
0.596281
0.597834
0.599514
0.601318
0.603229
0.605258
0.607397
0.60966
0.612037
0.61454
0.617162
0.619914
0.622789
0.625799
0.628938
0.632217
0.635631
0.639191
0.642892
0.646746
0.650746
0.654906
0.659217
0.663693
0.668327
0.673131
0.678098
0.683236
0.688536
0.694003
0.699623
0.705422
0.71096
2.31275
1.20624
0.486717
0.432565
0.49437
0.559833
0.586898
0.591051
0.588999
0.586887
0.586318
0.586974
0.588483
0.590472
0.592272
0.593865
0.595439
0.597122
0.598951
0.600926
0.603035
0.60528
0.607657
0.610175
0.612831
0.615633
0.618576
0.621666
0.6249
0.628284
0.631813
0.635494
0.63932
0.643299
0.647424
0.651703
0.656128
0.660708
0.665433
0.670312
0.675336
0.680514
0.685836
0.691311
0.696927
0.702694
0.708599
0.71465
0.720858
0.726797
1.88896
0.809184
0.356096
0.364318
0.416394
0.457012
0.469111
0.469129
0.467543
0.466529
0.467173
0.468798
0.47128
0.474236
0.477169
0.480135
0.483243
0.486571
0.490114
0.493875
0.49783
0.501984
0.506319
0.510846
0.515545
0.520427
0.525471
0.530689
0.53606
0.541595
0.547274
0.553109
0.559078
0.565195
0.571439
0.577823
0.584327
0.590963
0.597713
0.60459
0.611573
0.618679
0.625886
0.633209
0.640627
0.648156
0.655778
0.663513
0.671377
0.678865
1.87421
0.80002
0.355321
0.380486
0.42859
0.460136
0.467657
0.46649
0.464749
0.463867
0.464084
0.464935
0.466476
0.468357
0.470189
0.472039
0.474003
0.476142
0.478453
0.480946
0.483611
0.486461
0.489488
0.492707
0.49611
0.49971
0.503499
0.507489
0.511669
0.516052
0.520626
0.525403
0.53037
0.535536
0.540891
0.546441
0.552175
0.5581
0.564203
0.57049
0.576947
0.583581
0.590378
0.597342
0.604458
0.611733
0.619151
0.626718
0.634445
0.641807
1.87704
0.80311
0.359402
0.395161
0.451565
0.48457
0.490493
0.486962
0.482778
0.48083
0.480819
0.481614
0.483025
0.484689
0.486287
0.487908
0.489652
0.491564
0.493639
0.495876
0.498268
0.500821
0.503533
0.506412
0.509455
0.512669
0.51605
0.519607
0.523335
0.527241
0.53132
0.535579
0.540014
0.544629
0.54942
0.554392
0.559539
0.564866
0.570366
0.576044
0.581892
0.587914
0.594103
0.600461
0.606979
0.61366
0.620494
0.627481
0.634626
0.641438
1.19164
1.0492
0.497832
0.190612
0.0104402
0.108669
0.159976
0.208357
0.229992
0.234393
0.222759
0.211324
0.201019
0.191482
0.179445
0.164989
0.147655
0.127724
0.105899
0.0827612
0.0589344
0.0352313
0.0158462
0.0232911
0.0470537
0.0713318
0.0955035
0.119207
0.142539
0.165444
0.187958
0.210037
0.231684
0.25283
0.272852
0.291957
0.311506
0.331883
0.35186
0.371031
0.389557
0.407559
0.425092
0.442151
0.45874
0.474844
0.490469
0.5056
0.52024
0.534375
0.548004
0.561109
0.573685
0.585707
0.597166
0.608032
0.618289
0.627905
0.636856
0.645106
0.65263
0.659388
0.665355
0.670497
0.674791
0.678217
0.680771
0.68246
0.683305
0.683517
0.683372
0.682867
0.681623
0.679214
0.67589
0.672333
0.668697
0.665021
0.661367
0.657821
0.654481
0.651424
0.648717
0.646397
0.644495
0.643014
0.641953
0.641286
0.640998
0.641007
0.641199
0.641571
0.642244
0.643374
0.644798
0.646345
0.64792
0.649608
0.651258
0.656031
1.12203
1.03621
0.806423
0.549472
0.502543
0.431439
0.381409
0.340612
0.310278
0.291717
0.260447
0.230239
0.210679
0.208953
0.216087
0.226648
0.23911
0.253041
0.268176
0.284048
0.300432
0.316921
0.333253
0.349444
0.366185
0.383184
0.400357
0.417469
0.434576
0.451518
0.46838
0.485019
0.501526
0.517768
0.533437
0.548359
0.563368
0.579093
0.594971
0.610203
0.624935
0.639314
0.653409
0.667192
0.680664
0.693789
0.706578
0.719001
0.73107
0.742753
0.754059
0.764955
0.775444
0.785489
0.795092
0.804208
0.812835
0.820926
0.828473
0.835427
0.841778
0.847474
0.852506
0.856824
0.860425
0.86327
0.865371
0.866708
0.867328
0.867379
0.867115
0.866499
0.865229
0.862939
0.859785
0.856364
0.852854
0.849331
0.845849
0.842493
0.839341
0.836473
0.833943
0.831795
0.830044
0.828703
0.827758
0.827194
0.826999
0.827061
0.827268
0.827639
0.828241
0.829246
0.83049
0.831862
0.83321
0.834644
0.835846
0.83965
1.07472
1.07565
1.00823
0.899911
0.831325
0.781138
0.745191
0.715091
0.690267
0.672185
0.657135
0.642833
0.63283
0.627723
0.626214
0.62649
0.628025
0.630461
0.633869
0.638161
0.643295
0.649086
0.655459
0.662304
0.669864
0.678032
0.686802
0.695961
0.70553
0.715335
0.725443
0.735693
0.746179
0.756726
0.767107
0.777051
0.78712
0.797901
0.809264
0.820361
0.831169
0.84179
0.852308
0.862708
0.872988
0.883104
0.893052
0.902796
0.912339
0.921644
0.930713
0.939508
0.948028
0.956231
0.964114
0.971632
0.978778
0.985506
0.991804
0.997623
1.00295
1.00774
1.01197
1.01561
1.01863
1.02101
1.02274
1.0238
1.02421
1.02413
1.0238
1.02316
1.02192
1.0198
1.0169
1.01371
1.0104
1.0071
1.00385
1.00075
0.997842
0.99522
0.992915