/*--------------------------------*- C++ -*----------------------------------*\
| =========                 |                                                 |
| \\      /  F ield         | OpenFOAM: The Open Source CFD Toolbox           |
|  \\    /   O peration     | Version:  2412                                  |
|   \\  /    A nd           | Website:  www.openfoam.com                      |
|    \\/     M anipulation  |                                                 |
\*---------------------------------------------------------------------------*/
FoamFile
{
    version     2.0;
    format      ascii;
    arch        "LSB;label=32;scalar=64";
    class       volScalarField;
    location    "20";
    object      p;
}
// * * * * * * * * * * * * * * * * * * * * * * * * * * * * * * * * * * * * * //

dimensions      [1 -1 -2 0 0 0 0];

internalField   nonuniform List<scalar> 
7000
(
1.63878
3.75605
11.4539
11.5278
11.0973
10.6877
10.5689
10.5835
10.6245
10.6643
10.6861
10.6999
10.7144
10.7321
10.7525
10.7747
10.7985
10.824
10.8512
10.8802
10.911
10.9437
10.9782
11.0146
11.0528
11.0929
11.1347
11.1784
11.2238
11.2708
11.3195
11.3696
11.421
11.4736
11.5271
11.5814
11.636
11.6906
11.7448
11.7982
11.8502
11.9002
11.9477
11.9919
12.0321
12.0677
12.098
12.1225
12.1402
12.1531
1.63909
3.75476
11.4534
11.5271
11.0968
10.6874
10.5686
10.5832
10.6242
10.6639
10.6857
10.6994
10.7139
10.7316
10.7519
10.7741
10.7979
10.8234
10.8505
10.8795
10.9103
10.943
10.9774
11.0138
11.052
11.092
11.1338
11.1775
11.2228
11.2698
11.3184
11.3685
11.4199
11.4725
11.526
11.5802
11.6348
11.6894
11.7437
11.7971
11.8491
11.8992
11.9468
11.9911
12.0314
12.0672
12.0976
12.1222
12.1399
12.1529
1.63898
3.75382
11.4516
11.5263
11.0961
10.6867
10.5679
10.5825
10.6234
10.663
10.6847
10.6984
10.7128
10.7305
10.7508
10.7729
10.7966
10.822
10.8491
10.878
10.9087
10.9413
10.9757
11.0119
11.05
11.0899
11.1316
11.1751
11.2203
11.2672
11.3157
11.3656
11.4169
11.4693
11.5227
11.5767
11.6312
11.6857
11.7398
11.7931
11.8451
11.8951
11.9426
11.9869
12.0273
12.063
12.0935
12.1181
12.1357
12.1486
1.63885
3.75254
11.4483
11.5252
11.0952
10.6855
10.5667
10.5813
10.6221
10.6615
10.6831
10.6967
10.7111
10.7287
10.7489
10.7709
10.7946
10.8198
10.8468
10.8756
10.9062
10.9386
10.9728
11.0089
11.0468
11.0866
11.1281
11.1714
11.2164
11.2631
11.3113
11.361
11.412
11.4642
11.5173
11.5711
11.6253
11.6796
11.7335
11.7867
11.8385
11.8884
11.9358
11.98
12.0203
12.056
12.0864
12.111
12.1285
12.1414
1.63868
3.75067
11.4435
11.5238
11.0939
10.6839
10.565
10.5795
10.6202
10.6595
10.6809
10.6945
10.7087
10.7262
10.7462
10.7681
10.7916
10.8167
10.8435
10.8722
10.9026
10.9348
10.9688
11.0047
11.0424
11.0818
11.1231
11.1661
11.2108
11.2572
11.3051
11.3544
11.4051
11.4569
11.5096
11.5631
11.6169
11.6708
11.7244
11.7773
11.8288
11.8785
11.9257
11.9698
12.01
12.0457
12.0761
12.1008
12.1182
12.1311
1.63846
3.74814
11.4372
11.522
11.0923
10.6818
10.5628
10.5772
10.6178
10.6568
10.6781
10.6914
10.7056
10.7229
10.7427
10.7645
10.7877
10.8126
10.8393
10.8676
10.8978
10.9298
10.9635
10.9991
11.0364
11.0756
11.1164
11.1591
11.2034
11.2493
11.2967
11.3456
11.3958
11.4471
11.4993
11.5522
11.6056
11.659
11.7122
11.7646
11.8157
11.8651
11.912
11.9559
11.996
12.0316
12.062
12.0867
12.1041
12.1171
1.63819
3.74491
11.4293
11.5198
11.0902
10.6792
10.5599
10.5742
10.6146
10.6534
10.6744
10.6876
10.7015
10.7186
10.7383
10.7598
10.7828
10.8075
10.8338
10.8619
10.8918
10.9234
10.9568
10.9919
11.0289
11.0676
11.108
11.1501
11.1939
11.2392
11.2861
11.3344
11.3839
11.4345
11.4861
11.5384
11.5911
11.6438
11.6963
11.7482
11.7988
11.8477
11.8942
11.9378
11.9777
12.0132
12.0435
12.0682
12.0855
12.0989
1.63788
3.74092
11.4197
11.517
11.0877
10.676
10.5563
10.5705
10.6107
10.6492
10.67
10.6829
10.6966
10.7134
10.7328
10.754
10.7768
10.8011
10.8271
10.8548
10.8843
10.9155
10.9485
10.9832
11.0196
11.0577
11.0976
11.1391
11.1822
11.2268
11.273
11.3205
11.3692
11.419
11.4697
11.5211
11.5729
11.6249
11.6765
11.7276
11.7775
11.8257
11.8717
11.9148
11.9544
11.9896
12.0198
12.0446
12.062
12.0755
1.63751
3.73612
11.4081
11.5137
11.0847
10.6721
10.552
10.5661
10.6059
10.6441
10.6646
10.6772
10.6906
10.7071
10.7262
10.7471
10.7695
10.7934
10.819
10.8463
10.8753
10.906
10.9384
10.9726
11.0084
11.0459
11.085
11.1257
11.168
11.2118
11.2571
11.3036
11.3514
11.4002
11.4498
11.5001
11.5509
11.6017
11.6523
11.7023
11.7512
11.7985
11.8438
11.8862
11.9253
11.9602
11.9902
12.0149
12.0323
12.0462
1.63708
3.73045
11.3945
11.5099
11.0812
10.6676
10.5468
10.5608
10.6003
10.6381
10.6582
10.6704
10.6835
10.6997
10.7184
10.7389
10.7608
10.7843
10.8094
10.8362
10.8647
10.8948
10.9266
10.96
10.9951
11.0318
11.0701
11.1099
11.1512
11.194
11.2382
11.2836
11.3301
11.3777
11.426
11.475
11.5244
11.5738
11.6231
11.6717
11.7194
11.7655
11.8096
11.8512
11.8894
11.9238
11.9535
11.9781
11.9955
12.0097
1.63659
3.72387
11.3788
11.5054
11.0771
10.6623
10.5408
10.5546
10.5936
10.631
10.6506
10.6625
10.6752
10.691
10.7092
10.7292
10.7507
10.7737
10.7982
10.8244
10.8522
10.8816
10.9127
10.9453
10.9795
11.0153
11.0526
11.0914
11.1316
11.1731
11.216
11.26
11.3052
11.3512
11.398
11.4453
11.493
11.5407
11.5882
11.6352
11.6811
11.7257
11.7683
11.8085
11.8457
11.8792
11.9082
11.9325
11.9499
11.9646
1.63604
3.71633
11.3608
11.5002
11.0724
10.6563
10.5339
10.5474
10.5859
10.6228
10.6419
10.6533
10.6656
10.6808
10.6986
10.7181
10.739
10.7613
10.7852
10.8107
10.8378
10.8664
10.8966
10.9283
10.9615
10.9962
11.0324
11.0699
11.1088
11.1489
11.1903
11.2327
11.2761
11.3203
11.3652
11.4106
11.4562
11.5018
11.5472
11.5919
11.6356
11.678
11.7186
11.7569
11.7924
11.8246
11.8526
11.8764
11.8935
11.9086
1.63542
3.70781
11.3405
11.4943
11.067
10.6494
10.5259
10.5391
10.577
10.6133
10.6319
10.6428
10.6545
10.6692
10.6864
10.7053
10.7255
10.7472
10.7704
10.7951
10.8213
10.849
10.8782
10.9088
10.9409
10.9744
11.0092
11.0453
11.0826
11.1211
11.1607
11.2013
11.2426
11.2847
11.3274
11.3703
11.4134
11.4564
11.499
11.541
11.5819
11.6214
11.6592
11.6948
11.7278
11.7578
11.7841
11.8068
11.8233
11.839
1.63475
3.69824
11.3178
11.4876
11.0608
10.6417
10.5168
10.5296
10.5668
10.6024
10.6204
10.6307
10.6418
10.6559
10.6725
10.6906
10.7102
10.7311
10.7534
10.7772
10.8025
10.8292
10.8573
10.8867
10.9175
10.9495
10.9828
11.0173
11.0529
11.0895
11.127
11.1654
11.2044
11.244
11.2839
11.324
11.3641
11.4039
11.4431
11.4815
11.5187
11.5544
11.5884
11.6201
11.6495
11.6761
11.6996
11.7202
11.7355
11.7514
1.63403
3.68762
11.2928
11.48
11.0538
10.633
10.5066
10.5189
10.5552
10.59
10.6073
10.617
10.6274
10.6409
10.6567
10.6741
10.6928
10.7129
10.7343
10.7571
10.7813
10.8068
10.8337
10.8617
10.891
10.9215
10.9531
10.9857
11.0193
11.0537
11.0889
11.1247
11.161
11.1977
11.2345
11.2712
11.3076
11.3434
11.3785
11.4124
11.4448
11.4755
11.5042
11.5305
11.5543
11.5755
11.5941
11.6108
11.6235
11.6398
1.63323
3.67602
11.2654
11.4716
11.0462
10.6234
10.495
10.5068
10.542
10.5759
10.5925
10.6015
10.6112
10.6239
10.6389
10.6555
10.6733
10.6924
10.7128
10.7346
10.7576
10.7818
10.8072
10.8338
10.8614
10.8901
10.9198
10.9503
10.9816
11.0136
11.0461
11.079
11.1122
11.1455
11.1785
11.2112
11.2433
11.2744
11.3043
11.3325
11.3588
11.3829
11.4043
11.4229
11.4385
11.4514
11.4618
11.4713
11.4785
11.4934
1.63238
3.66348
11.2356
11.4625
11.0378
10.6126
10.4821
10.4931
10.527
10.56
10.5758
10.5841
10.593
10.6048
10.619
10.6346
10.6515
10.6696
10.6889
10.7094
10.7311
10.7539
10.7778
10.8027
10.8285
10.8552
10.8827
10.9109
10.9397
10.9689
10.9984
11.028
11.0576
11.087
11.1158
11.1438
11.1707
11.1961
11.2197
11.241
11.2595
11.2748
11.2864
11.2941
11.2972
11.2966
11.2931
11.2888
11.2848
11.2955
1.63148
3.65011
11.2037
11.4527
11.0287
10.6006
10.4674
10.4777
10.5101
10.542
10.557
10.5645
10.5725
10.5835
10.5967
10.6114
10.6272
10.6441
10.6622
10.6814
10.7017
10.723
10.7451
10.7682
10.792
10.8166
10.8417
10.8673
10.8932
10.9194
10.9455
10.9715
10.9971
11.022
11.0459
11.0685
11.0893
11.108
11.124
11.1367
11.1455
11.1493
11.1477
11.1408
11.1258
11.1039
11.0761
11.0453
11.0151
11.0114
1.63054
3.6361
11.1703
11.4422
11.0187
10.5874
10.4511
10.4604
10.491
10.5218
10.536
10.5426
10.5498
10.5598
10.572
10.5857
10.6004
10.6161
10.6329
10.6507
10.6694
10.6889
10.7093
10.7303
10.752
10.7741
10.7967
10.8194
10.8423
10.865
10.8874
10.9093
10.9304
10.9503
10.9687
10.9851
10.999
11.0098
11.0169
11.0189
11.0161
11.0065
10.9871
10.958
10.9173
10.863
10.7937
10.7118
10.6212
10.5658
1.62959
3.62171
11.1362
11.4311
11.0079
10.5725
10.4324
10.4405
10.4691
10.4987
10.5121
10.5179
10.5243
10.5333
10.5445
10.557
10.5706
10.5851
10.6005
10.6167
10.6338
10.6515
10.6699
10.6888
10.7081
10.7276
10.7473
10.767
10.7864
10.8055
10.8238
10.8412
10.8573
10.8716
10.8838
10.8933
10.8995
10.9009
10.8982
10.8892
10.8707
10.8425
10.8017
10.7453
10.6685
10.5654
10.4275
10.2465
10.0127
9.75832
1.6288
3.60338
11.0955
11.4179
10.9942
10.5532
10.4075
10.4141
10.4399
10.4682
10.4808
10.4857
10.4909
10.4987
10.5085
10.5197
10.5318
10.5446
10.5582
10.5725
10.5875
10.6029
10.6188
10.6349
10.6512
10.6675
10.6836
10.6994
10.7145
10.7288
10.742
10.7536
10.7633
10.7707
10.7748
10.7747
10.7719
10.763
10.745
10.7182
10.6805
10.6284
10.5577
10.4615
10.3306
10.1482
9.88516
9.47995
8.78159
7.25936
1.62801
3.5839
11.0525
11.4006
10.9751
10.5249
10.3713
10.3759
10.3985
10.4259
10.4384
10.4428
10.4471
10.4537
10.4623
10.472
10.4825
10.4936
10.5052
10.5173
10.5297
10.5425
10.5553
10.5682
10.5809
10.5933
10.6051
10.6161
10.6262
10.6348
10.6418
10.6466
10.6484
10.6474
10.6432
10.6333
10.6163
10.5919
10.5581
10.5125
10.4519
10.3717
10.2652
10.1229
9.92986
9.66218
9.27833
8.70938
7.86706
6.4807
1.62755
3.57264
11.0276
11.3891
10.9597
10.4966
10.3322
10.3343
10.3532
10.3804
10.3929
10.3967
10.3997
10.405
10.4122
10.4205
10.4293
10.4385
10.448
10.4578
10.4677
10.4776
10.4874
10.4969
10.5059
10.5143
10.5217
10.5279
10.5327
10.5355
10.5357
10.5342
10.5294
10.5192
10.5037
10.4823
10.4534
10.4152
10.3656
10.3016
10.2192
10.1133
9.97599
9.7973
9.56195
9.24874
8.82847
8.26091
7.52902
6.55598
1.62692
3.56345
11.0043
11.3677
10.9316
10.4512
10.2772
10.2794
10.2997
10.3304
10.3444
10.3479
10.3501
10.3544
10.3606
10.3676
10.3749
10.3823
10.3898
10.3972
10.4046
10.4117
10.4183
10.4244
10.4298
10.4341
10.4371
10.4385
10.438
10.4359
10.4307
10.4212
10.4078
10.3895
10.3653
10.3341
10.2941
10.2438
10.1803
10.1009
10.0015
9.87691
9.72043
9.52322
9.27414
8.95936
8.56428
8.07318
7.49278
6.76367
1.62762
3.59786
11.0658
11.365
10.9042
10.3855
10.2002
10.2055
10.2337
10.2715
10.288
10.2915
10.2933
10.2969
10.3025
10.3087
10.3148
10.3207
10.3264
10.3318
10.3369
10.3414
10.3453
10.3484
10.3503
10.3508
10.3501
10.3478
10.3426
10.3345
10.3231
10.3078
10.2879
10.2627
10.2308
10.1912
10.1421
10.0818
10.0079
9.91765
9.8074
9.67284
9.50864
9.30848
9.06509
8.77072
8.41812
8.00013
7.51916
6.96807
1.5899
3.70838
11.0707
11.2738
10.8234
10.3041
10.1312
10.1412
10.1777
10.2177
10.2341
10.2379
10.2399
10.2436
10.2484
10.2533
10.2578
10.2619
10.2655
10.2686
10.271
10.2728
10.2736
10.2734
10.2723
10.2694
10.2641
10.2569
10.2471
10.2342
10.2177
10.1971
10.1715
10.1401
10.1018
10.0554
9.99937
9.93195
9.85113
9.75441
9.63891
9.50118
9.33738
9.14316
8.91409
8.64571
8.33468
7.97833
7.57866
7.13096
1.55497
4.81579
11.222
10.9525
10.3119
10.0548
10.0504
10.0769
10.1243
10.1508
10.1605
10.1648
10.169
10.1741
10.1792
10.1838
10.1876
10.1908
10.1932
10.1948
10.1953
10.1951
10.1941
10.1916
10.1872
10.1812
10.1735
10.1634
10.1503
10.1338
10.1133
10.0883
10.0581
10.0219
9.97864
9.92725
9.86646
9.79466
9.71009
9.6107
9.49421
9.35804
9.19947
9.0156
8.80372
8.5614
8.28717
7.98103
7.64432
7.26979
1.55586
4.8228
11.1718
10.8834
10.2392
9.99983
10.0099
10.0523
10.1008
10.1225
10.1286
10.1311
10.1341
10.1374
10.14
10.1415
10.1422
10.1421
10.1415
10.1397
10.1366
10.1327
10.1277
10.1215
10.1135
10.1036
10.0914
10.0767
10.0591
10.0384
10.014
9.98535
9.95163
9.91176
9.86481
9.80993
9.74592
9.67153
9.58535
9.48576
9.371
9.23918
9.08839
8.91667
8.72242
8.50421
8.26133
7.99328
7.70637
7.39029
1.56603
4.84191
11.2344
10.9033
10.183
9.92239
9.93744
9.99208
10.0494
10.0739
10.0802
10.083
10.0863
10.0897
10.092
10.093
10.0929
10.092
10.0896
10.0854
10.0803
10.074
10.0663
10.0569
10.0457
10.0325
10.0169
9.99883
9.97786
9.9536
9.9254
9.89261
9.85466
9.81116
9.76138
9.70427
9.63889
9.56383
9.47788
9.37979
9.26839
9.14219
9.00004
8.84059
8.66287
8.4662
8.25089
8.01674
7.76761
7.49715
1.55635
4.82012
11.1585
10.8515
10.1589
9.8976
9.90962
9.95882
10.015
10.0393
10.0449
10.0464
10.0484
10.0502
10.0509
10.0505
10.049
10.0455
10.0407
10.0348
10.0277
10.0193
10.0092
9.99734
9.98352
9.96753
9.94908
9.928
9.90386
9.87638
9.845
9.80932
9.76884
9.72287
9.67078
9.61164
9.54473
9.46927
9.38442
9.28912
9.18242
9.06308
8.93009
8.78265
8.62046
8.44346
8.25183
8.04498
7.82656
7.5918
1.52716
4.76253
10.951
10.7269
10.1503
9.90219
9.90307
9.93242
9.98107
10.0044
10.0101
10.0109
10.0115
10.0118
10.0113
10.0096
10.006
10.0009
9.99465
9.98726
9.97844
9.96805
9.95591
9.94191
9.9258
9.90751
9.88669
9.86318
9.83656
9.80658
9.77287
9.73497
9.69242
9.64466
9.59118
9.53132
9.46443
9.3898
9.30671
9.21433
9.11185
8.99873
8.87445
8.73853
8.59049
8.43002
8.25723
8.07426
7.88153
7.67552
1.5111
4.71702
10.8678
10.732
10.2336
9.9408
9.88894
9.90726
9.94669
9.97079
9.97753
9.97726
9.97609
9.97379
9.97089
9.96707
9.96198
9.95562
9.94797
9.93899
9.92851
9.91642
9.90255
9.88682
9.86897
9.8489
9.82626
9.80094
9.77254
9.74082
9.70545
9.66603
9.62225
9.57357
9.51953
9.45961
9.39334
9.32014
9.23946
9.15065
9.05318
8.94656
8.83042
8.7044
8.5684
8.42251
8.26705
8.10271
7.93072
7.74811
1.66802
3.29228
10.506
11.0125
10.5966
10.0768
9.88862
9.89256
9.91781
9.95087
9.96159
9.96043
9.95647
9.95012
9.94428
9.93835
9.93145
9.92319
9.91355
9.90247
9.88991
9.8757
9.85968
9.84188
9.822
9.79986
9.77519
9.74786
9.71753
9.68401
9.64696
9.60606
9.56095
9.51124
9.45656
9.39656
9.33088
9.25909
9.18073
9.0954
9.00259
8.902
8.79337
8.67646
8.55126
8.4179
8.27671
8.12816
7.97342
7.81002
1.67594
3.16865
10.4402
11.1643
10.7156
10.1117
9.86686
9.85399
9.87173
9.9039
9.91434
9.91247
9.90647
9.89712
9.88949
9.88296
9.87601
9.86781
9.85814
9.847
9.83432
9.81998
9.80382
9.78568
9.76541
9.74283
9.71767
9.6898
9.6589
9.62484
9.58728
9.54604
9.50085
9.45143
9.39754
9.33876
9.27468
9.20495
9.12929
9.04726
8.95864
8.86327
8.76111
8.6523
8.53666
8.41426
8.28532
8.15025
8.01006
7.8626
1.64113
3.05412
9.91137
11.0082
10.6482
10.1093
9.88614
9.86526
9.87622
9.89454
9.8962
9.89225
9.8821
9.86874
9.85756
9.84786
9.83807
9.82731
9.81533
9.8021
9.78753
9.7715
9.75383
9.73434
9.71287
9.68924
9.66324
9.63463
9.60316
9.56864
9.53088
9.48966
9.44473
9.39581
9.34264
9.28491
9.22236
9.15472
9.08175
9.00335
8.91941
8.82971
8.73406
8.6323
8.52434
8.41055
8.29175
8.16827
8.04057
7.9067
1.4359
4.54885
10.3356
10.5116
10.2192
9.92461
9.81663
9.81401
9.82228
9.83279
9.8327
9.82916
9.82012
9.80815
9.7979
9.78877
9.77928
9.76867
9.75676
9.74357
9.72902
9.71296
9.69525
9.67569
9.65418
9.6305
9.60452
9.57598
9.54469
9.51058
9.47339
9.43286
9.3888
9.341
9.28923
9.23325
9.17286
9.10787
9.03812
8.96346
8.88377
8.79894
8.7089
8.61365
8.51361
8.40886
8.29929
8.18512
8.06737
7.94457
1.63347
3.00268
9.72633
10.8959
10.5812
10.0809
9.86137
9.82708
9.83243
9.83891
9.83615
9.827
9.81032
9.79451
9.78091
9.76835
9.75552
9.74169
9.72666
9.71056
9.69338
9.67489
9.65492
9.63331
9.60987
9.5845
9.55701
9.52736
9.4954
9.46078
9.42332
9.38281
9.33911
9.29204
9.2414
9.18695
9.12853
9.06596
8.99911
8.92785
8.8521
8.77183
8.68704
8.59776
8.50414
8.40631
8.30441
8.19883
8.09016
7.97717
1.64233
2.93457
9.72772
11.0209
10.6397
10.0486
9.79136
9.75782
9.76797
9.78362
9.78254
9.7754
9.75944
9.74234
9.7285
9.71637
9.70412
9.69103
9.67691
9.66154
9.64477
9.62656
9.60681
9.5854
9.56221
9.53708
9.50985
9.48041
9.44859
9.41423
9.37718
9.33731
9.29443
9.24832
9.19886
9.14592
9.08939
9.02914
8.96507
8.8971
8.82516
8.74919
8.6692
8.58525
8.49741
8.40583
8.3107
8.21249
8.11161
8.00682
1.64064
2.91527
9.67324
10.9994
10.6146
10.0085
9.7419
9.70676
9.7179
9.73623
9.73573
9.72949
9.71451
9.69691
9.68278
9.67072
9.65863
9.64557
9.6313
9.61575
9.59887
9.58057
9.56077
9.53933
9.51614
9.49106
9.46397
9.43473
9.40322
9.3693
9.33285
9.29372
9.25177
9.20686
9.15885
9.10764
9.05314
8.99529
8.93397
8.86915
8.80076
8.72877
8.6532
8.57411
8.4916
8.40584
8.31689
8.22509
8.1309
8.03318
1.62628
2.92385
9.50521
10.8588
10.549
9.99795
9.74231
9.6944
9.69911
9.70739
9.70507
9.69653
9.67931
9.66259
9.64826
9.63517
9.62196
9.60791
9.5928
9.57655
9.5591
9.54033
9.52013
9.49838
9.47496
9.44975
9.42262
9.39348
9.36219
9.32864
9.29268
9.25421
9.2131
9.16928
9.12267
9.07317
9.02068
8.96511
8.90637
8.84447
8.77935
8.711
8.63945
8.56475
8.48699
8.40631
8.32293
8.23694
8.14867
8.05707
1.39415
4.48154
10.0348
10.3039
10.0233
9.73575
9.62788
9.61873
9.62413
9.63071
9.62964
9.62442
9.61309
9.60038
9.58893
9.57807
9.56672
9.55427
9.54054
9.52549
9.50908
9.49125
9.47192
9.451
9.42841
9.40403
9.37775
9.34947
9.31911
9.2866
9.2518
9.21462
9.17498
9.13278
9.08796
9.04043
8.9901
8.9369
8.88083
8.82184
8.75994
8.69516
8.62748
8.55694
8.48357
8.40748
8.32888
8.24783
8.16469
8.0785
1.6315
2.94756
9.59255
10.8422
10.4982
9.90934
9.63581
9.59343
9.60372
9.62416
9.62574
9.62108
9.60868
9.59136
9.57643
9.56331
9.55009
9.53583
9.52027
9.50337
9.48524
9.46572
9.44483
9.42257
9.39887
9.3736
9.34661
9.3178
9.28707
9.2543
9.21949
9.18261
9.14357
9.10227
9.05863
9.01255
8.96397
8.91285
8.85911
8.8027
8.74359
8.68178
8.6173
8.55023
8.48065
8.40866
8.33439
8.25792
8.17946
8.09812
1.64175
3.07709
9.86553
10.7741
10.3917
9.77978
9.51783
9.49766
9.51498
9.54778
9.55725
9.55459
9.54623
9.53199
9.51951
9.50863
9.49756
9.48526
9.47151
9.45638
9.44002
9.42239
9.40326
9.38252
9.36005
9.33584
9.30989
9.28214
9.25252
9.22102
9.18755
9.15202
9.11435
9.07447
9.03233
8.98786
8.94103
8.8918
8.84012
8.786
8.72945
8.6705
8.60916
8.5454
8.4793
8.41093
8.34038
8.26778
8.19333
8.11615
1.40431
4.54546
10.1036
10.1589
9.85318
9.54583
9.44628
9.45159
9.47096
9.49094
9.49667
9.49516
9.49012
9.48066
9.47132
9.46226
9.45249
9.44139
9.42881
9.41478
9.39933
9.38242
9.36395
9.34387
9.32214
9.29872
9.2736
9.24672
9.21802
9.18743
9.15497
9.12057
9.08417
9.04571
9.00513
8.9624
8.91748
8.87031
8.8209
8.76922
8.71526
8.65901
8.60053
8.53988
8.47709
8.41222
8.34532
8.27645
8.20578
8.13252
1.38825
4.5552
9.99993
10.025
9.78325
9.55107
9.4687
9.46605
9.47221
9.48162
9.48331
9.48123
9.47529
9.46525
9.45494
9.44453
9.43332
9.42093
9.40725
9.39228
9.37601
9.35843
9.33948
9.31909
9.29722
9.2738
9.24879
9.22215
9.19384
9.16382
9.13198
9.09828
9.06266
9.02508
8.98549
8.94386
8.90015
8.8543
8.80641
8.75654
8.70465
8.65066
8.59459
8.53646
8.4763
8.41413
8.35004
8.28416
8.21662
8.14668
1.42141
4.56865
10.2119
10.1818
9.79802
9.4626
9.36941
9.38137
9.41258
9.43706
9.44399
9.44262
9.43801
9.4294
9.42044
9.41133
9.40137
9.39008
9.37733
9.36313
9.3475
9.3304
9.31182
9.29177
9.27022
9.24714
9.22248
9.19622
9.16834
9.13881
9.10756
9.07455
9.03972
9.00309
8.96464
8.92436
8.88222
8.83825
8.79233
8.74439
8.69445
8.64256
8.58875
8.53303
8.47542
8.41597
8.35472
8.29174
8.22713
8.16006
1.53224
3.35192
9.88801
10.7065
10.3187
9.67649
9.39257
9.36673
9.38436
9.42023
9.43439
9.43336
9.42872
9.41894
9.40848
9.39848
9.38803
9.37639
9.3633
9.34878
9.33288
9.31561
9.29695
9.27684
9.25525
9.23214
9.20741
9.18105
9.15319
9.12369
9.09253
9.05965
9.02511
8.98887
8.95092
8.91123
8.8698
8.82661
8.78163
8.73484
8.68627
8.63597
8.58381
8.52985
8.47417
8.41685
8.35791
8.2974
8.23543
8.1713
1.39663
4.53397
10.0655
10.0947
9.79166
9.46661
9.34462
9.34306
9.35446
9.37592
9.38474
9.38405
9.38053
9.37288
9.36392
9.35517
9.34597
9.33561
9.32382
9.31057
9.2959
9.27984
9.26234
9.24337
9.22289
9.20088
9.17731
9.15217
9.12549
9.09725
9.06741
9.03601
9.00297
8.96825
8.93179
8.89361
8.8537
8.81205
8.76866
8.72353
8.67665
8.62801
8.57774
8.52585
8.47234
8.41723
8.36057
8.30241
8.24288
8.18144
1.39402
4.53109
10.0481
10.0817
9.77509
9.44724
9.32703
9.32733
9.3399
9.36265
9.37204
9.37116
9.3671
9.35852
9.34885
9.33936
9.3294
9.31829
9.30578
9.2919
9.27669
9.26019
9.24237
9.22321
9.2027
9.18079
9.1575
9.1328
9.1066
9.07884
9.04949
9.01854
8.98602
8.95193
8.91628
8.87904
8.84018
8.7997
8.75758
8.71382
8.66843
8.62143
8.57283
8.52267
8.47094
8.41768
8.36291
8.30669
8.24909
8.18965
1.53042
3.33994
9.84863
10.6874
10.3012
9.6367
9.33284
9.29709
9.31363
9.34843
9.36364
9.36275
9.35818
9.34834
9.33752
9.32756
9.3175
9.30645
9.29403
9.28025
9.26515
9.24874
9.231
9.21192
9.19144
9.16949
9.14623
9.12151
9.09531
9.06761
9.0384
9.00767
8.97545
8.94174
8.90652
8.86977
8.8315
8.79169
8.75034
8.70744
8.66302
8.61708
8.56963
8.52069
8.47028
8.41845
8.36521
8.31061
8.25476
8.19724
1.40804
4.54754
10.1179
10.0917
9.7064
9.35354
9.24335
9.2526
9.28188
9.31086
9.32046
9.31954
9.31565
9.30759
9.29894
9.29046
9.28142
9.27121
9.25964
9.24672
9.23249
9.21698
9.20017
9.18203
9.16254
9.14167
9.11944
9.0958
9.07073
9.04421
9.01622
8.9868
8.95592
8.92358
8.88974
8.8544
8.81756
8.77922
8.73939
8.69805
8.65518
8.61079
8.56489
8.51752
8.46871
8.41847
8.36681
8.31383
8.2596
8.20374
1.39299
4.55534
10.007
9.98129
9.66839
9.38804
9.29954
9.30255
9.31472
9.32553
9.32607
9.32357
9.31697
9.30687
9.29684
9.28692
9.2764
9.26486
9.25216
9.23829
9.22326
9.20707
9.18971
9.17114
9.15134
9.13029
9.10795
9.08433
9.05938
9.03311
9.0055
8.97651
8.94609
8.91423
8.88092
8.84615
8.80991
8.77221
8.73304
8.69244
8.65042
8.60699
8.56212
8.51584
8.46816
8.41908
8.36868
8.31692
8.26385
8.20902
1.38502
4.54764
9.95837
9.94704
9.65849
9.38678
9.29451
9.29381
9.29997
9.30767
9.30773
9.30547
9.29932
9.28942
9.27949
9.26968
9.25934
9.24803
9.23565
9.22216
9.20758
9.19185
9.17495
9.15685
9.13751
9.11693
9.09507
9.07193
9.04747
9.02169
8.99456
8.96607
8.93619
8.90492
8.87225
8.8382
8.80275
8.76591
8.72764
8.68795
8.64684
8.60431
8.56037
8.51505
8.46837
8.4204
8.37109
8.32041
8.26839
8.21458
1.37711
4.5091
9.91877
10.0311
9.73078
9.40292
9.28168
9.27764
9.28624
9.29859
9.30069
9.29834
9.29165
9.2806
9.26989
9.25974
9.24926
9.23785
9.22533
9.21169
9.19693
9.18106
9.16404
9.14586
9.12649
9.10591
9.0841
9.06105
9.03674
9.01114
8.98425
8.95605
8.92652
8.89566
8.86344
8.82987
8.79495
8.75865
8.72098
8.68193
8.64152
8.59976
8.55666
8.51225
8.4665
8.41938
8.37095
8.32124
8.2703
8.21777
1.62611
2.96878
9.52102
10.6172
10.2728
9.64706
9.33756
9.27171
9.27927
9.29747
9.30491
9.30266
9.29512
9.28074
9.26755
9.25623
9.24536
9.23382
9.22118
9.2074
9.19254
9.1766
9.15957
9.14141
9.1221
9.1016
9.07989
9.05695
9.03277
9.00733
8.98061
8.95259
8.92326
8.89262
8.86064
8.82733
8.79268
8.75668
8.71934
8.68066
8.64064
8.59929
8.55663
8.51266
8.46739
8.42085
8.37309
8.32419
8.2742
8.22281
1.63543
2.85349
9.48333
10.8209
10.4146
9.67639
9.30922
9.23123
9.24178
9.26773
9.28239
9.28117
9.27504
9.26166
9.24753
9.23595
9.22551
9.2146
9.20252
9.18921
9.17478
9.15926
9.14266
9.12495
9.1061
9.08607
9.06485
9.04242
9.01877
8.99387
8.96772
8.94029
8.91157
8.88155
8.85023
8.8176
8.78364
8.74836
8.71176
8.67383
8.63458
8.59401
8.55213
8.50894
8.46446
8.41872
8.37176
8.32364
8.27441
8.22384
1.62647
2.9619
9.50569
10.6077
10.2633
9.63095
9.31338
9.24573
9.25411
9.27471
9.28487
9.283
9.27594
9.26153
9.24767
9.23596
9.225
9.2135
9.20093
9.18724
9.17249
9.15673
9.13993
9.12206
9.10309
9.083
9.06175
9.03934
9.01573
8.99092
8.96487
8.93759
8.90904
8.87923
8.84814
8.81575
8.78207
8.74709
8.7108
8.67321
8.63431
8.59412
8.55263
8.50986
8.46582
8.42052
8.374
8.32626
8.27737
8.22694
1.37409
4.50576
9.8994
10.0114
9.70698
9.3649
9.23622
9.23177
9.24128
9.25583
9.25895
9.25673
9.25023
9.23925
9.22865
9.21871
9.20852
9.19746
9.18534
9.17216
9.15794
9.1427
9.12642
9.10906
9.0906
9.07101
9.05029
9.0284
9.00533
8.98105
8.95556
8.92883
8.90086
8.87162
8.84111
8.80932
8.77624
8.74186
8.70618
8.6692
8.63091
8.59132
8.55043
8.50825
8.4648
8.42009
8.37412
8.32688
8.27838
8.22813
1.37986
4.54101
9.92394
9.90652
9.60677
9.32973
9.24184
9.24414
9.25484
9.26481
9.26504
9.26245
9.2555
9.24467
9.23406
9.22378
9.21308
9.20149
9.18889
9.17529
9.16071
9.14512
9.12851
9.11085
9.09212
9.07228
9.05133
9.02923
9.00598
8.98155
8.95592
8.92908
8.90101
8.87171
8.84115
8.80934
8.77625
8.7419
8.70626
8.66934
8.63113
8.59165
8.55089
8.50886
8.46558
8.42105
8.3753
8.32832
8.28014
8.23044
1.40406
4.56226
10.0544
9.98703
9.5918
9.27575
9.19292
9.20452
9.23424
9.25465
9.25721
9.25456
9.24753
9.23715
9.2272
9.21751
9.20724
9.19597
9.18364
9.17028
9.15592
9.14055
9.12414
9.10668
9.08814
9.06851
9.04775
9.02585
9.00279
8.97855
8.95312
8.92648
8.89861
8.8695
8.83914
8.80752
8.77463
8.74047
8.70502
8.6683
8.63029
8.591
8.55043
8.5086
8.46551
8.42118
8.37562
8.32887
8.28096
8.23169
3.04374
2.45808
3.00278
4.17985
4.12594
4.1094
4.0486
4.01092
3.998
4.00071
4.02827
4.0718
4.10887
4.13959
4.17358
4.21631
4.26797
4.32606
4.3877
4.45061
4.51304
4.57379
4.63236
4.68931
4.74029
4.78567
4.82535
4.85978
4.88892
4.91297
4.93193
4.94603
4.95534
4.96012
4.96053
4.9589
4.95357
4.94228
4.92683
4.90905
4.88902
4.86667
4.84214
4.81568
4.78756
4.75805
4.72741
4.69588
4.66369
4.63106
4.59821
4.56535
4.53268
4.50041
4.46873
4.43785
4.40795
4.37925
4.35192
4.32619
4.30222
4.28022
4.26036
4.24281
4.22774
4.21525
4.20544
4.19836
4.19398
4.19232
4.19251
4.1935
4.19633
4.20268
4.21425
4.22717
4.24044
4.25391
4.26744
4.28072
4.29341
4.30518
4.31576
4.32498
4.33272
4.33892
4.34359
4.34676
4.34855
4.34913
4.34905
4.34867
4.34761
4.34527
4.34128
4.33687
4.33234
4.32764
4.32263
4.31827
4.09609
3.55371
3.75616
4.23429
4.15175
4.09519
4.03598
3.99563
3.98392
3.99609
4.03712
4.08747
4.11924
4.1412
4.17026
4.21119
4.26247
4.32048
4.38201
4.44481
4.50715
4.56804
4.62689
4.68358
4.73464
4.78002
4.81982
4.85438
4.88366
4.90783
4.92692
4.94112
4.95051
4.95531
4.95553
4.95435
4.95009
4.94009
4.92311
4.90471
4.88484
4.86283
4.83854
4.81224
4.78425
4.75485
4.72432
4.6929
4.66082
4.62829
4.59554
4.56276
4.53017
4.49797
4.46635
4.43552
4.40567
4.37701
4.34972
4.32401
4.30007
4.27809
4.25825
4.24073
4.22567
4.21323
4.20349
4.1965
4.19233
4.19117
4.19142
4.19251
4.19537
4.20162
4.21323
4.22644
4.24007
4.25383
4.26756
4.28101
4.29384
4.30573
4.31641
4.32569
4.33346
4.33967
4.34432
4.34746
4.34919
4.34968
4.34959
4.34919
4.34814
4.34583
4.34173
4.33719
4.33257
4.32796
4.32318
4.32044
5.22549
4.46435
4.23592
4.2677
4.24851
4.19609
4.11417
4.06123
4.04111
4.04356
4.05599
4.08515
4.12043
4.15183
4.18496
4.22563
4.2746
4.33017
4.38955
4.45049
4.51126
4.57073
4.62805
4.68259
4.7328
4.77767
4.81706
4.85114
4.87998
4.90374
4.92247
4.9363
4.94534
4.94971
4.94963
4.94854
4.9449
4.93627
4.91899
4.8996
4.87912
4.857
4.83284
4.80669
4.77882
4.74953
4.71911
4.6878
4.65583
4.62342
4.59079
4.55813
4.52564
4.49354
4.46203
4.43129
4.40153
4.37295
4.34574
4.32011
4.29624
4.27434
4.25457
4.23714
4.22218
4.20986
4.20029
4.19357
4.18981
4.18932
4.18965
4.19086
4.19388
4.20032
4.21186
4.22531
4.23944
4.25374
4.26792
4.28172
4.29483
4.30694
4.31779
4.32718
4.335
4.34121
4.3458
4.34884
4.3505
4.35077
4.35065
4.35019
4.34903
4.34657
4.34237
4.33769
4.33296
4.3284
4.32381
4.3228
5.82893
5.0958
4.6631
4.46652
4.42775
4.36204
4.26988
4.18954
4.13767
4.11728
4.11956
4.13058
4.15667
4.19367
4.22722
4.26212
4.30299
4.35073
4.40379
4.45987
4.51693
4.57347
4.62827
4.6806
4.72904
4.77281
4.81142
4.84474
4.8729
4.89604
4.91422
4.92754
4.9361
4.9399
4.93973
4.9386
4.93523
4.92745
4.91157
4.89146
4.8701
4.84754
4.82336
4.79742
4.76982
4.7408
4.71064
4.67959
4.64787
4.61572
4.58333
4.55091
4.51866
4.48678
4.45548
4.42496
4.3954
4.36702
4.34001
4.31456
4.29088
4.26915
4.24957
4.23232
4.21758
4.20549
4.19619
4.18988
4.18676
4.1868
4.18727
4.18874
4.19214
4.19918
4.2105
4.22401
4.2386
4.25355
4.26836
4.28267
4.29615
4.30852
4.31955
4.32905
4.33691
4.3431
4.34762
4.35058
4.35206
4.35205
4.35188
4.3513
4.34994
4.34713
4.34293
4.3382
4.33336
4.32883
4.32447
4.32456
6.23194
5.59692
5.12231
4.83312
4.68432
4.57148
4.46017
4.3587
4.28122
4.23369
4.21384
4.21478
4.22106
4.23744
4.26995
4.30274
4.33902
4.38032
4.42647
4.47622
4.52804
4.58036
4.63171
4.68097
4.7271
4.76913
4.80647
4.83865
4.86582
4.88813
4.90551
4.9181
4.92602
4.92904
4.92878
4.92754
4.92418
4.91674
4.90169
4.88193
4.86014
4.83701
4.81254
4.78661
4.75921
4.73048
4.70064
4.6699
4.6385
4.60665
4.57456
4.54244
4.51049
4.47892
4.44791
4.41768
4.38842
4.36033
4.33361
4.30846
4.28507
4.26364
4.24436
4.22741
4.21299
4.20125
4.19242
4.18662
4.18426
4.18441
4.18512
4.18697
4.19096
4.19895
4.21
4.22338
4.23823
4.2537
4.2691
4.28392
4.29779
4.31042
4.32159
4.33116
4.33903
4.34517
4.34962
4.35245
4.3536
4.35353
4.35322
4.35241
4.35067
4.34749
4.34332
4.3386
4.3337
4.32917
4.32517
4.32547
6.53901
6.00389
5.54923
5.20545
4.97247
4.80611
4.6691
4.5499
4.45185
4.37975
4.33443
4.31253
4.31233
4.31552
4.32619
4.34935
4.38171
4.4177
4.45648
4.49839
4.54304
4.58932
4.63573
4.68102
4.72403
4.76374
4.79933
4.83027
4.85638
4.87775
4.89421
4.90603
4.91329
4.91553
4.9152
4.91384
4.9104
4.90299
4.88839
4.86947
4.8478
4.82435
4.79955
4.77352
4.74626
4.71784
4.68839
4.65807
4.62709
4.59565
4.56398
4.53227
4.50074
4.46958
4.439
4.4092
4.38037
4.35271
4.32643
4.30171
4.27877
4.25778
4.23895
4.22244
4.20851
4.1973
4.18903
4.18377
4.18223
4.18248
4.18341
4.18569
4.19048
4.19906
4.21023
4.22355
4.23844
4.25413
4.26988
4.28505
4.29922
4.31204
4.32332
4.33292
4.34077
4.34687
4.35123
4.3539
4.35469
4.35457
4.35414
4.3531
4.35095
4.34755
4.34332
4.33858
4.33367
4.32917
4.32543
4.32584
6.78324
6.3327
5.91509
5.55597
5.27539
5.06368
4.89599
4.75608
4.63902
4.54555
4.47687
4.43212
4.40863
4.40279
4.40442
4.41111
4.42687
4.45533
4.48711
4.52237
4.56038
4.60025
4.64095
4.68151
4.7208
4.75769
4.7912
4.82063
4.84558
4.86592
4.88161
4.89267
4.8992
4.90067
4.90027
4.89879
4.89518
4.88755
4.87341
4.85517
4.83389
4.81047
4.78554
4.75943
4.73227
4.70413
4.67507
4.64521
4.61471
4.58378
4.5526
4.5214
4.49037
4.45973
4.42968
4.40041
4.37213
4.34503
4.31931
4.29517
4.27281
4.25242
4.23419
4.21835
4.20501
4.1944
4.18673
4.18207
4.18137
4.1817
4.18284
4.18553
4.19111
4.20025
4.21167
4.22497
4.23971
4.25532
4.27105
4.28629
4.30054
4.31343
4.32474
4.33434
4.34215
4.34817
4.3524