/*--------------------------------*- C++ -*----------------------------------*\
| =========                 |                                                 |
| \\      /  F ield         | OpenFOAM: The Open Source CFD Toolbox           |
|  \\    /   O peration     | Version:  2412                                  |
|   \\  /    A nd           | Website:  www.openfoam.com                      |
|    \\/     M anipulation  |                                                 |
\*---------------------------------------------------------------------------*/
FoamFile
{
    version     2.0;
    format      ascii;
    arch        "LSB;label=32;scalar=64";
    class       surfaceScalarField;
    location    "20";
    object      phi;
}
// * * * * * * * * * * * * * * * * * * * * * * * * * * * * * * * * * * * * * //

dimensions      [1 0 -1 0 0 0 0];

oriented        oriented;

internalField   nonuniform List<scalar> 
13790
(
0.00292375
-1.97187e-07
0.00274462
9.30818e-07
0.002804
3.25208e-06
0.00280526
5.58767e-06
0.00279923
6.4747e-06
0.00279209
7.16644e-06
0.00278414
7.959e-06
0.00277522
8.90893e-06
0.00276523
9.99648e-06
0.00275399
1.12408e-05
0.00274141
1.25728e-05
0.00272746
1.3954e-05
0.00271207
1.53867e-05
0.00269518
1.68878e-05
0.00267671
1.847e-05
0.00265657
2.0139e-05
0.00263467
2.1898e-05
0.00261092
2.37516e-05
0.00258521
2.57056e-05
0.00255744
2.77677e-05
0.0025275
2.99459e-05
0.00249525
3.22489e-05
0.00246056
3.46861e-05
0.00242329
3.72671e-05
0.00238329
4.00025e-05
0.00234038
4.29029e-05
0.0022944
4.59795e-05
0.00224516
4.92431e-05
0.00219245
5.27046e-05
0.00213607
5.63737e-05
0.00207581
6.02598e-05
0.00201144
6.43692e-05
0.00194273
6.87075e-05
0.00186946
7.32741e-05
0.00179139
7.80675e-05
0.00170831
8.30752e-05
0.00162003
8.82833e-05
0.00152636
9.36611e-05
0.00142719
9.91759e-05
0.00132241
0.000104772
0.00121202
0.000110391
0.00109607
0.000115946
0.000974717
0.000121355
0.000848216
0.000126499
0.000716923
0.000131292
0.000581315
0.000135607
0.000441841
0.000139473
0.000299166
0.000142674
0.00015228
0.000146885
0.000152278
0.00303217
2.03965e-08
0.00284629
8.42176e-07
0.00290648
8.61403e-06
0.0029078
1.12885e-05
0.00290193
1.28111e-05
0.00289475
1.4378e-05
0.00288656
1.61508e-05
0.00287732
1.81531e-05
0.00286692
2.03926e-05
0.00285525
2.29082e-05
0.00284222
2.56003e-05
0.00282777
2.84053e-05
0.00281183
3.13239e-05
0.00279434
3.43841e-05
0.0027752
3.76075e-05
0.00275433
4.10068e-05
0.00273164
4.45884e-05
0.00270702
4.83631e-05
0.00268039
5.2342e-05
0.00265161
5.65415e-05
0.00262058
6.09768e-05
0.00258716
6.5667e-05
0.00255122
7.06295e-05
0.0025126
7.58859e-05
0.00247114
8.1456e-05
0.00242668
8.73632e-05
0.00237903
9.36289e-05
0.00232799
0.000100276
0.00227337
0.000107327
0.00221494
0.000114801
0.00215248
0.000122719
0.00208575
0.000131093
0.00201452
0.000139936
0.00193855
0.000149245
0.0018576
0.000159021
0.00177143
0.000169235
0.00167985
0.000179865
0.00158267
0.000190845
0.00147973
0.000202114
0.00137094
0.000213554
0.00125628
0.000225055
0.00113579
0.000236432
0.00100961
0.000247526
0.000878016
0.000258096
0.000741363
0.000267943
0.000600116
0.000276854
0.000454845
0.000284742
0.000306091
0.000291428
0.000154202
0.000298773
0.000306478
0.00314488
9.21214e-08
0.00295181
1.2119e-06
0.00301443
1.38859e-05
0.00301571
1.72752e-05
0.00300971
1.92954e-05
0.0030024
2.17229e-05
0.00299398
2.45726e-05
0.00298443
2.77036e-05
0.00297367
3.11561e-05
0.00296159
3.49891e-05
0.00294811
3.90808e-05
0.00293316
4.33511e-05
0.00291667
4.78107e-05
0.00289857
5.24849e-05
0.00287876
5.74125e-05
0.00285717
6.26002e-05
0.00283368
6.80726e-05
0.00280821
7.38317e-05
0.00278064
7.99112e-05
0.00275086
8.63179e-05
0.00271874
9.30947e-05
0.00268416
0.000100249
0.00264696
0.000107831
0.00260699
0.000115849
0.00256409
0.00012436
0.00251808
0.000133371
0.00246876
0.000142947
0.00241595
0.000153088
0.00235941
0.000163865
0.00229893
0.000175272
0.00223427
0.000187379
0.0021652
0.000200163
0.00209144
0.00021369
0.00201277
0.000227914
0.00192892
0.000242876
0.00183965
0.0002585
0.00174473
0.000274783
0.00164397
0.000291604
0.0015372
0.000308882
0.0014243
0.000326448
0.00130525
0.000344101
0.00118005
0.000361632
0.0010489
0.000378679
0.000911949
0.000395043
0.00076967
0.000410221
0.000622496
0.000424027
0.000471055
0.000436181
0.000316168
0.000446315
0.000158594
0.000456346
0.000465071
0.00326181
1.16145e-07
0.00306156
1.66919e-06
0.00312674
1.9087e-05
0.00312807
2.34662e-05
0.00312189
2.5987e-05
0.00311441
2.9239e-05
0.00310578
3.32023e-05
0.00309595
3.75365e-05
0.00308483
4.22725e-05
0.00307235
4.74708e-05
0.00305843
5.29978e-05
0.003043
5.87832e-05
0.00302598
6.48311e-05
0.00300728
7.11822e-05
0.00298682
7.78671e-05
0.00296451
8.49125e-05
0.00294025
9.23315e-05
0.00291393
0.000100152
0.00288545
0.000108391
0.00285467
0.000117091
0.00282149
0.000126274
0.00278575
0.00013599
0.00274732
0.000146261
0.00270601
0.000157152
0.00266169
0.000168679
0.00261414
0.000180922
0.0025632
0.000193889
0.00250861
0.000207673
0.0024502
0.000222269
0.00238769
0.000237782
0.00232089
0.000254179
0.00224947
0.000271581
0.00217325
0.000289909
0.00209187
0.000309289
0.00200517
0.000329579
0.00191277
0.000350896
0.00181454
0.000373007
0.00171015
0.000395992
0.00159953
0.000419509
0.00148242
0.000443549
0.00135885
0.000467671
0.00122881
0.000491672
0.00109237
0.000515117
0.000949931
0.000537479
0.000801619
0.000558533
0.000648241
0.000577403
0.000490308
0.000594113
0.000328672
0.00060795
0.000164761
0.000620254
0.00062983
0.00338305
1.39556e-07
0.00317539
2.15842e-06
0.00324315
2.43148e-05
0.0032446
2.9789e-05
0.00323828
3.28524e-05
0.00323062
3.69348e-05
0.00322181
4.20118e-05
0.00321171
4.76405e-05
0.00320026
5.37199e-05
0.0031874
6.03279e-05
0.00317307
6.73291e-05
0.00315717
7.46799e-05
0.00313964
8.23648e-05
0.00312037
9.04528e-05
0.00309928
9.895e-05
0.00307627
0.000107918
0.00305126
0.000117343
0.00302412
0.000127293
0.00299475
0.000137759
0.00296301
0.000148826
0.0029288
0.000160489
0.00289194
0.000172846
0.00285231
0.000185893
0.00280972
0.00019974
0.00276401
0.000214388
0.00271498
0.00022995
0.00266243
0.000246435
0.00260615
0.000263955
0.00254589
0.000282524
0.00248143
0.000302239
0.00241248
0.000323125
0.00233882
0.00034524
0.00226011
0.000368621
0.00217614
0.000393256
0.00208652
0.000419192
0.00199112
0.0004463
0.00188948
0.000474642
0.00178157
0.000503899
0.00166693
0.00053415
0.00154566
0.000564815
0.00141737
0.000595961
0.00128231
0.000626725
0.0011404
0.000657029
0.00099192
0.000685957
0.000837467
0.000712985
0.000677149
0.00073772
0.000512232
0.000759029
0.000343479
0.000776703
0.000172036
0.000791696
0.000801864
0.00350881
1.63262e-07
0.00329346
2.65404e-06
0.00336391
2.95865e-05
0.00336552
3.62147e-05
0.00335906
3.98782e-05
0.00335124
4.47931e-05
0.0033422
5.10618e-05
0.00333189
5.79454e-05
0.00332017
6.54368e-05
0.00330699
7.35151e-05
0.00329225
8.20633e-05
0.00327592
9.10097e-05
0.00325788
0.000100404
0.00323807
0.000110261
0.00321636
0.000120655
0.0031927
0.000131576
0.00316695
0.0001431
0.00313903
0.00015521
0.00310878
0.000168005
0.00307614
0.000181468
0.0030409
0.000195726
0.00300299
0.000210753
0.00296218
0.000226703
0.00291838
0.00024354
0.00287131
0.000261449
0.00282089
0.000280374
0.00276679
0.000300532
0.0027089
0.000321846
0.00264686
0.000344559
0.00258053
0.000368564
0.00250954
0.000394118
0.00243369
0.000421084
0.00235261
0.000449701
0.00226606
0.000479803
0.00217368
0.000511566
0.00207519
0.000544792
0.00197031
0.000579524
0.00185866
0.000615539
0.00174018
0.000652635
0.0016144
0.000690588
0.00148155
0.000728809
0.00134109
0.000767186
0.00119358
0.000804541
0.00103876
0.000840772
0.000877306
0.000874435
0.000709978
0.000905046
0.000537037
0.000931969
0.000360125
0.000953614
0.000180624
0.000971195
0.000982487
0.00363925
1.87312e-07
0.00341591
3.15144e-06
0.00348917
3.48973e-05
0.00349097
4.27178e-05
0.00348444
4.70151e-05
0.00347649
5.27911e-05
0.00346729
6.02602e-05
0.00345676
6.84729e-05
0.00344479
7.74094e-05
0.00343128
8.70209e-05
0.00341619
9.71522e-05
0.00339944
0.000107763
0.00338094
0.000118899
0.0033606
0.000130604
0.00333832
0.000142926
0.00331401
0.00015589
0.00328757
0.000169539
0.00325887
0.00018391
0.00322781
0.000199055
0.00319425
0.00021503
0.00315808
0.000231896
0.0031191
0.000249727
0.00307722
0.000268585
0.00303219
0.00028857
0.0029839
0.000309732
0.00293207
0.000332207
0.00287658
0.000356022
0.00281707
0.000381353
0.00275344
0.000408186
0.00268526
0.000436744
0.00261242
0.000466951
0.00253443
0.000499073
0.00245118
0.000532948
0.00236212
0.000568859
0.00226714
0.000606546
0.00216569
0.000646248
0.0020576
0.000687606
0.00194241
0.000730725
0.00181991
0.000775134
0.00168983
0.000820674
0.00155185
0.00086678
0.00140622
0.000912814
0.00125242
0.000958338
0.0010912
0.001002
0.0009223
0.00104333
0.000746703
0.00108064
0.000565541
0.00111313
0.000379443
0.00113971
0.000190152
0.00116048
0.00117264
0.00377455
2.11509e-07
0.0035429
3.64794e-06
0.00361911
4.02302e-05
0.00362115
4.92693e-05
0.00361459
5.42233e-05
0.00360653
6.08901e-05
0.00359722
6.95762e-05
0.00358652
7.91706e-05
0.00357432
8.96054e-05
0.00356055
0.000100795
0.00354514
0.000112562
0.00352801
0.000124887
0.00350909
0.000137822
0.00348827
0.000151424
0.00346545
0.000165735
0.00344055
0.000180792
0.00341346
0.000196634
0.00338405
0.000213312
0.00335222
0.000230882
0.00331784
0.000249413
0.00328076
0.000268975
0.00324083
0.000289649
0.00319789
0.000311523
0.00315178
0.000334684
0.00310227
0.000359238
0.0030492
0.000385277
0.00299229
0.000412927
0.00293138
0.000442268
0.00286611
0.000473455
0.00279631
0.000506535
0.00272157
0.000541694
0.00264173
0.000578913
0.00255624
0.000618425
0.00246502
0.000660083
0.0023674
0.000704166
0.0022633
0.000750346
0.00215202
0.00079888
0.00203349
0.000849248
0.00190707
0.000901556
0.00177264
0.000955101
0.0016298
0.00100962
0.00147829
0.00106432
0.00131843
0.00111819
0.00114976
0.00117067
0.000973231
0.00121985
0.000788858
0.00126501
0.000597625
0.00130436
0.000401355
0.00133598
0.00020156
0.00136028
0.00137419
0.00391489
2.35722e-07
0.00367461
4.14023e-06
0.00375393
4.55552e-05
0.00375625
5.58309e-05
0.00374969
6.14651e-05
0.00374158
6.90428e-05
0.00373217
7.89955e-05
0.00372136
8.99741e-05
0.00370901
0.00010196
0.00369501
0.000114786
0.00367933
0.000128247
0.00366188
0.000142335
0.00364257
0.000157124
0.00362132
0.000172675
0.00359802
0.000189033
0.00357258
0.000206233
0.00354489
0.000224325
0.00351483
0.000243363
0.0034823
0.000263416
0.00344715
0.000284558
0.00340925
0.000306873
0.00336845
0.000330452
0.00332457
0.000355395
0.00327745
0.000381808
0.00322688
0.000409803
0.00317265
0.000439504
0.00311455
0.00047103
0.00305229
0.000504518
0.00298566
0.000540087
0.00291431
0.000577886
0.00283799
0.000618011
0.00275628
0.000660624
0.00266895
0.000705753
0.00257544
0.000753587
0.0024756
0.000804004
0.00236871
0.000857235
0.00225468
0.0009129
0.00213268
0.000971252
0.00200269
0.00103154
0.00186384
0.00109395
0.00171616
0.0011573
0.00155904
0.00122144
0.00139232
0.00128491
0.00121645
0.00134654
0.00103081
0.00140549
0.000836922
0.0014589
0.000635287
0.00150599
0.000427028
0.00154424
0.000214247
0.00157306
0.00158844
0.00406046
2.59603e-07
0.00381121
4.62432e-06
0.00389383
5.08251e-05
0.00389648
6.23517e-05
0.00388999
6.86803e-05
0.00388188
7.71975e-05
0.00387247
8.84122e-05
0.00386158
0.000100857
0.00384911
0.000114432
0.00383495
0.00012894
0.00381906
0.000144144
0.00380133
0.000160055
0.00378171
0.000176747
0.00376008
0.000194303
0.00373636
0.000212754
0.00371043
0.000232155
0.00368222
0.000252542
0.00365158
0.000273996
0.00361842
0.000296575
0.00358259
0.000320383
0.00354397
0.000345495
0.00350238
0.000372035
0.00345768
0.000400094
0.00340967
0.000429817
0.00335817
0.000461307
0.00330294
0.000494729
0.00324377
0.0005302
0.00318039
0.000567897
0.00311253
0.000607944
0.00303988
0.000650525
0.00296213
0.00069576
0.00287893
0.000743825
0.00278986
0.000794816
0.00269458
0.00084887
0.00259254
0.000906036
0.00248343
0.000966346
0.00236655
0.00102978
0.00224165
0.00109614
0.00210785
0.00116534
0.00196508
0.00123671
0.00181227
0.00131011
0.0016496
0.0013841
0.0014761
0.00145841
0.00129191
0.00153073
0.00109758
0.00159982
0.000892412
0.00166407
0.000678315
0.00172009
0.000456723
0.00176583
0.000229857
0.00179992
0.00181829
0.00421146
2.82909e-07
0.00395287
5.09425e-06
0.00403899
5.59773e-05
0.00404205
6.87673e-05
0.00403568
7.58248e-05
0.00402765
8.52814e-05
0.00401824
9.7823e-05
0.00400739
0.000111698
0.00399491
0.000126919
0.00398067
0.000143177
0.00396462
0.000160193
0.0039467
0.000177973
0.00392682
0.000196629
0.00390489
0.000216231
0.00388081
0.000236836
0.00385449
0.000258474
0.00382581
0.000281213
0.00379469
0.000305115
0.00376099
0.000330275
0.00372459
0.000356778
0.00368535
0.00038474
0.00364311
0.000414268
0.00359771
0.000445497
0.00354897
0.000478555
0.00349668
0.000513596
0.00344063
0.000550771
0.00338058
0.000590246
0.00331628
0.000632195
0.00324744
0.000676788
0.00317374
0.000724218
0.00309485
0.000774646
0.0030104
0.000828276
0.00291998
0.000885231
0.00282314
0.000945707
0.00271943
0.00100975
0.00260826
0.00107751
0.00248916
0.00114888
0.0023614
0.0012239
0.00222452
0.00130222
0.00207763
0.00138361
0.00192038
0.00146735
0.0017517
0.00155278
0.0015716
0.00163851
0.00137894
0.00172338
0.00117402
0.00180474
0.000957735
0.00188035
0.000729837
0.00194799
0.000492306
0.00200336
0.000247511
0.00204471
0.0020658
0.00436809
3.03789e-07
0.0040998
5.54496e-06
0.00418967
6.09114e-05
0.00419322
7.50007e-05
0.00418705
8.28219e-05
0.00417918
9.32006e-05
0.00416996
0.000107051
0.00415919
0.000122462
0.00414674
0.000139373
0.00413248
0.000157431
0.00411637
0.000176303
0.00409832
0.000196021
0.00407827
0.00021668
0.00405611
0.000238393
0.00403176
0.000261179
0.00400512
0.000285116
0.0039761
0.000310227
0.00394458
0.000336635
0.00391047
0.000364387
0.0038736
0.00039364
0.00383388
0.000424456
0.00379113
0.000457025
0.0037452
0.000491422
0.00369588
0.000527869
0.00364302
0.000566457
0.00358635
0.000607439
0.00352568
0.000650916
0.00346069
0.000697176
0.00339116
0.000746325
0.0033167
0.000798673
0.00323701
0.000854331
0.00315167
0.000913614
0.00306027
0.000976626
0.00296233
0.00104365
0.00285731
0.00111477
0.00274467
0.00119015
0.00262369
0.00126986
0.00249379
0.00135379
0.00235403
0.00144198
0.00220383
0.00153381
0.002042
0.00162918
0.00186808
0.0017267
0.00168079
0.0018258
0.00147993
0.00192424
0.00126438
0.00202029
0.00103403
0.0021107
0.000790449
0.00219156
0.000534732
0.00225908
0.000270106
0.00230934
0.00233591
0.00453056
3.16809e-07
0.00425217
5.9809e-06
0.00434609
6.54802e-05
0.00435022
8.09788e-05
0.0043443
8.9628e-05
0.00433675
0.000100804
0.00432775
0.000116056
0.00431721
0.000132997
0.00430493
0.00015166
0.00429076
0.000171591
0.00427467
0.000192398
0.00425659
0.000214096
0.00423644
0.000236825
0.00421416
0.000260679
0.00418963
0.000285709
0.00416278
0.000311959
0.00413351
0.000339499
0.00410173
0.000368413
0.0040673
0.00039881
0.00403014
0.0004308
0.00399007
0.00046452
0.00394699
0.000500104
0.0039007
0.000537717
0.00385105
0.000577517
0.0037978
0.000619698
0.0037408
0.000664443
0.00367974
0.000711974
0.00361442
0.000762495
0.00354448
0.000816259
0.00346967
0.000873481
0.00338955
0.000934448
0.0033038
0.000999362
0.00321188
0.00106855
0.00311338
0.00114214
0.00300762
0.00122052
0.00289409
0.00130368
0.00277195
0.001392
0.00264048
0.00148526
0.00249874
0.00158372
0.00234565
0.00168689
0.00218033
0.0017945
0.00200115
0.00190588
0.00180749
0.00201945
0.00159749
0.00213423
0.00137095
0.00224684
0.00112699
0.00235465
0.000865201
0.00245335
0.000587466
0.00253681
0.000296634
0.00260017
0.00263254
0.0046991
3.26815e-07
0.0044102
6.38346e-06
0.00450836
6.96645e-05
0.00451323
8.65346e-05
0.0045078
9.60039e-05
0.00450069
0.000107986
0.00449208
0.000124663
0.00448187
0.000143204
0.00446985
0.00016368
0.00445587
0.000185567
0.00443991
0.000208362
0.00442189
0.000232111
0.00440177
0.000256948
0.00437944
0.000283001
0.00435485
0.000310295
0.0043279
0.000338909
0.00429852
0.000368879
0.00426659
0.000400342
0.00423203
0.000433366
0.0041947
0.000468129
0.0041545
0.000504718
0.00411125
0.000543348
0.00406484
0.000584125
0.00401505
0.000627304
0.00396174
0.000673012
0.00390464
0.00072154
0.00384356
0.000773047
0.00377821
0.000827847
0.00370832
0.000886145
0.00363354
0.000948261
0.00355352
0.00101446
0.00346784
0.00108504
0.00337604
0.00116035
0.00327757
0.00124061
0.00317184
0.00132624
0.00305814
0.00141738
0.00293571
0.00151443
0.00280355
0.00161742
0.00266073
0.00172654
0.00250589
0.00184172
0.00233778
0.00196261
0.00215488
0.00208878
0.00195515
0.00221917
0.00173736
0.00235202
0.00149874
0.00248545
0.00123861
0.00261478
0.000956594
0.00273536
0.000653279
0.00284013
0.000332524
0.00292092
0.00296506
0.00487394
3.46608e-07
0.00457409
6.7055e-06
0.00467664
7.353e-05
0.00468249
9.14142e-05
0.00467793
0.000101588
0.00467136
0.000114629
0.00466332
0.000132704
0.0046536
0.00015292
0.00464194
0.000175343
0.00462827
0.000199237
0.00461254
0.000224089
0.0045947
0.000249944
0.0045747
0.000276947
0.00455247
0.000305234
0.00452793
0.000334833
0.00450102
0.000365819
0.00447165
0.000398249
0.00443974
0.000432245
0.00440519
0.000467917
0.0043679
0.000505412
0.00432773
0.000544884
0.00428459
0.000586492
0.00423826
0.000630445
0.00418866
0.000676905
0.00413552
0.000726151
0.00407872
0.000778336
0.00401794
0.000833828
0.00395303
0.000892754
0.00388358
0.000955592
0.0038094
0.00102243
0.00372999
0.00109387
0.00364508
0.00116995
0.00355404
0.00125138
0.00345646
0.00133819
0.0033516
0.0014311
0.00323877
0.0015302
0.00311711
0.00163609
0.00298554
0.00174898
0.00284292
0.00186916
0.00268775
0.00199689
0.00251834
0.00213202
0.00233276
0.00227435
0.00212881
0.00242313
0.00190366
0.00257716
0.00165515
0.00273396
0.00137939
0.00289054
0.00107443
0.00304032
0.000739555
0.003175
0.000377702
0.00328277
0.00334276
0.00505529
3.60999e-07
0.00474407
6.96803e-06
0.00485157
7.66737e-05
0.00485855
9.54725e-05
0.00485493
0.000106316
0.00484921
0.000120433
0.00484189
0.000140022
0.00483282
0.000161983
0.00482173
0.000186441
0.00480852
0.000212447
0.00479314
0.000239462
0.00477561
0.000267475
0.00475584
0.00029671
0.00473382
0.000327251
0.00470946
0.0003592
0.00468272
0.000392551
0.00465351
0.000427462
0.00462179
0.000463961
0.00458742
0.00050228
0.00455038
0.000542458
0.00451047
0.000584786
0.00446765
0.00062931
0.00442172
0.000676379
0.00437257
0.00072605
0.00431998
0.000778734
0.00426381
0.000834507
0.0042038
0.000893831
0.00413973
0.000956827
0.00407133
0.00102399
0.00399824
0.00109552
0.00392019
0.00117191
0.00383665
0.0012535
0.00374731
0.00134071
0.00365141
0.00143409
0.00354855
0.00153395
0.00343771
0.00164104
0.00331821
0.00175559
0.00318877
0.00187842
0.00304815
0.00200978
0.00289472
0.00215031
0.00272643
0.00230031
0.00254077
0.00246001
0.00233474
0.00262915
0.00210497
0.00280693
0.00184635
0.00299257
0.00155518
0.00318171
0.00122623
0.00336927
0.000855753
0.00354548
0.000444115
0.00369441
0.00378687
0.00524339
3.69147e-07
0.00492039
7.14088e-06
0.00503329
7.88111e-05
0.00504175
9.83762e-05
0.00503938
0.000109892
0.00503478
0.000125123
0.00502842
0.000146386
0.0050202
0.000170196
0.00500984
0.000196798
0.00499722
0.000225072
0.00498233
0.000254347
0.0049652
0.000284604
0.0049458
0.000316108
0.00492411
0.000348942
0.00490007
0.000383237
0.00487363
0.000418981
0.00484477
0.00045633
0.00481339
0.000495339
0.00477944
0.000536222
0.00474282
0.000579077
0.00470346
0.000624141
0.00466121
0.000671559
0.004616
0.000721586
0.00456762
0.000774429
0.004516
0.000830354
0.00446086
0.000889646
0.00440211
0.000952573
0.00433941
0.00101952
0.00427264
0.00109076
0.00420136
0.00116679
0.00412537
0.0012479
0.00404418
0.00133468
0.00395738
0.0014275
0.00386446
0.00152701
0.00376467
0.00163374
0.00365742
0.00174828
0.00354153
0.00187147
0.00341617
0.00200378
0.00327962
0.00214632
0.0031303
0.00229964
0.00296608
0.00246452
0.0027839
0.00264219
0.00258004
0.00283301
0.00235069
0.00303629
0.00208923
0.00325402
0.00178648
0.00348447
0.00143337
0.00372237
0.00101965
0.00395919
0.000538154
0.0041759
0.00432502
0.00543847
3.70128e-07
0.0051033
7.19384e-06
0.00522215
7.95709e-05
0.00523253
9.96734e-05
0.00523187
0.000111878
0.00522875
0.00012833
0.00522371
0.000151429
0.00521657
0.000177333
0.00520708
0.000206282
0.00519516
0.000236991
0.00518089
0.000268619
0.00516428
0.000301212
0.00514538
0.00033501
0.00512412
0.000370199
0.00510053
0.000406822
0.00507454
0.00044497
0.00504617
0.000484703
0.00501531
0.000526198
0.00498196
0.000569563
0.00494601
0.000615029
0.00490742
0.000662726
0.00486605
0.000712927
0.00482184
0.000765793
0.00477463
0.00082164
0.00472431
0.000880672
0.0046707
0.000943245
0.00461365
0.00100963
0.00455296
0.00108021
0.00448836
0.00115536
0.00441968
0.00123547
0.0043465
0.00132107
0.00426863
0.00141256
0.00418547
0.00151065
0.00409672
0.00161576
0.00400164
0.00172881
0.00389957
0.00185034
0.00378969
0.00198135
0.00367063
0.00212284
0.00354145
0.00227551
0.00339944
0.00244164
0.00324351
0.00262045
0.00307143
0.00281426
0.00287665
0.00302778
0.00265179
0.00326114
0.00239138
0.00351443
0.0020859
0.00378995
0.00171799
0.00409029
0.00126609
0.00441109
0.000701244
0.00474074
0.00502626
0.00564082
3.50064e-07
0.00529303
7.09903e-06
0.0054186
7.83899e-05
0.00543151
9.87537e-05
0.00543309
0.000111735
0.00543189
0.00012963
0.00542846
0.000154859
0.00542266
0.00018313
0.00541417
0.000214772
0.00540307
0.000248089
0.00538949
0.000282195
0.00537354
0.000317164
0.00535523
0.000353313
0.00533459
0.000390843
0.00531159
0.000429819
0.00528626
0.0004703
0.00525854
0.000512412
0.00522847
0.000556273
0.00519594
0.000602089
0.00516096
0.000650002
0.00512341
0.000700272
0.00508329
0.000753047
0.00504043
0.000808654
0.00499481
0.000867251
0.00494624
0.000929242
0.00489469
0.000994798
0.0048399
0.00106441
0.00478181
0.00113829
0.00472016
0.00121701
0.00465478
0.00130084
0.0045854
0.00139045
0.00451171
0.00148625
0.00443344
0.00158893
0.00435003
0.00169917
0.00426119
0.00181765
0.00416601
0.00194552
0.00406418
0.00208318
0.0039541
0.00223291
0.00383573
0.00239387
0.00370883
0.00256854
0.00356681
0.00276246
0.00340584
0.00297523
0.00322581
0.00320782
0.00302107
0.00346588
0.0027811
0.00375439
0.00249012
0.00408093
0.00212835
0.00445206
0.00165432
0.00488512
0.000999287
0.00539577
0.00602555
0.00585084
1.97395e-07
0.00548955
7.15446e-06
0.00562301
7.442e-05
0.00563952
9.45328e-05
0.00564404
0.000108774
0.00564544
0.000128348
0.00564403
0.000156263
0.00563976
0.000187399
0.00563242
0.000222113
0.00562218
0.000258318
0.00560934
0.000295041
0.00559404
0.000332453
0.00557635
0.000371002
0.00555634
0.000410857
0.00553399
0.000452166
0.00550936
0.000494928
0.00548244
0.000539328
0.00545325
0.00058546
0.00542176
0.000633583
0.00538793
0.00068382
0.00535174
0.000736463
0.00531312
0.000791663
0.00527203
0.000849745
0.00522837
0.000910913
0.00518209
0.000975514
0.00513305
0.00104383
0.00508123
0.00111623
0.0050264
0.00119312
0.00496855
0.00127485
0.00490738
0.00136201
0.00484289
0.00145495
0.00477465
0.00155447
0.00470263
0.00166095
0.00462635
0.00177544
0.00454556
0.00189845
0.00445935
0.00203172
0.00436862
0.0021739
0.0042738
0.00232774
0.00416941
0.00249826
0.00405337
0.00268458
0.00392867
0.00288716
0.00379288
0.00311101
0.00364122
0.00335947
0.00346867
0.00363843
0.00326849
0.00395457
0.00302851
0.00432091
0.0027215
0.00475907
0.00229836
0.00530826
0.0016458
0.00604833
0.00767134
0.00846018
1.37821e-07
0.0079353
6.226e-06
0.00813424
6.47604e-05
0.0081637
8.30132e-05
0.00817635
9.84261e-05
0.00818333
0.000121537
0.00818556
0.000154029
0.00818288
0.000190068
0.00817528
0.000229716
0.00816329
0.000270308
0.00814753
0.000310798
0.00812833
0.000351655
0.00810587
0.000393456
0.00808021
0.000436515
0.00805149
0.000480879
0.00801975
0.000526669
0.0079851
0.000573975
0.00794751
0.00062304
0.00790708
0.000674008
0.00786373
0.000727165
0.00781754
0.000782655
0.00776839
0.000840806
0.00771635
0.000901779
0.00766131
0.000965957
0.00760329
0.00103352
0.00754219
0.00110493
0.00747803
0.0011804
0.0074107
0.00126044
0.00734017
0.00134538
0.0072664
0.00143577
0.00718925
0.00153209
0.00710879
0.00163493
0.00702464
0.00174509
0.00693735
0.00186273
0.00684749
0.0019883
0.00675545
0.00212376
0.00665657
0.00227278
0.00655064
0.00243366
0.00644177
0.00260712
0.00633066
0.00279568
0.00621378
0.00300404
0.00609259
0.00323219
0.0059654
0.00348666
0.00583396
0.00376987
0.00570035
0.00408817
0.00557205
0.00444921
0.00548236
0.00484875
0.0055062
0.00528441
0.0059127
0.00564182
0.00547754
0.0081065
0.00846198
1.06494e-07
0.00793472
3.86101e-06
0.0081484
4.23121e-05
0.00818867
6.08685e-05
0.00821063
7.87993e-05
0.0082246
0.000107738
0.00823089
0.000147732
0.00823047
0.000190483
0.00822378
0.000236402
0.00821265
0.000281436
0.00819808
0.00032537
0.00818038
0.000369355
0.00815965
0.000414179
0.00813607
0.000460096
0.00810977
0.000507176
0.00808092
0.000555513
0.00804959
0.000605296
0.00801589
0.000656738
0.00797982
0.000710076
0.00794146
0.000765519
0.00790079
0.000823323
0.00785789
0.000883699
0.00781272
0.000946948
0.00776539
0.00101329
0.00771582
0.00108308
0.00766418
0.00115657
0.00761038
0.00123419
0.00755462
0.0013162
0.00749683
0.00140316
0.00743723
0.00149537
0.00737564
0.00159367
0.00731325
0.00169732
0.0072507
0.00180763
0.00718644
0.00192699
0.00711894
0.00205579
0.00704928
0.00219341
0.0069816
0.00234046
0.00691585
0.0024994
0.00685177
0.00267119
0.00679014
0.0028573
0.00673544
0.00305874
0.00668813
0.00327949
0.00665834
0.00351645
0.00664929
0.00377891
0.00668178
0.00405567
0.00677859
0.0043524
0.00698563
0.0046417
0.00738553
0.0048845
0.00800252
0.00502483
0.00467579
0.00880426
0.0084627
1.53306e-07
0.00793441
7.44338e-07
0.00816342
5.47224e-06
0.00822207
2.04269e-05
0.00825919
4.40363e-05
0.00828283
8.42701e-05
0.00829419
0.000136369
0.00829472
0.000189937
0.00828894
0.000242191
0.00827925
0.000291126
0.00826631
0.000338303
0.00825022
0.000385444
0.00823116
0.000433236
0.0082094
0.000481853
0.0081852
0.000531373
0.00815877
0.000581934
0.00813024
0.000633826
0.00809971
0.000687263
0.00806726
0.000742521
0.00803299
0.000799784
0.00799697
0.00085934
0.00795929
0.000921375
0.00792004
0.000986198
0.00787931
0.00105401
0.00783725
0.00112514
0.00779397
0.00119984
0.00774966
0.0012785
0.00770443
0.00136143
0.00765874
0.00144886
0.00761341
0.00154069
0.00756915
0.00163793
0.00752366
0.00174281
0.00747699
0.0018543
0.00743185
0.00197212
0.00739035
0.00209729
0.00735198
0.00223177
0.00731774
0.0023747
0.00728823
0.0025289
0.00726698
0.00269244
0.00725479
0.00286948
0.00725684
0.00305668
0.00727791
0.00325841
0.00732464
0.00346971
0.00741263
0.00369091
0.00755114
0.00391717
0.00777058
0.00413295
0.00808356
0.00432872
0.00850993
0.00445814
0.0090299
0.00450484
0.00424754
0.00945815
0.0084613
1.29994e-06
0.00794068
-9.8547e-06
0.00821695
-7.85267e-05
0.0083051
-4.95359e-05
0.0083509
6.13625e-07
0.00837141
6.39272e-05
0.00837573
0.00013205
0.00837148
0.000194178
0.00836379
0.000249888
0.00835439
0.000300519
0.00834244
0.000350247
0.0083276
0.000400287
0.0083102
0.000450631
0.00829057
0.000501482
0.00826911
0.000552828
0.00824595
0.000605088
0.00822116
0.000658616
0.0081948
0.000713615
0.00816696
0.000770361
0.0081377
0.000829035
0.00810711
0.000889931
0.00807526
0.000953222
0.00804227
0.00101918
0.00800827
0.001088
0.00797345
0.00115996
0.00793792
0.00123537
0.00790233
0.00131408
0.00786731
0.00139645
0.00783267
0.00148349
0.00779725
0.00157611
0.00776181
0.00167336
0.00772921
0.00177541
0.00770025
0.00188325
0.0076746
0.00199776
0.00765357
0.00211832
0.00763851
0.00224683
0.0076312
0.00238201
0.00763391
0.00252619
0.00764839
0.00267796
0.00767956
0.0028383
0.00772901
0.00300723
0.0078056
0.00318182
0.00791197
0.00336334
0.00806009
0.00354278
0.00825809
0.00371915
0.00851395
0.00387708
0.00883825
0.00400442
0.00921582
0.00408056
0.00966973
0.00405093
0.00392817
0.0099891
0.00845144
9.93288e-06
0.00798011
-6.57309e-05
0.00836226
-0.00027112
0.00854395
-0.000213105
0.00858702
-4.01496e-05
0.00857792
7.32031e-05
0.00856124
0.000148726
0.00854549
0.00020992
0.00853287
0.000262511
0.00851985
0.000313532
0.00850374
0.000366352
0.00848474
0.000419287
0.00846365
0.000471722
0.00844131
0.00052382
0.00841765
0.000576482
0.00839277
0.000629961
0.00836685
0.000684539
0.00834
0.000740457
0.00831238
0.000797978
0.0082841
0.000857315
0.00825529
0.000918733
0.00822606
0.000982453
0.00819655
0.00104868
0.00816704
0.00111751
0.00813806
0.00118894
0.00810999
0.00126343
0.00808189
0.00134217
0.00805368
0.00142466
0.0080265
0.00151066
0.00800206
0.00160055
0.00798028
0.00169513
0.00796135
0.00179434
0.00794596
0.00189864
0.0079357
0.00200802
0.00793095
0.00212306
0.00793443
0.00224335
0.00794644
0.00236999
0.00797138
0.00250124
0.00800983
0.00263951
0.00806725
0.00278087
0.00814636
0.00292812
0.00825232
0.00307586
0.00839131
0.00322434
0.00856625
0.00336784
0.00878566
0.00349974
0.0090481
0.00361463
0.00935668
0.00369583
0.00970197
0.00373526
0.0100489
0.003704
0.00359517
0.0103819
0.00851922
1.56494e-05
0.00824798
-0.000394681
0.00879268
-0.000604733
0.00889082
-0.000291198
0.0088722
-1.85614e-05
0.00880427
0.000141353
0.00877231
0.000180686
0.0087524
0.000229823
0.0087427
0.000272213
0.00872817
0.00032806
0.00870921
0.000385314
0.00868815
0.000440339
0.00866613
0.000493737
0.00864312
0.00054683
0.00861914
0.000600464
0.00859408
0.000655012
0.00856794
0.00071068
0.00854079
0.000767605
0.00851274
0.000826017
0.00848397
0.000886086
0.00845452
0.000948175
0.00842477
0.0010122
0.00839522
0.00107824
0.00836609
0.00114663
0.00833661
0.00121841
0.00830746
0.00129258
0.0082804
0.00136923
0.00825634
0.00144872
0.00823489
0.00153211
0.00821694
0.00161849
0.00820273
0.00170933
0.00819362
0.00180345
0.00818969
0.00190257
0.00819273
0.00200497
0.00820303
0.00211276
0.00822264
0.00222374
0.00825259
0.00234003
0.00829486
0.00245897
0.00835252
0.00258185
0.00842675
0.00270664
0.00852308
0.00283179
0.00864209
0.00295684
0.00879071
0.00307572
0.00896914
0.0031894
0.00918233
0.00328655
0.00942918
0.00336778
0.00970733
0.00341768
0.0100121
0.00343046
0.0103154
0.00340069
0.00330264
0.010608