/*--------------------------------*- C++ -*----------------------------------*\
| =========                 |                                                 |
| \\      /  F ield         | OpenFOAM: The Open Source CFD Toolbox           |
|  \\    /   O peration     | Version:  2412                                  |
|   \\  /    A nd           | Website:  www.openfoam.com                      |
|    \\/     M anipulation  |                                                 |
\*---------------------------------------------------------------------------*/
FoamFile
{
    version     2.0;
    format      ascii;
    arch        "LSB;label=32;scalar=64";
    class       volScalarField;
    location    "20";
    object      T;
}
// * * * * * * * * * * * * * * * * * * * * * * * * * * * * * * * * * * * * * //

dimensions      [0 0 0 1 0 0 0];

internalField   nonuniform List<scalar> 
7000
(
1.3191
2.65679
2.71971
2.66985
2.66466
2.64795
2.64453
2.64727
2.64932
2.65152
2.65278
2.65379
2.65492
2.65627
2.65777
2.6594
2.66113
2.66299
2.66495
2.66706
2.66927
2.67162
2.67408
2.67669
2.67939
2.68223
2.68517
2.68824
2.6914
2.69468
2.69804
2.7015
2.70501
2.7086
2.71222
2.71587
2.71951
2.72315
2.7267
2.7302
2.73355
2.73676
2.73975
2.74252
2.74497
2.74712
2.74888
2.75027
2.75121
2.75176
1.31916
2.657
2.71996
2.66995
2.66478
2.64807
2.64466
2.64739
2.64944
2.65164
2.65289
2.6539
2.65503
2.65638
2.65788
2.6595
2.66123
2.66309
2.66505
2.66715
2.66936
2.67171
2.67417
2.67677
2.67947
2.6823
2.68524
2.68831
2.69146
2.69474
2.69809
2.70154
2.70505
2.70863
2.71224
2.71589
2.71951
2.72314
2.72668
2.73016
2.7335
2.7367
2.73967
2.74242
2.74487
2.74697
2.74874
2.75002
2.75095
2.75131
1.31914
2.65691
2.71986
2.66993
2.66474
2.64802
2.64459
2.64735
2.64935
2.65159
2.65279
2.65384
2.65493
2.65632
2.65777
2.65943
2.66111
2.66301
2.66492
2.66706
2.66922
2.67161
2.67402
2.67666
2.6793
2.68218
2.68506
2.68817
2.69127
2.69458
2.69788
2.70136
2.70483
2.70844
2.71201
2.71568
2.71929
2.72292
2.72648
2.72994
2.73331
2.73647
2.73949
2.74216
2.74465
2.74673
2.74848
2.74982
2.75065
2.75107
1.31912
2.65674
2.71968
2.66993
2.66469
2.64791
2.6445
2.64721
2.64928
2.65142
2.6527
2.65366
2.65483
2.65613
2.65766
2.65923
2.661
2.66278
2.6648
2.66682
2.66909
2.67135
2.67387
2.67636
2.67914
2.68186
2.68489
2.68781
2.69107
2.69419
2.69766
2.70094
2.70458
2.70797
2.71172
2.71517
2.71894
2.72239
2.72606
2.72943
2.73283
2.73602
2.73897
2.74181
2.74409
2.74632
2.74799
2.74924
2.75025
2.75044
1.31908
2.65651
2.71944
2.66995
2.66465
2.64778
2.64439
2.64699
2.64921
2.65119
2.65261
2.65341
2.65472
2.65586
2.65753
2.65895
2.66083
2.66249
2.6646
2.6665
2.66886
2.67101
2.67359
2.67601
2.67881
2.68149
2.6845
2.68744
2.69062
2.69381
2.69713
2.70056
2.70397
2.7076
2.71104
2.7148
2.71819
2.722
2.72522
2.72894
2.73195
2.73536
2.73819
2.74098
2.7436
2.74539
2.74737
2.74863
2.74928
2.74986
1.31904
2.65622
2.71915
2.66999
2.66459
2.64765
2.64419
2.64699
2.64886
2.65117
2.65223
2.65338
2.6543
2.65581
2.65708
2.65888
2.66035
2.6624
2.66408
2.66639
2.66829
2.67086
2.67297
2.67581
2.67814
2.68123
2.68377
2.68709
2.68984
2.69336
2.69632
2.69999
2.70315
2.70689
2.71024
2.71396
2.71745
2.72101
2.72461
2.72785
2.73141
2.73411
2.73745
2.73979
2.74248
2.74472
2.74607
2.74765
2.74858
2.74856
1.31899
2.65586
2.71879
2.67005
2.66453
2.64745
2.64399
2.64673
2.64867
2.65088
2.65203
2.65304
2.65409
2.65544
2.65686
2.65846
2.66012
2.66193
2.66384
2.66587
2.66804
2.67027
2.67272
2.67515
2.67787
2.68047
2.68348
2.68623
2.68951
2.69238
2.69591
2.69888
2.70261
2.70568
2.70952
2.71269
2.71651
2.71976
2.72342
2.72671
2.73003
2.73333
2.7359
2.7389
2.74089
2.74325
2.74515
2.74613
2.74683
2.74758
1.31893
2.65543
2.71835
2.67012
2.66446
2.64721
2.64374
2.64641
2.64843
2.65052
2.65174
2.65266
2.65377
2.65503
2.65649
2.65802
2.6597
2.66145
2.66335
2.66535
2.66748
2.66972
2.67208
2.67456
2.67713
2.67987
2.68263
2.68562
2.68853
2.69178
2.6948
2.69828
2.70135
2.70503
2.70808
2.71189
2.71493
2.71872
2.72176
2.72533
2.72839
2.73152
2.7347
2.73699
2.73972
2.74143
2.74307
2.74485
2.74568
2.74544
1.31886
2.65491
2.71783
2.6702
2.66437
2.64693
2.64343
2.64613
2.64805
2.6502
2.65132
2.65229
2.6533
2.65461
2.65598
2.65755
2.65914
2.66093
2.66275
2.66476
2.66682
2.66905
2.67135
2.6738
2.67633
2.67899
2.68174
2.6846
2.68757
2.69059
2.69378
2.6969
2.70031
2.70346
2.70708
2.71014
2.7139
2.71679
2.72058
2.72328
2.72687
2.72947
2.73246
2.73538
2.73714
2.73984
2.74127
2.74217
2.74289
2.7439
1.31878
2.6543
2.71722
2.6703
2.66427
2.64659
2.64308
2.64567
2.64773
2.64968
2.65094
2.65173
2.65287
2.65401
2.6555
2.65689
2.6586
2.66021
2.66213
2.66397
2.66612
2.66819
2.67055
2.67285
2.67543
2.67794
2.68072
2.68344
2.6864
2.68931
2.69242
2.69551
2.69873
2.70195
2.70523
2.70857
2.71178
2.71522
2.7182
2.72169
2.72426
2.72769
2.72982
2.73283
2.73526
2.73649
2.73874
2.74029
2.74108
2.74056
1.31868
2.6536
2.71651
2.67042
2.66414
2.64622
2.64263
2.64533
2.64714
2.64929
2.6503
2.65128
2.65218
2.65349
2.65474
2.65631
2.65777
2.65955
2.66123
2.66323
2.66514
2.66734
2.66948
2.67189
2.67424
2.67684
2.67941
2.68219
2.68495
2.68788
2.69082
2.69387
2.69696
2.70008
2.70328
2.70642
2.70968
2.71275
2.71599
2.71888
2.72201
2.72455
2.72745
2.7294
2.73206
2.73434
2.73507
2.7361
2.73677
2.73817
1.31858
2.65279
2.71571
2.67055
2.66401
2.64576
2.64216
2.64469
2.64671
2.64858
2.6498
2.6505
2.65162
2.65264
2.65411
2.65539
2.65707
2.65854
2.66044
2.66212
2.66424
2.66613
2.66846
2.67055
2.67309
2.67537
2.67809
2.68056
2.68344
2.68607
2.6891
2.69187
2.69498
2.69788
2.70101
2.70401
2.70706
2.71014
2.71298
2.71612
2.71861
2.72167
2.72377
2.72634
2.7279
2.72979
2.7321
2.73326
2.73393
2.73303
1.31845
2.65188
2.71479
2.67071
2.66383
2.64527
2.64158
2.64417
2.646
2.64798
2.649
2.64983
2.65074
2.65191
2.65315
2.65457
2.65601
2.65764
2.65927
2.66112
2.66295
2.66501
2.66703
2.66929
2.6715
2.67395
2.67632
2.67894
2.68146
2.68424
2.68688
2.68979
2.6925
2.69551
2.69824
2.7013
2.70399
2.70702
2.70963
2.71245
2.71505
2.71735
2.72006
2.72172
2.72416
2.72538
2.72598
2.72686
2.72738
2.72923
1.31833
2.65088
2.71371
2.6711
2.66342
2.64471
2.64093
2.64346
2.64529
2.64717
2.64821
2.64894
2.64987
2.65092
2.6522
2.65348
2.65497
2.65643
2.65813
2.65978
2.66169
2.66352
2.66563
2.66763
2.66993
2.67209
2.67456
2.67686
2.67947
2.68191
2.68461
2.68717
2.68991
2.69257
2.69529
2.698
2.70066
2.7033
2.70589
2.70831
2.71075
2.71287
2.71478
2.7168
2.71784
2.71998
2.72155
2.72236
2.72269
2.72107
1.31819
2.64981
2.71243
2.67181
2.66272
2.64407
2.64019
2.64263
2.64448
2.64622
2.64731
2.6479
2.64887
2.64979
2.65109
2.65226
2.65374
2.65511
2.65676
2.65834
2.66015
2.66195
2.6639
2.6659
2.66797
2.67018
2.67233
2.67474
2.67694
2.67953
2.68175
2.68447
2.68669
2.68946
2.69168
2.69438
2.6966
2.69908
2.7013
2.70348
2.70555
2.70749
2.70924
2.71057
2.71192
2.71183
2.71223
2.71238
2.71294
2.71467
1.31804
2.64859
2.71108
2.67238
2.66208
2.64337
2.63933
2.64182
2.64344
2.64529
2.64616
2.64688
2.64761
2.64867
2.64971
2.65102
2.65222
2.65375
2.6551
2.65683
2.65833
2.66026
2.66189
2.66399
2.66576
2.66801
2.66989
2.67225
2.67426
2.67665
2.6788
2.68115
2.68343
2.68563
2.68802
2.69001
2.69239
2.69415
2.69628
2.69786
2.69948
2.70077
2.702
2.70301
2.70355
2.7049
2.70453
2.70449
2.70318
2.70081
1.31787
2.64725
2.70963
2.67294
2.66139
2.64257
2.63837
2.64091
2.64228
2.64422
2.64489
2.64569
2.64625
2.64737
2.64822
2.64958
2.65062
2.65213
2.65336
2.65502
2.65644
2.65822
2.65982
2.66169
2.66347
2.6654
2.66734
2.66929
2.67137
2.67331
2.67548
2.67739
2.67955
2.68143
2.68345
2.68533
2.68704
2.68889
2.69019
2.69178
2.69273
2.69352
2.69382
2.69392
2.69326
2.69144
2.69075
2.68859
2.68792
2.68782
1.31769
2.6458
2.70807
2.67351
2.66066
2.64165
2.63731
2.63969
2.64116
2.64284
2.64365
2.64418
2.64489
2.64571
2.64675
2.64778
2.64902
2.65018
2.65159
2.65289
2.65447
2.65589
2.65761
2.65913
2.66097
2.66259
2.66449
2.66619
2.6681
2.66988
2.67171
2.67354
2.6752
2.67701
2.67845
2.68007
2.68127
2.68244
2.68349
2.68386
2.68466
2.68458
2.68421
2.68324
2.68204
2.6804
2.67611
2.67253
2.66669
2.66068
1.3175
2.64426
2.70643
2.67409
2.65984
2.64064
2.63612
2.63837
2.63982
2.64134
2.64218
2.64258
2.64328
2.64399
2.64498
2.64592
2.64705
2.64817
2.64942
2.65069
2.65204
2.65347
2.65488
2.65645
2.6579
2.65958
2.66104
2.66279
2.66422
2.66599
2.66738
2.66907
2.6704
2.67185
2.67311
2.67414
2.67523
2.67559
2.67623
2.67606
2.67521
2.67445
2.67202
2.66991
2.66526
2.65991
2.65474
2.645
2.63535
2.62271
1.31729
2.64266
2.70475
2.67466
2.65891
2.63952
2.63473
2.63705
2.63815
2.63983
2.6404
2.64097
2.64139
2.64228
2.64296
2.64407
2.6449
2.64614
2.6471
2.64846
2.64953
2.65097
2.65213
2.65362
2.65486
2.65634
2.65764
2.65905
2.66038
2.66164
2.66295
2.66398
2.6652
2.66592
2.66692
2.66722
2.66788
2.66776
2.6674
2.66655
2.66547
2.66281
2.66059
2.65529
2.65064
2.64066
2.62783
2.61093
2.58205
2.51101
1.31729
2.64178
2.70028
2.67516
2.6575
2.63776
2.63265
2.63476
2.63589
2.63728
2.63798
2.63826
2.63881
2.63934
2.6402
2.64091
2.64192
2.64274
2.64388
2.64478
2.64601
2.64696
2.64827
2.64925
2.65059
2.65154
2.65286
2.65375
2.65498
2.65576
2.65678
2.65738
2.65803
2.65833
2.65855
2.65823
2.65763
2.65674
2.65484
2.6528
2.64868
2.6451
2.63746
2.63138
2.61841
2.6062
2.58345
2.54733
2.48957
2.36399
1.31727
2.64079
2.69557
2.67534
2.65559
2.63539
2.62978
2.63186
2.63273
2.63416
2.63478
2.63508
2.63547
2.636
2.63666
2.63738
2.63814
2.63895
2.63978
2.64067
2.64153
2.64248
2.64333
2.6443
2.6451
2.64604
2.64673
2.6476
2.64811
2.64882
2.64905
2.64956
2.64952
2.64934
2.64886
2.64829
2.64676
2.64549
2.64238
2.63995
2.63486
2.62892
2.62127
2.60784
2.5949
2.56851
2.54178
2.4917
2.4172
2.31794
1.31725
2.64013
2.6931
2.67518
2.654
2.6331
2.62687
2.62871
2.62947
2.63091
2.63148
2.63172
2.63201
2.63246
2.63301
2.63364
2.63429
2.63499
2.63569
2.63645
2.63718
2.63795
2.63866
2.6394
2.64005
2.64068
2.64119
2.64162
2.64189
2.64205
2.64188
2.6415
2.64095
2.63977
2.63853
2.63619
2.6341
2.63018
2.62707
2.62077
2.61614
2.60612
2.59865
2.58344
2.56675
2.5429
2.50649
2.46399
2.39205
2.31844
1.31712
2.63899
2.69229
2.67399
2.65206
2.6303
2.62361
2.62555
2.62639
2.6279
2.62843
2.62849
2.62859
2.62886
2.62911
2.62956
2.62987
2.63036
2.6307
2.63122
2.63159
2.63213
2.63252
2.63304
2.63341
2.63388
2.63419
2.63459
2.6347
2.63477
2.63466
2.63432
2.63373
2.63245
2.63118
2.6284
2.62606
2.62116
2.61678
2.60951
2.60131
2.5913
2.57732
2.56326
2.54111
2.51825
2.48442
2.44393
2.3909
2.32888
1.31688
2.64015
2.7039
2.67063
2.65207
2.62869
2.62148
2.6242
2.62517
2.62701
2.62749
2.62743
2.6274
2.62743
2.62752
2.62762
2.62768
2.62771
2.6277
2.62766
2.62758
2.62741
2.62725
2.62691
2.62663
2.62616
2.62579
2.62498
2.6245
2.62341
2.62276
2.62129
2.62042
2.61839
2.61709
2.61427
2.61174
2.60792
2.60275
2.59712
2.58811
2.57875
2.5647
2.54875
2.52839
2.50252
2.47341
2.43466
2.39198
2.34477
1.30177
2.58654
2.69846
2.67709
2.65963
2.63611
2.62921
2.63211
2.63317
2.6347
2.63457
2.63413
2.63346
2.63292
2.63233
2.6318
2.63116
2.63061
2.62994
2.6294
2.62872
2.6282
2.62746
2.62697
2.62609
2.62554
2.6243
2.62339
2.62153
2.62021
2.61755
2.61575
2.61222
2.60998
2.6055
2.60272
2.59703
2.5935
2.5864
2.58085
2.57195
2.56259
2.55064
2.53531
2.51799
2.49458
2.46885
2.43586
2.39824
2.35806
1.72053
2.4689
2.72868
2.70684
2.68431
2.674
2.67453
2.67607
2.67747
2.67775
2.67656
2.6751
2.67348
2.6717
2.66973
2.66753
2.66512
2.66251
2.65969
2.65673
2.65351
2.65027
2.64671
2.64326
2.63927
2.63536
2.63093
2.62783
2.62398
2.62141
2.61776
2.61504
2.61077
2.60708
2.6019
2.59682
2.59072
2.5837
2.57681
2.56738
2.55923
2.54687
2.53636
2.52028
2.50551
2.48447
2.46322
2.43564
2.40593
2.37315
1.73243
2.46199
2.72318
2.7021
2.67737
2.66838
2.67227
2.67397
2.67666
2.67748
2.67768
2.67754
2.67728
2.67698
2.6763
2.6757
2.67438
2.67341
2.67138
2.67007
2.66733
2.66562
2.66221
2.65992
2.656
2.65337
2.64898
2.64481
2.63922
2.63377
2.62721
2.62101
2.61485
2.60882
2.60315
2.59608
2.59011
2.58132
2.57384
2.563
2.55337
2.54026
2.52772
2.51207
2.49575
2.4769
2.45605
2.43315
2.40773
2.38165
1.72918
2.46754
2.72516
2.7024
2.6738
2.66432
2.66915
2.67159
2.67475
2.67587
2.67622
2.67636
2.67652
2.6765
2.67641
2.67615
2.67556
2.67516
2.67425
2.67353
2.67196
2.67088
2.66868
2.66692
2.66411
2.66141
2.65805
2.65436
2.65027
2.6453
2.64064
2.63407
2.62806
2.61902
2.6118
2.60166
2.59373
2.58343
2.57486
2.56364
2.5533
2.54046
2.52743
2.51222
2.49612
2.47784
2.45805
2.43627
2.41276
2.38981
1.73188
2.46083
2.72063
2.69691
2.67073
2.66108
2.66563
2.66788
2.67105
2.6723
2.67271
2.67299
2.67333
2.67363
2.67389
2.67393
2.67385
2.6736
2.67316
2.67247
2.67178
2.67048
2.66951
2.6675
2.66618
2.66348
2.66167
2.65798
2.65558
2.65066
2.64757
2.64131
2.63705
2.62951
2.6234
2.61419
2.60566
2.59429
2.58347
2.57067
2.55811
2.54437
2.53046
2.51516
2.49906
2.48146
2.46329
2.44324
2.42219
2.40148
1.74106
2.44267
2.70909
2.68456
2.667
2.65762
2.66057
2.66227
2.66536
2.66642
2.66708
2.66716
2.66739
2.66751
2.66764
2.66764
2.66759
2.66741
2.66723
2.66676
2.66642
2.66562
2.66505
2.66379
2.66285
2.6608
2.65941
2.65644
2.6545
2.65048
2.64759
2.64263
2.63854
2.63256
2.62689
2.61958
2.61217
2.60313
2.59345
2.58222
2.57008
2.55614
2.54151
2.52543
2.5091
2.49135
2.47313
2.45383
2.43381
2.41431
1.73601
2.43624
2.70574
2.67702
2.6692
2.65595
2.65607
2.65807
2.66107
2.66218
2.66325
2.66335
2.66363
2.66382
2.66399
2.66406
2.66404
2.66394
2.66379
2.66344
2.66314
2.66247
2.66196
2.66085
2.66007
2.65835
2.65717
2.65467
2.65293
2.64962
2.64691
2.64272
2.63872
2.63359
2.62841
2.62201
2.61538
2.60748
2.59919
2.58957
2.57935
2.56762
2.55508
2.54093
2.52584
2.50938
2.49213
2.47378
2.45467
2.43604
1.35697
2.46732
2.67919
2.6685
2.6465
2.62385
2.6168
2.62084
2.62281
2.62569
2.62712
2.62815
2.62894
2.62996
2.63067
2.63176
2.63241
2.63339
2.63389
2.63472
2.63504
2.63577
2.63589
2.63608
2.63609
2.63598
2.63575
2.63516
2.63458
2.63338
2.63221
2.63031
2.62832
2.62534
2.62211
2.61752
2.61249
2.6061
2.59919
2.59093
2.58223
2.57214
2.5615
2.54965
2.53692
2.52301
2.50818
2.49231
2.47552
2.45905
1.36039
2.47688
2.68632
2.67709
2.65247
2.62349
2.61386
2.61468
2.61667
2.61863
2.61945
2.61954
2.61974
2.61977
2.62003
2.62037
2.62074
2.62106
2.6214
2.62163
2.6219
2.62199
2.62215
2.62207
2.6219
2.62151
2.62112
2.62024
2.61955
2.61807
2.61691
2.6147
2.61278
2.60983
2.607
2.60346
2.5998
2.59534
2.59039
2.58474
2.57803
2.57045
2.56145
2.55154
2.54069
2.52903
2.51666
2.50345
2.48935
2.47554
1.3496
2.41258
2.66935
2.66955
2.65013
2.62374
2.61397
2.61402
2.61473
2.61528
2.61495
2.61409
2.61334
2.6123
2.61164
2.61094
2.61044
2.60979
2.60931
2.60867
2.60819
2.60756
2.60706
2.60639
2.60583
2.60505
2.60434
2.6035
2.60261
2.60153
2.60015
2.59861
2.59659
2.59442
2.59162
2.58866
2.58498
2.5811
2.57645
2.57137
2.56563
2.55954
2.55285
2.54555
2.53748
2.52812
2.51759
2.50651
2.49472
2.48335
1.7417
2.39656
2.67491
2.66127
2.65246
2.63855
2.63339
2.63364
2.6334
2.63311
2.63231
2.63109
2.62968
2.62802
2.62641
2.62483
2.62316
2.62144
2.61959
2.61773
2.61573
2.61377
2.61163
2.60956
2.60728
2.60516
2.60277
2.60068
2.5982
2.59577
2.59321
2.59058
2.58777
2.58473
2.58154
2.57791
2.57417
2.56978
2.5653
2.56001
2.55463
2.54831
2.54194
2.53461
2.52702
2.519
2.51088
2.50185
2.49212
2.48253
1.347
2.39554
2.66014
2.6658
2.64946
2.62418
2.61557
2.61422
2.61549
2.61576
2.61548
2.61513
2.61424
2.61332
2.61267
2.61182
2.6111
2.61003
2.60909
2.60775
2.60662
2.60525
2.60409
2.60259
2.60132
2.59945
2.59787
2.59536
2.59335
2.59063
2.58828
2.5852
2.58241
2.57884
2.57562
2.57169
2.56798
2.56358
2.55924
2.55425
2.54911
2.54332
2.5372
2.53055
2.52337
2.51578
2.50764
2.49923
2.49026
2.48164
1.34832
2.40642
2.66733
2.67126
2.65095
2.62222
2.61095
2.61077
2.61173
2.61244
2.61232
2.61162
2.61087
2.60987
2.60927
2.60853
2.60794
2.60704
2.60623
2.6051
2.60396
2.60229
2.60061
2.59845
2.59628
2.59378
2.59125
2.58846
2.58554
2.58244
2.57914
2.57575
2.57218
2.56862
2.56467
2.56075
2.55634
2.55206
2.54719
2.54249
2.53715
2.53203
2.52616
2.52046
2.51399
2.5076
2.50041
2.49313
2.48531
2.47797
1.34774
2.40208
2.66456
2.66931
2.64835
2.61892
2.60692
2.60677
2.60758
2.60849
2.6082
2.60735
2.60653
2.60543
2.60471
2.60396
2.60333
2.60253
2.60177
2.60083
2.59987
2.59872
2.59743
2.59595
2.59424
2.59234
2.59012
2.58775
2.585
2.58212
2.57882
2.57542
2.57159
2.56772
2.56342
2.55904
2.5542
2.54924
2.54389
2.53837
2.53255
2.52653
2.52028
2.51375
2.50708
2.50009
2.49306
2.48557
2.47802
2.47064
1.34491
2.37907
2.64739
2.66153
2.64238
2.61454
2.60273
2.60129
2.6016
2.60183
2.60118
2.6004
2.59906
2.59797
2.59689
2.59602
2.59498
2.59406
2.5929
2.59187
2.5906
2.58948
2.5881
2.58686
2.58535
2.58393
2.58218
2.58047
2.5784
2.57631
2.57384
2.57124
2.56826
2.56501
2.56138
2.55747
2.55326
2.54869
2.54384
2.53856
2.53308
2.52713
2.521
2.51441
2.50769
2.50052
2.49328
2.48577
2.47814
2.47081
1.75132
2.37305
2.64559
2.64167
2.62821
2.61412
2.60924
2.60948
2.60947
2.60935
2.60877
2.60811
2.60689
2.60575
2.60447
2.60335
2.60198
2.60067
2.59909
2.59754
2.59576
2.59399
2.59201
2.59002
2.58784
2.58563
2.58324
2.58078
2.57815
2.57543
2.57262
2.56965
2.56659
2.56327
2.55983
2.55604
2.55213
2.54778
2.54324
2.53828
2.53306
2.52746
2.52167
2.51554
2.50922
2.50258
2.4957
2.48854
2.48104
2.47389
1.347
2.3887
2.65254
2.6598
2.63925
2.60891
2.59757
2.59621
2.59784
2.59916
2.599
2.59849
2.59791
2.59664
2.59597
2.59475
2.59402
2.59253
2.59158
2.58985
2.58831
2.58647
2.58465
2.58252
2.58044
2.57821
2.57613
2.57383
2.57168
2.56923
2.56669
2.5638
2.56084
2.55757
2.55422
2.55059
2.54685
2.54286
2.53877
2.53444
2.52993
2.52512
2.52003
2.51458
2.50884
2.50278
2.49645
2.48991
2.48307
2.47651
1.3507
2.41196
2.65478
2.64883
2.62689
2.59632
2.58556
2.58583
2.58761
2.58953
2.58988
2.58964
2.58917
2.5884
2.58789
2.58737
2.5869
2.58629
2.58562
2.58483
2.58394
2.58292
2.58177
2.58046
2.57897
2.57713
2.57504
2.57265
2.57002
2.56714
2.56414
2.56095
2.55762
2.5541
2.55043
2.54658
2.54255
2.53835
2.53398
2.52943
2.52469
2.51979
2.51479
2.50967
2.50432
2.49883
2.49306
2.48711
2.48086
2.47489
1.77122
2.37213
2.63837
2.61747
2.61113
2.59583
2.5931
2.59385
2.59497
2.59625
2.59599
2.5955
2.59515
2.59449
2.59392
2.59334
2.59276
2.59208
2.59136
2.59054
2.58966
2.58866
2.58758
2.58635
2.58502
2.58351
2.58184
2.57996
2.57788
2.57548
2.57274
2.56971
2.56638
2.56279
2.55891
2.55481
2.55046
2.54591
2.54114
2.5362
2.53102
2.52565
2.51999
2.51417
2.50818
2.50205
2.49584
2.48953
2.4831
2.47697
1.79776
2.35509
2.62637
2.6058
2.60262
2.59269
2.58931
2.58953
2.58977
2.59033
2.59007
2.58945
2.58882
2.58779
2.58676
2.58564
2.58446
2.58312
2.58173
2.58019
2.57861
2.5769
2.5752
2.57342
2.57166
2.56982
2.568
2.56609
2.56418
2.56221
2.56033
2.5583
2.55632
2.55412
2.5519
2.5494
2.54682
2.54386
2.54054
2.53686
2.53296
2.52879
2.52438
2.51968
2.51474
2.5095
2.50397
2.49814
2.49204
2.48613
1.76258
2.38157
2.65
2.61922
2.61343
2.59928
2.59611
2.59822
2.5997
2.60053
2.60026
2.59978
2.59873
2.59752
2.59624
2.59493
2.59349
2.59198
2.59034
2.58864
2.58683
2.58499
2.5829
2.5807
2.57825
2.57572
2.57295
2.57013
2.56708
2.56401
2.56072
2.55747
2.55401
2.5505
2.54679
2.54306
2.53912
2.53522
2.53132
2.5274
2.52332
2.51914
2.51478
2.51036
2.50576
2.5011
2.49622
2.49125
2.48602
2.48109
1.28617
2.49448
2.64468
2.64199
2.61673
2.58401
2.57195
2.57239
2.57503
2.57741
2.57867
2.57889
2.57912
2.57909
2.57903
2.57895
2.5788
2.57849
2.57803
2.57737
2.57654
2.5755
2.57434
2.57299
2.57152
2.56982
2.56809
2.56595
2.56371
2.56131
2.55869
2.55591
2.5528
2.54961
2.54611
2.54254
2.53867
2.53476
2.53057
2.52637
2.52192
2.51746
2.51296
2.50823
2.50337
2.49829
2.49311
2.48771
2.4822
2.47694
1.77184
2.36715
2.63943
2.61687
2.61057
2.59516
2.59022
2.59113
2.59155
2.59314
2.59276
2.59219
2.59174
2.59095
2.5902
2.58934
2.58857
2.5876
2.58667
2.58552
2.58441
2.58307
2.58176
2.5802
2.57867
2.57686
2.57506
2.57296
2.57064
2.56803
2.56524
2.56216
2.55908
2.55576
2.55243
2.54882
2.54519
2.54123
2.53726
2.53294
2.52862
2.52392
2.51905
2.51398
2.50883
2.50347
2.49803
2.49241
2.48668
2.4812
1.77324
2.36535
2.63734
2.61495
2.60871
2.59341
2.58845
2.58956
2.59061
2.59171
2.59224
2.59175
2.59131
2.59051
2.58966
2.58872
2.58774
2.58659
2.58535
2.58397
2.58249
2.5809
2.57921
2.57742
2.57553
2.57356
2.57147
2.56936
2.5673
2.56514
2.56297
2.56064
2.55813
2.55543
2.55253
2.54947
2.54625
2.54287
2.53931
2.53561
2.53171
2.52768
2.52343
2.51906
2.51447
2.50976
2.50484
2.49981
2.49455
2.48946
1.28557
2.49088
2.64199
2.63932
2.61358
2.57893
2.56599
2.56549
2.56802
2.57008
2.57104
2.57098
2.57084
2.57045
2.57014
2.56967
2.56938
2.56875
2.56831
2.56741
2.56677
2.56561
2.56473
2.56329
2.56218
2.56055
2.55891
2.55714
2.55523
2.55322
2.55109
2.54888
2.54656
2.54414
2.54161
2.53894
2.53614
2.53319
2.53009
2.52681
2.52339
2.51979
2.51605
2.51213
2.50807
2.50383
2.49947
2.49491
2.49024
2.4857
1.76678
2.3728
2.64054
2.60981
2.60339
2.58742
2.58436
2.58653
2.58743
2.58955
2.58931
2.58877
2.58831
2.58747
2.58668
2.58579
2.58493
2.58389
2.58283
2.58161
2.58035
2.57896
2.57751
2.57593
2.57426
2.5725
2.5706
2.56861
2.56648
2.56425
2.56187
2.55925
2.5565
2.55353
2.55044
2.54714
2.54374
2.54014
2.53645
2.53265
2.52876
2.52473
2.52058
2.51631
2.51191
2.50738
2.50271
2.49793
2.493
2.48827
1.79467
2.3559
2.62395
2.59585
2.59183
2.58013
2.57685
2.57805
2.57836
2.57907
2.57889
2.57848
2.57803
2.57728
2.57657
2.57581
2.57501
2.5741
2.57311
2.57203
2.57086
2.56959
2.56823
2.56678
2.56524
2.5636
2.56188
2.56006
2.55816
2.55615
2.55407
2.55201
2.54983
2.54767
2.54536
2.54303
2.54053
2.53794
2.53511
2.53215
2.52895
2.52566
2.52216
2.51857
2.51478
2.51089
2.5068
2.50262
2.4982
2.49403
1.79927
2.35068
2.61892
2.59267
2.58903
2.57777
2.57396
2.57464
2.57481
2.57521
2.57507
2.57465
2.57416
2.5734
2.57262
2.57184
2.57098
2.57005
2.569
2.56788
2.56664
2.56532
2.56387
2.56235
2.56069
2.55895
2.55707
2.5551
2.553
2.5508
2.54847
2.54605
2.54349
2.54084
2.53807
2.53521
2.53222
2.52921
2.5261
2.52294
2.51968
2.51633
2.51284
2.50927
2.50555
2.50175
2.4978
2.49375
2.48954
2.48554
1.77982
2.35589
2.61648
2.60294
2.59357
2.57712
2.57209
2.57257
2.57317
2.5738
2.57378
2.57331
2.57278
2.57195
2.57114
2.57036
2.56951
2.5686
2.56758
2.56649
2.56529
2.56401
2.56262
2.56115
2.55956
2.55787
2.55607
2.55417
2.55214
2.55001
2.54775
2.54538
2.54288
2.54026
2.53751
2.53464
2.53164
2.52851
2.52526
2.52189
2.51839
2.51478
2.51106
2.50721
2.50325
2.49917
2.49497
2.49065
2.48621
2.48196
1.34476
2.3798
2.63794
2.63734
2.61515
2.58169
2.56748
2.5651
2.5664
2.56752
2.56747
2.56721
2.56652
2.56552
2.56461
2.56382
2.56299
2.56211
2.56112
2.56005
2.55886
2.5576
2.55622
2.55476
2.55316
2.55149
2.54967
2.54776
2.54571
2.54357
2.54127
2.53889
2.53634
2.5337
2.5309
2.52801
2.52494
2.52179
2.51846
2.51504
2.51145
2.50777
2.50391
2.49996
2.49584
2.49165
2.48729
2.48286
2.47826
2.47387
1.34601
2.3874
2.65283
2.65697
2.63093
2.59242
2.57489
2.57254
2.57418
2.57546
2.57591
2.57556
2.57473
2.57373
2.57267
2.5718
2.57092
2.57002
2.56898
2.5679
2.56669
2.56543
2.56406
2.56263
2.56108
2.55948
2.55774
2.55594
2.55401
2.55202
2.54988
2.54767
2.54532
2.54289
2.54031
2.53765
2.53483
2.53193
2.52887
2.52572
2.52241
2.519
2.51543
2.51176
2.50793
2.504
2.49991
2.49573
2.49138
2.48721
1.34511
2.37928
2.6363
2.6363
2.61339
2.58006
2.5649
2.5629
2.56426
2.56518
2.56559
2.56516
2.56446
2.56342
2.56249
2.56166
2.56085
2.55998
2.55903
2.55798
2.55688
2.55568
2.55441
2.55305
2.55162
2.55009
2.54848
2.54677
2.54498
2.54307
2.54109
2.53898
2.5368
2.53449
2.5321
2.52957
2.52696
2.52421
2.52138
2.5184
2.51534
2.51213
2.50884
2.50538
2.50185
2.49816
2.49439
2.49045
2.48643
2.48251
1.78108
2.35419
2.61396
2.59964
2.58997
2.57209
2.56701
2.56737
2.56796
2.569
2.56884
2.5683
2.5678
2.56693
2.56617
2.56535
2.56457
2.56365
2.56271
2.56163
2.56053
2.55929
2.55803
2.55662
2.55519
2.5536
2.552
2.55022
2.54843
2.54647
2.54448
2.54232
2.54013
2.53776
2.53536
2.53278
2.53016
2.52736
2.52452
2.5215
2.51843
2.51518
2.51188
2.50839
2.50486
2.50113
2.49736
2.49339
2.48935
2.48541
1.80134
2.34716
2.61453
2.58732
2.58378
2.57251
2.56902
2.5701
2.57039
2.57083
2.57068
2.57016
2.56962
2.56872
2.5679
2.56701
2.56612
2.5651
2.56405
2.56286
2.56164
2.56027
2.55888
2.55733
2.55575
2.55402
2.55224
2.55031
2.54833
2.5462
2.54401
2.54166
2.53925
2.53668
2.53405
2.53126
2.5284
2.52538
2.52229
2.51904
2.51572
2.51223
2.50867
2.50495
2.50116
2.49721
2.49318
2.48899
2.48472
2.48058
1.78829
2.36079
2.62695
2.59533
2.58871
2.5746
2.57212
2.57415
2.57564
2.57656
2.57653
2.57602
2.57548
2.57464
2.57387
2.57305
2.5722
2.57123
2.57021
2.56907
2.56788
2.56657
2.56521
2.56373
2.56219
2.56052
2.55879
2.55693
2.555
2.55294
2.55081
2.54854
2.54619
2.54371
2.54115
2.53844
2.53565
2.53272
2.5297
2.52654
2.52329
2.51989
2.5164
2.51277
2.50904
2.50517
2.50121
2.4971
2.4929
2.48884
2.17216
2.34506
2.76299
2.86014
2.86774
2.82367
2.82158
2.82085
2.81355
2.81239
2.81533
2.81686
2.81812
2.81893
2.8206
2.8219
2.82387
2.82561
2.82707
2.82797
2.82834
2.82842
2.827
2.82615
2.82305
2.82074
2.81664
2.8128
2.80778
2.80283
2.797
2.79115
2.78464
2.7781
2.77127
2.76432
2.75715
2.74938
2.74121
2.73311
2.72491
2.71672
2.70844
2.70019
2.6919
2.68369
2.6755
2.66743
2.65943
2.65159
2.64387
2.63636
2.62902
2.62193
2.61506
2.6085
2.60221
2.59628
2.5907
2.58553
2.58077
2.57649
2.57267
2.56939
2.56663
2.56445
2.56282
2.56176
2.56124
2.56116
2.56127
2.56161
2.56248
2.56389
2.56598
2.5682
2.57045
2.57271
2.57496
2.57713
2.57917
2.58105
2.5827
2.58413
2.5853
2.58623
2.5869
2.58736
2.58758
2.58765
2.58755
2.58733
2.58699
2.58628
2.58553
2.58451
2.58366
2.58254
2.58163
2.57862
2.18032
2.26024
2.45031
2.62848
2.6969
2.73503
2.76313
2.78839
2.80306
2.81584
2.82393
2.83397
2.83967
2.83926
2.83538
2.82987
2.82233
2.81466
2.80531
2.79618
2.78587
2.77601
2.76536
2.75534
2.74436
2.73391
2.72263
2.71201
2.70069
2.69004
2.67877
2.66817
2.65702
2.64653
2.63579
2.6258
2.61547
2.6051
2.59429
2.58389
2.57368
2.56372
2.55384
2.5442
2.53466
2.52538
2.51624
2.50737
2.49866
2.49025
2.48202
2.47412
2.46643
2.45909
2.452
2.44531
2.4389
2.43293
2.42729
2.42214
2.41738
2.41315
2.40937
2.40616
2.40345
2.40135
2.39975
2.39879
2.39831
2.39831
2.39855
2.39907
2.40016
2.40185
2.40429
2.40692
2.40964
2.41236
2.41506
2.41764
2.42007
2.42227
2.42422
2.42586
2.4272
2.42822
2.42895
2.42937
2.42952
2.42947
2.42931
2.42898
2.42858
2.42776
2.42697
2.42583
2.42495
2.42376
2.42297
2.42009
2.22677
2.21281
2.27128
2.35822
2.41101
2.46038
2.49413
2.52157
2.54288
2.55888
2.57086
2.57999
2.58679
2.58921
2.58845
2.5867
2.58269
2.57809
2.5725
2.56645
2.55967
2.55276
2.54536
2.53807
2.53024
2.52252
2.51427
2.50628
2.49784
2.48974
2.48122
2.47309
2.46455
2.45644
2.44813
2.44049
2.43259
2.42457
2.41598
2.40764
2.39948
2.39152
2.3836
2.37582
2.36808
2.36051
2.35302
2.34572
2.33852
2.33153
2.32466
2.31803
2.31156
2.30536
2.29935
2.29365
2.28819
2.28307
2.27824
2.2738
2.2697
2.26605
2.26278
2.26
2.25766
2.25584
2.25449
2.25369
2.25336
2.25343
2.25371
2.2542
2.25518
2.25674
2.25898
2.2614
2.26395
2.26646
2.26895
2.2713
2.27353
2.27551
2.27728
2.27874
2.27995
2.28083
2.28146
2.28179
2.28189
2.28181
2.28167
2.28136
2.28101
2.28026
2.27956
2.27853
2.27778
2.27675
2.27626
2.27385
2.25961
2.22024
2.21587
2.24084
2.27147
2.29397
2.30921
2.32101
2.33155
2.34079
2.34844
2.35454
2.35925
2.36285
2.36439
2.36463
2.36457
2.36446
2.36426
2.36398
2.36349
2.36285
2.36213
2.36086
2.35934
2.35757
2.35529
2.35281
2.34986
2.34676
2.34323
2.33958
2.3355
2.33136
2.32703
2.32294
2.3186
2.31386
2.30844
2.30292
2.29736
2.29191
2.28633
2.28078
2.27511
2.26949
2.26379
2.25818
2.25252
2.24699
2.24146
2.2361
2.23077
2.22565
2.22061
2.21583
2.21117
2.20683
2.20266
2.19885
2.19527
2.19211
2.18923
2.18682
2.18474
2.18318
2.18199
2.18134
2.18112
2.18127
2.18158
2.18206
2.18304
2.18452
2.18662
2.18888
2.19135
2.19374
2.19616
2.19837
2.2005
2.20234
2.20402
2.20535
2.2065
2.20728
2.20789
2.20815
2.20827
2.20818
2.20808
2.20784
2.20753
2.20687
2.20629
2.20538
2.20477
2.2039
2.20365
2.20158
2.27502
2.24093
2.21919
2.21169
2.21874
2.22338
2.22543
2.22604
2.22703
2.22888
2.23169
2.23399
2.23603
2.23787
2.24061
2.2429
2.24511
2.24756
2.25024
2.25309
2.25599
2.25878
2.26139
2.26365
2.26558
2.26695
2.2679
2.26839
2.26811
2.26756
2.26646
2.265
2.26299
2.26072
2.2582
2.25574
2.25296
2.24967
2.24564
2.2413
2.23681
2.23229
2.22764
2.22294
2.2181
2.21322
2.20823
2.20326
2.19821
2.19323
2.18823
2.18333
2.17846
2.17374
2.16909
2.16465
2.16033
2.15627
2.15239
2.14881
2.14547
2.1425
2.13981
2.13754
2.13561
2.13415
2.13306
2.13253
2.13239
2.13257
2.13287
2.1334
2.13439
2.13588
2.13781
2.13997
2.14234
2.14469
2.14702
2.14919
2.15122
2.15299
2.15457
2.15584
2.1569
2.15763
2.15816
2.15839
2.15846
2.15837
2.15825
2.15798
2.15767
2.15698
2.15648
2.15557
2.15503
2.1542
2.15406
2.15206
2.29851
2.25466
2.23047
2.2106
2.20081
2.19394
2.18821
2.18212
2.17728
2.17349
2.17176
2.17127
2.17187
2.17223
2.17333
2.17556
2.17813
2.18131
2.18426
2.18789
2.19127
2.19513
2.19847
2.20199
2.20474
2.20746
2.20926
2.21089
2.2116
2.21217
2.21195
2.21129
2.21011
2.2086
2.20686
2.20513
2.20303
2.20042
2.19709
2.19338
2.18945
2.1854
2.18123
2.17697
2.17261
2.16816
2.16363
2.15904
2.15441
2.14978
2.14514
2.14055
2.13601
2.13156
2.12722
2.12301
2.11896
2.1151
2.11145
2.10805
2.10491
2.10208
2.09956
2.09741
2.09562
2.09424
2.09329
2.09285
2.09281
2.09297
2.09329
2.09387
2.09489
2.09637
2.09821
2.10027
2.10254
2.10482
2.10709
2.1092
2.11116
2.11288
2.11439
2.11561
2.11659
2.1173
2.11778
2.11799
2.11803
2.11794
2.11782
2.11753
2.11721
2.11652
2.11605
2.11517
2.11468
2.11389
2.11382
2.11188
2.32213
2.28212
2.24844
2.22364
2.2032
2.18824
2.17585
2.16536
2.15586
2.14839
2.14252
2.13902
2.1369
2.13652
2.13657
2.13714
2.13901
2.14185
2.14507
2.14847
2.15212
2.15591
2.15968
2.1634
2.16682
2.16995
2.17254
2.17473
2.17626
2.1774
2.17784
2.17797
2.17736
2.17646
2.17538
2.17423
2.17271
2.17065
2.16793
2.16479
2.16137
2.15776
2.154
2.15014
2.14617
2.1421
2.13794
2.13371
2.12942
2.1251
2.12076
2.11645
2.11217
2.10797
2.10386
2.09987
2.09602
2.09235
2.08888
2.08565
2.08267
2.07997
2.07759
2.07554
2.07387
2.0726
2.07176
2.07142
2.07143
2.07159
2.07192
2.07254
2.07361
2.07509
2.07687
2.07887
2.08103
2.08324
2.08543
2.08748
2.08938
2.09105
2.09249
2.09368
2.09463
2.09531