/*--------------------------------*- C++ -*----------------------------------*\
| =========                 |                                                 |
| \\      /  F ield         | OpenFOAM: The Open Source CFD Toolbox           |
|  \\    /   O peration     | Version:  2412                                  |
|   \\  /    A nd           | Website:  www.openfoam.com                      |
|    \\/     M anipulation  |                                                 |
\*---------------------------------------------------------------------------*/
FoamFile
{
    version     2.0;
    format      ascii;
    arch        "LSB;label=32;scalar=64";
    class       volVectorField;
    location    "20";
    object      U;
}
// * * * * * * * * * * * * * * * * * * * * * * * * * * * * * * * * * * * * * //

dimensions      [0 1 -1 0 0 0 0];

internalField   nonuniform List<vector> 
7000
(
(2.59116 -7.25186e-05 0)
(1.62077 0.000178387 0)
(0.495819 0.000208834 0)
(0.553 0.000350647 0)
(0.654694 0.000446467 0)
(0.719906 0.00052451 0)
(0.732794 0.000592347 0)
(0.725901 0.000662636 0)
(0.715838 0.000741093 0)
(0.708139 0.000831507 0)
(0.703671 0.00093015 0)
(0.700103 0.00103336 0)
(0.696017 0.00114033 0)
(0.691162 0.001252 0)
(0.685697 0.00136939 0)
(0.67975 0.00149308 0)
(0.673337 0.00162337 0)
(0.666426 0.00176057 0)
(0.658981 0.00190512 0)
(0.650976 0.00205757 0)
(0.642388 0.00221852 0)
(0.633193 0.00238865 0)
(0.623368 0.00256865 0)
(0.612884 0.00275931 0)
(0.601713 0.00296143 0)
(0.589824 0.0031759 0)
(0.577184 0.00340362 0)
(0.563762 0.00364556 0)
(0.549521 0.00390269 0)
(0.534425 0.00417597 0)
(0.518438 0.0044664 0)
(0.50152 0.00477484 0)
(0.483635 0.00510219 0)
(0.464745 0.00544906 0)
(0.444814 0.00581605 0)
(0.423808 0.00620324 0)
(0.401698 0.00661069 0)
(0.378459 0.00703757 0)
(0.354074 0.00748294 0)
(0.328536 0.00794462 0)
(0.301848 0.00842024 0)
(0.274029 0.00890569 0)
(0.245115 0.00939704 0)
(0.215157 0.00988791 0)
(0.184229 0.0103738 0)
(0.152424 0.0108477 0)
(0.119825 0.0113138 0)
(0.086852 0.0117558 0)
(0.0514937 0.0123446 0)
(0.022116 0.0131968 0)
(2.59128 -4.8125e-05 0)
(1.62093 0.000347416 0)
(0.495507 0.00082778 0)
(0.552739 0.00113949 0)
(0.654455 0.00137465 0)
(0.719681 0.00159668 0)
(0.732569 0.00180467 0)
(0.72568 0.00201995 0)
(0.715626 0.00225745 0)
(0.707936 0.00252722 0)
(0.703474 0.00282002 0)
(0.69991 0.00312627 0)
(0.695828 0.00344379 0)
(0.690978 0.00377485 0)
(0.685519 0.0041221 0)
(0.679577 0.00448691 0)
(0.673171 0.00487001 0)
(0.666265 0.0052721 0)
(0.658827 0.00569426 0)
(0.650828 0.00613774 0)
(0.642247 0.00660408 0)
(0.63306 0.00709474 0)
(0.623243 0.00761148 0)
(0.612767 0.0081559 0)
(0.601604 0.00872994 0)
(0.589724 0.0093353 0)
(0.577094 0.00997401 0)
(0.563681 0.0106477 0)
(0.54945 0.0113582 0)
(0.534364 0.0121068 0)
(0.518385 0.0128951 0)
(0.501476 0.0137235 0)
(0.483599 0.0145927 0)
(0.464714 0.0155016 0)
(0.444786 0.0164495 0)
(0.423781 0.0174329 0)
(0.401667 0.0184486 0)
(0.378419 0.0194896 0)
(0.354019 0.0205486 0)
(0.328457 0.0216145 0)
(0.301735 0.0226747 0)
(0.27387 0.0237126 0)
(0.244894 0.0247104 0)
(0.214859 0.0256472 0)
(0.183833 0.0265022 0)
(0.151912 0.027256 0)
(0.119167 0.0279061 0)
(0.0860664 0.0284266 0)
(0.0505476 0.0290774 0)
(0.0211898 0.0298276 0)
(2.59141 4.76243e-05 0)
(1.62123 0.000392212 0)
(0.495714 0.00160461 0)
(0.552792 0.00198019 0)
(0.654497 0.00230439 0)
(0.719723 0.00266998 0)
(0.732611 0.00303938 0)
(0.725734 0.00341819 0)
(0.715701 0.00382828 0)
(0.708033 0.00428618 0)
(0.703585 0.00478087 0)
(0.70003 0.00529951 0)
(0.695958 0.00583918 0)
(0.691118 0.00640272 0)
(0.685672 0.00699414 0)
(0.679745 0.00761542 0)
(0.673352 0.0082682 0)
(0.666461 0.00895356 0)
(0.659038 0.00967372 0)
(0.651056 0.0104306 0)
(0.642493 0.0112271 0)
(0.633325 0.0120657 0)
(0.623528 0.0129496 0)
(0.613074 0.0138814 0)
(0.601935 0.0148649 0)
(0.590079 0.0159029 0)
(0.577475 0.0169992 0)
(0.564089 0.0181566 0)
(0.549886 0.0193788 0)
(0.534829 0.020668 0)
(0.51888 0.0220273 0)
(0.502002 0.0234577 0)
(0.484154 0.0249609 0)
(0.465298 0.0265358 0)
(0.445396 0.028181 0)
(0.424414 0.029892 0)
(0.402317 0.0316628 0)
(0.37908 0.0334837 0)
(0.354682 0.0353413 0)
(0.329109 0.0372193 0)
(0.302362 0.0390944 0)
(0.274454 0.0409421 0)
(0.245414 0.0427296 0)
(0.21529 0.0444249 0)
(0.184149 0.0459913 0)
(0.152088 0.0473937 0)
(0.119173 0.0486198 0)
(0.0859299 0.0496301 0)
(0.0502718 0.0506826 0)
(0.0207501 0.0516758 0)
(2.59159 5.40986e-05 0)
(1.62167 0.000535637 0)
(0.496141 0.00235051 0)
(0.552915 0.00281386 0)
(0.654619 0.00323653 0)
(0.719866 0.0037565 0)
(0.732759 0.00430279 0)
(0.725896 0.00485868 0)
(0.715892 0.00545138 0)
(0.708256 0.00610361 0)
(0.703831 0.00680512 0)
(0.700294 0.00754202 0)
(0.696238 0.00831052 0)
(0.691418 0.00911371 0)
(0.685994 0.00995618 0)
(0.680089 0.0108408 0)
(0.673721 0.0117698 0)
(0.666856 0.012745 0)
(0.65946 0.0137695 0)
(0.651506 0.0148462 0)
(0.642973 0.0159789 0)
(0.633838 0.0171714 0)
(0.624076 0.0184279 0)
(0.613659 0.0197529 0)
(0.602559 0.0211509 0)
(0.590746 0.0226267 0)
(0.578186 0.024185 0)
(0.564847 0.0258309 0)
(0.550693 0.0275684 0)
(0.535687 0.0294025 0)
(0.519791 0.031336 0)
(0.502966 0.0333726 0)
(0.485171 0.0355127 0)
(0.466368 0.0377576 0)
(0.446516 0.0401033 0)
(0.42558 0.0425468 0)
(0.403523 0.0450774 0)
(0.380317 0.0476849 0)
(0.355937 0.0503489 0)
(0.330368 0.0530486 0)
(0.303604 0.0557518 0)
(0.275655 0.0584224 0)
(0.246547 0.0610181 0)
(0.216323 0.0634876 0)
(0.185049 0.0657868 0)
(0.152821 0.0678592 0)
(0.119704 0.0696763 0)
(0.0862776 0.0711846 0)
(0.050421 0.0726099 0)
(0.0206061 0.0737662 0)
(2.59184 6.77255e-05 0)
(1.6223 0.00071612 0)
(0.496692 0.0031031 0)
(0.553025 0.00367906 0)
(0.654747 0.00421076 0)
(0.720038 0.0048848 0)
(0.732945 0.00560814 0)
(0.7261 0.00634819 0)
(0.716133 0.00713227 0)
(0.708538 0.00798502 0)
(0.704146 0.00889859 0)
(0.700635 0.00986009 0)
(0.696606 0.0108647 0)
(0.691815 0.011916 0)
(0.686423 0.0130183 0)
(0.680552 0.0141759 0)
(0.674219 0.0153909 0)
(0.667392 0.016667 0)
(0.660036 0.0180068 0)
(0.652125 0.0194156 0)
(0.643638 0.0208972 0)
(0.634552 0.0224575 0)
(0.624841 0.0241011 0)
(0.61448 0.0258349 0)
(0.60344 0.0276637 0)
(0.591689 0.0295951 0)
(0.579197 0.0316341 0)
(0.565928 0.0337884 0)
(0.551848 0.0360628 0)
(0.536919 0.0384642 0)
(0.521102 0.0409962 0)
(0.504357 0.0436639 0)
(0.486644 0.0464684 0)
(0.467921 0.049411 0)
(0.448147 0.0524878 0)
(0.427282 0.0556939 0)
(0.40529 0.0590178 0)
(0.382135 0.0624436 0)
(0.357792 0.0659497 0)
(0.332237 0.0695041 0)
(0.305462 0.0730722 0)
(0.277469 0.0766005 0)
(0.248279 0.0800376 0)
(0.217933 0.0833133 0)
(0.186491 0.0863616 0)
(0.154054 0.0891168 0)
(0.120675 0.09152 0)
(0.0869977 0.0934942 0)
(0.0508527 0.095232 0)
(0.0206239 0.0964809 0)
(2.59217 8.00054e-05 0)
(1.62315 0.000900165 0)
(0.497391 0.00385476 0)
(0.55314 0.00455684 0)
(0.65489 0.00520382 0)
(0.720248 0.00603226 0)
(0.733182 0.0069381 0)
(0.726363 0.00786737 0)
(0.71644 0.00885148 0)
(0.708894 0.00991362 0)
(0.704544 0.0110477 0)
(0.701069 0.0122416 0)
(0.697076 0.0134909 0)
(0.692324 0.0147988 0)
(0.686974 0.0161702 0)
(0.681148 0.0176096 0)
(0.674862 0.0191203 0)
(0.668084 0.0207063 0)
(0.660781 0.0223719 0)
(0.652926 0.0241225 0)
(0.6445 0.0259639 0)
(0.635478 0.0279026 0)
(0.625837 0.0299454 0)
(0.615551 0.0320995 0)
(0.604589 0.0343728 0)
(0.592923 0.036773 0)
(0.580521 0.0393084 0)
(0.567347 0.0419866 0)
(0.553367 0.0448161 0)
(0.538542 0.0478035 0)
(0.522833 0.0509561 0)
(0.5062 0.0542781 0)
(0.488599 0.0577738 0)
(0.469988 0.061443 0)
(0.450323 0.0652841 0)
(0.429561 0.0692891 0)
(0.407661 0.0734472 0)
(0.384585 0.0777374 0)
(0.360297 0.0821347 0)
(0.334775 0.0865997 0)
(0.307996 0.0910875 0)
(0.27996 0.0955388 0)
(0.250675 0.099882 0)
(0.220178 0.104035 0)
(0.188526 0.107903 0)
(0.155818 0.111396 0)
(0.122107 0.114434 0)
(0.0880689 0.116905 0)
(0.0515134 0.118955 0)
(0.0207753 0.120275 0)
(2.59261 9.26627e-05 0)
(1.62422 0.00108638 0)
(0.498247 0.0046142 0)
(0.553261 0.00545017 0)
(0.655048 0.00621892 0)
(0.720499 0.00720548 0)
(0.733472 0.00830141 0)
(0.726686 0.00942439 0)
(0.716817 0.0106152 0)
(0.709331 0.0118952 0)
(0.705033 0.0132579 0)
(0.701605 0.0146918 0)
(0.697658 0.0161936 0)
(0.692955 0.0177663 0)
(0.687657 0.0194155 0)
(0.681887 0.0211456 0)
(0.675661 0.0229612 0)
(0.668946 0.0248666 0)
(0.661709 0.0268677 0)
(0.653926 0.0289704 0)
(0.645576 0.0311823 0)
(0.636637 0.0335106 0)
(0.627084 0.0359642 0)
(0.616891 0.0385513 0)
(0.606031 0.0412819 0)
(0.594472 0.044165 0)
(0.582183 0.0472112 0)
(0.569131 0.0504297 0)
(0.555278 0.053831 0)
(0.540588 0.0574238 0)
(0.525018 0.0612167 0)
(0.508529 0.0652166 0)
(0.491074 0.0694282 0)
(0.47261 0.0738536 0)
(0.453089 0.0784908 0)
(0.432466 0.0833325 0)
(0.410693 0.0883659 0)
(0.387726 0.0935687 0)
(0.363524 0.098911 0)
(0.338052 0.104348 0)
(0.311285 0.109824 0)
(0.283205 0.115268 0)
(0.253819 0.120596 0)
(0.223143 0.125706 0)
(0.191237 0.130479 0)
(0.158191 0.134797 0)
(0.124048 0.138539 0)
(0.089544 0.141561 0)
(0.0524205 0.143971 0)
(0.0210226 0.145395 0)
(2.59314 0.000105436 0)
(1.62554 0.00127309 0)
(0.499274 0.00537941 0)
(0.55339 0.00635303 0)
(0.655224 0.00724714 0)
(0.720796 0.00839603 0)
(0.733823 0.00968461 0)
(0.727077 0.0110086 0)
(0.717274 0.0124144 0)
(0.709859 0.0139203 0)
(0.705623 0.0155191 0)
(0.702252 0.0172009 0)
(0.698362 0.0189632 0)
(0.69372 0.0208093 0)
(0.688488 0.0227448 0)
(0.682787 0.0247748 0)
(0.676633 0.0269043 0)
(0.669995 0.0291389 0)
(0.66284 0.0314851 0)
(0.655145 0.0339502 0)
(0.646889 0.0365429 0)
(0.638051 0.0392721 0)
(0.628606 0.0421478 0)
(0.61853 0.0451804 0)
(0.607793 0.048381 0)
(0.596367 0.0517613 0)
(0.58422 0.055333 0)
(0.571317 0.0591084 0)
(0.557623 0.0630989 0)
(0.543098 0.0673165 0)
(0.527703 0.0717711 0)
(0.511393 0.0764719 0)
(0.494122 0.0814261 0)
(0.475843 0.0866364 0)
(0.456507 0.0921038 0)
(0.43606 0.0978201 0)
(0.414453 0.103774 0)
(0.391633 0.10994 0)
(0.367551 0.116286 0)
(0.34216 0.122763 0)
(0.315422 0.129307 0)
(0.28731 0.135834 0)
(0.257811 0.14224 0)
(0.226936 0.148409 0)
(0.194723 0.154188 0)
(0.161268 0.159428 0)
(0.126587 0.163979 0)
(0.091462 0.16764 0)
(0.0536174 0.170467 0)
(0.0214123 0.17203 0)
(2.59377 0.000118273 0)
(1.62713 0.00145943 0)
(0.500486 0.00614772 0)
(0.553532 0.00726134 0)
(0.655422 0.00828403 0)
(0.721143 0.00959947 0)
(0.734241 0.0110862 0)
(0.727548 0.0126166 0)
(0.717824 0.014245 0)
(0.710489 0.0159846 0)
(0.706327 0.0178276 0)
(0.703024 0.0197654 0)
(0.699204 0.0217963 0)
(0.694635 0.0239242 0)
(0.689481 0.0261547 0)
(0.683862 0.0284931 0)
(0.677795 0.0309454 0)
(0.67125 0.0335179 0)
(0.664194 0.0362183 0)
(0.656604 0.0390552 0)
(0.648461 0.0420384 0)
(0.639744 0.0451785 0)
(0.63043 0.048487 0)
(0.620494 0.0519761 0)
(0.609907 0.055659 0)
(0.598641 0.059549 0)
(0.586665 0.0636605 0)
(0.573944 0.0680075 0)
(0.560443 0.0726047 0)
(0.546121 0.0774655 0)
(0.530938 0.0826034 0)
(0.514848 0.0880293 0)
(0.497804 0.0937535 0)
(0.479755 0.0997807 0)
(0.460647 0.106114 0)
(0.440425 0.112747 0)
(0.419029 0.119669 0)
(0.3964 0.126856 0)
(0.372478 0.134272 0)
(0.347205 0.141865 0)
(0.320527 0.149564 0)
(0.292397 0.157277 0)
(0.262789 0.164878 0)
(0.231688 0.172228 0)
(0.19912 0.179153 0)
(0.165167 0.185451 0)
(0.129838 0.190928 0)
(0.0939395 0.195335 0)
(0.0551468 0.198673 0)
(0.0219201 0.200428 0)
(2.59452 0.000131039 0)
(1.62899 0.0016441 0)
(0.501898 0.00691401 0)
(0.553689 0.0081691 0)
(0.655648 0.00932259 0)
(0.721549 0.0108081 0)
(0.734736 0.012497 0)
(0.728107 0.0142398 0)
(0.718476 0.0160981 0)
(0.711235 0.0180797 0)
(0.707159 0.0201753 0)
(0.703937 0.0223775 0)
(0.700199 0.0246855 0)
(0.695717 0.0271036 0)
(0.690655 0.0296373 0)
(0.685133 0.0322928 0)
(0.679169 0.0350763 0)
(0.672732 0.0379953 0)
(0.665792 0.0410586 0)
(0.658327 0.0442761 0)
(0.650317 0.0476589 0)
(0.641744 0.0512192 0)
(0.632584 0.0549702 0)
(0.622813 0.058926 0)
(0.612404 0.0631018 0)
(0.601329 0.0675132 0)
(0.589556 0.072177 0)
(0.577053 0.0771096 0)
(0.563781 0.0823287 0)
(0.549703 0.0878503 0)
(0.534775 0.0936913 0)
(0.518952 0.0998658 0)
(0.502183 0.106387 0)
(0.484415 0.113263 0)
(0.46559 0.1205 0)
(0.445647 0.128096 0)
(0.424518 0.136039 0)
(0.402135 0.14431 0)
(0.378428 0.15287 0)
(0.353318 0.161669 0)
(0.326741 0.170626 0)
(0.298622 0.179643 0)
(0.268913 0.18858 0)
(0.237578 0.197269 0)
(0.204605 0.205503 0)
(0.170068 0.213041 0)
(0.133934 0.219627 0)
(0.0970651 0.224937 0)
(0.0571079 0.228898 0)
(0.0226256 0.230904 0)
(2.59539 0.000143608 0)
(1.63116 0.00182535 0)
(0.503525 0.00767084 0)
(0.553865 0.00906887 0)
(0.655904 0.0103556 0)
(0.72202 0.0120133 0)
(0.735317 0.0139094 0)
(0.728768 0.0158693 0)
(0.719247 0.0179644 0)
(0.712113 0.0201966 0)
(0.708135 0.0225539 0)
(0.705007 0.025029 0)
(0.701365 0.0276226 0)
(0.696985 0.0303392 0)
(0.692029 0.0331846 0)
(0.686619 0.0361652 0)
(0.680773 0.039288 0)
(0.674463 0.0425616 0)
(0.667658 0.0459958 0)
(0.660337 0.0496018 0)
(0.652483 0.0533923 0)
(0.644077 0.0573811 0)
(0.635097 0.0615832 0)
(0.62552 0.0660148 0)
(0.615319 0.0706931 0)
(0.604467 0.0756363 0)
(0.592933 0.0808637 0)
(0.580685 0.0863946 0)
(0.567685 0.0922495 0)
(0.553895 0.0984483 0)
(0.539271 0.105011 0)
(0.523766 0.111956 0)
(0.507329 0.1193 0)
(0.489901 0.127056 0)
(0.471422 0.135234 0)
(0.451822 0.143837 0)
(0.43103 0.152858 0)
(0.408963 0.162281 0)
(0.385536 0.172069 0)
(0.360659 0.182174 0)
(0.334237 0.192511 0)
(0.306179 0.202976 0)
(0.276393 0.213417 0)
(0.24482 0.223639 0)
(0.211406 0.233405 0)
(0.176191 0.242406 0)
(0.13912 0.250325 0)
(0.101047 0.256755 0)
(0.0595863 0.261525 0)
(0.0235154 0.263882 0)
(2.59639 0.000155619 0)
(1.63364 0.00200123 0)
(0.505379 0.00840689 0)
(0.554067 0.00995157 0)
(0.656198 0.011375 0)
(0.722567 0.0132033 0)
(0.735996 0.0153103 0)
(0.729541 0.0174926 0)
(0.720151 0.0198327 0)
(0.71314 0.0223249 0)
(0.709273 0.0249531 0)
(0.706253 0.0277102 0)
(0.702722 0.0305978 0)
(0.698458 0.0336211 0)
(0.693624 0.0367862 0)
(0.688343 0.0400996 0)
(0.682633 0.0435692 0)
(0.676467 0.0472045 0)
(0.669817 0.0510166 0)
(0.662662 0.0550181 0)
(0.654987 0.0592233 0)
(0.646773 0.0636475 0)
(0.638001 0.0683079 0)
(0.628647 0.0732227 0)
(0.618687 0.0784114 0)
(0.608094 0.083895 0)
(0.596838 0.0896952 0)
(0.584887 0.095835 0)
(0.572205 0.102338 0)
(0.558752 0.109228 0)
(0.544486 0.116529 0)
(0.529358 0.124264 0)
(0.513314 0.132455 0)
(0.496294 0.141122 0)
(0.478234 0.150279 0)
(0.459057 0.159936 0)
(0.438682 0.170092 0)
(0.417017 0.180739 0)
(0.393962 0.191846 0)
(0.369402 0.203368 0)
(0.343222 0.215226 0)
(0.315295 0.227306 0)
(0.285493 0.239454 0)
(0.253704 0.251449 0)
(0.219828 0.263018 0)
(0.183843 0.273807 0)
(0.14564 0.283392 0)
(0.106106 0.291248 0)
(0.0627963 0.297067 0)
(0.0247295 0.299908 0)
(2.59752 0.000164699 0)
(1.63644 0.0021714 0)
(0.507473 0.00910442 0)
(0.554301 0.0108044 0)
(0.656534 0.0123725 0)
(0.723193 0.0143619 0)
(0.736785 0.016685 0)
(0.730447 0.0190961 0)
(0.72121 0.0216901 0)
(0.714338 0.0244523 0)
(0.710596 0.0273613 0)
(0.707697 0.0304096 0)
(0.704292 0.0336 0)
(0.70016 0.0369382 0)
(0.695464 0.0404306 0)
(0.690328 0.0440841 0)
(0.684772 0.0479074 0)
(0.67877 0.0519109 0)
(0.672295 0.056107 0)
(0.66533 0.0605099 0)
(0.657858 0.0651352 0)
(0.649864 0.0700004 0)
(0.641328 0.0751245 0)
(0.63223 0.0805279 0)
(0.622545 0.0862328 0)
(0.612249 0.0922628 0)
(0.601313 0.0986427 0)
(0.589705 0.105399 0)
(0.57739 0.112559 0)
(0.56433 0.120152 0)
(0.550482 0.128204 0)
(0.535796 0.136748 0)
(0.520217 0.145808 0)
(0.503685 0.155412 0)
(0.486128 0.165583 0)
(0.467466 0.176339 0)
(0.44761 0.18769 0)
(0.426454 0.199635 0)
(0.403882 0.212157 0)
(0.379761 0.225218 0)
(0.353938 0.238751 0)
(0.326255 0.252646 0)
(0.296529 0.266745 0)
(0.26459 0.280817 0)
(0.230268 0.294543 0)
(0.193467 0.307511 0)
(0.153975 0.319201 0)
(0.112636 0.328933 0)
(0.0669432 0.336201 0)
(0.026296 0.339749 0)
(2.59878 0.000170032 0)
(1.63958 0.00233312 0)
(0.509803 0.00975144 0)
(0.554576 0.0116093 0)
(0.656911 0.0133263 0)
(0.7239 0.0154688 0)
(0.737694 0.0180181 0)
(0.731493 0.0206646 0)
(0.722436 0.0235213 0)
(0.715722 0.0265644 0)
(0.71212 0.0297646 0)
(0.709358 0.0331137 0)
(0.706094 0.0366155 0)
(0.70211 0.0402766 0)
(0.697569 0.0441034 0)
(0.692596 0.0481033 0)
(0.687212 0.0522858 0)
(0.681395 0.0566624 0)
(0.675118 0.0612469 0)
(0.668365 0.066055 0)
(0.661123 0.0711041 0)
(0.653377 0.0764136 0)
(0.645109 0.0820044 0)
(0.636301 0.0878998 0)
(0.62693 0.0941239 0)
(0.616972 0.100704 0)
(0.6064 0.107667 0)
(0.595185 0.115045 0)
(0.583293 0.122868 0)
(0.570686 0.131171 0)
(0.557321 0.139985 0)
(0.543151 0.149349 0)
(0.528119 0.159296 0)
(0.512163 0.169861 0)
(0.495209 0.181078 0)
(0.477173 0.192975 0)
(0.457955 0.205576 0)
(0.437442 0.218895 0)
(0.415499 0.232931 0)
(0.39197 0.247662 0)
(0.366671 0.263041 0)
(0.339397 0.278972 0)
(0.309911 0.295308 0)
(0.277952 0.311819 0)
(0.243256 0.328169 0)
(0.205603 0.343879 0)
(0.164656 0.358303 0)
(0.121177 0.370563 0)
(0.0725107 0.379866 0)
(0.0284959 0.384478 0)
(2.60017 0.000178134 0)
(1.64305 0.00247516 0)
(0.51237 0.0103524 0)
(0.554895 0.0123478 0)
(0.657338 0.0141956 0)
(0.724699 0.0165084 0)
(0.738744 0.0192818 0)
(0.732704 0.022174 0)
(0.723856 0.0253103 0)
(0.71732 0.0286471 0)
(0.713872 0.0321492 0)
(0.711261 0.035809 0)
(0.708154 0.0396315 0)
(0.704333 0.0436239 0)
(0.699964 0.0477925 0)
(0.695172 0.0521454 0)
(0.68998 0.0566924 0)
(0.684367 0.0614468 0)
(0.67831 0.0664232 0)
(0.671795 0.0716393 0)
(0.66481 0.0771139 0)
(0.657342 0.0828688 0)
(0.649376 0.0889268 0)
(0.640894 0.0953139 0)
(0.631876 0.102057 0)
(0.6223 0.109186 0)
(0.612142 0.116733 0)
(0.601374 0.124731 0)
(0.589963 0.133218 0)
(0.577875 0.142231 0)
(0.565067 0.151812 0)
(0.551494 0.162002 0)
(0.5371 0.172846 0)
(0.521823 0.184389 0)
(0.505587 0.196675 0)
(0.488305 0.209748 0)
(0.469872 0.223649 0)
(0.450165 0.23841 0)
(0.429033 0.254057 0)
(0.406299 0.270594 0)
(0.381748 0.288001 0)
(0.355122 0.306217 0)
(0.32612 0.32512 0)
(0.294389 0.344506 0)
(0.259524 0.364042 0)
(0.221135 0.383215 0)
(0.178644 0.401253 0)
(0.132611 0.417059 0)
(0.0800934 0.429398 0)
(0.031528 0.435747 0)
(2.6017 0.000188001 0)
(1.64686 0.0025924 0)
(0.515202 0.0108835 0)
(0.555263 0.0129908 0)
(0.657836 0.0149505 0)
(0.725632 0.0174496 0)
(0.739964 0.0204529 0)
(0.734128 0.0236028 0)
(0.725522 0.0270353 0)
(0.719179 0.0306799 0)
(0.715897 0.0344954 0)
(0.713451 0.0384752 0)
(0.710515 0.0426256 0)
(0.706874 0.046955 0)
(0.702692 0.0514695 0)
(0.698097 0.0561781 0)
(0.693115 0.0610916 0)
(0.687727 0.0662246 0)
(0.681912 0.0715932 0)
(0.675659 0.0772169 0)
(0.668958 0.0831164 0)
(0.661798 0.0893154 0)
(0.654166 0.095839 0)
(0.646047 0.102715 0)
(0.637423 0.109975 0)
(0.628276 0.11765 0)
(0.618582 0.125776 0)
(0.608316 0.134392 0)
(0.59745 0.143539 0)
(0.585951 0.15326 0)
(0.57378 0.163604 0)
(0.560894 0.17462 0)
(0.547239 0.186364 0)
(0.532755 0.198891 0)
(0.517368 0.21226 0)
(0.50099 0.226532 0)
(0.483514 0.24177 0)
(0.464811 0.258032 0)
(0.444721 0.275373 0)
(0.423046 0.293839 0)
(0.399543 0.313453 0)
(0.373906 0.334214 0)
(0.34576 0.356055 0)
(0.314643 0.378824 0)
(0.279986 0.402287 0)
(0.241132 0.425907 0)
(0.1972 0.448799 0)
(0.148342 0.469691 0)
(0.0910116 0.486707 0)
(0.0361573 0.496117 0)
(2.60335 0.000194072 0)
(1.65099 0.00268222 0)
(0.518283 0.0112943 0)
(0.555683 0.0134981 0)
(0.658422 0.0155646 0)
(0.726727 0.0182495 0)
(0.741396 0.0215066 0)
(0.735801 0.0249306 0)
(0.727473 0.0286761 0)
(0.72134 0.0326497 0)
(0.718236 0.0367987 0)
(0.715965 0.0411152 0)
(0.713213 0.0456078 0)
(0.709766 0.0502852 0)
(0.705786 0.0551549 0)
(0.701405 0.0602258 0)
(0.69665 0.0655099 0)
(0.691507 0.0710226 0)
(0.685958 0.0767825 0)
(0.679992 0.0828102 0)
(0.673603 0.0891291 0)
(0.666782 0.0957645 0)
(0.659519 0.102745 0)
(0.651801 0.1101 0)
(0.643614 0.117864 0)
(0.634942 0.126072 0)
(0.625764 0.134764 0)
(0.616061 0.143983 0)
(0.605806 0.153775 0)
(0.594971 0.16419 0)
(0.583521 0.175283 0)
(0.571418 0.187113 0)
(0.558612 0.199745 0)
(0.545048 0.213248 0)
(0.530656 0.227698 0)
(0.515353 0.243176 0)
(0.499034 0.259768 0)
(0.481569 0.277566 0)
(0.462799 0.296666 0)
(0.442513 0.317165 0)
(0.420454 0.339138 0)
(0.396274 0.362697 0)
(0.369526 0.387869 0)
(0.339683 0.41453 0)
(0.305961 0.442725 0)
(0.26731 0.472042 0)
(0.222428 0.501644 0)
(0.170706 0.530087 0)
(0.107367 0.554896 0)
(0.0434845 0.570076 0)
(2.6051 0.000196716 0)
(1.65541 0.00273299 0)
(0.52159 0.0115363 0)
(0.556169 0.0138214 0)
(0.659119 0.0159892 0)
(0.728026 0.0188624 0)
(0.743091 0.0223913 0)
(0.737778 0.0261072 0)
(0.72977 0.0301835 0)
(0.723868 0.0344993 0)
(0.720951 0.0389889 0)
(0.718865 0.0436446 0)
(0.716309 0.0484791 0)
(0.713068 0.0535035 0)
(0.709304 0.0587268 0)
(0.70515 0.0641582 0)
(0.700638 0.0698114 0)
(0.695757 0.0757028 0)
(0.690492 0.0818527 0)
(0.684836 0.0882833 0)
(0.678784 0.0950196 0)
(0.672332 0.102089 0)
(0.665471 0.109521 0)
(0.658192 0.11735 0)
(0.650484 0.12561 0)
(0.642335 0.134342 0)
(0.633728 0.143587 0)
(0.624647 0.153394 0)
(0.615072 0.163813 0)
(0.604979 0.174902 0)
(0.59434 0.186721 0)
(0.583121 0.199341 0)
(0.571283 0.212835 0)
(0.558776 0.227289 0)
(0.545541 0.242796 0)
(0.531502 0.259458 0)
(0.516566 0.277391 0)
(0.500615 0.296726 0)
(0.483498 0.317597 0)
(0.464998 0.340214 0)
(0.444888 0.364641 0)
(0.422818 0.391082 0)
(0.398179 0.419914 0)
(0.370525 0.451196 0)
(0.338961 0.485064 0)
(0.301916 0.521527 0)
(0.257464 0.560251 0)
(0.203865 0.600026 0)
(0.133825 0.638307 0)
(0.0565621 0.666349 0)
(2.60694 0.000195192 0)
(1.66005 0.00273366 0)
(0.52509 0.0115349 0)
(0.556744 0.013886 0)
(0.659962 0.0161629 0)
(0.729575 0.0192526 0)
(0.745106 0.0231026 0)
(0.740119 0.02717 0)
(0.732467 0.0316433 0)
(0.726802 0.0363547 0)
(0.724072 0.0412254 0)
(0.722174 0.0462512 0)
(0.719822 0.0514503 0)
(0.716798 0.0568374 0)
(0.713264 0.0624212 0)
(0.709354 0.0682125 0)
(0.705104 0.0742268 0)
(0.700507 0.0804835 0)
(0.69555 0.0870052 0)
(0.69023 0.0938171 0)
(0.684545 0.100947 0)
(0.678492 0.108424 0)
(0.672068 0.116281 0)
(0.665267 0.124554 0)
(0.65808 0.133281 0)
(0.650501 0.142506 0)
(0.642518 0.152274 0)
(0.63412 0.162637 0)
(0.625293 0.17365 0)
(0.61602 0.185376 0)
(0.606281 0.197885 0)
(0.596051 0.211253 0)
(0.585301 0.225567 0)
(0.573995 0.240925 0)
(0.562085 0.25744 0)
(0.549515 0.275236 0)
(0.536211 0.294446 0)
(0.522068 0.315293 0)
(0.507011 0.337864 0)
(0.490763 0.362408 0)
(0.473074 0.389355 0)
(0.453934 0.418934 0)
(0.432723 0.451627 0)
(0.408637 0.487935 0)
(0.380868 0.528308 0)
(0.347869 0.573474 0)
(0.306999 0.624253 0)
(0.255021 0.680982 0)
(0.180397 0.743026 0)
(0.0832333 0.803185 0)
(2.60883 0.000139336 0)
(1.66482 0.00273109 0)
(0.528681 0.0111978 0)
(0.557435 0.0135436 0)
(0.66101 0.015916 0)
(0.731473 0.0192054 0)
(0.747572 0.0233787 0)
(0.742978 0.0278012 0)
(0.735726 0.0326752 0)
(0.730294 0.0377758 0)
(0.727737 0.0430149 0)
(0.72602 0.0484007 0)
(0.72387 0.0539616 0)
(0.721063 0.0597147 0)
(0.717758 0.0656686 0)
(0.714092 0.0718331 0)
(0.710108 0.078224 0)
(0.705803 0.0848615 0)
(0.701169 0.0917695 0)
(0.696204 0.0989742 0)
(0.690908 0.106504 0)
(0.685284 0.114391 0)
(0.67933 0.122669 0)
(0.673044 0.131376 0)
(0.666424 0.140552 0)
(0.659464 0.150244 0)
(0.652161 0.160501 0)
(0.644508 0.171377 0)
(0.6365 0.182935 0)
(0.628127 0.195242 0)
(0.61938 0.208373 0)
(0.610245 0.222416 0)
(0.600708 0.237466 0)
(0.590749 0.253632 0)
(0.580342 0.271053 0)
(0.569434 0.289909 0)
(0.558046 0.310221 0)
(0.546012 0.332265 0)
(0.533225 0.35643 0)
(0.519863 0.382918 0)
(0.505644 0.412252 0)
(0.490274 0.444866 0)
(0.4735 0.48125 0)
(0.454827 0.522389 0)
(0.433614 0.569459 0)
(0.408687 0.624279 0)
(0.377657 0.689745 0)
(0.336614 0.770932 0)
(0.27095 0.87819 0)
(0.146444 1.04342 0)
(2.6112 7.88002e-05 0)
(1.67059 0.00260097 0)
(0.532404 0.0103732 0)
(0.557937 0.0128088 0)
(0.66214 0.0154257 0)
(0.733816 0.0191794 0)
(0.750742 0.0239773 0)
(0.746699 0.0290366 0)
(0.739982 0.0345539 0)
(0.734842 0.0402219 0)
(0.732519 0.0459509 0)
(0.731072 0.0517767 0)
(0.729237 0.0577497 0)
(0.726771 0.0638968 0)
(0.723828 0.0702327 0)
(0.720547 0.0767716 0)
(0.71698 0.0835345 0)
(0.713129 0.0905468 0)
(0.70899 0.0978371 0)
(0.704568 0.105435 0)
(0.699865 0.113373 0)
(0.694889 0.121684 0)
(0.689645 0.130406 0)
(0.684135 0.139577 0)
(0.678364 0.149242 0)
(0.672336 0.159447 0)
(0.666055 0.170243 0)
(0.659526 0.18169 0)
(0.652753 0.193851 0)
(0.645743 0.206797 0)
(0.638503 0.220611 0)
(0.631038 0.235382 0)
(0.623352 0.251238 0)
(0.615472 0.268262 0)
(0.607461 0.286548 0)
(0.59909 0.306344 0)
(0.59041 0.327879 0)
(0.581899 0.351334 0)
(0.573413 0.37714 0)
(0.564731 0.405658 0)
(0.555973 0.437237 0)
(0.547224 0.472585 0)
(0.538675 0.51254 0)
(0.530552 0.558388 0)
(0.523397 0.611913 0)
(0.518386 0.675878 0)
(0.51824 0.754746 0)
(0.531164 0.855947 0)
(0.587136 0.99066 0)
(0.657215 1.18534 0)
(2.61371 5.9216e-05 0)
(1.67674 0.00194058 0)
(0.536923 0.00775672 0)
(0.559574 0.00991728 0)
(0.664785 0.0124987 0)
(0.738206 0.0166734 0)
(0.75621 0.0222036 0)
(0.752768 0.0280432 0)
(0.746511 0.0343741 0)
(0.74144 0.0407624 0)
(0.739132 0.0471394 0)
(0.737787 0.0535812 0)
(0.736132 0.0601527 0)
(0.73389 0.0668803 0)
(0.731199 0.0737749 0)
(0.728208 0.0808514 0)
(0.724974 0.0881332 0)
(0.721509 0.0956487 0)
(0.71781 0.103428 0)
(0.713885 0.111504 0)
(0.709739 0.119909 0)
(0.705384 0.12868 0)
(0.700828 0.137855 0)
(0.696081 0.147476 0)
(0.691152 0.157589 0)
(0.686053 0.168244 0)
(0.680797 0.179495 0)
(0.675399 0.191403 0)
(0.669878 0.204034 0)
(0.664252 0.217466 0)
(0.658543 0.231804 0)
(0.652813 0.247065 0)
(0.647044 0.263367 0)
(0.641158 0.280925 0)
(0.635395 0.299872 0)
(0.629969 0.320341 0)
(0.62477 0.342677 0)
(0.619867 0.367079 0)
(0.615487 0.393736 0)
(0.611788 0.423102 0)
(0.609043 0.455698 0)
(0.607729 0.492178 0)
(0.608513 0.533457 0)
(0.612489 0.580685 0)
(0.621479 0.635527 0)
(0.638804 0.700139 0)
(0.670472 0.777439 0)
(0.725493 0.870862 0)
(0.836652 0.980433 0)
(0.984517 1.095 0)
(2.61516 7.00733e-05 0)
(1.68029 0.00130295 0)
(0.539778 0.00545229 0)
(0.561323 0.00790282 0)
(0.668137 0.0110946 0)
(0.743971 0.0164563 0)
(0.763421 0.0232535 0)
(0.76071 0.0301878 0)
(0.754923 0.0372487 0)
(0.749846 0.0440549 0)
(0.747548 0.0507296 0)
(0.746338 0.0574499 0)
(0.744888 0.0642961 0)
(0.74287 0.0712885 0)
(0.740416 0.0784336 0)
(0.737686 0.0857546 0)
(0.734753 0.0932848 0)
(0.731633 0.101059 0)
(0.728328 0.109111 0)
(0.724846 0.117473 0)
(0.721201 0.126179 0)
(0.717407 0.135266 0)
(0.71348 0.144771 0)
(0.709435 0.154733 0)
(0.705291 0.165196 0)
(0.701066 0.176209 0)
(0.696785 0.187821 0)
(0.692471 0.2001 0)
(0.68816 0.2131 0)
(0.683926 0.226849 0)
(0.679671 0.241461 0)
(0.675434 0.257082 0)
(0.671546 0.273771 0)
(0.668046 0.291693 0)
(0.664852 0.311044 0)
(0.66212 0.331906 0)
(0.660025 0.35445 0)
(0.658742 0.378942 0)
(0.658552 0.405672 0)
(0.659821 0.434984 0)
(0.663018 0.467335 0)
(0.668887 0.503243 0)
(0.678495 0.543368 0)
(0.69332 0.588475 0)
(0.715747 0.639421 0)
(0.749232 0.697048 0)
(0.799365 0.761628 0)
(0.871745 0.832207 0)
(0.984683 0.903829 0)
(1.12034 0.956662 0)
(2.61637 3.89727e-05 0)
(1.68335 -0.00153147 0)
(0.545138 -0.00485047 0)
(0.567294 -0.0030545 0)
(0.675907 0.000989285 0)
(0.754108 0.00904102 0)
(0.774436 0.0185739 0)
(0.771502 0.0278574 0)
(0.765119 0.0364438 0)
(0.75945 0.0442454 0)
(0.756973 0.0517375 0)
(0.755848 0.0592159 0)
(0.754565 0.0667582 0)
(0.752732 0.074384 0)
(0.750489 0.0820885 0)
(0.748028 0.0899078 0)
(0.745426 0.0978871 0)
(0.742695 0.106068 0)
(0.739832 0.114487 0)
(0.736845 0.123184 0)
(0.733747 0.132195 0)
(0.730555 0.14156 0)
(0.727287 0.151321 0)
(0.723964 0.161517 0)
(0.720611 0.172194 0)
(0.717252 0.183414 0)
(0.713936 0.195196 0)
(0.710682 0.207584 0)
(0.707451 0.22068 0)
(0.704367 0.234561 0)
(0.701644 0.24928 0)
(0.699248 0.265002 0)
(0.697192 0.281814 0)
(0.695645 0.299736 0)
(0.69471 0.318921 0)
(0.694549 0.339524 0)
(0.695383 0.361715 0)
(0.697467 0.385694 0)
(0.701157 0.411686 0)
(0.706885 0.439945 0)
(0.715256 0.470754 0)
(0.727083 0.504443 0)
(0.743499 0.541291 0)
(0.766001 0.581579 0)
(0.796644 0.625386 0)
(0.838118 0.672436 0)
(0.894059 0.72167 0)
(0.967163 0.7705 0)
(1.06836 0.814707 0)
(1.18139 0.840266 0)
(2.61204 0.002291 0)
(1.67332 -0.00676935 0)
(0.549695 -0.0137933 0)
(0.583088 -0.00802112 0)
(0.696148 -0.00039453 0)
(0.777917 0.00987899 0)
(0.798528 0.0200717 0)
(0.794109 0.0297177 0)
(0.785779 0.038231 0)
(0.778735 0.0460914 0)
(0.775619 0.0537719 0)
(0.774138 0.0614288 0)
(0.772553 0.0690968 0)
(0.770412 0.0768078 0)
(0.767877 0.0846145 0)
(0.765188 0.0925698 0)
(0.762427 0.100718 0)
(0.759599 0.109097 0)
(0.756704 0.117739 0)
(0.753753 0.126679 0)
(0.750764 0.135948 0)
(0.747758 0.145579 0)
(0.744753 0.155606 0)
(0.741779 0.16606 0)
(0.738887 0.176955 0)
(0.736059 0.188346 0)
(0.733292 0.200315 0)
(0.730748 0.21288 0)
(0.728522 0.226107 0)
(0.726597 0.240103 0)
(0.725035 0.254899 0)
(0.723943 0.270521 0)
(0.723407 0.287081 0)
(0.723574 0.304672 0)
(0.724606 0.323396 0)
(0.726685 0.343387 0)
(0.730061 0.364764 0)
(0.735012 0.387677 0)
(0.741915 0.412261 0)
(0.751236 0.438667 0)
(0.763572 0.467023 0)
(0.779697 0.497434 0)
(0.800584 0.52992 0)
(0.827484 0.564364 0)
(0.86192 0.600422 0)
(0.905725 0.637333 0)
(0.961184 0.673762 0)
(1.0299 0.707374 0)
(1.11627 0.735243 0)
(1.20911 0.748993 0)
(2.60376 0.00791319 0)
(1.64311 -0.073523 0)
(0.585002 -0.0725751 0)
(0.623968 -0.0457669 0)
(0.731405 -0.0057752 0)
(0.809033 0.0165123 0)
(0.827038 0.0266146 0)
(0.821082 0.0352754 0)
(0.811569 0.0426409 0)
(0.804209 0.0507563 0)
(0.800834 0.0592867 0)
(0.798975 0.067719 0)
(0.796993 0.0759297 0)
(0.794551 0.0839988 0)
(0.791826 0.0920632 0)
(0.788994 0.100202 0)
(0.786113 0.108462 0)
(0.783184 0.116887 0)
(0.780206 0.125517 0)
(0.777191 0.134401 0)
(0.774161 0.143585 0)
(0.771142 0.153097 0)
(0.768157 0.162951 0)
(0.765197 0.1732 0)
(0.76234 0.183912 0)
(0.759729 0.195094 0)
(0.757349 0.206803 0)
(0.755201 0.219097 0)
(0.753402 0.231997 0)
(0.752027 0.245558 0)
(0.751152 0.259851 0)
(0.750887 0.274941 0)
(0.751359 0.290889 0)
(0.752723 0.307774 0)
(0.755154 0.325657 0)
(0.75885 0.344626 0)
(0.764061 0.364747 0)
(0.77109 0.386102 0)
(0.780283 0.408762 0)