/*--------------------------------*- C++ -*----------------------------------*\
| =========                 |                                                 |
| \\      /  F ield         | OpenFOAM: The Open Source CFD Toolbox           |
|  \\    /   O peration     | Version:  2412                                  |
|   \\  /    A nd           | Website:  www.openfoam.com                      |
|    \\/     M anipulation  |                                                 |
\*---------------------------------------------------------------------------*/
FoamFile
{
    version     2.0;
    format      ascii;
    arch        "LSB;label=32;scalar=64";
    class       volScalarField;
    location    "10.5";
    object      Ma;
}
// * * * * * * * * * * * * * * * * * * * * * * * * * * * * * * * * * * * * * //

dimensions      [0 0 0 0 0 0 0];

internalField   nonuniform List<scalar> 
7000
(
2.25525
0.97562
0.288229
0.340231
0.404706
0.445643
0.453386
0.449113
0.443909
0.440616
0.438984
0.437887
0.437008
0.435879
0.434431
0.432793
0.430985
0.428971
0.426645
0.423839
0.420413
0.41608
0.410335
0.403415
0.395329
0.385386
0.373282
0.359542
0.34465
0.329477
0.314747
0.300968
0.288055
0.275981
0.264141
0.251937
0.238957
0.224771
0.209663
0.193763
0.177138
0.160123
0.142744
0.125011
0.106503
0.0874817
0.0685936
0.0504994
0.0305184
0.0138169
2.25527
0.975617
0.28805
0.34013
0.404613
0.445541
0.453282
0.449013
0.443814
0.440527
0.438899
0.437801
0.43692
0.435787
0.434337
0.432698
0.430891
0.428879
0.426559
0.423763
0.420351
0.416037
0.41032
0.403439
0.395402
0.385528
0.373505
0.35987
0.34511
0.330109
0.315586
0.302082
0.289491
0.277745
0.26629
0.254481
0.241868
0.22793
0.212873
0.196874
0.179982
0.162573
0.144761
0.12661
0.107787
0.0886587
0.0699787
0.0525576
0.0343063
0.0212454
2.25535
0.975733
0.288156
0.340226
0.404686
0.445594
0.453333
0.449075
0.443887
0.440616
0.438998
0.437903
0.43702
0.435886
0.434437
0.432799
0.430996
0.42899
0.426678
0.423895
0.420501
0.416208
0.41052
0.403677
0.395688
0.385878
0.373931
0.360381
0.345717
0.330822
0.316424
0.303059
0.290641
0.279067
0.267812
0.256231
0.243842
0.230091
0.21512
0.199146
0.182213
0.164711
0.146826
0.128684
0.110067
0.0914807
0.0737957
0.0579774
0.0426516
0.0332917
2.25544
0.975941
0.288433
0.340447
0.404846
0.445697
0.453433
0.449177
0.444006
0.440755
0.43915
0.438063
0.437183
0.436049
0.434612
0.432987
0.431197
0.429205
0.426912
0.424152
0.420786
0.41653
0.410889
0.404095
0.396168
0.386438
0.37458
0.361126
0.346555
0.331748
0.317432
0.304147
0.291815
0.280338
0.269191
0.257739
0.2455
0.231912
0.21712
0.201334
0.184592
0.167294
0.149662
0.131876
0.113819
0.0961379
0.0798011
0.0658368
0.0532249
0.0462168
2.25569
0.976332
0.288848
0.340715
0.405037
0.445848
0.453592
0.449348
0.444195
0.440968
0.439379
0.438302
0.437428
0.436298
0.434873
0.433262
0.431488
0.429517
0.427252
0.424529
0.421206
0.41701
0.411446
0.404726
0.396887
0.387275
0.37555
0.362231
0.347796
0.33312
0.31893
0.305768
0.293557
0.282206
0.271191
0.259886
0.247814
0.234419
0.219851
0.204335
0.187914
0.170996
0.153826
0.136622
0.119349
0.102758
0.0878689
0.0756709
0.0652461
0.059763
2.25607
0.976964
0.289352
0.340925
0.405161
0.445955
0.453729
0.449521
0.444416
0.441229
0.439667
0.438607
0.437742
0.436621
0.435215
0.433625
0.431873
0.429928
0.427698
0.425025
0.421759
0.417642
0.412183
0.405553
0.397824
0.388357
0.376794
0.363638
0.349364
0.334839
0.32079
0.307763
0.295694
0.284492
0.273657
0.262553
0.250722
0.237615
0.22337
0.208246
0.192298
0.175948
0.159439
0.143014
0.126703
0.111305
0.0978393
0.0872026
0.0784859
0.074068
2.2565
0.977797
0.290001
0.341104
0.405239
0.446043
0.453851
0.449685
0.444644
0.441506
0.439983
0.438951
0.438111
0.437006
0.435624
0.434066
0.432345
0.430433
0.42825
0.425642
0.422452
0.418444
0.413121
0.40661
0.39902
0.389737
0.378375
0.365421
0.351343
0.337003
0.323128
0.310259
0.298359
0.287337
0.276723
0.265874
0.254355
0.241625
0.227801
0.213179
0.197831
0.182194
0.16651
0.15103
0.135813
0.121653
0.109541
0.100247
0.0928711
0.0892237
2.25722
0.979022
0.290876
0.34125
0.40521
0.446092
0.453971
0.449869
0.444907
0.441818
0.440342
0.439349
0.438548
0.437468
0.436122
0.434604
0.432922
0.431049
0.428924
0.426396
0.423302
0.41943
0.414283
0.407917
0.400501
0.391444
0.380332
0.36763
0.353802
0.339696
0.326046
0.313382
0.301702
0.290905
0.280565
0.270037
0.258897
0.246615
0.233284
0.219254
0.204609
0.189799
0.175057
0.160639
0.146606
0.133672
0.122822
0.114701
0.108394
0.105349
2.25801
0.980404
0.291979
0.341538
0.405359
0.446335
0.454304
0.450262
0.445373
0.442323
0.440869
0.439899
0.43912
0.438056
0.436737
0.435256
0.43362
0.431796
0.429741
0.427308
0.42433
0.420623
0.415685
0.409493
0.402286
0.393502
0.38269
0.370294
0.356772
0.342958
0.329592
0.317189
0.305789
0.295277
0.285273
0.275134
0.264448
0.252704
0.239952
0.226592
0.212734
0.198834
0.185116
0.17183
0.159025
0.14734
0.13767
0.130563
0.125154
0.12258
2.259
0.982101
0.293264
0.341843
0.405516
0.446645
0.454745
0.450777
0.44597
0.442951
0.441508
0.440558
0.439801
0.43876
0.437472
0.436037
0.43445
0.432682
0.430705
0.428382
0.42554
0.422027
0.41734
0.411355
0.404391
0.395922
0.385462
0.37343
0.360276
0.346815
0.333796
0.321712
0.310653
0.300486
0.290882
0.281208
0.271053
0.259924
0.247825
0.235216
0.222234
0.209332
0.19673
0.184644
0.173121
0.162636
0.154092
0.147941
0.143292
0.141136
2.26014
0.984061
0.294661
0.342139
0.405691
0.446969
0.455265
0.451393
0.446685
0.443699
0.442271
0.441345
0.440615
0.439608
0.438359
0.436967
0.435426
0.433728
0.431836
0.429637
0.426956
0.423657
0.419253
0.413509
0.406824
0.398713
0.388658
0.377044
0.364317
0.351272
0.338662
0.326957
0.316311
0.30656
0.297433
0.2883
0.278759
0.268348
0.257001
0.245227
0.233201
0.221369
0.209939
0.199108
0.188877
0.179648
0.172254
0.167005
0.16309
0.16126
2.26148
0.986308
0.296122
0.342319
0.40585
0.447279
0.455778
0.45202
0.447438
0.444514
0.443125
0.442246
0.441564
0.440613
0.439417
0.438069
0.436576
0.434953
0.433151
0.431089
0.428591
0.425517
0.421428
0.415981
0.409595
0.401876
0.392274
0.381123
0.36888
0.356303
0.344151
0.332877
0.322698
0.313432
0.304853
0.296353
0.287516
0.277922
0.267448
0.256617
0.245659
0.234985
0.224858
0.215367
0.206552
0.198588
0.192271
0.187958
0.184731
0.18333
2.26307
0.988919
0.297711
0.342246
0.405767
0.447469
0.45615
0.452497
0.448053
0.445215
0.443914
0.443127
0.442546
0.441698
0.44058
0.439302
0.437883
0.436343
0.434657
0.432754
0.430465
0.427622
0.423869
0.418786
0.412722
0.405426
0.396317
0.38568
0.373977
0.361911
0.350255
0.339439
0.329763
0.321031
0.31307
0.305276
0.29725
0.288611
0.279159
0.269401
0.259642
0.250259
0.2415
0.233445
0.226087
0.219551
0.214552
0.211245
0.208853
0.207732
2.26497
0.991948
0.299839
0.342489
0.40605
0.448064
0.456906
0.453293
0.448932
0.446184
0.44495
0.444242
0.443745
0.442988
0.441941
0.440736
0.439384
0.43794
0.436393
0.434663
0.432606
0.43
0.426593
0.421939
0.416239
0.409392
0.400828
0.390751
0.379657
0.368168
0.357061
0.346748
0.33762
0.329462
0.322165
0.315145
0.308016
0.300446
0.292149
0.283589
0.275185
0.267218
0.260032
0.253625
0.247975
0.243017
0.239333
0.23727
0.235797
0.235353
2.26707
0.995206
0.302227
0.342669
0.406437
0.448917
0.45797
0.454429
0.450146
0.44745
0.446265
0.445622
0.445203
0.444527
0.443555
0.442423
0.441131
0.439793
0.43839
0.436839
0.435025
0.432677
0.429634
0.425453
0.420141
0.413773
0.405821
0.396358
0.385931
0.37507
0.364552
0.354799
0.346257
0.338735
0.332154
0.325975
0.319822
0.313399
0.306405
0.299212
0.292321
0.285951
0.280516
0.275956
0.272206
0.269141
0.267334
0.266918
0.266797
0.266906
2.26903
0.998733
0.304675
0.342774
0.406875
0.449869
0.459161
0.455724
0.451543
0.44892
0.447803
0.447241
0.446917
0.446318
0.445426
0.444363
0.443133
0.44191
0.44066
0.439295
0.437734
0.435676
0.43302
0.429334
0.424435
0.418579
0.411303
0.402533
0.392818
0.382635
0.372753
0.363614
0.355685
0.348842
0.343019
0.337769
0.332671
0.32749
0.321941
0.316293
0.311113
0.306562
0.303106
0.30081
0.299369
0.298615
0.299035
0.300884
0.302825
0.304507
2.27067
1.00184
0.306853
0.342781
0.407123
0.450666
0.46026
0.457006
0.452989
0.450454
0.449423
0.44896
0.448751
0.44827
0.447489
0.446527
0.445387
0.444281
0.4432
0.442034
0.440739
0.439017
0.436744
0.433551
0.429126
0.423818
0.417273
0.409257
0.400307
0.390862
0.381661
0.373213
0.365935
0.359837
0.354811
0.350546
0.346578
0.342739
0.338824
0.334906
0.331613
0.329147
0.32797
0.328197
0.329599
0.332043
0.335813
0.341153
0.346522
0.350553
2.27249
1.00527
0.309018
0.342854
0.407397
0.451377
0.461253
0.458195
0.454354
0.451937
0.451011
0.450675
0.450619
0.450285
0.449653
0.448832
0.447812
0.446857
0.445978
0.445037
0.444028
0.442688
0.440803
0.438108
0.434238
0.429512
0.423728
0.416525
0.408395
0.399744
0.391273
0.383556
0.376967
0.371655
0.367448
0.364264
0.361476
0.359039
0.35683
0.354882
0.353765
0.353705
0.355113
0.358554
0.363448
0.369923
0.378286
0.389224
0.401113
0.411764
2.2745
1.00898
0.311045
0.34256
0.407337
0.451852
0.461985
0.459119
0.455485
0.453225
0.45245
0.452301
0.452447
0.452299
0.451876
0.451217
0.450351
0.449624
0.448993
0.448316
0.447621
0.446696
0.44523
0.443061
0.439815
0.435679
0.430647
0.424313
0.417031
0.40925
0.401578
0.394657
0.388804
0.384279
0.380968
0.378863
0.377377
0.376473
0.376012
0.376148
0.377539
0.380279
0.384726
0.39171
0.401268
0.413391
0.428762
0.448686
0.47262
0.500169
2.27687
1.01316
0.313921
0.342882
0.407927
0.453036
0.463534
0.460883
0.457461
0.455286
0.45457
0.45451
0.454783
0.454785
0.454522
0.454032
0.453343
0.452809
0.452406
0.451984
0.451584
0.451063
0.450034
0.448423
0.445809
0.442244
0.437984
0.43263
0.42627
0.419447
0.412635
0.406499
0.401417
0.397675
0.395271
0.394238
0.394064
0.394548
0.395882
0.398555
0.402728
0.408424
0.416227
0.427361
0.442435
0.461457
0.486847
0.522332
0.57369
0.666376
2.27984
1.01843
0.31755
0.343258
0.408808
0.454835
0.465961
0.46367
0.460564
0.458509
0.457874
0.457925
0.458366
0.458603
0.458568
0.458355
0.457952
0.457665
0.457556
0.457471
0.45744
0.457419
0.457007
0.456114
0.454358
0.451562
0.448247
0.444141
0.439031
0.433489
0.427863
0.422842
0.418927
0.416333
0.415192
0.415572
0.417119
0.419513
0.423501
0.429528
0.437394
0.447329
0.460052
0.476904
0.5001
0.530796
0.571801
0.632656
0.731592
0.883307
2.28318
1.0244
0.321892
0.344128
0.410532
0.457884
0.469824
0.467919
0.465035
0.462959
0.462251
0.462248
0.462729
0.463121
0.463248
0.463275
0.463187
0.463123
0.463272
0.463507
0.46381
0.464202
0.464399
0.464179
0.463333
0.461493
0.459084
0.456231
0.452597
0.448329
0.444041
0.440187
0.437336
0.435816
0.43583
0.437316
0.440116
0.444369
0.450928
0.459988
0.471311
0.485101
0.502324
0.524347
0.553614
0.593555
0.647151
0.720293
0.831327
0.968683
2.2857
1.02895
0.325143
0.344905
0.41249
0.461575
0.47468
0.473269
0.470533
0.468472
0.467763
0.46772
0.468286
0.468822
0.469134
0.469363
0.469595
0.469772
0.470088
0.470575
0.471133
0.471821
0.472532
0.472902
0.472892
0.472029
0.470335
0.468405
0.466107
0.463247
0.460294
0.457691
0.455846
0.455363
0.45642
0.45886
0.462573
0.468508
0.477378
0.489215
0.503304
0.520524
0.54149
0.567531
0.600564
0.642818
0.69918
0.770094
0.866652
0.970275
2.28789
1.03302
0.329876
0.348601
0.417409
0.468179
0.481895
0.480319
0.477153
0.474618
0.473786
0.473741
0.474378
0.475044
0.475532
0.47602
0.476572
0.477183
0.477844
0.478615
0.479489
0.480455
0.481533
0.482486
0.483118
0.483267
0.482555
0.481312
0.479894
0.478309
0.476478
0.474994
0.474382
0.474797
0.476807
0.480056
0.484745
0.491974
0.502516
0.515925
0.531717
0.550674
0.573762
0.601641
0.636194
0.677849
0.729304
0.791836
0.870329
0.952198
2.28507
1.02831
0.33239
0.357706
0.429132
0.482126
0.495929
0.493348
0.488944
0.485407
0.484157
0.483892
0.484204
0.484624
0.484913
0.485284
0.48585
0.48655
0.487377
0.488335
0.489411
0.490602
0.491923
0.49318
0.494211
0.494916
0.495006
0.49467
0.494014
0.49318
0.492387
0.491873
0.492135
0.493289
0.495655
0.499337
0.5049
0.513388
0.524889
0.538927
0.555799
0.575374
0.598986
0.626896
0.659965
0.699653
0.745707
0.800153
0.863869
0.929094
2.28029
1.01903
0.3558
0.381838
0.448862
0.499362
0.511367
0.507796
0.502557
0.498855
0.497636
0.497376
0.497574
0.497842
0.498002
0.4983
0.498821
0.499562
0.500503
0.501617
0.502877
0.504252
0.505673
0.506967
0.508125
0.508864
0.508913
0.508797
0.508536
0.50812
0.507703
0.507791
0.508815
0.510603
0.513271
0.517473
0.523786
0.532638
0.544086
0.558169
0.575092
0.595134
0.618155
0.645452
0.676367
0.712537
0.753713
0.800589
0.854132
0.907264
1.87652
0.771631
0.272136
0.344137
0.41941
0.444325
0.445387
0.442509
0.440173
0.441368
0.444666
0.448691
0.453041
0.457499
0.462044
0.466759
0.471632
0.476641
0.481705
0.48674
0.49164
0.496378
0.500886
0.504954
0.508532
0.511454
0.513456
0.51507
0.516405
0.517414
0.518254
0.519591
0.521851
0.524567
0.52824
0.533302
0.540076
0.548933
0.560203
0.574083
0.59055
0.610113
0.63226
0.658128
0.687272
0.720023
0.757046
0.797522
0.842779
0.88759
1.86944
0.772179
0.283098
0.35595
0.429162
0.449098
0.444973
0.438074
0.433104
0.431944
0.43251
0.433713
0.435482
0.437756
0.440626
0.444304
0.448904
0.454076
0.459596
0.465463
0.471709
0.478119
0.484479
0.490619
0.496526
0.50187
0.506316
0.510473
0.51436
0.517801
0.520904
0.524508
0.52876
0.533199
0.538333
0.544335
0.551865
0.561165
0.57255
0.586195
0.602121
0.620797
0.641922
0.665811
0.692839
0.722782
0.755805
0.791746
0.830734
0.869089
1.86864
0.771354
0.28647
0.365816
0.443628
0.463853
0.45783
0.448673
0.441985
0.439527
0.438709
0.438199
0.438016
0.438157
0.438772
0.440083
0.442413
0.445475
0.449012
0.453049
0.457621
0.462957
0.469098
0.475609
0.482113
0.488688
0.494962
0.500715
0.506501
0.512202
0.517684
0.523495
0.52987
0.536407
0.543066
0.550588
0.558966
0.568911
0.580477
0.594176
0.609916
0.627814
0.647948
0.670482
0.695079
0.722183
0.751709
0.783518
0.817664
0.850852
1.86986
0.774911
0.293106
0.36831
0.443555
0.464408
0.459434
0.451099
0.444701
0.442475
0.441897
0.441538
0.441317
0.441271
0.441469
0.442072
0.443409
0.445257
0.447293
0.449633
0.452407
0.455829
0.460318
0.465967
0.472352
0.479064
0.485848
0.492841
0.499754
0.506609
0.513716
0.521002
0.52843
0.536423
0.544599
0.553376
0.562807
0.573402
0.585215
0.598919
0.614141
0.631563
0.650759
0.671975
0.695027
0.719933
0.746287
0.774631
0.804851
0.833858
1.87257
0.781517
0.301205
0.361953
0.427938
0.449448
0.447475
0.441398
0.43601
0.434271
0.434205
0.434516
0.435071
0.435858
0.436818
0.438094
0.440068
0.442374
0.444614
0.446918
0.449435
0.452396
0.456038
0.460918
0.466857
0.473277
0.48006
0.487247
0.494798
0.502481
0.510523
0.51892
0.527488
0.536227
0.545443
0.555248
0.565619
0.576757
0.588887
0.602257
0.617076
0.633491
0.651626
0.671421
0.692896
0.715893
0.740334
0.765802
0.792548
0.818294
1.88076
0.787978
0.303833
0.348943
0.409666
0.438814
0.441997
0.436994
0.431774
0.429348
0.428711
0.428747
0.429381
0.430326
0.431423
0.433185
0.435752
0.438349
0.440893
0.443516
0.446407
0.449669
0.453357
0.458161
0.46431
0.470873
0.477729
0.484927
0.492624
0.500564
0.508856
0.517817
0.527199
0.536832
0.546856
0.557445
0.568521
0.580197
0.592561
0.605779
0.620019
0.635553
0.652285
0.670522
0.690101
0.71109
0.733258
0.756595
0.780883
0.804083
2.26873
1.11622
0.415346
0.40114
0.459743
0.507532
0.51801
0.51175
0.503386
0.495988
0.490683
0.486265
0.482563
0.479121
0.475802
0.472957
0.471006
0.469784
0.468922
0.468484
0.468647
0.46951
0.471044
0.473623
0.477867
0.48315
0.488765
0.494738
0.501297
0.508469
0.515846
0.523641
0.532252
0.541596
0.551479
0.56183
0.572833
0.584531
0.596765
0.609613
0.623208
0.637709
0.653154
0.66972
0.687404
0.70621
0.726076
0.746921
0.768772
0.789603
2.28127
1.14398
0.402675
0.378904
0.45166
0.513411
0.532817
0.531961
0.527031
0.52229
0.519436
0.517377
0.515766
0.51404
0.511818
0.509411
0.50716
0.505314
0.503854
0.502713
0.501924
0.50158
0.50177
0.502767
0.504998
0.508291
0.51211
0.516368
0.521053
0.526327
0.532147
0.538416
0.545562
0.553321
0.561591
0.570599
0.580288
0.590677
0.602014
0.613992
0.626634
0.64001
0.654133
0.66916
0.685114
0.701999
0.719755
0.73834
0.757775
0.776336
2.30716
1.1979
0.447043
0.384897
0.44823
0.505863
0.525514
0.527326
0.525942
0.52491
0.525007
0.525756
0.526998
0.527937
0.528289
0.528315
0.528246
0.528223
0.528315
0.528568
0.529008
0.5296
0.530395
0.53161
0.533282
0.535408
0.537936
0.540841
0.544093
0.547713
0.551774
0.556523
0.561871
0.568084
0.575235
0.582992
0.591054
0.599663
0.609109
0.619497
0.63066
0.642613
0.655321
0.668855
0.68313
0.698231
0.714105
0.730761
0.748163
0.764848
1.91439
0.822724
0.328391
0.317637
0.374604
0.416124
0.429651
0.43364
0.437881
0.443875
0.451709
0.460312
0.468905
0.476773
0.483854
0.490536
0.496919
0.503013
0.508837
0.514427
0.519799
0.524875
0.529725
0.534385
0.538852
0.543062
0.547016
0.550728
0.554476
0.558414
0.56253
0.566947
0.572041
0.578133
0.584896
0.592096
0.599816
0.607985
0.616494
0.625644
0.63538
0.645921
0.657179
0.669288
0.682138
0.695804
0.710147
0.725058
0.740676
0.755589
2.3199
1.22265
0.469186
0.389658
0.440518
0.489932
0.50547
0.504441
0.500411
0.496811
0.494606
0.49385
0.493941
0.494049
0.494381
0.495629
0.497891
0.501047
0.504787
0.509012
0.513646
0.518612
0.523855
0.529229
0.534622
0.539986
0.545247
0.550277
0.555085
0.55994
0.564912
0.569995
0.575389
0.581478
0.588354
0.595599
0.603273
0.611347
0.619803
0.628744
0.638194
0.648209
0.658856
0.670069
0.682004
0.694482
0.707634
0.721319
0.735545
0.74917
2.32754
1.23797
0.454181
0.370546
0.438261
0.501602
0.523814
0.525553
0.522557
0.519552
0.518003
0.517272
0.517265
0.517274
0.516882
0.516652
0.516766
0.517279
0.518309
0.519852
0.521914
0.524565
0.527923
0.531964
0.536541
0.541459
0.546539
0.551606
0.556685
0.561812
0.566863
0.572049
0.577588
0.583435
0.589794
0.596847
0.604357
0.612293
0.620639
0.629452
0.638746
0.648539
0.65892
0.669811
0.681344
0.693318
0.705778
0.7186
0.731896
0.744588
2.33002
1.24408
0.456837
0.370247
0.440028
0.506664
0.531317
0.53482
0.532828
0.530523
0.529703
0.529641
0.530297
0.531102
0.53156
0.531818
0.532171
0.532532
0.533068
0.533853
0.534906
0.536319
0.538291
0.540975
0.544308
0.548131
0.552263
0.556619
0.561095
0.565687
0.570428
0.57535
0.580593
0.586131
0.591994
0.598368
0.605405
0.612932
0.620896
0.629374
0.638407
0.647998
0.658177
0.668823
0.679948
0.691478
0.703432
0.715782
0.728569
0.740778
2.33978
1.2674
0.494623
0.390058
0.448464
0.508601
0.53198
0.535403
0.534338
0.533425
0.533926
0.535186
0.536688
0.538316
0.539698
0.540767
0.541778
0.542682
0.543475
0.544227
0.545117
0.546282
0.547788
0.5498
0.552421
0.555601
0.559137
0.562872
0.566755
0.570766
0.574913
0.57926
0.583936
0.589097
0.594804
0.600909
0.60745
0.614492
0.622047
0.630102
0.638709
0.647828
0.657469
0.66763
0.678318
0.68951
0.701124
0.713139
0.725571
0.737409
1.84087
0.776478
0.32982
0.317739
0.373167
0.41659
0.430826
0.431573
0.431306
0.43342
0.439226
0.447394
0.456472
0.465416
0.473905
0.481887
0.489543
0.496877
0.503756
0.510002
0.515891
0.521456
0.526892
0.532326
0.537767
0.543347
0.54888
0.554311
0.559713
0.565101
0.570449
0.575833
0.581465
0.587486
0.593812
0.600459
0.607447
0.61474
0.622411
0.630462
0.638907
0.647802
0.65713
0.666959
0.677282
0.688084
0.699319
0.710957
0.722995
0.734474
2.33649
1.26103
0.501797
0.413761
0.47324
0.532538
0.551065
0.545722
0.536007
0.526093
0.518214
0.512329
0.507739
0.50394
0.50026
0.497258
0.495504
0.495142
0.496456
0.498999
0.502289
0.506415
0.5113
0.516762
0.522645
0.528833
0.535256
0.541825
0.548388
0.554877
0.561437
0.568153
0.574893
0.581827
0.58911
0.596583
0.604238
0.612099
0.620186
0.628548
0.637213
0.646228
0.655622
0.665398
0.675572
0.686152
0.697106
0.708434
0.720115
0.731266
2.31611
1.2165
0.493561
0.440967
0.500544
0.559984
0.578661
0.577644
0.571835
0.563957
0.556968
0.551002
0.545155
0.539049
0.532962
0.527091
0.52204
0.517948
0.515247
0.513853
0.513375
0.514084
0.515962
0.518745
0.522497
0.527114
0.532313
0.537968
0.544063
0.550419
0.557021
0.563839
0.570795
0.577924
0.585203
0.592782
0.600601
0.608534
0.616712
0.625103
0.633818
0.642831
0.652186
0.661893
0.67192
0.68229
0.692984
0.703975
0.71531
0.726107
1.99133
0.870127
0.390521
0.371677
0.412964
0.444169
0.449876
0.449255
0.449679
0.451391
0.455306
0.460011
0.464409
0.468558
0.472555
0.476714
0.480932
0.48517
0.489571
0.494199
0.499195
0.504436
0.509657
0.514956
0.520462
0.526169
0.532073
0.538213
0.544513
0.550975
0.557703
0.564579
0.571544
0.578688
0.585916
0.593283
0.600872
0.608603
0.616561
0.62471
0.633134
0.641817
0.650786
0.660083
0.669658
0.67956
0.689749
0.700189
0.710963
0.721198
1.92063
0.833377
0.359672
0.358031
0.384978
0.396055
0.392164
0.386684
0.383464
0.382947
0.38587
0.391368
0.398939
0.407608
0.417398
0.428321
0.439688
0.451175
0.462437
0.47328
0.483872
0.493979
0.503334
0.512102
0.520456
0.528404
0.536004
0.543351
0.550383
0.557178
0.563982
0.570848
0.577715
0.584628
0.591666
0.598827
0.606138
0.613522
0.621141
0.628865
0.636834
0.645019
0.653396
0.662082
0.670986
0.680151
0.689601
0.699241
0.70919
0.718637
1.84205
0.776624
0.338985
0.367752
0.415664
0.436857
0.431826
0.418543
0.405379
0.394701
0.389453
0.389659
0.393776
0.400787
0.410902
0.423063
0.436332
0.450051
0.463656
0.476712
0.489125
0.50093
0.511845
0.521718
0.530738
0.539059
0.546763
0.553937
0.560728
0.567266
0.573715
0.580193
0.58669
0.593182
0.59975
0.606447
0.613361
0.620333
0.627523
0.634865
0.64233
0.650049
0.657891
0.665976
0.674294
0.682754
0.691487
0.700374
0.709459
0.718135
2.3691
1.1727
0.528274
0.49428
0.548576
0.592296
0.588341
0.562874
0.537375
0.515018
0.498674
0.487756
0.481152
0.477783
0.477565
0.479981
0.484265
0.48998
0.496586
0.503668
0.511051
0.518721
0.526346
0.533608
0.5405
0.547151
0.553562
0.559733
0.565752
0.571719
0.577719
0.583796
0.589916
0.596079
0.602389
0.608813
0.615476
0.622253
0.629114
0.636242
0.643375
0.65073
0.658244
0.665854
0.673739
0.681711
0.689915
0.698253
0.706762
0.714889
2.00686
0.891558
0.419118
0.379091
0.417332
0.449365
0.458441
0.462066
0.465858
0.471322
0.47872
0.486171
0.492554
0.498162
0.503218
0.507925
0.512447
0.516813
0.521133
0.525692
0.530388
0.535268
0.540233
0.545052
0.54974
0.554458
0.559251
0.564142
0.569168
0.574363
0.579739
0.585329
0.591109
0.596981
0.60308
0.609293
0.615666
0.62223
0.628805
0.63563
0.642521
0.649531
0.65676
0.664058
0.671603
0.679288
0.68712
0.695134
0.703266
0.711057
1.94024
0.842814
0.384153
0.359642
0.380119
0.398874
0.412112
0.426511
0.441303
0.456695
0.472122
0.486185
0.498186
0.507965
0.515792
0.522003
0.527039
0.531507
0.535524
0.53915
0.542671
0.546321
0.549996
0.553588
0.557171
0.560942
0.56488
0.569086
0.573494
0.57818
0.583142
0.588336
0.593801
0.599422
0.605238
0.611257
0.617359
0.623718
0.630128
0.636716
0.643448
0.650258
0.657267
0.664379
0.67164
0.679078
0.686621
0.694337
0.702182
0.709662
2.41007
1.25303
0.561333
0.465818
0.489143
0.523338
0.5343
0.530022
0.52334
0.517268
0.513669
0.513271
0.514581
0.51631
0.518184
0.520211
0.522452
0.525024
0.527869
0.530932
0.534355
0.538101
0.541978
0.545883
0.549912
0.554149
0.558555
0.563196
0.56802
0.573065
0.57834
0.58378
0.589447
0.595256
0.601203
0.607357
0.613544
0.619969
0.626441
0.633049
0.639825
0.64663
0.653621
0.660693
0.667875
0.675227
0.682656
0.690242
0.69797
0.705314
1.91236
0.817931
0.445719
0.359293
0.425522
0.489558
0.523573
0.534586
0.53531
0.532041
0.529994
0.530053
0.531285
0.532586
0.533637
0.534664
0.53587
0.537339
0.539071
0.541134
0.543596
0.546307
0.549137
0.552129
0.555343
0.558835
0.562568
0.566627
0.570938
0.575575
0.580443
0.585584
0.590907
0.59646
0.60214
0.608044
0.614044
0.620243
0.626577
0.633037
0.639669
0.646376
0.653212
0.660147
0.667173
0.674313
0.681566
0.688924
0.696451
0.703583
2.07347
1.0941
0.605615
0.376691
0.426304
0.493958
0.5327
0.544003
0.543885
0.540498
0.537867
0.537543
0.538412
0.539527
0.540708
0.541979
0.543395
0.544972
0.546774
0.548895
0.55127
0.553766
0.556382
0.559201
0.562226
0.565526
0.569051
0.572914
0.577007
0.581438
0.586097
0.591024
0.596163
0.601515
0.607031
0.612763
0.618615
0.624664
0.630851
0.637148
0.643615
0.650156
0.656823
0.663585
0.670424
0.677382
0.684415
0.691567
0.698855
0.705764
2.20997
1.3078
0.689829
0.349551
0.417527
0.499832
0.541718
0.551024
0.548171
0.543934
0.540503
0.539569
0.5402
0.541342
0.542736
0.544306
0.546014
0.547863
0.549935
0.552258
0.554737
0.557337
0.560101
0.563076
0.566256
0.569705
0.57338
0.577351
0.581554
0.586014
0.590706
0.5956
0.600701
0.606015
0.611462
0.617169
0.622938
0.628931
0.635006
0.641203
0.647551
0.653959
0.660498
0.667118
0.673825
0.680628
0.687529
0.694511
0.701624
0.70838
2.29235
1.43527
0.747628
0.359963
0.424936
0.503855
0.545874
0.555009
0.552116
0.548478
0.545744
0.545144
0.545831
0.546987
0.548427
0.550056
0.551801
0.553665
0.55568
0.557863
0.560206
0.562733
0.565446
0.568384
0.571544
0.57496
0.578624
0.582547
0.586732
0.59113
0.59578
0.600612
0.605647
0.610902
0.616277
0.62194
0.627645
0.633617
0.639652
0.645829
0.652129
0.658471
0.664942
0.67148
0.678103
0.684828
0.691643
0.698526
0.705517
0.712135
2.51405
1.56487
0.622947
0.319835
0.388617
0.465041
0.497675
0.50298
0.50122
0.499609
0.49949
0.50104
0.503286
0.505958
0.508963
0.512048
0.515119
0.518266
0.521537
0.52495
0.528507
0.532219
0.536087
0.540123
0.544314
0.548666
0.553175
0.557842
0.562688
0.567698
0.572895
0.578263
0.583801
0.58953
0.59539
0.60148
0.607624
0.614031
0.620435
0.627065
0.633722
0.640474
0.647326
0.65422
0.661211
0.668269
0.67541
0.682607
0.689932
0.696881
2.54462
1.62818
0.641032
0.315868
0.37908
0.447399
0.476806
0.484578
0.487284
0.489747
0.493061
0.496885
0.500773
0.50471
0.508541
0.512038
0.515263
0.518368
0.52144
0.524517
0.527625
0.530772
0.533961
0.537202
0.540499
0.543874
0.547325
0.550874
0.554509
0.558277
0.562145
0.566221
0.570412
0.574901
0.579484
0.584423
0.589452
0.594827
0.600327
0.606107
0.612103
0.618291
0.624729
0.631316
0.638118
0.645058
0.652174
0.659433
0.66683
0.673912
2.53953
1.62299
0.643363
0.310895
0.376441
0.446605
0.476869
0.483918
0.485364
0.486664
0.488694
0.491615
0.495028
0.49889
0.502758
0.506347
0.509729
0.512983
0.516181
0.519351
0.522508
0.525682
0.528898
0.532168
0.535496
0.538886
0.542324
0.545847
0.549424
0.553158
0.556973
0.561049
0.565206
0.569699
0.57428
0.579207
0.584253
0.5896
0.595144
0.600904
0.606892
0.613042
0.61938
0.625852
0.632499
0.639234
0.646137
0.653168
0.660352
0.667242
2.39291
1.60631
0.837498
0.368501
0.418849
0.482739
0.529922
0.543415
0.543288
0.541211
0.539741
0.539979
0.541199
0.543013
0.545086
0.547004
0.548837
0.550707
0.552682
0.554787
0.557028
0.559411
0.561944
0.564642
0.567521
0.570599
0.573874
0.577349
0.580994
0.584819
0.588787
0.592961
0.59731
0.601935
0.606779
0.611922
0.617281
0.622906
0.628711
0.634711
0.64085
0.647105
0.653465
0.659966
0.666509
0.673248
0.679994
0.686887
0.693887
0.700472
2.42371
1.66674
0.867036
0.350535
0.403793
0.468895
0.522276
0.540735
0.542579
0.540805
0.539338
0.539648
0.541007
0.543031
0.545372
0.547552
0.549656
0.551839
0.554191
0.556742
0.559498
0.562452
0.565599
0.568932
0.572455
0.576174
0.580101
0.584232
0.588553
0.593043
0.597675
0.602446
0.607334
0.612369
0.617531
0.622856
0.628315
0.633901
0.639625
0.645421
0.651347
0.657392
0.663496
0.669809
0.676112
0.682591
0.689093
0.695672
0.702302
0.708571
2.4403
1.6721
0.881228
0.353671
0.401147
0.465142
0.520555
0.541283
0.544297
0.542965
0.541741
0.541974
0.543175
0.545084
0.547356
0.549469
0.551499
0.553605
0.55588
0.558366
0.561077
0.564014
0.56717
0.570534
0.574105
0.577871
0.581856
0.586033
0.590434
0.595015
0.59978
0.604715
0.609761
0.614975
0.620244
0.625648
0.631126
0.63666
0.642334
0.648036
0.653888
0.659847
0.66587
0.672068
0.678281
0.684592
0.690948
0.697317
0.703743
0.709776
1.19504
1.05977
0.510573
0.188765
0.0137363
0.0999769
0.152585
0.201046
0.220745
0.22063
0.206976
0.19503
0.184625
0.175622
0.165631
0.153511
0.138826
0.121826
0.102809
0.0822761
0.0607274
0.0387701
0.0198253
0.0185418
0.0392648
0.0623182
0.0856862
0.108931
0.132077
0.155135
0.178105
0.200989
0.22378
0.246473
0.268982
0.291042
0.312178
0.332665
0.353471
0.374915
0.39606
0.416444
0.436072
0.455032
0.47335
0.491006
0.507986
0.524282
0.539903
0.55485
0.569129
0.582734
0.595712
0.607988
0.619667
0.630639
0.641009
0.650687
0.659701
0.668077
0.675706
0.682723
0.688961
0.69454
0.699344
0.703446
0.706818
0.709452
0.711403
0.712681
0.713353
0.713621
0.713683
0.713476
0.71271
0.71133
0.709633
0.707928
0.706315
0.704812
0.703411
0.702238
0.701361
0.700755
0.700488
0.700513
0.700967
0.701589
0.702598
0.703957
0.70587
0.708309
0.710803
0.713641
0.716322
0.719296
0.722001
0.724844
0.727125
0.732706
1.1245
1.04146
0.81415
0.563154
0.507128
0.438928
0.38972
0.350646
0.32514
0.303284
0.267147
0.235619
0.217826
0.215486
0.219933
0.228128
0.238126
0.24912
0.261451
0.274866
0.288489
0.302239
0.315914
0.329549
0.343686
0.358402
0.373624
0.389308
0.405324
0.421654
0.438272
0.45514
0.472275
0.489561
0.506998
0.524361
0.541456
0.558282
0.575333
0.59296
0.610646
0.6278
0.644404
0.660578
0.676354
0.691717
0.70664
0.721127
0.735143
0.748725
0.761814
0.774442
0.786532
0.79809
0.809078
0.819451
0.829207
0.838345
0.846782
0.854555
0.861675
0.868011
0.873688
0.878686
0.882923
0.886456
0.889302
0.891496
0.893068
0.894118
0.894554
0.894811
0.894805
0.894748
0.894178
0.893108
0.891784
0.890561
0.889417
0.888377
0.887539
0.886798
0.88635
0.886107
0.886164
0.886537
0.88714
0.887865
0.888713
0.88981
0.891322
0.893203
0.895237
0.897332
0.899436
0.901484
0.903554
0.905332
0.906737
0.910387
1.07652
1.07876
1.01249
0.907849
0.836204
0.786846
0.752946
0.725349
0.703605
0.687828
0.671623
0.657714
0.648789
0.643647
0.641115
0.640426
0.640856
0.641668
0.642679
0.643849
0.645212
0.646738
0.648764
0.651259
0.654437
0.658367
0.663063
0.668517
0.674717
0.681602
0.689187
0.697242
0.70591
0.714926
0.724575
0.734658
0.745041
0.755707
0.766985
0.779212
0.791929
0.804466
0.816667
0.828599
0.840338
0.851907
0.863264
0.874475
0.885446
0.896301
0.906895
0.917367
0.927565
0.93759
0.947309
0.956737
0.965816
0.974463
0.982716
0.99041
0.997607
1.00424
1.01018
1.01557
1.02021
1.02421
1.02753
1.03016
1.03227
1.03374
1.03481
1.03538
1.03592
1.03588
1.03555
1.03459
1.03332
1.03197
1.03068
1.02952