/*--------------------------------*- C++ -*----------------------------------*\
| =========                 |                                                 |
| \\      /  F ield         | OpenFOAM: The Open Source CFD Toolbox           |
|  \\    /   O peration     | Version:  2412                                  |
|   \\  /    A nd           | Website:  www.openfoam.com                      |
|    \\/     M anipulation  |                                                 |
\*---------------------------------------------------------------------------*/
FoamFile
{
    version     2.0;
    format      ascii;
    arch        "LSB;label=32;scalar=64";
    class       volScalarField;
    location    "10.5";
    object      p;
}
// * * * * * * * * * * * * * * * * * * * * * * * * * * * * * * * * * * * * * //

dimensions      [1 -1 -2 0 0 0 0];

internalField   nonuniform List<scalar> 
7000
(
1.61491
3.87928
11.6964
11.5647
11.1128
10.7029
10.5811
10.5908
10.6191
10.6373
10.6368
10.6321
10.6218
10.6101
10.5986
10.5863
10.5726
10.558
10.5438
10.5309
10.5218
10.5216
10.524
10.5344
10.5595
10.611
10.6935
10.8007
10.9232
11.046
11.1548
11.2406
11.3021
11.3443
11.375
11.4023
11.4329
11.4704
11.5189
11.5773
11.6433
11.7155
11.7867
11.854
11.9128
11.9633
12.0046
12.0361
12.0565
12.0709
1.61519
3.87828
11.6962
11.5637
11.1119
10.7023
10.5806
10.5904
10.6186
10.6368
10.6363
10.6316
10.6213
10.6097
10.5981
10.5858
10.5722
10.5576
10.5433
10.5304
10.5213
10.5211
10.5235
10.5339
10.5589
10.6101
10.6925
10.7996
10.9219
11.0447
11.1535
11.2395
11.301
11.3433
11.3741
11.4015
11.4322
11.4697
11.5182
11.5766
11.6427
11.7147
11.7858
11.8531
11.9118
11.9622
12.0034
12.0349
12.0553
12.0697
1.61511
3.87759
11.6944
11.5621
11.1106
10.7012
10.5797
10.5894
10.6177
10.6358
10.6353
10.6306
10.6203
10.6086
10.5971
10.5848
10.5711
10.5566
10.5423
10.5293
10.5202
10.5198
10.5222
10.5325
10.5572
10.6081
10.69
10.7968
10.9188
11.0415
11.1503
11.2364
11.2981
11.3405
11.3713
11.3988
11.4294
11.4668
11.5152
11.5735
11.6395
11.7111
11.7818
11.8487
11.907
11.957
11.9978
12.0289
12.0491
12.0635
1.61506
3.87631
11.69
11.5602
11.109
10.6997
10.5783
10.5881
10.6162
10.6342
10.6337
10.629
10.6187
10.607
10.5955
10.5832
10.5695
10.5549
10.5406
10.5276
10.5183
10.5178
10.5201
10.5302
10.5546
10.6049
10.6862
10.7923
10.9139
11.0363
11.1452
11.2314
11.2934
11.336
11.3669
11.3944
11.4249
11.4622
11.5104
11.5683
11.6339
11.705
11.7751
11.8413
11.8988
11.9482
11.9883
12.019
12.0389
12.0531
1.61479
3.87465
11.6842
11.5571
11.1068
10.6979
10.5765
10.5862
10.6142
10.6321
10.6315
10.6267
10.6165
10.6047
10.5932
10.5809
10.5672
10.5525
10.5382
10.5251
10.5157
10.515
10.5172
10.5271
10.5509
10.6003
10.6808
10.786
10.9069
11.029
11.1378
11.2243
11.2866
11.3295
11.3605
11.388
11.4185
11.4555
11.5033
11.5608
11.6257
11.6959
11.765
11.8302
11.8869
11.9354
11.9746
12.0048
12.0243
12.0384
1.61441
3.87201
11.6757
11.5534
11.1046
10.6959
10.5744
10.5839
10.6116
10.6292
10.6286
10.6238
10.6134
10.6017
10.5902
10.5778
10.5641
10.5494
10.535
10.5217
10.5122
10.5112
10.5133
10.5228
10.546
10.5943
10.6736
10.7777
10.8977
11.0192
11.1281
11.2149
11.2776
11.3207
11.352
11.3794
11.4097
11.4464
11.4937
11.5504
11.6144
11.6833
11.7511
11.8151
11.8705
11.9179
11.9563
11.9858
12.0049
12.0189
1.61411
3.86787
11.6638
11.5493
11.1025
10.6938
10.5718
10.5811
10.6083
10.6257
10.625
10.6201
10.6096
10.5979
10.5864
10.5739
10.5601
10.5454
10.5309
10.5175
10.5078
10.5063
10.5084
10.5175
10.5397
10.5867
10.6645
10.7671
10.886
11.0069
11.1157
11.2028
11.266
11.3095
11.3409
11.3683
11.3983
11.4346
11.4811
11.5368
11.5996
11.6669
11.733
11.7953
11.8493
11.8954
11.9326
11.9613
11.9799
11.9938
1.61346
3.86292
11.6494
11.5452
11.1005
10.6913
10.5685
10.5775
10.6042
10.6213
10.6206
10.6155
10.6049
10.5931
10.5817
10.5691
10.5553
10.5405
10.5259
10.5123
10.5024
10.5003
10.5023
10.5108
10.5321
10.5774
10.6534
10.7542
10.8716
10.9916
11.1002
11.1877
11.2515
11.2954
11.3271
11.3544
11.384
11.4198
11.4653
11.5197
11.5809
11.646
11.71
11.7703
11.8225
11.8669
11.9029
11.9307
11.9487
11.9624
1.6129
3.85669
11.6332
11.5409
11.0978
10.6879
10.5643
10.573
10.5991
10.6159
10.6152
10.61
10.5992
10.5874
10.576
10.5634
10.5494
10.5346
10.5198
10.506
10.496
10.4931
10.4949
10.5028
10.5229
10.5663
10.64
10.7386
10.8542
10.9731
11.0814
11.1693
11.2337
11.2782
11.3101
11.3372
11.3663
11.4014
11.4456
11.4984
11.5576
11.6201
11.6815
11.7393
11.7893
11.8319
11.8663
11.8931
11.9104
11.9241
1.61221
3.8493
11.6144
11.5367
11.0951
10.684
10.559
10.5674
10.5928
10.6094
10.6087
10.6034
10.5925
10.5807
10.5692
10.5565
10.5425
10.5276
10.5126
10.4987
10.4883
10.4844
10.486
10.4933
10.5122
10.5531
10.6242
10.7201
10.8336
10.9511
11.059
11.1472
11.2122
11.2573
11.2894
11.3164
11.3447
11.3789
11.4216
11.4723
11.5291
11.5885
11.6468
11.7016
11.7489
11.7892
11.8218
11.8474
11.8639
11.8775
1.61138
3.84086
11.5928
11.5322
11.0922
10.6792
10.5526
10.5606
10.5854
10.6018
10.601
10.5958
10.5848
10.5728
10.5612
10.5484
10.5344
10.5194
10.5041
10.4901
10.4792
10.4742
10.4757
10.4823
10.4997
10.538
10.6058
10.6986
10.8094
10.9252
11.0325
11.1209
11.1866
11.2323
11.2646
11.2912
11.3188
11.3518
11.3926
11.4408
11.4946
11.5504
11.6049
11.656
11.7003
11.7377
11.7681
11.7922
11.8078
11.8214
1.61032
3.83161
11.5685
11.5273
11.0888
10.6734
10.545
10.5527
10.5768
10.593
10.5922
10.5869
10.5758
10.5638
10.5519
10.5391
10.525
10.5099
10.4944
10.4801
10.4687
10.4624
10.464
10.4693
10.4852
10.5205
10.5845
10.6738
10.7814
10.8951
11.0014
11.09
11.1563
11.2026
11.2351
11.2613
11.2878
11.3193
11.3577
11.403
11.453
11.5046
11.5548
11.6013
11.6419
11.6758
11.7035
11.7258
11.7403
11.7538
1.60884
3.82178
11.541
11.5219
11.0849
10.6664
10.536
10.5433
10.5668
10.5828
10.582
10.5767
10.5655
10.5533
10.5413
10.5284
10.5142
10.499
10.4833
10.4688
10.4565
10.4491
10.4504
10.4545
10.4686
10.5005
10.5603
10.6454
10.7494
10.8604
10.9655
11.054
11.1209
11.1676
11.2003
11.2259
11.2511
11.2809
11.3159
11.3577
11.4034
11.4498
11.495
11.5362
11.5722
11.6015
11.6257
11.6456
11.6587
11.6723
1.60696
3.81083
11.51
11.5166
11.0803
10.6582
10.5254
10.5324
10.5553
10.5712
10.5704
10.5651
10.5537
10.5414
10.5292
10.5166
10.5019
10.4865
10.4707
10.4557
10.4426
10.4341
10.4345
10.4378
10.4498
10.4778
10.5328
10.6133
10.7129
10.8207
10.9242
11.0123
11.0796
11.1268
11.1594
11.1843
11.208
11.2352
11.2667
11.3041
11.3444
11.3847
11.424
11.4586
11.4886
11.5121
11.5319
11.5485
11.5594
11.5728
1.60516
3.79751
11.4766
11.5107
11.0747
10.6483
10.5132
10.5198
10.5423
10.5581
10.5573
10.5519
10.5404
10.5279
10.5156
10.5029
10.4879
10.4725
10.4563
10.4407
10.4268
10.4173
10.416
10.4186
10.4288
10.4528
10.5019
10.5773
10.6717
10.7758
10.8771
10.9644
11.0319
11.0795
11.1119
11.1358
11.1574
11.1814
11.2089
11.241
11.2749
11.3079
11.3396
11.3662
11.3885
11.4045
11.4177
11.4292
11.4368
11.4498
1.60423
3.78033
11.4394
11.5057
11.068
10.6369
10.4994
10.5056
10.5276
10.5432
10.5424
10.537
10.5253
10.5126
10.5002
10.4873
10.4722
10.4566
10.4401
10.4238
10.4091
10.3984
10.3946
10.3967
10.405
10.4252
10.4678
10.5372
10.6257
10.7252
10.8236
10.9097
10.9771
11.0249
11.057
11.0795
11.0987
11.1189
11.1416
11.1671
11.1933
11.2175
11.2395
11.2559
11.268
11.2742
11.2777
11.2808
11.2824
11.2932
1.60411
3.76334
11.4043
11.495
11.0578
10.624
10.4841
10.49
10.5114
10.5266
10.5257
10.5202
10.5083
10.4954
10.4828
10.4698
10.4545
10.4386
10.4217
10.4046
10.3893
10.3769
10.3706
10.3722
10.378
10.3946
10.4306
10.4928
10.5746
10.6687
10.7634
10.8477
10.9146
10.9622
10.9937
11.0147
11.0309
11.0466
11.0636
11.0811
11.098
11.1114
11.1214
11.1249
11.1228
11.1151
11.1027
11.0911
11.0807
11.0873
1.60376
3.74548
11.3661
11.4833
11.0468
10.6098
10.4677
10.473
10.4933
10.5081
10.5071
10.5013
10.4891
10.4759
10.4632
10.45
10.4345
10.4184
10.401
10.3831
10.3669
10.3529
10.344
10.3444
10.3479
10.3607
10.39
10.444
10.5183
10.606
10.6961
10.7779
10.8437
10.8909
10.9215
10.9406
10.9534
10.9639
10.9739
10.982
10.9876
10.9873
10.9826
10.9709
10.9487
10.9186
10.8816
10.8432
10.8066
10.798
1.60302
3.72758
11.3257
11.4709
11.0348
10.5949
10.45
10.4544
10.4733
10.4874
10.4863
10.4803
10.4678
10.4543
10.4417
10.4276
10.4124
10.3959
10.3779
10.3594
10.342
10.3263
10.3151
10.3126
10.3147
10.3239
10.3461
10.3909
10.457
10.5371
10.6216
10.7001
10.764
10.8104
10.8398
10.8565
10.8653
10.8701
10.8716
10.8693
10.8618
10.8457
10.8216
10.788
10.7394
10.6762
10.5978
10.5085
10.4123
10.3523
1.60174
3.70902
11.282
11.4588
11.023
10.579
10.4303
10.4337
10.4508
10.4643
10.4631
10.4569
10.444
10.4301
10.4173
10.4031
10.3876
10.3707
10.3522
10.3329
10.3143
10.2969
10.2833
10.277
10.2774
10.2831
10.2992
10.3341
10.3909
10.4616
10.5395
10.6136
10.675
10.7198
10.7476
10.7614
10.7657
10.7645
10.7583
10.7428
10.7175
10.6833
10.6372
10.5755
10.4911
10.3795
10.2335
10.0462
9.80929
9.55357
1.60008
3.68589
11.2273
11.4451
11.0096
10.5592
10.4046
10.4066
10.4214
10.4342
10.433
10.4266
10.4135
10.3992
10.3857
10.3716
10.3553
10.338
10.3188
10.2987
10.2784
10.259
10.2424
10.231
10.228
10.2305
10.2406
10.2636
10.3067
10.3656
10.4336
10.5008
10.5587
10.6004
10.6259
10.6357
10.6346
10.628
10.6103
10.5753
10.529
10.4706
10.3945
10.2923
10.156
9.96617
9.69696
9.28896
8.59646
7.09242
1.59833
3.65968
11.1657
11.4279
10.9915
10.531
10.3679
10.368
10.3801
10.3933
10.3924
10.3867
10.374
10.3594
10.3453
10.3313
10.3146
10.2967
10.277
10.2559
10.2337
10.2124
10.1923
10.176
10.1668
10.1644
10.1685
10.1807
10.2071
10.2508
10.3053
10.3621
10.4128
10.4501
10.4714
10.4764
10.4723
10.4579
10.4251
10.3692
10.2996
10.2135
10.1032
9.95704
9.76013
9.48781
9.10111
8.53236
7.69757
6.33088
1.59712
3.63963
11.1196
11.4159
10.9769
10.5031
10.3294
10.3253
10.3366
10.3503
10.3497
10.3444
10.3321
10.317
10.3026
10.2876
10.2715
10.2525
10.2322
10.2099
10.1865
10.1629
10.1396
10.1188
10.1028
10.0924
10.092
10.0961
10.1085
10.1345
10.1729
10.217
10.2582
10.2895
10.305
10.3053
10.2982
10.2759
10.228
10.1544
10.0637
9.95348
9.81456
9.63453
9.39755
9.08253
8.66176
8.0965
7.3706
6.40781
1.59621
3.62187
11.0782
11.3916
10.9477
10.4556
10.2725
10.2696
10.2832
10.3022
10.3037
10.2992
10.288
10.273
10.2587
10.2439
10.227
10.2085
10.1871
10.1641
10.1394
10.1135
10.0878
10.0628
10.0408
10.0237
10.0122
10.0109
10.0142
10.0242
10.0439
10.0744
10.1037
10.126
10.1353
10.1329
10.1208
10.0906
10.0301
9.94533
9.8413
9.71526
9.55914
9.36286
9.11458
8.80052
8.4066
7.9182
7.3427
6.61891
1.59804
3.64409
11.125
11.387
10.9147
10.3869
10.1939
10.196
10.2169
10.2444
10.2497
10.2459
10.236
10.222
10.2085
10.1943
10.178
10.1593
10.1383
10.1149
10.0896
10.0624
10.0346
10.0066
9.97992
9.9563
9.93657
9.9242
9.91875
9.92039
9.92541
9.93695
9.95348
9.96544
9.96764
9.96266
9.94559
9.90689
9.83885
9.74992
9.64093
9.50842
9.34674
9.14937
8.90878
8.61711
8.26716
7.85176
7.37247
6.82659
1.59012
3.72364
11.104
11.2831
10.8267
10.3
10.123
10.1309
10.1617
10.1924
10.1984
10.1953
10.1868
10.1743
10.1613
10.1474
10.1311
10.1123
10.0909
10.0671
10.0411
10.0131
9.98333
9.95257
9.92256
9.89276
9.86634
9.84487
9.82834
9.81836
9.81174
9.8127
9.81412
9.81361
9.80981
9.79841
9.77319
9.72757
9.66077
9.57314
9.46417
9.33195
9.17324
8.98396
8.75967
8.49585
8.1891
7.83712
7.44088
6.99811
1.55608
4.81806
11.231
10.954
10.3059
10.0439
10.0348
10.0593
10.1018
10.122
10.124
10.1217
10.1162
10.1076
10.0974
10.085
10.0701
10.0525
10.0324
10.0096
9.98423
9.95644
9.92626
9.89462
9.86241
9.82997
9.79823
9.77018
9.74508
9.72453
9.70649
9.69645
9.68592
9.6754
9.66192
9.6413
9.60957
9.5627
9.49791
9.41338
9.30819
9.18145
9.03083
8.85406
8.64902
8.41296
8.14423
7.84289
7.5125
7.14415
1.55425
4.81881
11.1595
10.8751
10.231
9.98723
9.99561
10.0343
10.0775
10.0925
10.0915
10.0877
10.0801
10.0706
10.0591
10.0448
10.0282
10.0091
9.98771
9.96391
9.9377
9.90908
9.87792
9.84461
9.81011
9.77412
9.7377
9.70334
9.67103
9.64114
9.61372
9.59346
9.57155
9.55022
9.52718
9.49895
9.46226
9.41377
9.35047
9.27
9.17097
9.05204
8.91223
8.75016
8.56471
8.35459
8.11946
7.85891
7.57882
7.26936
1.56249
4.83433
11.2085
10.8853
10.174
9.91108
9.92383
9.97353
10.0252
10.0434
10.043
10.04
10.0339
10.0256
10.0148
10.0003
9.9847
9.96542
9.94405
9.92049
9.89413
9.86505
9.83374
9.80002
9.76414
9.72627
9.68702
9.64834
9.60989
9.57313
9.53703
9.50563
9.47386
9.44262
9.41028
9.37467
9.33289
9.28211
9.21968
9.14318
9.05081
8.94114
8.8133
8.66643
8.49974
8.31338
8.10707
7.88178
7.64036
7.37664
1.55094
4.80962
11.119
10.8253
10.1474
9.88344
9.89275
9.93665
9.98759
10.0062
10.0056
10.0021
9.99489
9.98576
9.97431
9.95928
9.94359
9.92415
9.90293
9.87951
9.85332
9.82499
9.79371
9.76004
9.72372
9.68514
9.64494
9.60429
9.56152
9.51953
9.47751
9.43574
9.39488
9.3555
9.31388
9.27054
9.22313
9.16926
9.10656
9.03282
8.94628
8.84542
8.72917
8.59676
8.44823
8.28292
8.10155
7.90365
7.69361
7.46669
1.51978
4.75016
10.8983
10.6912
10.136
9.88717
9.88331
9.90972
9.9534
9.97112
9.97075
9.96711
9.959
9.94838
9.93583
9.92006
9.90413
9.88443
9.86308
9.83995
9.81468
9.78719
9.7555
9.72391
9.68789
9.64932
9.60881
9.56554
9.52144
9.47445
9.42778
9.38036
9.3322
9.28434
9.23647
9.18566
9.13228
9.07449
9.01042
8.93798
8.85593
8.76237
8.6563
8.53696
8.40383
8.25701
8.09685
7.92451
7.74079
7.54216
1.50308
4.70335
10.8059
10.6921
10.2198
9.92717
9.87033
9.88666
9.92178
9.93998
9.94003
9.93609
9.92628
9.91261
9.89806
9.88214
9.86415
9.84399
9.82223
9.79925
9.7745
9.74717
9.71734
9.68647
9.65153
9.61363
9.57326
9.52965
9.48505
9.4354
9.38568
9.33464
9.28182
9.22815
9.17341
9.1173
9.0585
8.99671
8.93046
8.85845
8.77881
8.69058
8.59262
8.48404
8.36441
8.23363
8.09193
7.93988
7.77881
7.60633
1.66232
3.2613
10.4066
10.9807
10.5771
10.0602
9.87172
9.87518
9.89862
9.92593
9.92992
9.92558
9.91375
9.89616
9.87818
9.85917
9.83929
9.81704
9.79363
9.76904
9.74324
9.71553
9.68614
9.65316
9.62109
9.58264
9.54206
9.4987
9.45255
9.40392
9.35045
9.29673
9.24035
9.18247
9.12274
9.06165
8.99896
8.93329
8.86453
8.79168
8.71354
8.62906
8.53728
8.43745
8.32897
8.2116
8.08545
7.95087
7.80893
7.65719
1.66684
3.1214
10.2855
11.1327
10.7001
10.097
9.85043
9.83644
9.85354
9.88278
9.88835
9.88416
9.87144
9.85205
9.83344
9.81494
9.79512
9.77366
9.7506
9.7265
9.70122
9.6741
9.64564
9.61333
9.58102
9.54445
9.50483
9.46213
9.41597
9.36784
9.31463
9.25999
9.20265
9.14273
9.08048
9.01653
8.95003
8.88188
8.81162
8.73751
8.66005
8.5781
8.49082
8.39751
8.29771
8.19106
8.07755
7.9573
7.8311
7.69692
1.63399
2.98449
9.71731
10.9681
10.6219
10.0806
9.85719
9.8397
9.85232
9.87248
9.87242
9.86638
9.85052
9.8286
9.80736
9.78614
9.76381
9.74014
9.71534
9.68973
9.66304
9.63513
9.60607
9.57492
9.54158
9.50547
9.46662
9.42474
9.37975
9.33182
9.28044
9.22615
9.16926
9.10921
9.04612
8.98018
8.91188
8.84206
8.76993
8.69526
8.61762
8.53724
8.45333
8.36523
8.27233
8.17423
8.07083
7.96217
7.84888
7.72922
1.37902
4.48649
10.0712
10.4787
10.2065
9.90081
9.79065
9.79048
9.80184
9.8153
9.81809
9.81339
9.80078
9.78168
9.76203
9.74171
9.71969
9.69593
9.67081
9.64472
9.61783
9.59015
9.56147
9.53138
9.49979
9.46535
9.42965
9.38915
9.3465
9.30011
9.25009
9.19653
9.13993
9.07992
9.01661
8.95097
8.88257
8.81201
8.73977
8.66549
8.58881
8.50967
8.4278
8.34283
8.25441
8.16254
8.06675
7.96703
7.86382
7.75547
1.6216
2.91544
9.45676
10.8239
10.5371
10.0516
9.84398
9.81903
9.82708
9.83816
9.83682
9.82809
9.80906
9.78576
9.76236
9.73781
9.71152
9.68338
9.6539
9.62384
9.59348
9.563
9.53224
9.50065
9.46783
9.43372
9.39709
9.35746
9.31507
9.26924
9.22055
9.16854
9.11274
9.05495
8.99293
8.9282
8.86063
8.79057
8.71837
8.6442
8.56817
8.49034
8.41055
8.32861
8.24432
8.15741
8.06753
7.97436
7.87858
7.77863
1.63046
2.83
9.41042
10.9464
10.5955
10.014
9.76362
9.73767
9.75132
9.77627
9.7817
9.77814
9.76706
9.74805
9.72929
9.70853
9.6846
9.65781
9.62923
9.59905
9.56787
9.5362
9.5042
9.47163
9.4382
9.4036
9.36733
9.32904
9.28858
9.24537
9.19819
9.14793
9.09392
9.03674
8.9762
8.91252
8.84572
8.77676
8.70573
8.63287
8.55845
8.48242
8.40473
8.32517
8.24361
8.15946
8.07321
7.98543
7.89538
7.8016
1.63068
2.80555
9.36196
10.9337
10.5732
9.96716
9.7004
9.6672
9.6811
9.70918
9.71863
9.71679
9.70993
9.69627
9.68249
9.66745
9.64912
9.62672
9.60068
9.57213
9.54186
9.51028
9.47799
9.44512
9.41177
9.37755
9.3419
9.30426
9.26433
9.22199
9.1763
9.12755
9.07546
9.02003
8.9613
8.90003
8.83565
8.76857
8.69955
8.62869
8.55597
8.48147
8.40518
8.32725
8.24779
8.16703
8.08501
8.0011
7.91535
7.82631
1.61011
2.76922
9.04878
10.7778
10.4881
9.92783
9.65943
9.60977
9.61804
9.63745
9.649
9.65016
9.64852
9.64388
9.63494
9.62544
9.61206
9.59406
9.57176
9.54625
9.51821
9.48819
9.45685
9.42418
9.39061
9.35588
9.32002
9.28279
9.24365
9.20227
9.15807
9.11112
9.06079
9.00772
8.95133
8.89182
8.82992
8.76528
8.69847
8.62937
8.55818
8.48527
8.41101
8.33571
8.25934
8.18179
8.10255
8.02162
7.93912
7.85373
1.25522
4.52893
9.6324
10.0725
9.8394
9.57665
9.46582
9.4661
9.4779
9.50369
9.52163
9.53463
9.54214
9.54729
9.54869
9.54841
9.54599
9.53886
9.5242
9.50468
9.48162
9.45542
9.42703
9.39686
9.36563
9.33304
9.29884
9.26313
9.22542
9.18552
9.14297
9.09761
9.04926
8.99803
8.94368
8.88679
8.82709
8.76498
8.70025
8.63342
8.56505
8.49531
8.42429
8.3518
8.27781
8.20232
8.12535
8.04691
7.96704
7.8845
1.6127
2.78786
9.10786
10.7113
10.4055
9.80335
9.50376
9.45383
9.46298
9.48551
9.5043
9.51202
9.51583
9.51891
9.52007
9.51975
9.51773
9.5119
9.49909
9.48199
9.46205
9.43887
9.41257
9.3839
9.35311
9.32034
9.286
9.25032
9.21297
9.17364
9.13195
9.08778
9.04098
8.99167
8.93952
8.88456
8.82714
8.76713
8.70518
8.64145
8.5759
8.50872
8.44005
8.36992
8.29833
8.22528
8.15079
8.07486
7.99755
7.91774
1.62947
2.91304
9.43507
10.5495
10.2092
9.60231
9.34007
9.32171
9.34064
9.38185
9.41196
9.42526
9.43323
9.44147
9.4494
9.45585
9.45893
9.4584
9.45498
9.44642
9.43262
9.41489
9.39254
9.36635
9.33714
9.3059
9.27207
9.23737
9.20092
9.16263
9.12225
9.07956
9.03451
8.98678
8.9364
8.88399
8.8286
8.77127
8.71192
8.6507
8.58772
8.5231
8.45693
8.38926
8.32014
8.2496
8.17765
8.10426
8.02951
7.95233
1.39396
4.3261
9.76292
10.0191
9.71243
9.38139
9.26673
9.26326
9.2724
9.29053
9.30636
9.31872
9.3335
9.35131
9.36986
9.38655
9.39943
9.40754
9.40966
9.40789
9.4016
9.38764
9.36883
9.34666
9.32069
9.29185
9.26029
9.22723
9.19144
9.15435
9.11513
9.07344
9.02954
8.98378
8.93512
8.8844
8.83122
8.77604
8.71892
8.66
8.59938
8.5372
8.47353
8.40842
8.34187
8.27389
8.20446
8.13359
8.06137
7.98682
1.44881
4.37687
9.81456
9.86138
9.60401
9.37184
9.28972
9.27309
9.27164
9.26999
9.27509
9.28637
9.30486
9.32341
9.34496
9.36309
9.37661
9.38546
9.38811
9.38689
9.38198
9.3709
9.35422
9.33393
9.30961
9.28187
9.25117
9.21901
9.18344
9.14685
9.10818
9.06762
9.02489
8.98019
8.93336
8.88423
8.83313
8.7801
8.72521
8.66859
8.61038
8.55067
8.48951
8.42692
8.36287
8.29738
8.23041
8.16196
8.09218
8.02023
1.51938
4.70311
10.1105
10.0014
9.58805
9.28623
9.1875
9.19274
9.20839
9.22335
9.23232
9.24575
9.25839
9.27891
9.30044
9.3195
9.33544
9.34745
9.35466
9.3555
9.35374
9.34762
9.33408
9.31565
9.2932
9.26737
9.23817
9.20676
9.1732
9.13767
9.10023
9.06094
9.01958
8.97627
8.93115
8.88377
8.83454
8.78354
8.73075
8.6763
8.62026
8.56273
8.50378
8.4434
8.38162
8.31842
8.25383
8.18789
8.12065
8.05147
1.50921
3.19676
9.37181
10.4267
10.0906
9.47358
9.21776
9.2162
9.23367
9.25435
9.25803
9.25731
9.26154
9.26933
9.2848
9.29858
9.31205
9.3225
9.32946
9.3307
9.32939
9.32462
9.31358
9.29679
9.27608
9.25186
9.22438
9.19418
9.16209
9.12788
9.09174
9.05383
9.01391
8.97209
8.92868
8.88299
8.83551
8.78631
8.73544
8.68295
8.62896
8.57351
8.51662
8.45836
8.39874
8.33775
8.27544
8.2118
8.14691
8.08019
1.3148
4.25044
9.36876
9.82868
9.56206
9.2397
9.1339
9.14301
9.17319
9.20679
9.22315
9.22852
9.23604
9.24563
9.25806
9.27114
9.28372
9.29353
9.30029
9.30335
9.30248
9.29895
9.29021
9.27455
9.25546
9.23287
9.20713
9.17885
9.14845
9.11586
9.08139
9.0451
9.00688
8.96678
8.92485
8.88102
8.83527
8.78784
8.73889
8.68836
8.63631
8.58281
8.52795
8.47171
8.41411
8.35517
8.2949
8.23335
8.17059
8.10606
1.36548
4.26655
9.31534
9.61343
9.39588
9.18706
9.1266
9.13239
9.1547
9.1846
9.20488
9.21772
9.22778
9.23807
9.24957
9.26084
9.27109
9.28021
9.28511
9.28604
9.28511
9.28127
9.27181
9.25628
9.23765
9.21576
9.19104
9.16392
9.13462
9.10339
9.07028
9.03529
8.99845
8.95975
8.91924
8.87693
8.83294
8.78722
8.73983
8.69098
8.64072
8.58907
8.53606
8.48171
8.42605
8.36909
8.31083
8.25132
8.1906
8.12814
1.46925
2.96084
8.66065
10.1406
9.91034
9.44844
9.21161
9.16538
9.17477
9.19768
9.22148
9.23346
9.23798
9.24268
9.24926
9.25658
9.26315
9.26866
9.27069
9.27052
9.26882
9.26365
9.25215
9.2369
9.21869
9.19759
9.17396
9.14808
9.12013
9.09026
9.05849
9.02485
8.98936
8.95206
8.91296
8.87211
8.82962
8.78554
8.73988
8.69273
8.64418
8.59425
8.54297
8.49039
8.43651
8.38138
8.32496
8.26725
8.20832
8.14767
0.986758
4.31239
8.39229
9.85747
9.68788
9.30611
9.08596
9.04537
9.06688
9.11984
9.17299
9.20383
9.22085
9.23206
9.24207
9.25093
9.25804
9.2625
9.2635
9.2628
9.25968
9.25169
9.23862
9.22292
9.20447
9.1835
9.16032
9.13513
9.10803
9.07906
9.04825
9.01562
8.98119
8.945
8.9071
8.86753
8.82639
8.78368
8.73956
8.69394
8.64693
8.5986
8.54894
8.498
8.44579
8.39228
8.33749
8.28142
8.22411
8.16511
0.942473
3.70859
7.40004
10.1451
9.96677
9.48809
9.16644
9.0854
9.10129
9.14493
9.19434
9.22197
9.23487
9.24261
9.24894
9.2543
9.25791
9.25895
9.25845
9.25602
9.24964
9.23857
9.22505
9.209
9.19058
9.17
9.14743
9.12294
9.09662
9.0685
9.03861
9.00696
8.97359
8.93855
8.9019
8.86366
8.82391
8.78271
8.73998
8.69585
8.65036
8.60354
8.55542
8.50599
8.45527
8.40326
8.34993
8.2953
8.23941
8.18181
0.934475
3.24236
6.37034
10.6902
10.4005
9.68802
9.25015
9.12292
9.13227
9.16329
9.20422
9.22841
9.23913
9.24515
9.24962
9.25275
9.25399
9.25376
9.25219
9.2477
9.23856
9.22705
9.2132
9.19709
9.17889
9.15874
9.13673
9.11292
9.08735
9.06006
9.03107
9.00041
8.96813
8.93427
8.89888
8.86197
8.82356
8.78359
8.74222
8.69955
8.65551
8.61014
8.56346
8.51546
8.46613
8.41547
8.36347
8.3101
8.2554
8.19891
0.939822
2.96884
5.69699
10.7675
10.5052
9.78043
9.30993
9.16862
9.17499
9.19911
9.23054
9.24734
9.25332
9.25572
9.25663
9.25673
9.25622
9.2542
9.24956
9.24236
9.23264
9.22063
9.20649
9.19034
9.17232
9.1525
9.13095
9.10771
9.08282
9.05628
9.02812
8.99837
8.96704
8.93413
8.89968
8.86375
8.82642
8.78774
8.74773
8.70631
8.66351
8.61934
8.57381
8.52693
8.47868
8.42906
8.37803
8.32557
8.27173
8.21606
1.47784
2.09981
6.62053
10.5897
10.284
9.63973
9.30159
9.21954
9.22578
9.24297
9.25797
9.26307
9.26328
9.26256
9.26062
9.25762
9.25447
9.25016
9.24399
9.23582
9.2256
9.21343
9.19939
9.18355
9.16599
9.14675
9.12588
9.10341
9.07937
9.05377
9.02661
8.99789
8.96764
8.93591
8.90277
8.8682
8.83224
8.79485
8.75607
8.71588
8.67427
8.63124
8.58679
8.5409
8.49355
8.44473
8.39441
8.34256
8.28919
8.23382
1.49527
1.87801
6.15806
10.3415
10.0956
9.56211
9.30236
9.25041
9.256
9.26911
9.27709
9.27835
9.27742
9.27471
9.26985
9.26474
9.25967
9.25378
9.24639
9.23727
9.22639
9.2138
9.19954
9.18366
9.16619
9.14717
9.12663
9.10458
9.08103
9.05601
9.02953
9.00162
8.97232
8.94159
8.90944
8.87584
8.84083
8.80438
8.7665
8.72716
8.68636
8.64408
8.6003
8.55501
8.50818
8.4598
8.40983
8.35825
8.30507
8.24987
1.47656
1.93635
6.17632
10.4924
10.2111
9.63356
9.34693
9.27633
9.27869
9.28735
9.29453
9.29402
9.29112
9.28471
9.27587
9.26792
9.26067
9.25308
9.24449
9.23457
9.22321
9.21044
9.19626
9.18069
9.16373
9.14539
9.12565
9.1045
9.08196
9.05801
9.03268
9.00596
8.97784
8.94829
8.91732
8.8849
8.85101
8.81562
8.77872
8.7403
8.7003
8.65872
8.61551
8.57066
8.52415
8.47595
8.42606
8.37444
8.3211
8.26566
0.940637
2.74679
4.76891
10.5451
10.3737
9.93291
9.45963
9.28017
9.26937
9.28035
9.30001
9.30475
9.3024
9.29562
9.28455
9.27459
9.26579
9.25702
9.24748
9.23681
9.22495
9.21187
9.1976
9.18214
9.16545
9.14753
9.12835
9.10788
9.08609
9.06294
9.0384
9.01247
8.98513
8.95636
8.92612
8.89439
8.86115
8.82635
8.78997
8.75197
8.71231
8.67096
8.6279
8.58312
8.53661
8.48834
8.4383
8.38648
8.3329
8.27713
0.936974
2.68262
4.41912
10.5831
10.4183
10.0083
9.50992
9.29671
9.27219
9.28325
9.30557
9.31122
9.30846
9.30046
9.28731
9.27552
9.26534
9.25552
9.24517
9.23393
9.22172
9.20854
9.19438
9.17922
9.163
9.14569
9.12721
9.10753
9.08658
9.06433
9.04074
9.01575
8.98933
8.96144
8.93205
8.90111
8.86859
8.83444
8.79862
8.76109
8.72182
8.68078
8.63796
8.59331
8.54685
8.49853
8.44838
8.39636
8.3425
8.2864
0.900317
2.73869
4.33766
10.5569
10.4337
10.0389
9.53929
9.31606
9.28172
9.29083
9.31003
9.31536
9.31254
9.30442
9.29059
9.27799
9.26711
9.25673
9.24594
9.23435
9.2219
9.20859
9.19442
9.17935
9.16332
9.14626
9.12809
9.10875
9.08818
9.06631
9.0431
9.01848
8.99242
8.96486
8.93577
8.9051
8.87281
8.83884
8.80317
8.76576
8.72656
8.68555
8.6427
8.598
8.55144
8.50301
8.4527
8.40052
8.34648
8.29023
2.96046
2.37023
2.87743
4.05099
4.01287
4.01403
3.96574
3.94143
3.93651
3.95686
3.99915
4.05386
4.0961
4.12706
4.15698
4.19076
4.22949
4.27286
4.31915
4.36686
4.41475
4.46178
4.50616
4.55138
4.5903
4.62463
4.65424
4.67958
4.701
4.71885
4.73342
4.74492
4.75351
4.75918
4.76205
4.76172
4.76064
4.75756
4.7507
4.73887
4.72451
4.70812
4.68985
4.6695
4.64711
4.6229
4.59714
4.5701
4.54206
4.51329
4.48407
4.45465
4.42525
4.39613
4.36747
4.33949
4.31235
4.28626
4.26136
4.23781
4.21577
4.19539
4.17677
4.16004
4.14536
4.13282
4.12246
4.11429
4.1083
4.10428
4.1023
4.10216
4.10242
4.10333
4.10555
4.11013
4.11648
4.12296
4.12904
4.13469
4.13985
4.14439
4.14812
4.15106
4.15326
4.15456
4.15499
4.15491
4.15459
4.15374
4.15185
4.14834
4.14436
4.1402
4.1359
4.1315
4.12715
4.12308
4.11946
4.11817
3.98745
3.43983
3.63321
4.11078
4.05509
4.00214
3.94979
3.91641
3.91731
3.94094
4.00122
4.062
4.09721
4.12098
4.14857
4.18214
4.22126
4.26506
4.312
4.36012
4.40841
4.45561
4.50093
4.54466
4.58398
4.61844
4.64827
4.67392
4.69577
4.71408
4.72906
4.74091
4.74971
4.75559
4.75835
4.75794
4.75687
4.75424
4.74833
4.73654
4.72102
4.70395
4.68565
4.66552
4.64335
4.61931
4.59371
4.56684
4.53898
4.51039
4.48133
4.45205
4.42277
4.39374
4.36516
4.33723
4.31015
4.28409
4.25922
4.2357
4.21369
4.19335
4.17474
4.15802
4.14337
4.13091
4.12059
4.11251
4.10663
4.10282
4.10124
4.10131
4.10167
4.10269
4.105
4.1097
4.11618
4.1229
4.1293
4.13522
4.14061
4.14524
4.1491
4.15214
4.15425
4.1555
4.15612
4.15606
4.15579
4.15502
4.15328
4.14974
4.1454
4.14094
4.13645
4.1319
4.12741
4.1233
4.11987
4.11953
5.0942
4.33753
4.10825
4.1448
4.13429
4.0974
4.02667
3.98273
3.97549
3.98253
4.00554
4.05169
4.09058
4.12335
4.15553
4.19083
4.23032
4.27351
4.31947
4.36651
4.41341
4.45904
4.50286
4.5444
4.58259
4.61632
4.64579
4.67122
4.69287
4.711
4.72579
4.73743
4.74596
4.75152
4.75364
4.75312
4.75169
4.7489
4.74338
4.73234
4.71633
4.69843
4.67954
4.65925
4.63718
4.61333
4.58792
4.56126
4.53362
4.50526
4.47641
4.44733
4.41827
4.38943
4.36102
4.33325
4.30631
4.28038
4.25563
4.23223
4.21032
4.19007
4.17158
4.15499
4.14045
4.12806
4.11784
4.10997
4.10425
4.10054
4.09957
4.09972
4.10032
4.10173
4.10466
4.10973
4.11618
4.12304
4.12982
4.13615
4.14186
4.14686
4.15094
4.15408
4.15648
4.15798
4.15854
4.15848
4.15821
4.15745
4.15574
4.15226
4.14763
4.14281
4.13799
4.13315
4.12839
4.12413
4.12101
4.12145
5.69219
4.96429
4.53198
4.33996
4.30576
4.25923
4.18067
4.10885
4.06528
4.05692
4.06258
4.08134
4.12036
4.15695
4.18819
4.21903
4.25234
4.28956
4.3303
4.37347
4.41738
4.46083
4.50282
4.54268
4.57959
4.61262
4.64171
4.66678
4.68822
4.7061
4.72066
4.73199
4.74027
4.74559
4.74685
4.74633
4.74477
4.74141
4.73558
4.7249
4.70929
4.69089
4.67118
4.65039
4.62825
4.6046
4.57952
4.55321
4.52593
4.49791
4.4694
4.44065
4.41188
4.38331
4.35516
4.32763
4.3009
4.27518
4.25063
4.22742
4.20571
4.18564
4.16735
4.15096
4.1366
4.12439
4.11437
4.10664
4.10123
4.09805
4.09763
4.09787
4.09863
4.10037
4.10392
4.10928
4.11603
4.12323
4.13052
4.13732
4.14346
4.14885
4.15344
4.15707
4.15971
4.16132
4.16187
4.1618
4.16149
4.16071
4.15899
4.1555
4.15073
4.14558
4.14026
4.13499
4.12987
4.12533
4.1226
4.123
6.09834
5.46686
4.99497
4.70857
4.56411
4.46451
4.36574
4.27301
4.20312
4.16436
4.15336
4.15639
4.16759
4.19258
4.22368
4.25328
4.2827
4.31442
4.34941
4.38718
4.42652
4.4662
4.5051
4.54232
4.57717
4.60882
4.63697
4.66141
4.68234
4.69963
4.71386
4.7245
4.73233
4.73718
4.73746
4.73684
4.73509
4.73143
4.72516
4.7147
4.69984
4.68157
4.66135
4.63997
4.61755
4.59396
4.56915
4.54321
4.51632
4.48871
4.46062
4.43225
4.40386
4.37566
4.34787
4.32069
4.29432
4.26894
4.24474
4.22187
4.2005
4.18076
4.1628
4.14674
4.1327
4.12077
4.11107
4.10363
4.09861
4.09601
4.09606
4.09644
4.09746
4.09965
4.10405
4.10992
4.11658
4.12401
4.13168
4.13912
4.1457
4.15164
4.15664
4.16065
4.16351
4.16527
4.16582
4.16574
4.16541
4.16459
4.16283
4.15927
4.1544
4.14903
4.14322
4.13755
4.132
4.12711
4.12458
4.12536
6.4125
5.8797
5.42635
5.08401
4.85427
4.69539
4.56799
4.45749
4.36686
4.30194
4.26368
4.24783
4.24919
4.25564
4.27092
4.296
4.32063
4.34669
4.37475
4.40541
4.43834
4.47254
4.50692
4.54065
4.57293
4.60287
4.62991
4.65365
4.67405
4.691
4.70472
4.71515
4.72259
4.72661
4.72639
4.72547
4.72358
4.7196
4.7126
4.70245
4.68815
4.67019
4.64977
4.62793
4.60517
4.58154
4.55698
4.53146
4.50507
4.47797
4.45038
4.42253
4.39463
4.36693
4.33962
4.31292
4.28702
4.26212
4.23837
4.21596
4.19504
4.17575
4.15823
4.14261
4.12899
4.11745
4.10818
4.10109
4.09664
4.09474
4.09488
4.09545
4.09683
4.09972
4.10467
4.1108
4.11778
4.12542
4.13319
4.14114
4.14831
4.15459
4.15991
4.16438
4.16757
4.16937
4.16993
4.16984
4.16948
4.16859
4.1667
4.16297
4.15809
4.15249
4.14638
4.14018
4.13424
4.12904
4.12682
4.12765
6.66364
6.21526
5.79826
5.43977
5.16062
4.9521
4.7905
4.65758
4.54713
4.45972
4.39681
4.35754
4.33797
4.33562
4.338
4.34566
4.36142
4.38081
4.40165
4.42543
4.45174
4.47997
4.50938
4.53903
4.56796
4.59552
4.62103
4.64387
4.66369
4.68025
4.6935
4.70391
4.71061
4.71399
4.71354
4.71226
4.70998
4.70566
4.6985
4.68827
4.67436
4.65686
4.63658
4.61462
4.59168
4.56804
4.54369
4.51858
4.49272
4.4662
4.43921
4.41194
4.38463
4.3575
4.33077
4.30465
4.27934
4.25502
4.23185
4.21003
4.18969
4.171
4.15407
4.13905
4.12598
4.11495
4.10622
4.09996
4.09574
4.09456
4.09478
4.09555
4.09735
4.10103
4.10635
4.11272
4.11992
4.12767
4.13568
4.14371
4.15117
4.1578
4.16371
4.16806
4.17183
4.17377
4.174
4.17393
4.17357