/*--------------------------------*- C++ -*----------------------------------*\
| =========                 |                                                 |
| \\      /  F ield         | OpenFOAM: The Open Source CFD Toolbox           |
|  \\    /   O peration     | Version:  2412                                  |
|   \\  /    A nd           | Website:  www.openfoam.com                      |
|    \\/     M anipulation  |                                                 |
\*---------------------------------------------------------------------------*/
FoamFile
{
    version     2.0;
    format      ascii;
    arch        "LSB;label=32;scalar=64";
    class       surfaceScalarField;
    location    "10.5";
    object      phi;
}
// * * * * * * * * * * * * * * * * * * * * * * * * * * * * * * * * * * * * * //

dimensions      [1 0 -1 0 0 0 0];

oriented        oriented;

internalField   nonuniform List<scalar> 
13790
(
0.00294606
-2.00937e-07
0.00273908
6.90957e-07
0.00281212
1.99411e-06
0.00281746
5.65461e-06
0.00281245
7.67038e-06
0.00280657
8.85104e-06
0.00280103
1.00089e-05
0.00279472
1.13265e-05
0.00278769
1.26785e-05
0.00277979
1.40424e-05
0.00277077
1.53906e-05
0.00276082
1.67365e-05
0.00275031
1.80863e-05
0.00273913
1.95138e-05
0.00272686
2.10865e-05
0.00271319
2.2843e-05
0.00269808
2.47804e-05
0.00268139
2.68813e-05
0.0026623
2.91103e-05
0.00264018
3.14137e-05
0.00261356
3.37428e-05
0.00257756
3.60543e-05
0.0025313
3.81995e-05
0.0024831
4.02915e-05
0.00243248
4.24903e-05
0.00237515
4.49647e-05
0.00231187
4.7848e-05
0.00224305
5.12612e-05
0.00216996
5.5187e-05
0.0020944
5.95182e-05
0.00201849
6.41007e-05
0.00194295
6.87673e-05
0.00186869
7.33761e-05
0.00179519
7.80368e-05
0.00171925
8.24988e-05
0.00163827
8.67197e-05
0.00155022
9.05184e-05
0.00145562
9.4314e-05
0.00135721
9.77316e-05
0.00125473
0.000101232
0.00114777
0.0001052
0.00103682
0.000109442
0.000920301
0.00011426
0.000798032
0.000119636
0.000670662
0.000125394
0.00054223
0.000131877
0.000410532
0.000139186
0.000275146
0.000144993
0.000136864
0.000148193
0.000148883
0.00305535
-1.45767e-08
0.00284055
5.29092e-07
0.00291533
5.88886e-06
0.00292081
1.16464e-05
0.00291592
1.53141e-05
0.00291003
1.77559e-05
0.00290433
2.02513e-05
0.00289778
2.29971e-05
0.00289047
2.57874e-05
0.00288228
2.85778e-05
0.00287293
3.13335e-05
0.00286261
3.40816e-05
0.00285169
3.68431e-05
0.00284007
3.97588e-05
0.00282733
4.29662e-05
0.00281313
4.65406e-05
0.00279745
5.04796e-05
0.00278016
5.47503e-05
0.00276039
5.92778e-05
0.00273751
6.39529e-05
0.00270999
6.86718e-05
0.0026728
7.33362e-05
0.00262505
7.76597e-05
0.00257531
8.18785e-05
0.00252315
8.62944e-05
0.00246411
9.12475e-05
0.002399
9.69865e-05
0.00232833
0.00010376
0.0022535
0.000111516
0.00217636
0.00012005
0.00209926
0.000129037
0.00202293
0.000138241
0.00194797
0.00014733
0.00187408
0.000156516
0.00179797
0.000165608
0.0017166
0.000174473
0.00162737
0.000183045
0.00152985
0.000191277
0.00142722
0.000199418
0.00131924
0.000207787
0.00120551
0.000216739
0.00108707
0.000226393
0.000962388
0.000236652
0.000831661
0.000247712
0.000696038
0.000258899
0.000560347
0.000271074
0.000422921
0.000284317
0.000282886
0.000294928
0.00014065
0.000300661
0.000301929
0.00316894
4.6359e-08
0.00294588
9.34909e-07
0.00302384
1.04048e-05
0.00302934
1.81716e-05
0.00302442
2.30157e-05
0.00301838
2.67016e-05
0.00301245
3.06114e-05
0.00300566
3.48534e-05
0.0029981
3.91993e-05
0.00298965
4.35435e-05
0.00297999
4.78057e-05
0.00296929
5.20344e-05
0.00295796
5.62885e-05
0.00294589
6.07601e-05
0.00293266
6.56714e-05
0.00291793
7.11307e-05
0.00290169
7.71426e-05
0.00288376
8.36583e-05
0.0028633
9.05616e-05
0.00283961
9.7685e-05
0.00281114
0.000104862
0.0027727
0.000111925
0.00272334
0.000118497
0.00267192
0.000124906
0.00261804
0.000131577
0.00255716
0.000139036
0.00249
0.000147675
0.00241715
0.000157842
0.00234007
0.000169457
0.00226071
0.000182213
0.0021815
0.000195643
0.00210327
0.000209396
0.00202643
0.000223029
0.00195075
0.000236793
0.00187302
0.000250657
0.00178986
0.000264495
0.00169841
0.000278232
0.00159743
0.000291579
0.00149049
0.000305166
0.0013774
0.000319292
0.00125761
0.000334129
0.00113259
0.000349884
0.00100084
0.000366072
0.000862963
0.000382808
0.000720484
0.000399156
0.000578756
0.000416386
0.000436284
0.000434676
0.000291827
0.000449527
0.000145209
0.000457753
0.000459833
0.0032867
1.50288e-07
0.00305573
1.29026e-06
0.00313686
1.58438e-05
0.00314274
2.48345e-05
0.00313731
3.11979e-05
0.00313086
3.58839e-05
0.00312473
4.11283e-05
0.00311776
4.69338e-05
0.00311005
5.29389e-05
0.00310136
5.89391e-05
0.00309136
6.47684e-05
0.00308025
7.05459e-05
0.00306844
7.6366e-05
0.00305591
8.24714e-05
0.00304224
8.91628e-05
0.00302702
9.65863e-05
0.00301023
0.000104756
0.00299169
0.000113604
0.00297054
0.000122967
0.00294607
0.000132621
0.00291667
0.00014233
0.00287709
0.000151847
0.00282613
0.000160771
0.00277297
0.000169424
0.00271734
0.000178393
0.0026546
0.000188416
0.00258531
0.000200032
0.00251016
0.000213683
0.00243059
0.000229262
0.00234862
0.000246377
0.00226676
0.000264397
0.00218587
0.000282868
0.00210641
0.000301203
0.00202811
0.000319757
0.00194774
0.000338557
0.00186176
0.000357538
0.00176718
0.000376627
0.00166258
0.00039542
0.00155166
0.000414874
0.0014341
0.000435244
0.00130918
0.000456583
0.00117857
0.000478987
0.00104074
0.000501594
0.000896453
0.000524236
0.000747624
0.000545668
0.000599983
0.000567667
0.000452067
0.000590607
0.000302468
0.000609435
0.000150782
0.000620071
0.000623503
0.00340902
2.08809e-07
0.00316953
2.01011e-06
0.00325466
2.22828e-05
0.0032603
3.21231e-05
0.00325458
3.93109e-05
0.00324785
4.5001e-05
0.00324148
5.17126e-05
0.00323433
5.91469e-05
0.00322642
6.69897e-05
0.00321752
7.47608e-05
0.00320719
8.2249e-05
0.00319567
8.96532e-05
0.00318341
9.71007e-05
0.00317043
0.000104908
0.00315627
0.000113459
0.00314053
0.000122921
0.00312317
0.00013333
0.00310401
0.000144588
0.00308221
0.000156487
0.00305699
0.000168746
0.00302675
0.000181055
0.00298619
0.000193103
0.00293373
0.000204456
0.00287889
0.000215385
0.00282159
0.000226686
0.00275714
0.000239315
0.00268583
0.00025397
0.00260847
0.000271168
0.00252654
0.000290798
0.00244209
0.000312394
0.00235773
0.000335175
0.00227427
0.000358577
0.00219222
0.000381853
0.00211124
0.000405468
0.00202804
0.000429474
0.00193898
0.000453898
0.00184097
0.000478576
0.00173244
0.000503145
0.00161729
0.000528766
0.00149518
0.000555721
0.00136526
0.000584008
0.0012293
0.000613524
0.00108557
0.000643041
0.000934951
0.000671945
0.000779516
0.000698688
0.000625413
0.00072542
0.000471245
0.000752833
0.000315487
0.000775579
0.000157332
0.000788924
0.000793823
0.00353596
1.84126e-07
0.00328756
3.09536e-06
0.00337623
2.98159e-05
0.00338149
4.02131e-05
0.00337591
4.73763e-05
0.00336905
5.3984e-05
0.00336254
6.22958e-05
0.0033553
7.14323e-05
0.00334734
8.12723e-05
0.0033383
9.09334e-05
0.00332762
0.000100167
0.00331563
0.000109273
0.00330292
0.000118466
0.0032895
0.000128087
0.00327489
0.000138562
0.00325863
0.000150149
0.00324068
0.000162879
0.0032209
0.00017662
0.00319845
0.000191121
0.00317252
0.000206051
0.00314149
0.000221028
0.00310015
0.000235676
0.0030463
0.000249543
0.00298976
0.0002628
0.00293082
0.000276484
0.00286472
0.000291783
0.00279144
0.000309536
0.00271192
0.000330349
0.0026276
0.00035413
0.00254063
0.000380339
0.00245363
0.000408047
0.00236749
0.000436566
0.00228271
0.000465002
0.00219901
0.000493887
0.00211302
0.000523355
0.00202095
0.000553415
0.00191968
0.000584026
0.00180731
0.000614629
0.00168801
0.00064667
0.00156154
0.000680508
0.00142693
0.000716131
0.00128596
0.000753308
0.00113648
0.000790304
0.000979578
0.000826005
0.000817144
0.000858636
0.000655752
0.000890463
0.000494203
0.000922472
0.000330933
0.00094923
0.000165262
0.000965224
0.00097202
0.00366734
3.59455e-07
0.00341026
3.77703e-06
0.00350196
3.84497e-05
0.00350661
4.84297e-05
0.00350152
5.59043e-05
0.00349472
6.32653e-05
0.00348805
7.31003e-05
0.00348066
8.39341e-05
0.00347267
9.57664e-05
0.00346357
0.00010739
0.00345263
0.000118463
0.0034402
0.000129356
0.00342709
0.000140385
0.00341325
0.00015195
0.00339824
0.000164435
0.00338149
0.000178259
0.00336295
0.000193389
0.00334251
0.000209672
0.00331945
0.000226832
0.00329289
0.000244486
0.00326118
0.000262179
0.00321931
0.000279504
0.00316425
0.000295962
0.00310609
0.000311629
0.0030456
0.000327756
0.00297799
0.000345783
0.00290283
0.000366686
0.00282124
0.000391173
0.00273462
0.000419212
0.00264517
0.000450172
0.00255553
0.000482988
0.00246668
0.000516818
0.00237911
0.000550634
0.00229266
0.000584994
0.00220388
0.000620157
0.00210888
0.000656081
0.00200453
0.00069285
0.00188849
0.000729806
0.00176512
0.000768483
0.00163434
0.000809511
0.00149514
0.000852817
0.00134933
0.000898175
0.00119424
0.00094334
0.00103101
0.000986686
0.000861191
0.00102594
0.000691795
0.00106341
0.000521634
0.00110061
0.000349496
0.00113165
0.000174495
0.00115068
0.00115925
0.00380405
3.11015e-07
0.00353736
4.81385e-06
0.00363245
4.7894e-05
0.00363537
5.75157e-05
0.00363106
6.45401e-05
0.00362502
7.28095e-05
0.00361847
8.41754e-05
0.00361099
9.66748e-05
0.00360288
0.000110392
0.00359366
0.000123993
0.00358244
0.000136981
0.00356959
0.000149765
0.00355616
0.000162776
0.00354193
0.000176411
0.0035266
0.000191109
0.00350939
0.000207259
0.00349024
0.000224856
0.00346914
0.000243726
0.00344551
0.000263585
0.00341839
0.000283996
0.00338613
0.000304438
0.00334407
0.000324518
0.003288
0.000343672
0.00322833
0.000361776
0.00316643
0.000380407
0.0030975
0.000401221
0.00302067
0.000425286
0.00293722
0.000453502
0.00284852
0.000485864
0.00275682
0.000521693
0.00266474
0.000559796
0.00257332
0.000599137
0.00248307
0.000638576
0.00239393
0.000678632
0.00230252
0.00071974
0.00220473
0.000761818
0.00209737
0.000805043
0.00197762
0.000848636
0.00185011
0.000894239
0.00171498
0.000942789
0.00157117
0.000994189
0.00142048
0.00104828
0.00125975
0.00110226
0.00109001
0.0011543
0.000911985
0.00120115
0.000733726
0.00124493
0.000554047
0.00128806
0.000371367
0.00132434
0.000185602
0.00134654
0.00135724
0.00394555
3.58729e-07
0.00366911
5.6041e-06
0.00376936
5.72242e-05
0.00377125
6.66155e-05
0.00376683
7.33056e-05
0.00376115
8.2473e-05
0.00375465
9.55271e-05
0.00374705
0.000109782
0.00373886
0.000125419
0.00372952
0.000141001
0.00371801
0.000155991
0.00370468
0.000170764
0.00369079
0.000185817
0.00367605
0.000201604
0.0036603
0.000218629
0.00364258
0.000237175
0.00362284
0.00025728
0.0036011
0.000278759
0.00357695
0.000301335
0.00354934
0.000324508
0.00351669
0.000347724
0.00347473
0.000370645
0.00341794
0.00039254
0.00335692
0.00041318
0.00329377
0.000434348
0.00322373
0.000457961
0.00314546
0.000485203
0.00306043
0.000517142
0.00296992
0.000553863
0.00287627
0.000594632
0.00278205
0.000638171
0.00268835
0.000683205
0.00259567
0.000728519
0.00250404
0.000774505
0.00241018
0.000821826
0.00230985
0.000870361
0.00219976
0.000920369
0.00207657
0.000971057
0.00194491
0.0010239
0.00180531
0.00108037
0.0016567
0.00114037
0.0015008
0.00120376
0.00133398
0.0012675
0.00115736
0.00132904
0.000970893
0.00138477
0.000782636
0.00143625
0.000591769
0.00148624
0.000397368
0.00152813
0.000198635
0.00155463
0.00156761
0.00409248
4.03792e-07
0.00380553
6.24071e-06
0.00391173
6.55177e-05
0.00391286
7.56235e-05
0.00390796
8.2441e-05
0.00390283
9.22375e-05
0.00389651
0.000107143
0.00388884
0.00012328
0.00388056
0.000140886
0.00387101
0.000158489
0.00385918
0.000175539
0.00384538
0.000192396
0.00383101
0.000209563
0.00381579
0.000227579
0.00379961
0.000247
0.00378141
0.000268001
0.00376103
0.000290637
0.00373862
0.000314737
0.00371397
0.000340021
0.00368596
0.000365938
0.00365312
0.000391951
0.00361161
0.000417803
0.0035545
0.000442493
0.00349236
0.000465703
0.00342812
0.000489453
0.00335717
0.00051587
0.00327774
0.000546253
0.00319147
0.000581864
0.0030995
0.000622923
0.00300431
0.000668659
0.00290831
0.000717741
0.00281264
0.000768619
0.00271779
0.000820064
0.00262387
0.000872234
0.00252784
0.000926069
0.00242525
0.000981422
0.00231263
0.00103864
0.00218609
0.00109686
0.0020503
0.00115738
0.00190623
0.00122222
0.00175286
0.00129135
0.00159178
0.00136478
0.0014188
0.00143914
0.00123491
0.00151146
0.00103879
0.00157749
0.000839448
0.00163763
0.000636208
0.00169624
0.000427575
0.00174576
0.000214198
0.0017769
0.00179268
0.00424489
5.07777e-07
0.00394674
6.69138e-06
0.00405929
7.27649e-05
0.00406073
8.42377e-05
0.00405443
9.13607e-05
0.00404985
0.000102293
0.00404403
0.000118978
0.00403652
0.00013713
0.0040282
0.000156719
0.00401845
0.000176405
0.0040063
0.000195595
0.00399212
0.000214636
0.00397731
0.000234024
0.00396166
0.00025435
0.00394497
0.000276229
0.00392616
0.000299705
0.00390511
0.000324919
0.00388208
0.000351641
0.00385696
0.00037959
0.00382868
0.000408216
0.00379585
0.000437056
0.00375505
0.000465866
0.00369809
0.000493321
0.00363503
0.00051927
0.00356989
0.000545603
0.00349825
0.000574778
0.00341792
0.000608266
0.00333074
0.000647437
0.00323769
0.000692735
0.00314139
0.000743395
0.00304403
0.000798052
0.00294689
0.000854891
0.00285037
0.000912712
0.00275459
0.000971341
0.00265676
0.00103202
0.0025523
0.00109456
0.00243765
0.00115941
0.00230828
0.00122579
0.00216851
0.00129455
0.00201996
0.00136833
0.00186174
0.00144726
0.00169505
0.00153144
0.00151544
0.00161762
0.00132357
0.00170215
0.00111757
0.00177993
0.000906323
0.00185091
0.00068879
0.00191985
0.000464287
0.0019782
0.000232485
0.00201624
0.00203515
0.004403
7.16432e-07
0.00409296
7.02925e-06
0.0042111
7.98418e-05
0.00421401
9.25789e-05
0.00420682
9.99362e-05
0.00420179
0.000112139
0.00419647
0.000130739
0.0041895
0.000151044
0.00418141
0.000172727
0.00417165
0.000194551
0.0041594
0.000215992
0.00414506
0.000237361
0.00412999
0.000259119
0.00411407
0.000281914
0.00409681
0.000306267
0.00407732
0.000332229
0.0040555
0.000360093
0.00403184
0.000389406
0.00400625
0.000419982
0.00397784
0.000451286
0.00394523
0.000482976
0.00390525
0.000514656
0.00384939
0.000544943
0.00378536
0.00057372
0.00371947
0.00060274
0.00364738
0.000634588
0.0035664
0.000671087
0.00347864
0.000713655
0.00338489
0.000763072
0.00328784
0.000818534
0.0031895
0.000878713
0.00309126
0.000941522
0.0029935
0.00100584
0.00289629
0.00107114
0.00279717
0.00113892
0.00269137
0.00120901
0.00257516
0.00128191
0.00244363
0.00135701
0.00230038
0.00143485
0.00214775
0.00151822
0.00198495
0.00160775
0.00181319
0.00170347
0.0016274
0.00180284
0.00142767
0.001901
0.00121059
0.00199347
0.000984774
0.00207717
0.000751083
0.00215844
0.000507454
0.00222866
0.000255331
0.00227469
0.00229862
0.00456714
9.18652e-07
0.00424466
7.65696e-06
0.00436611
8.85597e-05
0.00437
0.000101122
0.00436372
0.000108482
0.0043587
0.000122071
0.00435367
0.000142505
0.00434727
0.000164793
0.00433949
0.000188482
0.00432992
0.000212421
0.00431786
0.000236163
0.00430374
0.000260002
0.00428883
0.000284338
0.00427283
0.000309816
0.00425503
0.00033679
0.00423498
0.000365447
0.00421232
0.000395866
0.00418817
0.000427746
0.00416228
0.000460981
0.00413399
0.000495039
0.00410174
0.00052955
0.00406261
0.000563996
0.00400895
0.000597306
0.00394374
0.000628922
0.00387711
0.000660666
0.00380493
0.000695154
0.00372366
0.000734458
0.00363573
0.000780282
0.00354161
0.00083368
0.00344413
0.000893806
0.00334499
0.000959414
0.0032458
0.00102811
0.00314708
0.00109898
0.00304887
0.00117105
0.00294893
0.00124614
0.00284248
0.00132399
0.0027256
0.0014054
0.00259331
0.0014899
0.00244732
0.0015775
0.00229151
0.00167115
0.00212486
0.00177214
0.00194797
0.00188076
0.001756
0.00199439
0.00154746
0.00210855
0.00131977
0.00221718
0.00107957
0.00231747
0.000827028
0.00241495
0.000561447
0.00249957
0.000282363
0.00255855
0.00258781
0.00473762
9.01833e-07
0.00440241
8.75505e-06
0.00453015
9.54786e-05
0.00453611
0.000108882
0.00453002
0.00011731
0.00452399
0.000132485
0.00451855
0.000154528
0.00451223
0.00017865
0.00450505
0.000204267
0.004496
0.000230296
0.00448427
0.000256372
0.0044703
0.000282719
0.00445536
0.000309734
0.004439
0.000338017
0.00442064
0.000367695
0.00439983
0.00039921
0.00437625
0.000432104
0.00435178
0.000466608
0.00432572
0.000502473
0.00429777
0.000539255
0.00426597
0.000576529
0.00422777
0.000613678
0.00417651
0.000650172
0.00411116
0.000684888
0.00404369
0.000719213
0.00397173
0.000756007
0.00389054
0.00079806
0.00380288
0.000846976
0.00370904
0.000904184
0.00361177
0.000968814
0.00351237
0.00103968
0.00341273
0.00111419
0.00331348
0.00119164
0.00321464
0.00127059
0.00311433
0.00135309
0.00300782
0.00143892
0.00289106
0.00152918
0.0027592
0.00162355
0.0026114
0.00172131
0.00245335
0.00182595
0.00228388
0.00193927
0.00210289
0.00206144
0.00190669
0.0021917
0.00169048
0.00232403
0.00145163
0.0024533
0.00119346
0.00257308
0.000920093
0.00269052
0.000627689
0.00279635
0.000318593
0.00287072
0.00291113
0.00491459
5.71897e-07
0.00456648
9.67578e-06
0.00470046
9.9733e-05
0.00470877
0.000115787
0.00470391
0.000126258
0.00469774
0.000142926
0.00469231
0.000166421
0.00468615
0.000192295
0.00467917
0.000219884
0.00467019
0.000248125
0.00465852
0.000276631
0.00464466
0.000305647
0.00462967
0.000335496
0.00461292
0.000366608
0.00459424
0.00039911
0.00457244
0.00043338
0.00454814
0.000468843
0.00452334
0.000505934
0.00449713
0.000544364
0.0044696
0.000583775
0.00443835
0.000623713
0.00440118
0.000663561
0.00435263
0.000703242
0.00428821
0.00074131
0.00422002
0.000778048
0.00414806
0.000816995
0.00406776
0.000861484
0.00398082
0.000913436
0.00388777
0.000974191
0.00379114
0.00104305
0.00369199
0.00111887
0.00359248
0.00119906
0.00349338
0.00128295
0.0033946
0.00136884
0.00329455
0.00145874
0.00318867
0.00155273
0.0030728
0.00165187
0.00294247
0.00175626
0.00279482
0.00186494
0.00263602
0.00198109
0.00246521
0.00210753
0.00228127
0.0022445
0.00208182
0.00239266
0.00185853
0.00254648
0.00160987
0.00269871
0.00133554
0.00284353
0.00103865
0.00298789
0.000714927
0.00312183
0.000363813
0.00322274
0.00327719
0.00509613
1.42154e-07
0.00474008
9.82614e-06
0.00487621
9.93626e-05
0.00488849
0.000122525
0.00488435
0.000135488
0.00487856
0.000153178
0.00487349
0.000177819
0.00486778
0.000205336
0.00486124
0.00023498
0.00485255
0.000265673
0.00484119
0.000296821
0.00482759
0.00032868
0.00481252
0.000361457
0.00479534
0.000395527
0.00477627
0.000430977
0.00475334
0.000467884
0.00472839
0.000506013
0.00470328
0.000545584
0.00467702
0.000586494
0.00464994
0.000628403
0.00461944
0.000670869
0.00458348
0.000713476
0.00453802
0.000756117
0.00447551
0.000797373
0.004407
0.000836784
0.00433532
0.00087796
0.0042563
0.000924758
0.00417055
0.000979331
0.00407887
0.00104324
0.00398337
0.00111596
0.00388509
0.0011964
0.00378621
0.00128211
0.00368771
0.00137217
0.00358956
0.00146495
0.00349066
0.00156207
0.00338648
0.00166424
0.00327266
0.00177215
0.00314525
0.00188669
0.00300004
0.00200684
0.00284274
0.00213501
0.00267281
0.00227504
0.00248824
0.0024276
0.00228883
0.00259467
0.00206177
0.00277295
0.00180403
0.00295407
0.00151236
0.00312986
0.00119019
0.00330866
0.000829932
0.003482
0.000429304
0.00362191
0.00370612
0.00528572
6.45601e-08
0.00491523
9.70558e-06
0.00505836
0.00010028
0.00507067
0.000126643
0.00506868
0.000142123
0.00506485
0.000161487
0.0050611
0.000187744
0.00505654
0.00021712
0.0050505
0.000249164
0.00504193
0.000282495
0.0050308
0.000316486
0.00501753
0.000351392
0.0050028
0.000387373
0.00498574
0.000424543
0.00496661
0.000462969
0.00494306
0.000502695
0.0049174
0.000543326
0.00489206
0.000585309
0.00486589
0.000628594
0.00483926
0.000672848
0.00480995
0.000717756
0.00477537
0.00076298
0.00473277
0.00080834
0.00467299
0.000852663
0.00460476
0.000895019
0.00453411
0.000938669
0.00445678
0.000987552
0.00437253
0.00104435
0.00428295
0.00111082
0.00418923
0.00118694
0.00409278
0.00127153
0.00399551
0.0013625
0.00389857
0.00145834
0.00380196
0.00155793
0.00370495
0.00166186
0.00360348
0.00177211
0.00349321
0.00188836
0.00337086
0.00201262
0.00323125
0.00214442
0.00307772
0.00228484
0.00291144
0.00243876
0.00272964
0.00260745
0.00253284
0.00279408
0.00230781
0.00299798
0.00204744
0.00321099
0.00174313
0.00342796
0.0013958
0.00365198
0.000992717
0.00388289
0.000522675
0.00408862
0.00422616
0.00548254
2.10224e-07
0.00509576
9.47185e-06
0.00524631
0.000100846
0.00526046
0.00012984
0.00525935
0.000147353
0.00525669
0.000168247
0.00525444
0.000196237
0.00525106
0.000227771
0.00524566
0.000262398
0.00523773
0.00029864
0.0052272
0.000335647
0.00521467
0.000373695
0.00520058
0.000412909
0.00518395
0.000453177
0.0051651
0.00049458
0.00514114
0.000537163
0.00511502
0.000580118
0.0050897
0.000624508
0.00506396
0.000670097
0.00503791
0.000716595
0.00501029
0.000763861
0.00497752
0.000811592
0.00493758
0.000859393
0.0048818
0.000906909
0.00481406
0.000952456
0.00474472
0.000998685
0.00466991
0.00104937
0.00458797
0.00110786
0.00450108
0.00117637
0.00440968
0.00125531
0.00431578
0.00134348
0.00422092
0.00143918
0.00412644
0.00154037
0.00403215
0.00164623
0.00393837
0.00175656
0.00384101
0.00187453
0.00373529
0.00199864
0.00361899
0.00213207
0.00348827
0.00227483
0.00334428
0.002426
0.00318748
0.00259309
0.00301381
0.00277874
0.0028242
0.00298508
0.00260634
0.00321734
0.00234736
0.00346589
0.00203999
0.00372808
0.00167622
0.00401024
0.00123418
0.00432047
0.000681811
0.00463438
0.00490237
0.00568687
4.58136e-07
0.00528266
9.56158e-06
0.00543591
0.000105733
0.00545249
0.000133113
0.00545474
0.000150692
0.00545458
0.000173015
0.0054535
0.000203147
0.00545093
0.000236935
0.0054464
0.000274292
0.00543961
0.000313465
0.00543032
0.000353486
0.00541914
0.000394629
0.00540582
0.000436921
0.0053899
0.000480354
0.00537148
0.000524812
0.00534669
0.000569973
0.00532091
0.000615663
0.00529628
0.000662461
0.00527152
0.000710367
0.00524647
0.000759094
0.00522104
0.000808667
0.00519051
0.000858823
0.00515329
0.000909005
0.00510268
0.00095941
0.00503669
0.00100888
0.00496813
0.00105735
0.00489591
0.00110945
0.00481684
0.00116938
0.00473302
0.00123957
0.00464488
0.00132073
0.00455479
0.00141188
0.00446366
0.00151155
0.00437236
0.00161739
0.00428171
0.00172861
0.00419234
0.00184485
0.0041008
0.00196933
0.0040024
0.00210098
0.0038957
0.00224236
0.00377947
0.00239232
0.00364792
0.00255531
0.00350165
0.00273696
0.0033406
0.0029364
0.00316608
0.00315955
0.00297064
0.00341503
0.00273284
0.00370193
0.00244093
0.00401258
0.002079
0.00436414
0.001613
0.00477971
0.00097108
0.00526863
0.00586532
0.00589895
5.01943e-07
0.0054783
9.62686e-06
0.00564038
0.000107779
0.00566008
0.000134127
0.00566461
0.000151786
0.00566719
0.000175252
0.00566802
0.000208097
0.00566662
0.000244836
0.00566264
0.000285424
0.0056561
0.000327709
0.00564696
0.000370775
0.005636
0.000414892
0.00562327
0.000460078
0.00560779
0.000506499
0.00558987
0.000553938
0.00556531
0.000601773
0.0055397
0.000650147
0.00551555
0.000699307
0.00549158
0.000749432
0.00546736
0.000800267
0.00544386
0.00085198
0.00541566
0.000904382
0.0053811
0.000956936
0.00533602
0.00100989
0.00527265
0.00106265
0.005206
0.00111379
0.00513687
0.00116773
0.00506187
0.00122862
0.00498214
0.00129983
0.00489874
0.00138252
0.004813
0.00147572
0.00472627
0.0015782
0.0046391
0.00168777
0.00455296
0.00180349
0.00446898
0.00192467
0.00438449
0.00205422
0.00429541
0.0021924
0.00420192
0.00233829
0.00409974
0.00249628
0.00398563
0.00266941
0.00386024
0.00285997
0.00372179
0.00307132
0.00357211
0.00330744
0.00341122
0.00358026
0.00321373
0.0038967
0.00296828
0.00425056
0.00266029
0.00466306
0.00224179
0.00518965
0.00159814
0.00590232
0.00745281
0.00852907
4.50691e-07
0.00791919
9.05978e-06
0.00816092
0.000102439
0.00819681
0.000128461
0.00820883
0.000147039
0.0082176
0.000173621
0.008223
0.000210986
0.00822406
0.000252875
0.00822055
0.000298898
0.00821242
0.000345699
0.0082003
0.00039323
0.00818561
0.00044143
0.00816958
0.000490304
0.0081499
0.000540616
0.00812721
0.00059195
0.00809613
0.000643417
0.00806168
0.000695341
0.00802959
0.000747625
0.00799826
0.000800596
0.00796666
0.000854083
0.00793733
0.000908367
0.00790371
0.000963354
0.00786171
0.00101874
0.00780915
0.00107451
0.00773093
0.00113062
0.00764224
0.00118676
0.00755164
0.00124344
0.00745503
0.00130495
0.00735345
0.00137586
0.0072493
0.00145871
0.00714186
0.00155257
0.00703468
0.00165672
0.00692865
0.00176955
0.00682311
0.00188917
0.00672212
0.00201485
0.0066257
0.00214808
0.0065286
0.0022903
0.00642734
0.00244167
0.0063231
0.00260448
0.00621385
0.00278219
0.00609545
0.00297809
0.00596896
0.00319415
0.00583912
0.00343329
0.00571874
0.00370178
0.00560394
0.00401549
0.00547136
0.00437392
0.00535959
0.00476103
0.00536656
0.00516824
0.00574689
0.00550946
0.00532336
0.00786526
0.00852988
3.2495e-07
0.00791843
7.17092e-06
0.00817305
8.22565e-05
0.00822232
0.000109061
0.00824567
0.000131077
0.0082624
0.000163984
0.00827189
0.00020928
0.00827323
0.000259751
0.00826974
0.000311501
0.00826081
0.000363323
0.00824799
0.000414804
0.00823302
0.000466522
0.0082167
0.000518945
0.00819826
0.00057251
0.00817727
0.000627006
0.00815173
0.000681854
0.00812007
0.000736542
0.00809014
0.000791585
0.00806141
0.00084684
0.00803276
0.00090256
0.00800584
0.000958742
0.00797814
0.00101561
0.00794326
0.00107315
0.00790016
0.00113106
0.0078393
0.00118954
0.00775989
0.00124924
0.00767993
0.00130941
0.00759766
0.00137225
0.00751031
0.00144187
0.00741977
0.00152287
0.00733029
0.00161616
0.0072398
0.00171984
0.00715227
0.0018324
0.00706592
0.00195246
0.00698443
0.00207969
0.00690883
0.00221289
0.00683857
0.00235406
0.0067715
0.00250541
0.00671219
0.00266764
0.00665539
0.00284322
0.00660059
0.00303374
0.00654954
0.00324211
0.00650951
0.00346788
0.00649616
0.00371161
0.00653885
0.00397763
0.00664903
0.00426347
0.00684922
0.0045541
0.00721774
0.00478431
0.00779385
0.00491428
0.00455444
0.00854982
0.00853028
1.67345e-07
0.00791709
4.43218e-06
0.00818374
4.77297e-05
0.00825231
6.95327e-05
0.00829274
9.76661e-05
0.00831991
0.000143882
0.00833388
0.000202744
0.00833802
0.000263397
0.00833378
0.000323557
0.00832515
0.000379749
0.00831199
0.000434604
0.00829657
0.00048997
0.00828004
0.000545717
0.00826289
0.000602282
0.00824413
0.000659526
0.00822301
0.000717192
0.00819668
0.000774786
0.00816733
0.00083204
0.00813998
0.000889548
0.00811306
0.000947026
0.0080869
0.00100464
0.008063
0.00106294
0.00803437
0.00112187
0.00799803
0.00118136
0.00795115
0.00124158
0.00788351
0.0013025
0.00780824
0.00136591
0.00773371
0.00143101
0.00765948
0.00149976
0.00758285
0.00157681
0.00751098
0.00166684
0.00743739
0.00176737
0.00736571
0.00187782
0.00730007
0.00199578
0.00723679
0.00212025
0.00718136
0.00225107
0.00713462
0.00238802
0.0071008
0.00253441
0.00708411
0.00269047
0.00707718
0.00285652
0.00708354
0.003031
0.00710918
0.0032197
0.00715566
0.00342048
0.00723646
0.00362788
0.00736876
0.00384171
0.00758902
0.00404431
0.00790847
0.00423266
0.00832659
0.00436117
0.0088251
0.00440478
0.00414787
0.0092198
0.00853022
1.77684e-07
0.00792392
-7.4213e-06
0.00824331
-4.19025e-05
0.00833682
4.35937e-06
0.00838847
5.25982e-05
0.00841112
0.000127573
0.00841723
0.000203219
0.00841475
0.000272723
0.00840788
0.000337138
0.00839865
0.00039585
0.00838616
0.000453477
0.00837051
0.000512109
0.00835414
0.000570726
0.00833791
0.000629509
0.00832221
0.000688752
0.00830549
0.000748425
0.00828599
0.000808281
0.00826364
0.000867958
0.00823928
0.00092721
0.00821497
0.000986411
0.0081905
0.00104552
0.00816728
0.00110482
0.00814364
0.00116496
0.00811355
0.00122567
0.00807654
0.00128698
0.0080243
0.00134955
0.00795914
0.00141323
0.00788933
0.00148048
0.00782077
0.00155119
0.00775497
0.00162609
0.00769012
0.00170864
0.00763731
0.0018042
0.00758433
0.00190951
0.0075372
0.00202192
0.00749819
0.00214093
0.00746474
0.00226432
0.00743984
0.00239482
0.00742901
0.00253396
0.00744111
0.00267942
0.00747022
0.00282803
0.00751844
0.00298334
0.00759566
0.00314401
0.00770372
0.00331273
0.00785344
0.00348059
0.00805016
0.00364474
0.00829921
0.00379348
0.00861964
0.00390927
0.00899823
0.00398155
0.00945165
0.00394675
0.00383239
0.00975913
0.00852316
5.68808e-06
0.00796129
-6.36788e-05
0.0083824
-0.000235899
0.00857099
-0.000157568
0.00860517
2.47618e-05
0.00859932
0.000138647
0.00858358
0.000224237
0.00856721
0.000294474
0.00855441
0.00035603
0.0085409
0.000416043
0.00852358
0.00047718
0.00850304
0.000538708
0.00848151
0.000599552
0.00846108
0.00065963
0.00844204
0.000719772
0.00842417
0.000780379
0.00840547
0.000841282
0.00838503
0.000902228
0.00836348
0.000963004
0.00834118
0.00102352
0.00831845
0.0010839
0.0082964
0.00114448
0.00827372
0.0012057
0.00824522
0.00126747
0.00821102
0.0013298
0.00816523
0.00139337
0.00811061
0.00145701
0.00805236
0.00152357
0.0079912
0.00159371
0.00793076
0.00166826
0.00787225
0.00174748
0.00782958
0.00183371
0.0077903
0.00193096
0.00775453
0.00203479
0.00772962
0.00214289
0.00771292
0.00225729
0.00770516
0.00237928
0.00771693
0.00250732
0.007755
0.00263562
0.00781628
0.0027664
0.00789837
0.00290158
0.00800523
0.00303756
0.00814647
0.00317278
0.00832111
0.0033064
0.00854214
0.00342592
0.00880458
0.00353262
0.00910769
0.00360538
0.00945009
0.0036374
0.00979325
0.00360017
0.00349402
0.0101296
0.00851888
1.47939e-05
0.00824337
-0.000392011
0.00879057
-0.000565253
0.00890451
-0.000247075
0.00888627
4.8103e-05
0.00881497
0.000213759
0.0087849
0.000258518
0.00876541
0.00031865
0.00875368
0.000372335
0.00873818
0.0004376
0.00871926
0.000503336
0.00869782
0.000567709
0.00867516
0.000630329
0.00865198
0.000691155
0.00862924
0.000751877
0.00860811
0.000813217
0.00858783
0.000875004
0.00856809
0.000937043
0.00854888
0.000999178
0.00852988
0.00106137
0.00851055
0.00112366
0.00848959
0.00118636
0.00846462
0.00124965
0.00843231
0.00131331
0.00839379
0.00137721
0.00833717
0.00144106
0.00827526
0.00150458
0.0082137
0.00156993
0.00815277
0.00163763
0.00809375
0.00170819
0.00804049
0.00178191
0.00800572
0.00186204
0.00797853
0.0019496
0.00795684
0.00204222
0.0079394
0.00213982
0.00793116
0.00224275
0.00793965
0.00234971
0.00797243
0.00245945
0.00802813
0.00257161
0.00810761
0.00268464
0.00821409
0.00279761
0.00834327
0.00291142
0.00850188
0.00301804
0.00868985
0.00312269
0.00890718
0.00321174
0.0091597
0.00328387
0.0094384
0.00333053
0.00974512
0.0033322
0.0100418
0.00330466
0.00320353
0.0103294
0.00816069