/*--------------------------------*- C++ -*----------------------------------*\
| =========                 |                                                 |
| \\      /  F ield         | OpenFOAM: The Open Source CFD Toolbox           |
|  \\    /   O peration     | Version:  2412                                  |
|   \\  /    A nd           | Website:  www.openfoam.com                      |
|    \\/     M anipulation  |                                                 |
\*---------------------------------------------------------------------------*/
FoamFile
{
    version     2.0;
    format      ascii;
    arch        "LSB;label=32;scalar=64";
    class       volScalarField;
    location    "10.5";
    object      T;
}
// * * * * * * * * * * * * * * * * * * * * * * * * * * * * * * * * * * * * * //

dimensions      [0 0 0 1 0 0 0];

internalField   nonuniform List<scalar> 
7000
(
1.30821
2.62953
2.72878
2.69003
2.67952
2.66165
2.65781
2.66025
2.66168
2.66292
2.66278
2.66257
2.66214
2.66133
2.66058
2.65989
2.65927
2.65833
2.65713
2.65667
2.65719
2.6608
2.67251
2.68732
2.69922
2.70848
2.71719
2.72204
2.72527
2.72808
2.73165
2.73549
2.74159
2.74441
2.74614
2.74862
2.75324
2.76319
2.76974
2.77271
2.77204
2.76761
2.7667
2.76988
2.78319
2.79425
2.79469
2.79429
2.80894
2.81487
1.30828
2.62983
2.72891
2.69019
2.67957
2.66177
2.65794
2.66038
2.6618
2.66301
2.66286
2.66265
2.66223
2.66143
2.66069
2.66
2.65939
2.65844
2.65725
2.65678
2.65729
2.66089
2.67256
2.68732
2.6992
2.7084
2.71712
2.72196
2.72519
2.72792
2.73152
2.73509
2.74095
2.74423
2.74579
2.74778
2.75158
2.76103
2.76815
2.77163
2.77153
2.76761
2.76654
2.76956
2.78278
2.79397
2.79442
2.794
2.80857
2.81432
1.30826
2.62979
2.72882
2.69022
2.6793
2.66155
2.65787
2.66036
2.66181
2.66299
2.66282
2.66261
2.6622
2.6614
2.66065
2.65995
2.65931
2.65835
2.65715
2.65668
2.65718
2.66078
2.67241
2.68714
2.699
2.70817
2.7169
2.72177
2.72501
2.72776
2.7313
2.73486
2.74056
2.74412
2.74576
2.74741
2.75079
2.75973
2.76722
2.77107
2.77123
2.76765
2.76658
2.76964
2.78284
2.7938
2.79413
2.79364
2.80806
2.81388
1.30828
2.62978
2.7283
2.69017
2.67919
2.66163
2.65787
2.66031
2.66161
2.66267
2.66251
2.66235
2.66202
2.66136
2.6606
2.65988
2.65921
2.65824
2.65703
2.65655
2.65704
2.66058
2.67209
2.68678
2.69863
2.70778
2.71651
2.72137
2.72462
2.72737
2.73091
2.73448
2.74019
2.74378
2.7455
2.74713
2.75053
2.75946
2.76688
2.77068
2.77086
2.76739
2.76633
2.7694
2.78259
2.79334
2.79351
2.79296
2.80745
2.81303
1.30819
2.62935
2.72813
2.69006
2.67897
2.6616
2.65788
2.66031
2.66154
2.66247
2.66227
2.66213
2.66183
2.66124
2.6605
2.65979
2.65912
2.65815
2.65695
2.65646
2.65693
2.66034
2.67163
2.68626
2.6981
2.70722
2.71598
2.72092
2.72422
2.72701
2.73055
2.73406
2.73975
2.74331
2.74506
2.74667
2.75004
2.75892
2.76636
2.77018
2.77035
2.7669
2.76581
2.76885
2.78197
2.7926
2.79262
2.7919
2.80605
2.81204
1.30807
2.62871
2.7279
2.68987
2.67867
2.66139
2.65771
2.66016
2.66126
2.66207
2.66189
2.66185
2.66164
2.66113
2.66039
2.65965
2.65899
2.65806
2.6569
2.65639
2.65683
2.66008
2.67104
2.6856
2.69743
2.70653
2.71528
2.72024
2.72358
2.72638
2.72989
2.73343
2.73908
2.74276
2.74447
2.7461
2.74936
2.75808
2.76572
2.76967
2.76987
2.76624
2.76497
2.76788
2.78078
2.79139
2.79155
2.79076
2.80479
2.81042
1.30806
2.62844
2.72693
2.68957
2.67867
2.66111
2.65735
2.65981
2.66081
2.66153
2.66138
2.66146
2.66132
2.66091
2.66016
2.65939
2.65874
2.65791
2.65682
2.65632
2.65674
2.65977
2.6703
2.68474
2.69657
2.70565
2.71443
2.71944
2.72283
2.72565
2.72911
2.73271
2.73831
2.74216
2.74381
2.74549
2.74856
2.75686
2.76468
2.76878
2.76915
2.76547
2.76383
2.76632
2.7788
2.78939
2.78954
2.78887
2.80261
2.80877
1.30785
2.62735
2.72648
2.68935
2.67902
2.66058
2.65644
2.65886
2.65988
2.66073
2.66074
2.66106
2.66097
2.66065
2.65987
2.65904
2.6584
2.6577
2.65674
2.65625
2.65662
2.65938
2.66932
2.68362
2.69548
2.70456
2.71335
2.71841
2.72187
2.72471
2.72807
2.73172
2.73725
2.74133
2.74294
2.74452
2.74735
2.75528
2.7634
2.76772
2.76826
2.76449
2.76243
2.76421
2.77582
2.78731
2.78767
2.7865
2.80006
2.80623
1.30776
2.62675
2.72569
2.68841
2.67924
2.66061
2.6563
2.65873
2.65965
2.66035
2.66032
2.66067
2.6606
2.66032
2.65953
2.6587
2.65807
2.65751
2.65668
2.65622
2.65655
2.65898
2.66819
2.68232
2.6942
2.70327
2.71207
2.71722
2.72076
2.72364
2.72686
2.73057
2.73595
2.74028
2.74189
2.74339
2.7459
2.75308
2.76134
2.76589
2.76665
2.763
2.7606
2.762
2.77292
2.78407
2.78469
2.78394
2.79674
2.8034
1.30762
2.62591
2.72507
2.687
2.67948
2.66082
2.65623
2.65863
2.65943
2.66002
2.65997
2.6603
2.66023
2.65994
2.65914
2.65827
2.6577
2.65733
2.65669
2.65626
2.65653
2.65858
2.6668
2.68069
2.69261
2.70171
2.71052
2.71576
2.71937
2.72226
2.72527
2.72907
2.73431
2.73897
2.74071
2.7421
2.74429
2.75079
2.75936
2.7642
2.76516
2.76155
2.75838
2.75903
2.76843
2.78062
2.78199
2.78088
2.79371
2.79986
1.30746
2.62495
2.72461
2.68508
2.67921
2.66136
2.65623
2.65848
2.65914
2.65969
2.65962
2.6599
2.6598
2.65948
2.65866
2.65783
2.65744
2.6572
2.65677
2.65633
2.65652
2.65814
2.6652
2.67878
2.69075
2.69991
2.70871
2.7141
2.71784
2.72073
2.72352
2.72738
2.73232
2.73722
2.73906
2.74045
2.74228
2.74775
2.75645
2.76164
2.76294
2.75959
2.75613
2.75635
2.76519
2.7772
2.7776
2.7763
2.78779
2.79584
1.30721
2.62361
2.72447
2.68314
2.67791
2.66169
2.65634
2.65843
2.65886
2.65938
2.65929
2.65946
2.65931
2.6589
2.65806
2.65736
2.65724
2.65714
2.65694
2.65648
2.65656
2.65774
2.66346
2.67638
2.68847
2.69775
2.70651
2.71213
2.71595
2.71882
2.72142
2.7253
2.72996
2.73505
2.73709
2.73842
2.74001
2.74461
2.75329
2.75879
2.76039
2.75758
2.75279
2.75211
2.75826
2.77098
2.7738
2.77242
2.78399
2.78986
1.30679
2.62143
2.72468
2.68199
2.6766
2.66048
2.65501
2.65699
2.65735
2.65812
2.65815
2.65839
2.65824
2.6578
2.65712
2.65676
2.65697
2.65715
2.65706
2.65658
2.65651
2.65729
2.66172
2.67356
2.68583
2.69528
2.704
2.70983
2.71368
2.71657
2.719
2.72308
2.72754
2.73287
2.73509
2.73657
2.73783
2.74137
2.74966
2.75534
2.7572
2.75469
2.7496
2.74841
2.75392
2.76624
2.76731
2.76601
2.77556
2.78526
1.30619
2.61849
2.72494
2.6813
2.67569
2.65996
2.65468
2.65672
2.65686
2.65716
2.65701
2.65709
2.65692
2.6565
2.65609
2.6561
2.65674
2.65714
2.6571
2.65661
2.65626
2.65677
2.66007
2.67047
2.68283
2.69248
2.70111
2.70734
2.71111
2.71386
2.71601
2.72015
2.72426
2.72975
2.73222
2.73384
2.73481
2.73742
2.74501
2.75116
2.75329
2.75148
2.74522
2.74238
2.74533
2.75722
2.76141
2.75997
2.76976
2.77528
1.30566
2.61591
2.72366
2.68176
2.67541
2.65936
2.6542
2.6563
2.65643
2.65673
2.65653
2.65645
2.65617
2.65567
2.65537
2.65556
2.65656
2.65711
2.65709
2.65663
2.65594
2.65621
2.65853
2.66718
2.67951
2.6894
2.69779
2.70452
2.70825
2.71089
2.71293
2.71695
2.72076
2.7261
2.7288
2.73055
2.73144
2.73341
2.73981
2.74615
2.74863
2.74735
2.74068
2.73677
2.73866
2.74921
2.75158
2.74918
2.75721
2.76806
1.30552
2.61373
2.72084
2.68281
2.67541
2.65886
2.65372
2.65588
2.65605
2.65634
2.65605
2.65582
2.65534
2.65484
2.65465
2.65505
2.65639
2.65705
2.65703
2.6566
2.65556
2.65562
2.65709
2.66379
2.67581
2.68591
2.69414
2.7012
2.70492
2.70747
2.70941
2.7132
2.71693
2.72217
2.72528
2.72685
2.72782
2.7292
2.73419
2.74039
2.74287
2.74213
2.73582
2.72865
2.72859
2.73759
2.74276
2.74081
2.74684
2.75269
1.30586
2.61454
2.71694
2.68266
2.6749
2.65777
2.65269
2.65479
2.65509
2.65579
2.65566
2.65541
2.65479
2.65411
2.65385
2.6543
2.6559
2.65677
2.65677
2.65638
2.6551
2.65482
2.65571
2.66068
2.67189
2.68216
2.69022
2.69751
2.70122
2.70363
2.7055
2.70859
2.71229
2.71703
2.72066
2.72223
2.72345
2.72421
2.72687
2.73267
2.73561
2.73529
2.72949
2.72121
2.71813
2.72289
2.72663
2.72376
2.72855
2.73863
1.30609
2.61483
2.71413
2.6818
2.67384
2.65676
2.65163
2.65361
2.654
2.65473
2.65459
2.65426
2.65343
2.65268
2.65243
2.65301
2.655
2.65617
2.65623
2.65588
2.65449
2.6537
2.6542
2.65776
2.66764
2.6779
2.68585
2.69322
2.69687
2.69923
2.70107
2.70347
2.70706
2.71119
2.71561
2.71656
2.71849
2.71925
2.72086
2.7249
2.72693
2.72671
2.72243
2.71035
2.70532
2.70815
2.71193
2.70677
2.70577
2.70924
1.30612
2.61428
2.71216
2.68133
2.67193
2.65344
2.64848
2.65058
2.65119
2.65195
2.65179
2.65143
2.65061
2.65018
2.65025
2.65148
2.65416
2.65551
2.65561
2.65528
2.65382
2.6524
2.65257
2.65489
2.663
2.67321
2.6812
2.68845
2.69261
2.69487
2.69643
2.69788
2.70114
2.70496
2.7094
2.71047
2.71225
2.71255
2.71292
2.7156
2.71717
2.71679
2.71298
2.701
2.68926
2.6855
2.68485
2.67862
2.67339
2.66971
1.3059
2.61251
2.7103
2.68194
2.67139
2.65215
2.64679
2.64881
2.64927
2.65007
2.64994
2.64964
2.64883
2.64838
2.64849
2.64979
2.65264
2.65419
2.65436
2.65408
2.65271
2.65076
2.65062
2.65203
2.65841
2.66814
2.67604
2.68262
2.68721
2.68886
2.68993
2.69099
2.6936
2.69727
2.70164
2.70324
2.705
2.70562
2.70535
2.70557
2.70554
2.70472
2.70132
2.68906
2.67179
2.66527
2.65801
2.64169
2.61611
2.55619
1.30562
2.61017
2.70798
2.68313
2.67061
2.65084
2.64494
2.64683
2.64714
2.64802
2.64799
2.64785
2.64716
2.6465
2.64643
2.6473
2.64987
2.65168
2.65197
2.65177
2.6507
2.64836
2.6475
2.64811
2.65204
2.66108
2.66942
2.67582
2.68121
2.68255
2.68323
2.68366
2.68462
2.68732
2.6911
2.69373
2.69393
2.69436
2.69378
2.69201
2.68969
2.68637
2.68152
2.671
2.64666
2.62293
2.60792
2.5777
2.52119
2.4017
1.30534
2.60763
2.70526
2.6848
2.66926
2.64868
2.64226
2.64416
2.64446
2.64536
2.64567
2.64577
2.6454
2.64475
2.64445
2.64472
2.64637
2.64823
2.64862
2.64847
2.64772
2.64558
2.64396
2.64404
2.64612
2.65286
2.66028
2.6661
2.67072
2.67297
2.67249
2.6722
2.67214
2.67317
2.67579
2.67913
2.68004
2.67992
2.67867
2.67613
2.67157
2.66664
2.66022
2.65085
2.63144
2.59579
2.5566
2.51292
2.43977
2.34895
1.30517
2.60585
2.70322
2.68605
2.66818
2.64654
2.63935
2.64086
2.64129
2.64232
2.64275
2.64362
2.6435
2.64314
2.64259
2.64231
2.6427
2.64433
2.64526
2.64525
2.64485
2.6433
2.64096
2.64037
2.64119
2.64557
2.65315
2.65933
2.6635
2.66599
2.66512
2.6631
2.66255
2.66254
2.66398
2.66637
2.66933
2.66886
2.66654
2.66083
2.65548
2.6456
2.63473
2.62202
2.60399
2.57904
2.53231
2.48287
2.40952
2.33658
1.30505
2.60433
2.70133
2.68586
2.6661
2.6435
2.63582
2.63751
2.63805
2.63937
2.6397
2.64076
2.64074
2.64055
2.64
2.63917
2.6386
2.63863
2.63917
2.63931
2.63915
2.63848
2.63661
2.63508
2.63514
2.63684
2.64212
2.64834
2.6533
2.65601
2.65655
2.65401
2.65033
2.64897
2.64759
2.64791
2.64926
2.64986
2.64829
2.64421
2.63937
2.63073
2.61721
2.60192
2.57826
2.55348
2.51856
2.47086
2.41255
2.34614
1.30537
2.60667
2.70575
2.68211
2.66469
2.64043
2.63267
2.63533
2.6361
2.63779
2.63813
2.63888
2.6394
2.63938
2.63917
2.63858
2.63766
2.6372
2.63703
2.63681
2.63646
2.6357
2.63395
2.63245
2.63235
2.63339
2.63649
2.64002
2.64326
2.6455
2.64562
2.64331
2.63877
2.63644
2.63507
2.63464
2.63523
2.63479
2.63282
2.62926
2.62183
2.61562
2.60319
2.58795
2.56855
2.5397
2.51012
2.46876
2.42274
2.36973
1.30186
2.58854
2.69991
2.67459
2.65851
2.63429
2.62739
2.63012
2.6314
2.63326
2.6333
2.63323
2.63316
2.63328
2.63385
2.63397
2.63378
2.63333
2.63245
2.63115
2.62949
2.62751
2.62557
2.6246
2.62484
2.62726
2.63265
2.63686
2.63959
2.64116
2.64075
2.63727
2.63057
2.62415
2.62104
2.61967
2.61925
2.61827
2.61626
2.61301
2.60712
2.59779
2.58887
2.57227
2.55671
2.53266
2.50539
2.47194
2.431
2.39119
1.71959
2.46997
2.72912
2.70747
2.68416
2.67321
2.67355
2.67473
2.675
2.67406
2.67153
2.66825
2.66534
2.66293
2.66044
2.65744
2.65404
2.64992
2.64537
2.64074
2.63664
2.63264
2.6288
2.62629
2.62589
2.62769
2.63267
2.63678
2.63924
2.64036
2.63937
2.63432
2.6242
2.61541
2.6081
2.6026
2.59943
2.59759
2.59569
2.59268
2.58896
2.58078
2.57367
2.55937
2.54323
2.52422
2.49889
2.47256
2.43999
2.40614
1.73242
2.46083
2.72245
2.70058
2.67654
2.66785
2.67184
2.67363
2.675
2.67492
2.67437
2.67362
2.6726
2.67134
2.6695
2.66546
2.65806
2.65069
2.64504
2.64027
2.63497
2.63038
2.62748
2.62616
2.62627
2.62879
2.63489
2.6389
2.64046
2.64057
2.63881
2.63141
2.6194
2.60845
2.59836
2.59167
2.58564
2.581
2.57708
2.57355
2.5707
2.56481
2.55872
2.55002
2.53629
2.51964
2.49922
2.47464
2.44788
2.41921
1.72988
2.46523
2.72351
2.70002
2.67295
2.66348
2.66834
2.67086
2.67234
2.67212
2.67206
2.67251
2.67238
2.67196
2.67091
2.66793
2.66057
2.6522
2.6453
2.64038
2.63709
2.6322
2.6247
2.6187
2.61716
2.61776
2.6216
2.62882
2.63306
2.63447
2.63361
2.62788
2.61669
2.60467
2.59587
2.58677
2.58077
2.57416
2.56894
2.56235
2.55628
2.55021
2.54358
2.53495
2.52652
2.51446
2.49889
2.47948
2.45784
2.43496
1.73394
2.45702
2.7183
2.69353
2.66964
2.65993
2.66445
2.66684
2.66838
2.668
2.66777
2.66854
2.66947
2.66939
2.6688
2.66652
2.66005
2.65196
2.64551
2.64114
2.63854
2.63554
2.62851
2.61743
2.60691
2.60043
2.59904
2.60022
2.60471
2.61009
2.61257
2.61239
2.60995
2.60267
2.59583
2.58783
2.58121
2.57396
2.56799
2.55927
2.55241
2.54258
2.53366
2.52354
2.51329
2.50223
2.49252
2.47836
2.46122
2.44403
1.74454
2.43756
2.70572
2.67993
2.66529
2.65606
2.65842
2.66087
2.66186
2.66131
2.66113
2.66212
2.66374
2.66392
2.66353
2.66141
2.65461
2.64663
2.64098
2.63761
2.63577
2.63386
2.62962
2.61905
2.60619
2.59644
2.59126
2.59006
2.59125
2.59499
2.59765
2.59855
2.5985
2.59748
2.59386
2.58784
2.58096
2.57377
2.56647
2.55854
2.54974
2.54006
2.52911
2.51765
2.50537
2.49285
2.47982
2.46787
2.45596
2.44284
1.74044
2.43075
2.70113
2.67197
2.66493
2.65276
2.65187
2.6543
2.65528
2.65488
2.65452
2.65562
2.65669
2.65665
2.6557
2.65084
2.64166
2.63497
2.63157
2.63063
2.63042
2.62998
2.628
2.62007
2.60551
2.5935
2.58633
2.58392
2.58446
2.58818
2.59222
2.59372
2.59393
2.59349
2.59123
2.58597
2.57926
2.57135
2.56297
2.5543
2.54533
2.53486
2.52459
2.51263
2.50031
2.48687
2.47343
2.45907
2.44551
2.43257
1.35512
2.45681
2.67785
2.66814
2.64617
2.62571
2.61791
2.62234
2.62456
2.62598
2.6258
2.62618
2.62642
2.62613
2.62523
2.62284
2.61657
2.60898
2.60424
2.60256
2.60234
2.60224
2.6018
2.598
2.58607
2.57191
2.56215
2.55787
2.55747
2.55954
2.56625
2.5748
2.58063
2.58294
2.58294
2.58134
2.57689
2.56935
2.56091
2.55206
2.54276
2.53269
2.52238
2.51105
2.49905
2.48632
2.47303
2.45901
2.44455
2.43117
1.3571
2.45965
2.68451
2.6776
2.65464
2.62804
2.61804
2.619
2.62137
2.62285
2.62274
2.62293
2.62431
2.6248
2.62459
2.62372
2.62151
2.61687
2.61094
2.60563
2.60197
2.59955
2.5977
2.59369
2.5843
2.57165
2.56081
2.55364
2.55055
2.55051
2.55271
2.55725
2.56071
2.56448
2.56859
2.57059
2.57024
2.56742
2.56059
2.55243
2.54336
2.53365
2.52371
2.51276
2.50091
2.48825
2.47513
2.46133
2.44712
2.43366
1.34785
2.3965
2.65982
2.67001
2.65158
2.62681
2.6163
2.6151
2.61508
2.61531
2.61646
2.61803
2.61979
2.62061
2.62076
2.62053
2.61974
2.61778
2.61457
2.61065
2.60659
2.60323
2.60074
2.59754
2.59358
2.58878
2.58369
2.57888
2.57521
2.57313
2.57207
2.57028
2.56905
2.56656
2.5621
2.55796
2.55655
2.55598
2.55372
2.54849
2.5415
2.53308
2.52399
2.51392
2.50362
2.49233
2.48026
2.46689
2.45282
2.43901
1.73863
2.36227
2.66802
2.66547
2.63731
2.61442
2.61363
2.61835
2.62099
2.62001
2.61443
2.60969
2.60844
2.60846
2.6088
2.60882
2.60885
2.60867
2.60786
2.60603
2.60325
2.60073
2.59816
2.59551
2.59298
2.59162
2.59181
2.59326
2.59412
2.59405
2.59352
2.59184
2.58715
2.57754
2.56597
2.55544
2.54585
2.53785
2.53267
2.52811
2.52444
2.51975
2.51463
2.50791
2.50023
2.49084
2.48068
2.47001
2.45803
2.44639
1.34304
2.37087
2.64643
2.66503
2.64731
2.62271
2.61376
2.61445
2.61611
2.61564
2.61184
2.60602
2.60092
2.59787
2.59665
2.59433
2.59117
2.58752
2.58484
2.58292
2.58147
2.58018
2.57868
2.57762
2.57724
2.57739
2.57814
2.58026
2.58376
2.586
2.58644
2.58595
2.58359
2.57698
2.56603
2.55501
2.54435
2.53479
2.52692
2.52015
2.51432
2.50895
2.50346
2.4982
2.49188
2.48574
2.47841
2.47003
2.46077
2.45138
1.34387
2.37792
2.6527
2.67132
2.6503
2.62196
2.61298
2.61341
2.61567
2.6166
2.61614
2.61457
2.61277
2.61047
2.60805
2.60353
2.59758
2.59148
2.58574
2.58132
2.57834
2.57602
2.57296
2.56883
2.56423
2.56004
2.55691
2.55564
2.55576
2.55671
2.55916
2.56139
2.56189
2.56127
2.55854
2.5525
2.54526
2.53767
2.53047
2.52351
2.51693
2.51074
2.50444
2.49868
2.49226
2.48603
2.47892
2.4717
2.46418
2.45682
1.34435
2.37636
2.65018
2.6681
2.64589
2.61461
2.60757
2.60901
2.61207
2.61321
2.61292
2.61205
2.61072
2.6095
2.60762
2.60511
2.6011
2.59753
2.59357
2.5894
2.58599
2.58345
2.58032
2.57523
2.56874
2.56228
2.55714
2.55346
2.55148
2.55098
2.55129
2.55192
2.55201
2.5519
2.55144
2.54961
2.54539
2.54011
2.53471
2.52904
2.52308
2.517
2.51046
2.50404
2.49732
2.49063
2.48385
2.47701
2.46992
2.4629
1.34069
2.34014
2.62295
2.65767
2.63799
2.60901
2.59886
2.59911
2.60006
2.60036
2.6004
2.60037
2.60055
2.60096
2.60078
2.59976
2.59758
2.59531
2.59349
2.59231
2.59125
2.58995
2.58854
2.58593
2.58141
2.57544
2.56944
2.56454
2.56098
2.55876
2.55752
2.5567
2.55528
2.55235
2.54776
2.54294
2.53814
2.53311
2.52794
2.52309
2.51817
2.5133
2.5082
2.50278
2.49696
2.49085
2.48472
2.47827
2.47151
2.46503
1.89498
2.23162
2.59283
2.62481
2.61181
2.57342
2.55633
2.55681
2.56292
2.56776
2.56814
2.56582
2.5639
2.56404
2.56497
2.56625
2.56744
2.56858
2.57018
2.5739
2.57753
2.58116
2.58327
2.58316
2.58187
2.57893
2.57602
2.57379
2.57166
2.56956
2.56784
2.56596
2.56234
2.55632
2.54923
2.54166
2.53404
2.52706
2.52057
2.51471
2.50944
2.50447
2.50007
2.49568
2.49114
2.48631
2.48119
2.4756
2.46974
2.46404
1.34147
2.34536
2.62827
2.65413
2.63368
2.60329
2.58097
2.57987
2.58028
2.58131
2.58068
2.57855
2.57216
2.563
2.55791
2.55417
2.55035
2.54751
2.54187
2.53625
2.53471
2.53501
2.53591
2.53747
2.54006
2.54336
2.54655
2.54944
2.55282
2.55671
2.55942
2.55995
2.55932
2.55681
2.55175
2.54567
2.53917
2.53263
2.52628
2.52019
2.51451
2.50911
2.5039
2.4989
2.4939
2.48869
2.48329
2.47741
2.47142
2.4655
1.34617
2.37945
2.63738
2.63385
2.61232
2.57682
2.56691
2.5679
2.57262
2.57864
2.58447
2.58814
2.58851
2.58712
2.58424
2.58161
2.57624
2.56971
2.56112
2.5518
2.54532
2.54019
2.53637
2.5352
2.53504
2.53539
2.53687
2.53924
2.54171
2.54457
2.54706
2.54863
2.54965
2.5497
2.54881
2.54592
2.5417
2.53745
2.53265
2.52795
2.52277
2.51754
2.51209
2.50642
2.50079
2.49493
2.48889
2.48264
2.47612
2.46984
1.62498
2.42812
2.61248
2.57358
2.53473
2.52333
2.52788
2.54178
2.54896
2.55146
2.55346
2.55867
2.56608
2.57237
2.57738
2.57884
2.5783
2.5766
2.5724
2.56699
2.5617
2.55598
2.55083
2.54692
2.54406
2.54238
2.54179
2.54191
2.54274
2.54381
2.54411
2.54402
2.5436
2.54219
2.54069
2.53867
2.53554
2.5321
2.528
2.52384
2.51919
2.5144
2.50942
2.50402
2.49864
2.49288
2.48698
2.48104
2.47472
2.46883
1.71122
2.41463
2.58623
2.54363
2.53441
2.53494
2.53601
2.53119
2.51081
2.49408
2.48364
2.4817
2.48433
2.49429
2.50679
2.51684
2.52522
2.53131
2.53514
2.53819
2.53993
2.54022
2.53998
2.5392
2.53791
2.53681
2.53635
2.53662
2.53809
2.54046
2.54216
2.54267
2.54259
2.54193
2.54037
2.53794
2.53453
2.53113
2.52668
2.52253
2.51775
2.51279
2.50799
2.50259
2.49735
2.49196
2.48623
2.48071
2.47476
2.46921
1.79401
2.4556
2.57015
2.53358
2.5398
2.54448
2.54236
2.51997
2.4839
2.46522
2.45951
2.46022
2.4675
2.48251
2.49679
2.50929
2.51974
2.52778
2.5334
2.53705
2.53947
2.54076
2.54105
2.54095
2.54084
2.54103
2.54187
2.54365
2.54618
2.54903
2.55124
2.55216
2.55221
2.55192
2.55101
2.54918
2.54568
2.54217
2.5376
2.53269
2.52788
2.52225
2.51699
2.51123
2.50515
2.49942
2.49307
2.48688
2.48077
2.47466
1.27703
2.44699
2.62613
2.634
2.61802
2.59127
2.57726
2.56745
2.54375
2.52632
2.51699
2.5139
2.51507
2.52156
2.52872
2.53466
2.53964
2.5431
2.54555
2.54697
2.54793
2.54848
2.54846
2.54815
2.54811
2.54823
2.54873
2.54994
2.55171
2.55348
2.55465
2.55496
2.55487
2.55445
2.55311
2.55122
2.54759
2.54348
2.53932
2.53375
2.52897
2.52338
2.51755
2.51207
2.50568
2.49983
2.49346
2.48725
2.48113
2.47503
1.62815
2.38727
2.60884
2.5739
2.54215
2.53385
2.53646
2.53965
2.53773
2.53618
2.53652
2.54071
2.55069
2.5609
2.56865
2.57337
2.57539
2.57551
2.57411
2.56991
2.56512
2.56106
2.55768
2.55509
2.55358
2.55277
2.55236
2.55222
2.55216
2.55191
2.55132
2.55004
2.54817
2.54652
2.54387
2.54116
2.53789
2.53374
2.53023
2.5255
2.52105
2.51651
2.51117
2.50627
2.5005
2.4947
2.48882
2.48259
2.47673
2.47071
1.71821
2.39004
2.5175
2.49522
2.48593
2.4825
2.48645
2.49783
2.51539
2.53525
2.5549
2.57128
2.58262
2.58916
2.5918
2.59205
2.591
2.58772
2.58335
2.57907
2.57531
2.57214
2.56946
2.56715
2.56558
2.56396
2.56274
2.56113
2.55975
2.55795
2.55575
2.55337
2.55034
2.54751
2.54444
2.54093
2.53786
2.53374
2.53019
2.52608
2.52168
2.51754
2.51272
2.508
2.50302
2.49757
2.49222
2.48643
2.48076
2.47516
1.26479
2.38012
2.59541
2.59968
2.58381
2.55788
2.54283
2.54358
2.54564
2.55078
2.55887
2.56529
2.56875
2.57092
2.572
2.57224
2.57197
2.57095
2.56932
2.56785
2.56652
2.56531
2.56397
2.56288
2.56205
2.56101
2.56017
2.55893
2.55775
2.55625
2.55425
2.55223
2.54953
2.54678
2.54396
2.54038
2.53743
2.53337
2.52974
2.52576
2.52117
2.5171
2.51233
2.50768
2.50294
2.49767
2.49259
2.48711
2.48158
2.47628
1.8464
2.19987
2.45582
2.56473
2.55193
2.54135
2.54524
2.55947
2.57308
2.58301
2.58415
2.5826
2.57822
2.57354
2.57059
2.56891
2.56786
2.56681
2.56546
2.56407
2.56274
2.5614
2.56003
2.55878
2.55775
2.55656
2.5556
2.55409
2.55268
2.55059
2.54855
2.54604
2.54367
2.54087
2.53837
2.53519
2.53232
2.52877
2.52505
2.52114
2.51665
2.51235
2.50779
2.5032
2.49864
2.49395
2.48915
2.48428
2.47909
2.47425
1.67325
2.09109
2.46036
2.59504
2.57837
2.57951
2.58053
2.58211
2.58285
2.58292
2.58172
2.57926
2.57667
2.57492
2.57357
2.5727
2.572
2.57107
2.56995
2.56871
2.56721
2.56555
2.56401
2.56247
2.56113
2.55953
2.55825
2.5563
2.55463
2.55221
2.54991
2.54724
2.54453
2.54163
2.53881
2.53548
2.53235
2.52869
2.52484
2.52094
2.51651
2.51227
2.50778
2.50326
2.49885
2.49421
2.48968
2.48493
2.48004
2.47544
1.53786
1.9935
2.45936
2.66301
2.64558
2.62252
2.59818
2.58322
2.57998
2.57664
2.57575
2.57537
2.57468
2.57442
2.57389
2.57323
2.57231
2.57123
2.57016
2.56896
2.56757
2.56617
2.56488
2.56349
2.56221
2.5606
2.5591
2.55709
2.55514
2.55294
2.5506
2.54828
2.54579
2.54297
2.54037
2.53679
2.53376
2.5298
2.52601
2.52207
2.51772
2.51362
2.50918
2.50476
2.50033
2.4958
2.49117
2.48656
2.48178
2.47721
1.46096
1.93187
2.45886
2.69335
2.66452
2.63127
2.59987
2.58306
2.58038
2.57743
2.57639
2.57591
2.57513
2.57441
2.57348
2.57253
2.57157
2.57061
2.56964
2.56861
2.56756
2.56637
2.56514
2.56372
2.56228
2.56062
2.55887
2.55694
2.55476
2.55268
2.55026
2.54796
2.54548
2.54255
2.53988
2.53596
2.53274
2.52834
2.52436
2.5201
2.51563
2.51152
2.50707
2.50274
2.49835
2.4938
2.48915
2.48455
2.47987
2.47545
1.25265
2.10387
2.52126
2.64164
2.61433
2.58059
2.56135
2.55833
2.55929
2.56049
2.56191
2.562
2.56223
2.5623
2.56238
2.56235
2.56219
2.5618
2.56129
2.56067
2.55992
2.55893
2.55777
2.55642
2.55504
2.55365
2.55225
2.55082
2.54915
2.54732
2.5451
2.54261
2.5398
2.53647
2.53312
2.52889
2.52518
2.52025
2.51624
2.51127
2.50691
2.50255
2.49815
2.49412
2.49
2.48601
2.482
2.47816
2.47415
2.47036
1.24426
2.07617
2.45715
2.61901
2.59994
2.57777
2.56716
2.56836
2.57203
2.57514
2.57582
2.5756
2.57476
2.5736
2.57267
2.572
2.57133
2.57054
2.56971
2.56886
2.56792
2.56692
2.56594
2.56491
2.56385
2.56258
2.5611
2.55926
2.55722
2.55466
2.55201
2.54846
2.54501
2.54021
2.53604
2.53034
2.52556
2.51961
2.51443
2.50874
2.50306
2.49759
2.4918
2.48646
2.481
2.47597
2.47102
2.46637
2.4622
2.45822
1.2445
2.06551
2.47395
2.6203
2.59921
2.57363
2.55806
2.55789
2.55937
2.56176
2.56463
2.5668
2.56809
2.56836
2.56832
2.56805
2.56744
2.56678
2.56608
2.56536
2.56458
2.56355
2.56218
2.5605
2.55864
2.55668
2.55485
2.5529
2.55121
2.54893
2.54689
2.54357
2.54075
2.53626
2.53243
2.52712
2.5224
2.51678
2.51119
2.50549
2.49962
2.49409
2.48868
2.48375
2.47892
2.47482
2.47075
2.46698
2.46344
2.45996
1.36581
1.85824
2.56675
2.68099
2.63709
2.60902
2.58198
2.57402
2.57408
2.57464
2.57458
2.57418
2.57301
2.57222
2.57125
2.57036
2.56947
2.56853
2.5675
2.56636
2.56509
2.56366
2.56206
2.56026
2.55822
2.55588
2.55334
2.55066
2.54814
2.54572
2.54373
2.54161
2.53963
2.53691
2.53391
2.52995
2.52568
2.52068
2.51562
2.51032
2.50518
2.50027
2.49561
2.49084
2.48662
2.48174
2.47753
2.47292
2.46831
2.46436
1.33862
1.82765
2.63153
2.69251
2.63125
2.61881
2.59272
2.58118
2.57855
2.57842
2.57827
2.57779
2.57661
2.57584
2.57476
2.57377
2.57282
2.57181
2.57065
2.56928
2.56772
2.56601
2.56423
2.56247
2.5607
2.55885
2.5568
2.55454
2.55213
2.54971
2.54744
2.54526
2.54328
2.54113
2.53894
2.53632
2.53343
2.53028
2.52671
2.5232
2.51926
2.51495
2.5107
2.50538
2.50061
2.49502
2.48975
2.48439
2.47931
2.47466
1.32069
1.83603
2.62377
2.68989
2.6262
2.61972
2.59143
2.57829
2.57513
2.57517
2.57501
2.57466
2.57374
2.57311
2.57209
2.57106
2.57005
2.56902
2.56791
2.56663
2.56513
2.56342
2.56158
2.55974
2.55792
2.55618
2.55431
2.55246
2.55028
2.54806
2.54568
2.54313
2.5408
2.53809
2.53582
2.53321
2.53066
2.5282
2.52511
2.52219
2.51847
2.51424
2.50985
2.50447
2.49932
2.49381
2.48838
2.48326
2.47835
2.47411
2.20471
2.37009
2.80502
2.9032
2.98397
2.90794
2.90027
2.89912
2.89299
2.89445
2.89437
2.89243
2.89002
2.88939
2.88819
2.88652
2.88355
2.87886
2.87314
2.86735
2.8617
2.8563
2.85061
2.84495
2.83818
2.8313
2.82398
2.81601
2.80774
2.79908
2.79025
2.78149
2.77286
2.76344
2.75366
2.74449
2.73674
2.72899
2.72101
2.71297
2.7053
2.6977
2.6904
2.68358
2.67716
2.67109
2.6654
2.66012
2.65519
2.65064
2.64649
2.64281
2.63922
2.63637
2.63333
2.63099
2.62844
2.62632
2.62435
2.62222
2.62072
2.61873
2.61745
2.61586
2.61479
2.61369
2.61286
2.61242
2.61219
2.61234
2.6127
2.61335
2.61393
2.6144
2.61548
2.61683
2.61811
2.61927
2.62025
2.62108
2.62205
2.62258
2.62257
2.6224
2.62178
2.62127
2.61983
2.61877
2.61642
2.61415
2.61179
2.6087
2.60639
2.60222
2.59973
2.59541
2.59291
2.58892
2.58662
2.58021
2.2114
2.2888
2.48204
2.65875
2.72911
2.78618
2.82726
2.86493
2.88478
2.89276
2.91238
2.92644
2.93674
2.95353
2.96539
2.9678
2.96673
2.96096
2.94108
2.91171
2.88576
2.86404
2.84618
2.83029
2.81505
2.79933
2.78293
2.76499
2.74645
2.72747
2.70824
2.68912
2.66968
2.65085
2.63244
2.61477
2.5972
2.57993
2.56238
2.54536
2.52951
2.5147
2.50071
2.48746
2.47491
2.46297
2.4516
2.44064
2.43024
2.42011
2.41059
2.40142
2.39301
2.38525
2.3783
2.37232
2.36724
2.36295
2.35981
2.35751
2.35584
2.35547
2.35567
2.35634
2.3578
2.35982
2.36229
2.36502
2.36795
2.37062
2.37378
2.37601
2.37854
2.37988
2.38163
2.38344
2.38509
2.38595
2.38666
2.38729
2.38754
2.38817
2.38838
2.38883
2.38917
2.38931
2.38938
2.38962
2.38979
2.38969
2.38938
2.38898
2.38843
2.38768
2.38691
2.38638
2.3854
2.38529
2.38504
2.38439
2.25328
2.23777
2.29738
2.38212
2.44505
2.49388
2.52853
2.56123
2.59104
2.61219
2.63066
2.64498
2.65267
2.65276
2.65124
2.64717
2.64202
2.63853
2.63664
2.63634
2.63692
2.63856
2.63895
2.63864
2.63744
2.63536
2.63226
2.62806
2.62253
2.61592
2.60795
2.60022
2.5915
2.58355
2.57418
2.56339
2.5508
2.53684
2.52098
2.50343
2.48611
2.4701
2.45547
2.44199
2.42934
2.41728
2.40586
2.39452
2.38366
2.37251
2.36175
2.3506
2.33979
2.32873
2.31802
2.3075
2.29737
2.28794
2.27894
2.27101
2.26378
2.25742
2.25246
2.24814
2.24524
2.24318
2.24213
2.24215
2.24247
2.24357
2.24463
2.24688
2.24834
2.25115
2.25357
2.25713
2.26105
2.26485
2.26833
2.27149
2.27423
2.27599
2.27655
2.27653
2.2761
2.27508
2.27323
2.27123
2.26982
2.26736
2.26598
2.26358
2.26236
2.26016
2.25911
2.25695
2.25585
2.25358
2.25256
2.2479
2.27708
2.24263
2.23663
2.26121
2.29476
2.32096
2.33599
2.34967
2.36084
2.37387
2.38435
2.39224
2.40037
2.40633
2.40929
2.40988
2.40982
2.40954
2.40912
2.40879
2.4083
2.40755
2.40688
2.40634
2.40595
2.40592
2.40579
2.40502
2.40359
2.40254
2.40072
2.39917
2.39705
2.39482
2.39228
2.38966
2.38726
2.38496
2.38342
2.38164
2.37995
2.37851
2.37688
2.37501
2.37214
2.36852
2.36392
2.35826
2.35156
2.34402
2.33556
2.32663
2.31718
2.30718
2.29715
2.28675
2.27621
2.26581
2.25521
2.24494
2.23482
2.22508
2.21595
2.20711
2.19916
2.19202
2.18543
2.18005
2.1759
2.17255
2.1703
2.16909
2.16882
2.16899
2.16958
2.17106
2.17312
2.17522
2.17774
2.18016
2.18253
2.18486
2.18696
2.1888
2.19036
2.19164
2.19296
2.19408
2.19527
2.19657
2.19789
2.19908
2.20025
2.20152
2.20305
2.20459
2.20642
2.20748
2.20962
2.20934
2.2928
2.2593
2.23654
2.23176
2.24051
2.24481
2.25
2.25069
2.2525
2.25445
2.25931
2.2643
2.26783
2.27151
2.27531
2.27813
2.27972
2.28102
2.28252
2.2844
2.28637
2.28928
2.29189
2.29438
2.29767
2.29943
2.30168
2.30298
2.30423
2.30618
2.30711
2.308
2.30871
2.30909
2.30938
2.30982
2.30993
2.30976
2.30913
2.3079
2.3056
2.30264
2.29896
2.29523
2.29094
2.28622
2.28097
2.27528
2.26943
2.26349
2.25735
2.25123
2.24508
2.23888
2.23276
2.22661
2.22037
2.21413
2.20779
2.20119
2.19451
2.18765
2.18055
2.17333
2.16625
2.15917
2.15202
2.14531
2.13944
2.13398
2.12907
2.12496
2.12222
2.1212
2.12122
2.12157
2.12268
2.12507
2.12831
2.13162
2.13491
2.13832
2.1415
2.14443
2.14715
2.14966
2.15197
2.15394
2.1558
2.15763
2.15886
2.15924
2.15928
2.15913
2.15886
2.15813
2.1575
2.15654
2.15607
2.15378
2.32478
2.27699
2.24723
2.22839
2.21829
2.21418
2.2089
2.20513
2.20177
2.19902
2.19925
2.20062
2.20205
2.20306
2.20597
2.2086
2.21075
2.2129
2.21506
2.21698
2.21939
2.22131
2.22399
2.22634
2.22902
2.23097
2.23348
2.23507
2.23725
2.23865
2.23964
2.2417
2.24223
2.24258
2.24264
2.24301
2.24326
2.2434
2.24357
2.24333
2.24276
2.24165
2.24045
2.23916
2.23773
2.23603
2.23398
2.23155
2.22877
2.22558
2.22197
2.218
2.21378
2.20935
2.20481
2.20022
2.19562
2.19094
2.18624
2.18151
2.17667
2.17162
2.16637
2.16094
2.1553
2.14934
2.14325
2.13742
2.13125
2.12538
2.11949
2.11364
2.10832
2.10331
2.0986
2.09466
2.09195
2.0905
2.08985
2.08972
2.08993
2.09068
2.09236
2.09487
2.09781
2.10103
2.10447
2.10784
2.11127
2.11461
2.11752
2.11982
2.12174
2.12339
2.1246
2.12558
2.12604
2.12703
2.12759
2.12744
2.35229
2.30906
2.26986
2.24123
2.22047
2.20624
2.19478
2.18569
2.17705
2.1716
2.16728
2.16506
2.16533
2.16664
2.16735
2.16814
2.17068
2.17292
2.17474
2.17726
2.17968
2.1822
2.18459
2.18766
2.18976
2.19281
2.19451
2.19717
2.19807
2.1999
2.20103
2.20163
2.20324
2.20336
2.20365
2.20379
2.20398
2.20407
2.2039
2.20342
2.20255
2.2014
2.20021
2.19911
2.19811
2.19711
2.19599
2.19463
2.19294
2.19081
2.18815
2.18486
2.181
2.17664
2.17194
2.16709
2.16231
2.15781
2.15371
2.15014
2.14712
2.14457
2.14233
2.14018
2.1377
2.13552
2.13225
2.1291
2.1254
2.12148
2.11719
2.11235
2.1072
2.10229
2.09779
2.09352
2.08929
2.08523
2.08176
2.07917
2.07721
2.07608
2.07553
2.07477
2.07474
2.07514
2.07653