/*--------------------------------*- C++ -*----------------------------------*\
| =========                 |                                                 |
| \\      /  F ield         | OpenFOAM: The Open Source CFD Toolbox           |
|  \\    /   O peration     | Version:  2412                                  |
|   \\  /    A nd           | Website:  www.openfoam.com                      |
|    \\/     M anipulation  |                                                 |
\*---------------------------------------------------------------------------*/
FoamFile
{
    version     2.0;
    format      ascii;
    arch        "LSB;label=32;scalar=64";
    class       volVectorField;
    location    "10.5";
    object      U;
}
// * * * * * * * * * * * * * * * * * * * * * * * * * * * * * * * * * * * * * //

dimensions      [0 1 -1 0 0 0 0];

internalField   nonuniform List<vector> 
7000
(
(2.57948 -7.11996e-05 0)
(1.58205 0.000130246 0)
(0.476125 0.000122942 0)
(0.558021 0.000365988 0)
(0.66247 0.00053659 0)
(0.727046 0.000653956 0)
(0.739143 0.000750179 0)
(0.732514 0.000846551 0)
(0.724221 0.00094383 0)
(0.719014 0.00104463 0)
(0.716333 0.00114748 0)
(0.714515 0.00125176 0)
(0.713023 0.00135773 0)
(0.711071 0.00146993 0)
(0.708609 0.00159369 0)
(0.705846 0.00173229 0)
(0.702816 0.00188601 0)
(0.699406 0.00205341 0)
(0.695457 0.00223168 0)
(0.690823 0.00241729 0)
(0.685304 0.00260614 0)
(0.678701 0.00279565 0)
(0.670799 0.00298179 0)
(0.661311 0.00316697 0)
(0.649488 0.00335451 0)
(0.634237 0.00355305 0)
(0.615301 0.00377275 0)
(0.593178 0.00401981 0)
(0.568943 0.00429789 0)
(0.544173 0.00460611 0)
(0.52018 0.0049413 0)
(0.497751 0.00529601 0)
(0.476919 0.00566278 0)
(0.457156 0.00603699 0)
(0.437673 0.00640244 0)
(0.417631 0.00674822 0)
(0.396434 0.0070589 0)
(0.37356 0.00736542 0)
(0.348848 0.00762737 0)
(0.322547 0.00788327 0)
(0.294812 0.0081722 0)
(0.266247 0.00849322 0)
(0.237264 0.00889544 0)
(0.207843 0.00938915 0)
(0.177396 0.00998955 0)
(0.145843 0.0106936 0)
(0.114093 0.0114872 0)
(0.0835297 0.0121952 0)
(0.0495301 0.0127642 0)
(0.0191462 0.0130689 0)
(2.57957 -5.55803e-05 0)
(1.58213 0.000233757 0)
(0.47584 0.000541341 0)
(0.557871 0.00118462 0)
(0.662323 0.00164197 0)
(0.726892 0.0019738 0)
(0.738989 0.00227138 0)
(0.732364 0.00257348 0)
(0.724076 0.00287413 0)
(0.718875 0.00317751 0)
(0.716198 0.00348116 0)
(0.714377 0.00378541 0)
(0.71288 0.00409296 0)
(0.710922 0.00441802 0)
(0.708456 0.00477622 0)
(0.705689 0.0051764 0)
(0.702657 0.0056188 0)
(0.699247 0.00609866 0)
(0.695303 0.00660714 0)
(0.690679 0.00713388 0)
(0.685177 0.00766691 0)
(0.678598 0.00819849 0)
(0.670731 0.00871797 0)
(0.661293 0.00923314 0)
(0.649541 0.00975239 0)
(0.634386 0.0103003 0)
(0.615575 0.0109038 0)
(0.593612 0.0115774 0)
(0.569578 0.0123275 0)
(0.545062 0.0131477 0)
(0.521389 0.0140249 0)
(0.499361 0.0149394 0)
(0.479011 0.0158734 0)
(0.459795 0.0168174 0)
(0.440896 0.0177435 0)
(0.421426 0.0186327 0)
(0.400735 0.0194653 0)
(0.378192 0.0202823 0)
(0.353549 0.0210128 0)
(0.32704 0.0217077 0)
(0.298792 0.0224229 0)
(0.269464 0.0231605 0)
(0.23958 0.0240002 0)
(0.209219 0.0249722 0)
(0.177904 0.0260887 0)
(0.145655 0.0273163 0)
(0.113436 0.0285756 0)
(0.0827377 0.0295347 0)
(0.0489527 0.0301509 0)
(0.0189339 0.0301959 0)
(2.57965 1.98308e-05 0)
(1.5823 0.000264002 0)
(0.476007 0.00111993 0)
(0.55803 0.00205141 0)
(0.662405 0.00276184 0)
(0.726944 0.00329729 0)
(0.739056 0.00380567 0)
(0.732453 0.0043273 0)
(0.724186 0.00485011 0)
(0.719004 0.00537548 0)
(0.716338 0.00589851 0)
(0.714519 0.00642146 0)
(0.713017 0.00695067 0)
(0.711054 0.0075081 0)
(0.708583 0.00812086 0)
(0.705812 0.00880438 0)
(0.702775 0.00955969 0)
(0.699366 0.0103792 0)
(0.695425 0.0112478 0)
(0.690812 0.0121475 0)
(0.685327 0.0130568 0)
(0.67877 0.0139599 0)
(0.670933 0.0148436 0)
(0.661538 0.0157187 0)
(0.649848 0.0165958 0)
(0.634778 0.0175164 0)
(0.616071 0.0185259 0)
(0.594222 0.0196463 0)
(0.570312 0.0208879 0)
(0.545929 0.0222415 0)
(0.522404 0.0236873 0)
(0.500546 0.0251995 0)
(0.4804 0.0267554 0)
(0.461414 0.0283416 0)
(0.442762 0.0299327 0)
(0.423538 0.0315106 0)
(0.403069 0.0330642 0)
(0.380665 0.0346092 0)
(0.356025 0.0360997 0)
(0.329374 0.0375564 0)
(0.30081 0.0390126 0)
(0.271008 0.0404883 0)
(0.240566 0.0420588 0)
(0.209636 0.0437812 0)
(0.17784 0.0456757 0)
(0.145278 0.0476939 0)
(0.112899 0.0496995 0)
(0.0822222 0.0512832 0)
(0.0486364 0.0523716 0)
(0.0188358 0.0525731 0)
(2.57978 4.5193e-05 0)
(1.58264 0.000394879 0)
(0.476417 0.00181929 0)
(0.558382 0.00297343 0)
(0.662648 0.0038948 0)
(0.727116 0.00463157 0)
(0.73921 0.00536314 0)
(0.732601 0.00611657 0)
(0.724337 0.00687679 0)
(0.719168 0.00763803 0)
(0.716518 0.0083896 0)
(0.714715 0.00913891 0)
(0.713224 0.00989823 0)
(0.711273 0.0106959 0)
(0.708814 0.0115708 0)
(0.706052 0.0125444 0)
(0.703023 0.0136192 0)
(0.699623 0.0147844 0)
(0.695697 0.0160181 0)
(0.691105 0.0172951 0)
(0.685646 0.0185833 0)
(0.679121 0.0198579 0)
(0.671328 0.0211116 0)
(0.66199 0.0223511 0)
(0.650376 0.0235888 0)
(0.635407 0.024886 0)
(0.616815 0.0263093 0)
(0.59508 0.0278856 0)
(0.571269 0.0296292 0)
(0.546963 0.0315278 0)
(0.523495 0.0335543 0)
(0.501678 0.0356748 0)
(0.48157 0.0378603 0)
(0.462626 0.040093 0)
(0.44402 0.0423528 0)
(0.424851 0.0446272 0)
(0.404442 0.0469102 0)
(0.382087 0.0492089 0)
(0.357466 0.0514933 0)
(0.330787 0.0537589 0)
(0.30212 0.056015 0)
(0.27213 0.0582779 0)
(0.241429 0.060613 0)
(0.210202 0.0630755 0)
(0.178132 0.0656992 0)
(0.145383 0.0684186 0)
(0.112869 0.0710643 0)
(0.0821374 0.0732082 0)
(0.0486053 0.0747708 0)
(0.0188521 0.0751876 0)
(2.57997 9.79071e-05 0)
(1.58314 0.000597439 0)
(0.477083 0.00268097 0)
(0.558805 0.00397625 0)
(0.662925 0.00505274 0)
(0.727348 0.00597438 0)
(0.739456 0.00693682 0)
(0.732862 0.00793382 0)
(0.724613 0.00895438 0)
(0.71946 0.0099691 0)
(0.716826 0.0109615 0)
(0.715034 0.0119485 0)
(0.71355 0.0129484 0)
(0.711607 0.0139978 0)
(0.709159 0.0151474 0)
(0.706408 0.0164237 0)
(0.703391 0.0178321 0)
(0.700009 0.019358 0)
(0.69611 0.0209718 0)
(0.691553 0.022641 0)
(0.686137 0.0243222 0)
(0.679667 0.0259805 0)
(0.671945 0.0276192 0)
(0.662693 0.0292322 0)
(0.651191 0.0308378 0)
(0.636377 0.0325196 0)
(0.617959 0.0343664 0)
(0.596395 0.036408 0)
(0.57274 0.0386647 0)
(0.548563 0.0411231 0)
(0.525191 0.0437496 0)
(0.503444 0.0465024 0)
(0.483388 0.0493454 0)
(0.464485 0.052258 0)
(0.445908 0.0552223 0)
(0.426756 0.0582327 0)
(0.406359 0.0612822 0)
(0.384009 0.0643834 0)
(0.359379 0.0675071 0)
(0.332675 0.0706314 0)
(0.30395 0.0737508 0)
(0.273853 0.0768601 0)
(0.24299 0.0800112 0)
(0.211552 0.0832331 0)
(0.179253 0.0865729 0)
(0.146284 0.0899358 0)
(0.113526 0.0931312 0)
(0.0825668 0.0957564 0)
(0.0488764 0.0977577 0)
(0.0189582 0.0984077 0)
(2.58028 9.22173e-05 0)
(1.58398 0.000913937 0)
(0.477889 0.0036206 0)
(0.559122 0.0049687 0)
(0.663081 0.0062252 0)
(0.727483 0.00734769 0)
(0.739641 0.00854709 0)
(0.733102 0.00978405 0)
(0.724907 0.0110793 0)
(0.719796 0.0123591 0)
(0.717199 0.0136018 0)
(0.715438 0.0148365 0)
(0.713973 0.0160908 0)
(0.712045 0.0174069 0)
(0.709613 0.0188427 0)
(0.706877 0.0204347 0)
(0.703878 0.0221898 0)
(0.70052 0.0240883 0)
(0.696657 0.0260935 0)
(0.692149 0.0281656 0)
(0.68679 0.0302499 0)
(0.680396 0.0323025 0)
(0.672766 0.0343368 0)
(0.663617 0.0363298 0)
(0.652254 0.0383113 0)
(0.637627 0.0403878 0)
(0.619415 0.0426699 0)
(0.598047 0.045189 0)
(0.574563 0.0479742 0)
(0.550517 0.0510124 0)
(0.527236 0.0542631 0)
(0.505547 0.0576774 0)
(0.485534 0.0612114 0)
(0.466672 0.0648423 0)
(0.448138 0.0685501 0)
(0.429031 0.0723353 0)
(0.408685 0.0761938 0)
(0.386393 0.0801409 0)
(0.361816 0.0841513 0)
(0.335161 0.0881858 0)
(0.306463 0.0922289 0)
(0.276352 0.0962552 0)
(0.245413 0.100297 0)
(0.213829 0.104346 0)
(0.181325 0.108456 0)
(0.148077 0.112494 0)
(0.114933 0.116243 0)
(0.0835432 0.119341 0)
(0.0494702 0.121779 0)
(0.0191814 0.122679 0)
(2.58076 0.000135384 0)
(1.58525 0.00123984 0)
(0.478865 0.004753 0)
(0.559373 0.00608669 0)
(0.663196 0.00740315 0)
(0.727573 0.00869002 0)
(0.739769 0.0101387 0)
(0.733294 0.0116361 0)
(0.725181 0.0132328 0)
(0.720128 0.0148038 0)
(0.717589 0.0163166 0)
(0.715881 0.0178133 0)
(0.714451 0.0193355 0)
(0.712548 0.0209333 0)
(0.71014 0.0226647 0)
(0.70743 0.0245852 0)
(0.704459 0.0266985 0)
(0.701138 0.0289802 0)
(0.69733 0.0313872 0)
(0.692892 0.0338725 0)
(0.687613 0.0363696 0)
(0.681324 0.0388281 0)
(0.673819 0.0412685 0)
(0.664804 0.0436533 0)
(0.653621 0.0460224 0)
(0.639235 0.0485063 0)
(0.621283 0.0512353 0)
(0.600158 0.0542446 0)
(0.576885 0.057575 0)
(0.552997 0.0612133 0)
(0.52982 0.0651119 0)
(0.508193 0.0692143 0)
(0.488223 0.073468 0)
(0.469403 0.0778477 0)
(0.45092 0.0823308 0)
(0.431879 0.0869215 0)
(0.411614 0.0916246 0)
(0.389422 0.0964535 0)
(0.364947 0.101391 0)
(0.338392 0.106387 0)
(0.309779 0.111414 0)
(0.279716 0.116434 0)
(0.248752 0.121453 0)
(0.217063 0.126424 0)
(0.184365 0.131395 0)
(0.150781 0.136185 0)
(0.117122 0.14055 0)
(0.0851071 0.144164 0)
(0.0504124 0.147075 0)
(0.0195138 0.148254 0)
(2.58138 0.000177264 0)
(1.5869 0.00156186 0)
(0.480256 0.00606259 0)
(0.559574 0.00733473 0)
(0.663179 0.00864519 0)
(0.727561 0.0100807 0)
(0.739814 0.0117712 0)
(0.733431 0.0135185 0)
(0.72544 0.0153994 0)
(0.720475 0.0172615 0)
(0.718021 0.0190564 0)
(0.716393 0.0208324 0)
(0.715021 0.0226457 0)
(0.713152 0.02455 0)
(0.710776 0.0266025 0)
(0.7081 0.0288693 0)
(0.705164 0.031354 0)
(0.70189 0.0340288 0)
(0.698151 0.0368467 0)
(0.693801 0.0397527 0)
(0.688624 0.0426694 0)
(0.682471 0.0455452 0)
(0.675122 0.0484022 0)
(0.666275 0.0511883 0)
(0.655319 0.0539572 0)
(0.641234 0.0568619 0)
(0.623607 0.0600473 0)
(0.602791 0.0635595 0)
(0.579794 0.0674522 0)
(0.55612 0.0717116 0)
(0.533094 0.0762837 0)
(0.511566 0.0811033 0)
(0.491671 0.0861084 0)
(0.472923 0.09127 0)
(0.454521 0.0965628 0)
(0.435576 0.101994 0)
(0.415421 0.107578 0)
(0.393356 0.113327 0)
(0.369013 0.119238 0)
(0.342582 0.125249 0)
(0.31408 0.131326 0)
(0.284081 0.137422 0)
(0.253099 0.143508 0)
(0.221302 0.149518 0)
(0.188391 0.155468 0)
(0.154399 0.161136 0)
(0.120103 0.166216 0)
(0.0872848 0.170416 0)
(0.0517397 0.173844 0)
(0.0199949 0.175341 0)
(2.5822 0.000172736 0)
(1.58896 0.00189426 0)
(0.48199 0.00740311 0)
(0.559931 0.00861037 0)
(0.663431 0.00993045 0)
(0.727941 0.0115333 0)
(0.740307 0.0134747 0)
(0.734014 0.0154716 0)
(0.726118 0.0176252 0)
(0.721182 0.0197737 0)
(0.718745 0.021857 0)
(0.717142 0.0239234 0)
(0.715789 0.0260417 0)
(0.71393 0.0282678 0)
(0.711571 0.0306651 0)
(0.708925 0.0332919 0)
(0.70603 0.0361574 0)
(0.702813 0.0392324 0)
(0.699158 0.042468 0)
(0.694914 0.0457993 0)
(0.689862 0.0491415 0)
(0.683875 0.0524475 0)
(0.676712 0.0557273 0)
(0.668064 0.0589253 0)
(0.657384 0.0621051 0)
(0.643662 0.0654409 0)
(0.626428 0.0690903 0)
(0.605996 0.073115 0)
(0.583347 0.0775838 0)
(0.559955 0.0824818 0)
(0.537139 0.0877507 0)
(0.515762 0.0933161 0)
(0.495992 0.0991055 0)
(0.477364 0.105085 0)
(0.459091 0.111227 0)
(0.440288 0.117542 0)
(0.420285 0.124049 0)
(0.398385 0.130761 0)
(0.374205 0.137697 0)
(0.347918 0.144789 0)
(0.319538 0.151995 0)
(0.289601 0.159264 0)
(0.258583 0.166537 0)
(0.226649 0.173723 0)
(0.193483 0.180799 0)
(0.159008 0.187498 0)
(0.123933 0.193439 0)
(0.0901135 0.198335 0)
(0.0534838 0.202351 0)
(0.0206311 0.2042 0)
(2.58319 0.000200165 0)
(1.59146 0.00215686 0)
(0.484035 0.00866574 0)
(0.560263 0.00988372 0)
(0.663698 0.0112078 0)
(0.728451 0.0129495 0)
(0.740983 0.0151603 0)
(0.734797 0.0174361 0)
(0.727005 0.0198862 0)
(0.722087 0.0223437 0)
(0.719648 0.0247413 0)
(0.718055 0.0271209 0)
(0.716714 0.0295571 0)
(0.714865 0.0321163 0)
(0.712526 0.0348706 0)
(0.709913 0.0378657 0)
(0.707064 0.0411161 0)
(0.703916 0.0445941 0)
(0.70036 0.0482495 0)
(0.696237 0.0520052 0)
(0.691334 0.0557775 0)
(0.68554 0.0595272 0)
(0.678589 0.0632301 0)
(0.670176 0.0668503 0)
(0.65982 0.0704511 0)
(0.646524 0.0742259 0)
(0.629756 0.0783445 0)
(0.609787 0.0828858 0)
(0.587567 0.0879385 0)
(0.564529 0.0934873 0)
(0.54199 0.0994719 0)
(0.520824 0.10581 0)
(0.501234 0.112419 0)
(0.482786 0.119258 0)
(0.4647 0.126296 0)
(0.4461 0.133545 0)
(0.4263 0.14103 0)
(0.404615 0.148763 0)
(0.380642 0.156792 0)
(0.354533 0.165043 0)
(0.326302 0.173472 0)
(0.296438 0.182029 0)
(0.265371 0.190616 0)
(0.23326 0.199135 0)
(0.199776 0.207513 0)
(0.164717 0.215445 0)
(0.128721 0.222457 0)
(0.0936945 0.228222 0)
(0.0557026 0.232936 0)
(0.0214592 0.235181 0)
(2.58434 0.000233957 0)
(1.59434 0.00235259 0)
(0.486279 0.00978454 0)
(0.560525 0.0111181 0)
(0.663926 0.012542 0)
(0.729026 0.0144827 0)
(0.741792 0.0169809 0)
(0.735729 0.0195386 0)
(0.72806 0.022264 0)
(0.723175 0.0250116 0)
(0.720737 0.0277146 0)
(0.719153 0.0304098 0)
(0.717827 0.0331723 0)
(0.715999 0.0360756 0)
(0.713685 0.039199 0)
(0.711106 0.0425722 0)
(0.708309 0.0462177 0)
(0.705238 0.050104 0)
(0.701786 0.0541803 0)
(0.697796 0.0583588 0)
(0.693069 0.0625676 0)
(0.687486 0.0667707 0)
(0.680767 0.0708907 0)
(0.672625 0.0749475 0)
(0.662643 0.0789767 0)
(0.649835 0.0831959 0)
(0.633605 0.0877878 0)
(0.614183 0.092845 0)
(0.592478 0.098483 0)
(0.569873 0.104688 0)
(0.547681 0.111401 0)
(0.526789 0.118535 0)
(0.507443 0.125995 0)
(0.489239 0.133736 0)
(0.471411 0.141723 0)
(0.453086 0.149965 0)
(0.433558 0.158494 0)
(0.412153 0.16732 0)
(0.388458 0.176527 0)
(0.362578 0.186037 0)
(0.334539 0.195804 0)
(0.304767 0.205786 0)
(0.273645 0.215852 0)
(0.241326 0.225907 0)
(0.207474 0.235799 0)
(0.171752 0.245214 0)
(0.134674 0.253531 0)
(0.0981862 0.260368 0)
(0.058503 0.265947 0)
(0.0225043 0.268698 0)
(2.58562 0.00031811 0)
(1.59757 0.00249782 0)
(0.488658 0.0107849 0)
(0.560594 0.012215 0)
(0.664002 0.013729 0)
(0.729547 0.0159184 0)
(0.742601 0.0187379 0)
(0.736686 0.021627 0)
(0.729174 0.0246697 0)
(0.724363 0.0277403 0)
(0.721961 0.0307773 0)
(0.720414 0.0338133 0)
(0.719126 0.0369217 0)
(0.717343 0.040184 0)
(0.71507 0.0436791 0)
(0.712535 0.0474301 0)
(0.709798 0.0514788 0)
(0.706807 0.0557711 0)
(0.703464 0.0602618 0)
(0.699618 0.0648591 0)
(0.69509 0.0695083 0)
(0.689725 0.07416 0)
(0.683257 0.078691 0)
(0.675424 0.0831955 0)
(0.665847 0.0876671 0)
(0.653584 0.0923299 0)
(0.637954 0.0973942 0)
(0.61915 0.102961 0)
(0.598035 0.109178 0)
(0.575929 0.116037 0)
(0.554143 0.123483 0)
(0.533581 0.131426 0)
(0.514534 0.139766 0)
(0.496641 0.148449 0)
(0.47915 0.157438 0)
(0.461193 0.16674 0)
(0.442032 0.176386 0)
(0.421016 0.186387 0)
(0.397709 0.196887 0)
(0.37216 0.20777 0)
(0.344407 0.219016 0)
(0.314798 0.230584 0)
(0.28367 0.242311 0)
(0.251137 0.254126 0)
(0.216866 0.265793 0)
(0.180379 0.277024 0)
(0.14202 0.287005 0)
(0.103799 0.295245 0)
(0.0620521 0.301919 0)
(0.0238765 0.305281 0)
(2.58702 0.00043675 0)
(1.60114 0.00269041 0)
(0.491274 0.0119332 0)
(0.560327 0.0134081 0)
(0.663677 0.014971 0)
(0.729658 0.0173755 0)
(0.742976 0.0204934 0)
(0.7372 0.0237017 0)
(0.729885 0.0270574 0)
(0.725227 0.0304504 0)
(0.722957 0.0338354 0)
(0.721538 0.0372377 0)
(0.720379 0.0407249 0)
(0.718719 0.0443796 0)
(0.716551 0.0482657 0)
(0.714121 0.0524162 0)
(0.711488 0.056874 0)
(0.7086 0.0615699 0)
(0.705386 0.0664746 0)
(0.701712 0.0714961 0)
(0.697412 0.0765865 0)
(0.692272 0.081675 0)
(0.686082 0.0866328 0)
(0.678606 0.0915786 0)
(0.669467 0.0965114 0)
(0.657794 0.101624 0)
(0.642827 0.107151 0)
(0.62471 0.11322 0)
(0.604258 0.120009 0)
(0.582713 0.127513 0)
(0.561382 0.135689 0)
(0.541187 0.144448 0)
(0.522477 0.153684 0)
(0.504946 0.163339 0)
(0.487866 0.173375 0)
(0.47037 0.183797 0)
(0.451688 0.194637 0)
(0.431214 0.205912 0)
(0.408453 0.21782 0)
(0.383374 0.230211 0)
(0.356058 0.243097 0)
(0.32673 0.256458 0)
(0.295682 0.270062 0)
(0.262987 0.28393 0)
(0.228314 0.297725 0)
(0.191037 0.311198 0)
(0.151233 0.323286 0)
(0.110918 0.333359 0)
(0.0665741 0.34152 0)
(0.0256202 0.345737 0)
(2.5886 0.000492542 0)
(1.60514 0.00303545 0)
(0.494781 0.0131184 0)
(0.560621 0.0146529 0)
(0.663995 0.0162924 0)
(0.730518 0.0189248 0)
(0.74411 0.0223071 0)
(0.738391 0.025797 0)
(0.73116 0.0294374 0)
(0.726559 0.0331341 0)
(0.724344 0.0368615 0)
(0.722998 0.0406381 0)
(0.721933 0.0445268 0)
(0.720376 0.0486028 0)
(0.718307 0.0529048 0)
(0.715985 0.0574912 0)
(0.713453 0.0623546 0)
(0.710678 0.0674632 0)
(0.707611 0.072787 0)
(0.704127 0.078241 0)
(0.700067 0.083768 0)
(0.695171 0.0892851 0)
(0.689285 0.0947004 0)
(0.68221 0.10009 0)
(0.67356 0.105482 0)
(0.662521 0.111031 0)
(0.648286 0.117013 0)
(0.630951 0.123583 0)
(0.611254 0.130938 0)
(0.590348 0.139079 0)
(0.569537 0.147976 0)
(0.549757 0.157546 0)
(0.531422 0.167687 0)
(0.514293 0.178334 0)
(0.497679 0.189452 0)
(0.480724 0.201044 0)
(0.462631 0.213152 0)
(0.442842 0.22581 0)
(0.420799 0.239203 0)
(0.396377 0.253257 0)
(0.369714 0.267973 0)
(0.34085 0.283356 0)
(0.310064 0.299135 0)
(0.277357 0.3154 0)
(0.242358 0.331779 0)
(0.20426 0.34801 0)
(0.162802 0.362863 0)
(0.120064 0.375449 0)
(0.0725315 0.385664 0)
(0.0280116 0.391077 0)
(2.59047 0.000401838 0)
(1.60962 0.00341292 0)
(0.498584 0.0139569 0)
(0.560937 0.0156967 0)
(0.664562 0.0175555 0)
(0.731786 0.0204674 0)
(0.74572 0.0241076 0)
(0.740109 0.0278795 0)
(0.732982 0.0318219 0)
(0.728437 0.0358452 0)
(0.726261 0.0399316 0)
(0.72496 0.0440978 0)
(0.723963 0.0484042 0)
(0.722473 0.0529112 0)
(0.720482 0.0576406 0)
(0.718237 0.0626664 0)
(0.715778 0.0679348 0)
(0.713115 0.0734592 0)
(0.710197 0.0791964 0)
(0.706908 0.0850772 0)
(0.703092 0.0910283 0)
(0.698471 0.0969724 0)
(0.692923 0.102867 0)
(0.686269 0.108721 0)
(0.678128 0.114552 0)
(0.667774 0.120506 0)
(0.654361 0.126931 0)
(0.637903 0.13401 0)
(0.619056 0.141921 0)
(0.598876 0.150686 0)
(0.578661 0.160288 0)
(0.559365 0.170661 0)
(0.541464 0.181707 0)
(0.524794 0.193358 0)
(0.508716 0.205583 0)
(0.492395 0.218388 0)
(0.475019 0.231828 0)
(0.456045 0.245954 0)
(0.434908 0.260918 0)
(0.411398 0.27678 0)
(0.38564 0.293523 0)
(0.357514 0.311171 0)
(0.327244 0.329505 0)
(0.29477 0.348596 0)
(0.259629 0.368124 0)
(0.220856 0.38777 0)
(0.177715 0.406282 0)
(0.132113 0.422388 0)
(0.0805211 0.435633 0)
(0.0312538 0.442963 0)
(2.59258 0.000159352 0)
(1.61465 0.00358573 0)
(0.502356 0.0142698 0)
(0.561191 0.0166282 0)
(0.665243 0.0188711 0)
(0.733222 0.0220508 0)
(0.747533 0.0259211 0)
(0.742081 0.0299513 0)
(0.735101 0.0341929 0)
(0.730643 0.038563 0)
(0.728531 0.0430281 0)
(0.727296 0.0476072 0)
(0.726375 0.0523485 0)
(0.724954 0.0572969 0)
(0.723042 0.0624711 0)
(0.720865 0.0679195 0)
(0.718475 0.0736094 0)
(0.715926 0.0795408 0)
(0.713163 0.0856815 0)
(0.710077 0.0919764 0)
(0.706514 0.0983354 0)
(0.702214 0.104714 0)
(0.697049 0.111084 0)
(0.690814 0.117399 0)
(0.683182 0.123665 0)
(0.673561 0.130028 0)
(0.661082 0.136881 0)
(0.64561 0.144459 0)
(0.627698 0.152902 0)
(0.608332 0.162268 0)
(0.588796 0.172557 0)
(0.570063 0.183717 0)
(0.552666 0.195663 0)
(0.536529 0.208322 0)
(0.521077 0.221673 0)
(0.505506 0.23572 0)
(0.488997 0.250537 0)
(0.471003 0.266196 0)
(0.450996 0.282824 0)
(0.428698 0.300615 0)
(0.404178 0.319569 0)
(0.377191 0.339753 0)
(0.347853 0.361034 0)
(0.316004 0.383467 0)
(0.281046 0.406883 0)
(0.241872 0.430826 0)
(0.197184 0.454291 0)
(0.148432 0.475495 0)
(0.0918461 0.493413 0)
(0.0361378 0.503919 0)
(2.59479 1.38882e-05 0)
(1.61992 0.00357823 0)
(0.505586 0.0143345 0)
(0.561165 0.0173546 0)
(0.66555 0.0200587 0)
(0.734327 0.0235125 0)
(0.749119 0.0276027 0)
(0.74394 0.0318829 0)
(0.737217 0.0364491 0)
(0.732928 0.0412024 0)
(0.730935 0.046086 0)
(0.72981 0.0511168 0)
(0.728999 0.0563293 0)
(0.727681 0.0617456 0)
(0.725865 0.0673815 0)
(0.723783 0.0732613 0)
(0.721489 0.0793725 0)
(0.719068 0.0857031 0)
(0.716485 0.0922359 0)
(0.713619 0.0989261 0)
(0.710342 0.105679 0)
(0.706416 0.112485 0)
(0.701659 0.119308 0)
(0.695862 0.12606 0)
(0.688762 0.132781 0)
(0.679917 0.139583 0)
(0.668462 0.146857 0)
(0.654075 0.1549 0)
(0.637195 0.163827 0)
(0.618746 0.173758 0)
(0.599983 0.184703 0)
(0.581903 0.196622 0)
(0.565092 0.209446 0)
(0.549573 0.223102 0)
(0.534848 0.237577 0)
(0.520158 0.252878 0)
(0.504697 0.269092 0)
(0.487883 0.286322 0)
(0.469272 0.304684 0)
(0.448556 0.324496 0)
(0.425699 0.345841 0)
(0.400373 0.368828 0)
(0.372558 0.393439 0)
(0.341997 0.4197 0)
(0.307826 0.447803 0)
(0.26895 0.477358 0)
(0.223375 0.507528 0)
(0.171416 0.536302 0)
(0.108577 0.562002 0)
(0.0436874 0.578476 0)
(2.59708 5.87485e-05 0)
(1.62555 0.00351043 0)
(0.508892 0.0143903 0)
(0.561183 0.0177137 0)
(0.665842 0.0208312 0)
(0.735311 0.0246189 0)
(0.750533 0.0290106 0)
(0.745637 0.0336016 0)
(0.739186 0.0385497 0)
(0.735056 0.043728 0)
(0.733186 0.0490635 0)
(0.732203 0.0545707 0)
(0.731548 0.0602779 0)
(0.730389 0.0661741 0)
(0.728741 0.07227 0)
(0.726822 0.0786013 0)
(0.72469 0.0851075 0)
(0.722462 0.0918305 0)
(0.720112 0.0987454 0)
(0.717508 0.105815 0)
(0.714562 0.112957 0)
(0.711061 0.120173 0)
(0.706747 0.127422 0)
(0.701428 0.134627 0)
(0.694912 0.141819 0)
(0.686869 0.149094 0)
(0.6765 0.156774 0)
(0.663288 0.165234 0)
(0.647545 0.174596 0)
(0.630141 0.185051 0)
(0.61226 0.196607 0)
(0.594926 0.20924 0)
(0.578789 0.222903 0)
(0.563977 0.237523 0)
(0.550087 0.253097 0)
(0.536421 0.269642 0)
(0.5222 0.287256 0)
(0.506811 0.306067 0)
(0.489909 0.326232 0)
(0.471225 0.348028 0)
(0.450592 0.371804 0)
(0.427609 0.397845 0)
(0.402059 0.426217 0)
(0.373741 0.456905 0)
(0.341654 0.490538 0)
(0.304334 0.527229 0)
(0.259216 0.566465 0)
(0.205147 0.60661 0)
(0.135439 0.645748 0)
(0.0570847 0.675343 0)
(2.59943 0.000173448 0)
(1.63139 0.00352305 0)
(0.512033 0.0148404 0)
(0.560636 0.0182357 0)
(0.665487 0.0214842 0)
(0.735594 0.0255093 0)
(0.751231 0.0302344 0)
(0.746644 0.0351812 0)
(0.740531 0.0405507 0)
(0.73662 0.0461873 0)
(0.734945 0.0519969 0)
(0.734201 0.0579935 0)
(0.733811 0.0641965 0)
(0.732921 0.0705881 0)
(0.731576 0.0771595 0)
(0.729923 0.083932 0)
(0.728045 0.0908547 0)
(0.726114 0.0979703 0)
(0.724069 0.105259 0)
(0.721786 0.112695 0)
(0.719219 0.120218 0)
(0.716179 0.127821 0)
(0.712365 0.13547 0)
(0.707581 0.143136 0)
(0.701687 0.150847 0)
(0.694454 0.158587 0)
(0.685184 0.166635 0)
(0.673232 0.175469 0)
(0.65876 0.185253 0)
(0.642541 0.196191 0)
(0.625659 0.208299 0)
(0.609187 0.221577 0)
(0.593824 0.236005 0)
(0.579809 0.251519 0)
(0.56687 0.268123 0)
(0.554378 0.285861 0)
(0.5416 0.304841 0)
(0.527932 0.325181 0)
(0.513006 0.346971 0)
(0.496764 0.37074 0)
(0.47915 0.397122 0)
(0.459499 0.426308 0)
(0.437296 0.458617 0)
(0.412495 0.494245 0)
(0.384285 0.53417 0)
(0.351 0.579421 0)
(0.309525 0.630688 0)
(0.256896 0.687939 0)
(0.182413 0.750917 0)
(0.0840959 0.812899 0)
(2.60191 0.000261534 0)
(1.63759 0.00360062 0)
(0.516574 0.0154842 0)
(0.561209 0.0187975 0)
(0.666368 0.0219533 0)
(0.737326 0.0260647 0)
(0.753479 0.0310749 0)
(0.74921 0.0363599 0)
(0.743394 0.0421364 0)
(0.739591 0.0481974 0)
(0.737971 0.0544448 0)
(0.737326 0.0608932 0)
(0.737078 0.0675557 0)
(0.736356 0.0744354 0)
(0.735192 0.081499 0)
(0.733736 0.0887121 0)
(0.732073 0.0961037 0)
(0.730384 0.103641 0)
(0.728612 0.111329 0)
(0.726637 0.11915 0)
(0.72444 0.12707 0)
(0.721853 0.135063 0)
(0.718573 0.14312 0)
(0.714425 0.151235 0)
(0.709167 0.159462 0)
(0.702656 0.167649 0)
(0.69451 0.176063 0)
(0.683955 0.185219 0)
(0.670896 0.195395 0)
(0.655992 0.206738 0)
(0.640239 0.219315 0)
(0.624743 0.233145 0)
(0.610259 0.248225 0)
(0.597138 0.264545 0)
(0.585264 0.282074 0)
(0.574109 0.300904 0)
(0.562952 0.321144 0)
(0.551093 0.342744 0)
(0.538549 0.365995 0)
(0.525626 0.391771 0)
(0.511758 0.420608 0)
(0.496212 0.45271 0)
(0.478713 0.488692 0)
(0.459328 0.52928 0)
(0.437648 0.575727 0)
(0.412423 0.63044 0)
(0.380894 0.696361 0)
(0.339185 0.778256 0)
(0.273471 0.886693 0)
(0.147736 1.05511 0)
(2.60503 0.000256696 0)
(1.64538 0.00354249 0)
(0.522329 0.0154208 0)
(0.561949 0.0188184 0)
(0.667706 0.0221285 0)
(0.740053 0.0266568 0)
(0.757113 0.0323064 0)
(0.753375 0.038273 0)
(0.747999 0.0447531 0)
(0.744343 0.0514379 0)
(0.742798 0.0582821 0)
(0.742278 0.0652803 0)
(0.742237 0.0724447 0)
(0.741772 0.0798304 0)
(0.740852 0.0874 0)
(0.739681 0.0950682 0)
(0.738334 0.102922 0)
(0.736963 0.110889 0)
(0.735563 0.118977 0)
(0.734018 0.127189 0)
(0.732321 0.135525 0)
(0.730344 0.143932 0)
(0.727808 0.152444 0)
(0.72455 0.161054 0)
(0.720178 0.169796 0)
(0.714633 0.178646 0)
(0.707922 0.187608 0)
(0.699268 0.197122 0)
(0.688237 0.207667 0)
(0.675242 0.219388 0)
(0.661221 0.23237 0)
(0.647271 0.246706 0)
(0.634267 0.2624 0)
(0.622643 0.279491 0)
(0.612473 0.297955 0)
(0.603441 0.317905 0)
(0.594614 0.339329 0)
(0.58564 0.362226 0)
(0.57726 0.387178 0)
(0.569563 0.415037 0)
(0.561706 0.44616 0)
(0.553255 0.481101 0)
(0.544466 0.520662 0)
(0.535802 0.566037 0)
(0.528143 0.618863 0)
(0.522858 0.682356 0)
(0.522466 0.761381 0)
(0.535015 0.863416 0)
(0.591855 0.999555 0)
(0.66323 1.1975 0)
(2.60856 0.000206306 0)
(1.65422 0.00306634 0)
(0.529264 0.0134819 0)
(0.563618 0.0166699 0)
(0.670423 0.0199809 0)
(0.744776 0.0249466 0)
(0.763055 0.0313305 0)
(0.759915 0.0381985 0)
(0.754859 0.0454848 0)
(0.751121 0.0529086 0)
(0.749436 0.0604848 0)
(0.748784 0.0681936 0)
(0.74876 0.0760454 0)
(0.748445 0.0841167 0)
(0.747638 0.0923597 0)
(0.746645 0.100681 0)
(0.745553 0.109112 0)
(0.744415 0.117657 0)
(0.743308 0.126258 0)
(0.742146 0.134947 0)
(0.740886 0.143739 0)
(0.739455 0.152585 0)
(0.737643 0.161535 0)
(0.735242 0.170606 0)
(0.731936 0.1798 0)
(0.727431 0.189308 0)
(0.721883 0.198887 0)
(0.71509 0.20877 0)
(0.70633 0.219493 0)
(0.695491 0.231419 0)
(0.683441 0.244638 0)
(0.671246 0.259237 0)
(0.659781 0.275258 0)
(0.649645 0.292728 0)
(0.641143 0.311756 0)
(0.633971 0.33234 0)
(0.62735 0.354343 0)
(0.621498 0.378056 0)
(0.617582 0.404053 0)
(0.615434 0.432987 0)
(0.61402 0.465212 0)
(0.613348 0.501321 0)
(0.614252 0.542165 0)
(0.618068 0.588907 0)
(0.6268 0.643136 0)
(0.643863 0.707074 0)
(0.675351 0.783971 0)
(0.730448 0.877608 0)
(0.842412 0.988163 0)
(0.992262 1.10433 0)
(2.61126 0.000148796 0)
(1.661 0.00250457 0)
(0.534464 0.0111577 0)
(0.565075 0.0148535 0)
(0.673515 0.0189877 0)
(0.750468 0.0253821 0)
(0.77045 0.0332572 0)
(0.767979 0.0413887 0)
(0.763101 0.049564 0)
(0.759336 0.0575076 0)
(0.757599 0.0654349 0)
(0.756916 0.0734845 0)
(0.756985 0.0816648 0)
(0.756859 0.090048 0)
(0.756225 0.0985854 0)
(0.755383 0.107232 0)
(0.754532 0.11595 0)
(0.753655 0.124774 0)
(0.752783 0.133686 0)
(0.751938 0.142669 0)
(0.751025 0.151744 0)
(0.750029 0.160915 0)
(0.748815 0.170185 0)
(0.747141 0.179617 0)
(0.744873 0.189213 0)
(0.74149 0.199127 0)
(0.736938 0.209373 0)
(0.731538 0.219805 0)
(0.72486 0.230731 0)
(0.71639 0.242692 0)
(0.706475 0.256026 0)
(0.696144 0.270644 0)
(0.68633 0.286732 0)
(0.677863 0.304287 0)
(0.671087 0.323416 0)
(0.66558 0.344109 0)
(0.661086 0.366237 0)
(0.658467 0.390171 0)
(0.658938 0.416503 0)
(0.662062 0.445523 0)
(0.666815 0.477521 0)
(0.673559 0.51296 0)
(0.683552 0.552527 0)
(0.698626 0.597033 0)
(0.721202 0.64735 0)
(0.754771 0.704281 0)
(0.804818 0.768235 0)
(0.877254 0.838375 0)
(0.990789 0.909991 0)
(1.12781 0.963208 0)
(2.61365 -5.82609e-05 0)
(1.66708 -0.000255213 0)
(0.542174 0.000176375 0)
(0.571298 0.00325887 0)
(0.681497 0.00870251 0)
(0.760989 0.0180337 0)
(0.781834 0.0288152 0)
(0.779064 0.0393114 0)
(0.773427 0.0492447 0)
(0.768857 0.058356 0)
(0.766827 0.0671944 0)
(0.766073 0.0761318 0)
(0.766164 0.0851282 0)
(0.766162 0.0942264 0)
(0.765695 0.103403 0)
(0.76507 0.112638 0)
(0.76447 0.121907 0)
(0.763943 0.131194 0)
(0.763457 0.140522 0)
(0.762973 0.149871 0)
(0.762494 0.159261 0)
(0.761962 0.168729 0)
(0.761298 0.178279 0)
(0.760321 0.187978 0)
(0.758877 0.197869 0)
(0.756672 0.208014 0)
(0.753293 0.218605 0)
(0.748886 0.229531 0)
(0.743673 0.240827 0)
(0.737398 0.25275 0)
(0.729705 0.265794 0)
(0.721321 0.280157 0)
(0.713347 0.295907 0)
(0.706476 0.313134 0)
(0.701286 0.331828 0)
(0.697405 0.351915 0)
(0.694962 0.373552 0)
(0.695455 0.397125 0)
(0.699852 0.423032 0)
(0.707378 0.451045 0)
(0.717269 0.481387 0)
(0.730123 0.514456 0)
(0.747255 0.550635 0)
(0.770366 0.590217 0)
(0.801551 0.633279 0)
(0.843502 0.679536 0)
(0.899764 0.72801 0)
(0.973014 0.776193 0)
(1.07472 0.820001 0)
(1.18861 0.845217 0)
(2.61075 0.000480441 0)
(1.6602 -0.00622051 0)
(0.54668 -0.00888804 0)
(0.585819 -0.000960718 0)
(0.700458 0.00842293 0)
(0.783162 0.0202379 0)
(0.804042 0.0317263 0)
(0.799749 0.0426439 0)
(0.792114 0.0524902 0)
(0.785947 0.0616559 0)
(0.783199 0.0706584 0)
(0.782004 0.079772 0)
(0.781606 0.0889188 0)
(0.78119 0.098113 0)
(0.780406 0.107415 0)
(0.779572 0.116836 0)
(0.778879 0.126358 0)
(0.778343 0.135959 0)
(0.777938 0.145597 0)
(0.77762 0.155269 0)
(0.77735 0.164979 0)
(0.777075 0.174756 0)
(0.776718 0.18464 0)
(0.77613 0.194678 0)
(0.775205 0.204919 0)
(0.773688 0.215475 0)
(0.771232 0.226318 0)
(0.767827 0.237583 0)
(0.763513 0.249263 0)
(0.758376 0.261379 0)
(0.752499 0.274152 0)
(0.746056 0.287957 0)
(0.739777 0.303032 0)
(0.734491 0.319464 0)
(0.730531 0.337176 0)
(0.728041 0.356183 0)
(0.727807 0.37693 0)
(0.731237 0.399665 0)
(0.738563 0.424127 0)
(0.749065 0.450051 0)
(0.762719 0.477674 0)
(0.780118 0.507274 0)
(0.802188 0.538956 0)
(0.830173 0.572599 0)
(0.865604 0.607837 0)
(0.910289 0.643885 0)
(0.96654 0.679426 0)
(1.03603 0.712202 0)
(1.12307 0.739407 0)
(1.21629 0.75248 0)
(2.60177 0.00615878 0)
(1.63789 -0.0728473 0)
(0.580744 -0.0672736 0)
(0.623281 -0.0383973 0)
(0.731858 0.00327253 0)
(0.810033 0.0271161 0)
(0.827977 0.0387552 0)
(0.822063 0.0490276 0)
(0.813163 0.0579643 0)
(0.806689 0.0674895 0)
(0.803825 0.0773134 0)
(0.802386 0.0871277 0)
(0.801594 0.0967598 0)
(0.800857 0.106178 0)
(0.799909 0.115559 0)
(0.798995 0.125003 0)
(0.798276 0.134525 0)
(0.797753 0.144109 0)
(0.797372 0.153732 0)
(0.797087 0.163388 0)
(0.796863 0.173105 0)
(0.796638 0.182922 0)
(0.796341 0.192893 0)
(0.795816 0.203069 0)
(0.795069 0.213476 0)
(0.79375 0.224201 0)
(0.791531 0.235188 0)
(0.788583 0.246471 0)
(0.78486 0.258091 0)
(0.780354 0.270099 0)
(0.775158 0.282509 0)
(0.769881 0.295472 0)
(0.765036 0.309437 0)
(0.760838 0.324464 0)
(0.75794 0.340632 0)
(0.757095 0.358183 0)
(0.759054 0.377396 0)
(0.764337 0.398244 0)
(0.773191 0.420313 0)
(0.785713 0.443553 0)
(0.801975 0.468066 0)