/*--------------------------------*- C++ -*----------------------------------*\
| =========                 |                                                 |
| \\      /  F ield         | OpenFOAM: The Open Source CFD Toolbox           |
|  \\    /   O peration     | Version:  2412                                  |
|   \\  /    A nd           | Website:  www.openfoam.com                      |
|    \\/     M anipulation  |                                                 |
\*---------------------------------------------------------------------------*/
FoamFile
{
    version     2.0;
    format      ascii;
    arch        "LSB;label=32;scalar=64";
    class       volScalarField;
    location    "0.5";
    object      Ma;
}
// * * * * * * * * * * * * * * * * * * * * * * * * * * * * * * * * * * * * * //

dimensions      [0 0 0 0 0 0 0];

internalField   nonuniform List<scalar> 
7000
(
3.00001
3.00001
3.00001
3.00001
3.00001
3.00001
3.00001
3.00001
3.00001
3.00001
3.00001
3.00001
3.00001
3.00001
3.00001
3.00001
3.00001
3
3
3
2.99997
3.00005
3.00003
3.00152
3.00087
3.01587
2.97246
3.16928
2.8803
2.51804
1.71806
0.904141
0.269907
0.286558
0.331551
0.350125
0.332398
0.300032
0.270005
0.248372
0.228697
0.204807
0.177314
0.1498
0.123815
0.101523
0.0764008
0.0596478
0.0294654
0.0185121
3.00001
3.00001
3.00001
3.00001
3.00001
3.00001
3.00001
3.00001
3.00001
3.00001
3.00001
3.00001
3.00001
3.00001
3.00001
3.00001
3.00001
3.00001
3
3.00001
3
3.00009
3.00015
3.00149
3.00083
3.0151
2.97375
3.16661
2.87895
2.52292
1.72591
0.910139
0.274788
0.287289
0.327611
0.342018
0.321414
0.289651
0.260165
0.238109
0.217866
0.19434
0.168866
0.143696
0.118967
0.0970029
0.0723279
0.0578391
0.0316316
0.024733
3.00001
3.00001
3.00001
3.00001
3.00001
3.00001
3.00001
3.00001
3.00001
3.00001
3.00001
3.00001
3.00001
3.00001
3.00001
3.00001
3.00001
3
3
3
2.99999
3.00001
3.00015
3.0009
3.00128
3.01464
2.9779
3.16687
2.87437
2.52804
1.73464
0.921269
0.276579
0.282844
0.324607
0.340378
0.320376
0.289071
0.259429
0.236573
0.215617
0.192078
0.167586
0.143828
0.120107
0.0984388
0.0743829
0.0613937
0.0397385
0.0354791
3.00001
3.00001
3.00001
3.00001
3.00001
3.00001
3.00001
3.00001
3.00001
3.00001
3.00001
3.00001
3.00001
3.00001
3.00001
3.00001
3.00001
3
3
3
2.99998
2.99999
3.00007
3.00079
3.00098
3.01363
2.97872
3.1631
2.87524
2.53924
1.74875
0.934608
0.288273
0.285455
0.324739
0.339602
0.319546
0.289022
0.260266
0.238144
0.217927
0.195306
0.171923
0.149418
0.126631
0.105226
0.0815149
0.0689321
0.0505524
0.0474209
3.00001
3.00001
3.00001
3.00001
3.00001
3.00001
3.00001
3.00001
3.00001
3.00001
3.00001
3.00001
3.00001
3.00001
3.00001
3.00001
3.00001
3
3
2.99999
2.99999
3.00002
3.00002
3.00089
3.0005
3.01143
2.97871
3.15041
2.87461
2.55642
1.76705
0.948892
0.294351
0.287034
0.328033
0.343493
0.323225
0.292836
0.264466
0.242978
0.223692
0.202244
0.179894
0.158384
0.136612
0.115586
0.0921089
0.0793884
0.0630507
0.0602497
3.00001
3.00001
3.00001
3.00001
3.00001
3.00001
3.00001
3.00001
3.00001
3.00001
3.00001
3.00001
3.00001
3.00001
3.00001
3.00001
3.00001
3
3
2.99999
2.99999
3
3.00001
3.00078
3.00018
3.01203
2.9763
3.15694
2.88164
2.56984
1.78459
0.968734
0.303016
0.287839
0.332084
0.34974
0.329972
0.299574
0.271183
0.250015
0.231484
0.211155
0.189898
0.169418
0.148651
0.128249
0.105214
0.0922329
0.0770831
0.0742025
3.00001
3.00001
3.00001
3.00001
3.00001
3.00001
3.00001
3.00001
3.00001
3.00001
3.00001
3.00001
3.00001
3.00001
3.00001
3.00001
3.00001
3
3
2.99999
2.99999
2.99994
3.00001
3.00024
3.00034
3.00855
2.98678
3.12942
2.88112
2.61924
1.82951
1.00664
0.321592
0.293297
0.337473
0.356196
0.336895
0.307086
0.279159
0.258522
0.240772
0.221418
0.201163
0.181756
0.162088
0.142608
0.120281
0.107101
0.0926272
0.0894912
3.00001
3.00001
3.00001
3.00001
3.00001
3.00001
3.00001
3.00001
3.00001
3.00001
3.00001
3.00001
3.00001
3.00001
3.00001
3.00001
3.00001
3
3
2.99999
2.99998
2.9999
3
2.99964
3.00067
3.00611
2.99488
3.09388
2.89224
2.67144
1.87634
1.05188
0.343306
0.300046
0.344484
0.36422
0.345178
0.315709
0.288221
0.268193
0.251235
0.232708
0.213352
0.194999
0.176594
0.158299
0.136849
0.123703
0.109745
0.106293
3.00001
3.00001
3.00001
3.00001
3.00001
3.00001
3.00001
3.00001
3.00001
3.00001
3.00001
3.00001
3.00001
3.00001
3.00001
3.00001
3.00001
3
3.00001
2.99998
2.99998
2.99986
2.9999
2.9993
3.00093
3.00499
2.99688
3.04973
2.94264
2.70296
1.9328
1.10707
0.371851
0.305197
0.348994
0.36944
0.350771
0.32256
0.296596
0.278015
0.262346
0.244859
0.226377
0.209084
0.192025
0.175189
0.154994
0.142079
0.128502
0.124747
3.00001
3.00001
3.00001
3.00001
3.00001
3.00001
3.00001
3.00001
3.00001
3.00001
3.00001
3.00001
3.00001
3.00001
3.00001
3.00001
3.00001
3
3
2.99998
2.99996
2.99991
2.99973
2.99952
2.99855
3.00267
2.98295
3.10261
2.89585
2.68497
1.94576
1.14859
0.401928
0.307117
0.353324
0.375551
0.357736
0.331319
0.306968
0.289588
0.274941
0.258278
0.240492
0.224121
0.208446
0.193234
0.17447
0.162123
0.148946
0.144993
3.00001
3.00001
3.00001
3.00001
3.00001
3.00001
3.00001
3.00001
3.00001
3.00001
3.00001
3.00001
3.00001
3.00001
3.00001
3.00001
3.00001
3
3
2.99998
2.99997
2.99984
2.99974
2.99919
2.99812
2.99662
2.98675
3.00468
2.9379
2.77426
2.05164
1.23266
0.443289
0.313348
0.35913
0.382657
0.366933
0.342817
0.32029
0.303752
0.289774
0.273607
0.2562
0.240584
0.226172
0.212546
0.195488
0.184038
0.171354
0.167227
3.00001
3.00001
3.00001
3.00001
3.00001
3.00001
3.00001
3.00001
3.00001
3.00001
3.00001
3.00001
3.00001
3.00001
3.00001
3.00001
3.00001
3
3
2.99998
2.99999
2.99987
2.99978
2.99907
2.99847
2.99388
2.98684
2.98025
2.92988
2.81358
2.13344
1.31968
0.490528
0.32437
0.368597
0.391803
0.378324
0.356734
0.336169
0.320464
0.30715
0.29137
0.274206
0.259093
0.24572
0.233592
0.218216
0.207824
0.195752
0.191658
3.00001
3.00001
3.00001
3.00001
3.00001
3.00001
3.00001
3.00001
3.00001
3.00001
3.00001
3.00001
3.00001
3.00001
3.00001
3.00001
3.00001
3
3
2.99998
2.99997
2.99984
2.99978
2.99893
2.9982
2.99281
2.98779
2.95964
2.93741
2.79288
2.23553
1.42319
0.54887
0.339113
0.379255
0.400634
0.391067
0.372538
0.354053
0.339205
0.326847
0.311795
0.294697
0.279859
0.267368
0.256791
0.243291
0.23398
0.222782
0.218796
3.00001
3.00001
3.00001
3.00001
3.00001
3.00001
3.00001
3.00001
3.00001
3.00001
3.00001
3.00001
3.00001
3.00001
3.00001
3.00001
3.00001
3.00001
3
2.99999
2.99999
2.99991
2.99977
2.99908
2.99867
2.99374
2.99023
2.96396
2.94078
2.71132
2.38502
1.57525
0.623663
0.36672
0.392611
0.409089
0.405397
0.390464
0.374088
0.360101
0.34878
0.334586
0.318102
0.30352
0.291888
0.282566
0.270807
0.263247
0.252796
0.249151
3.00001
3.00001
3.00001
3.00001
3.00001
3.00001
3.00001
3.00001
3.00001
3.00001
3.00001
3.00001
3.00001
3.00001
3.00001
3.00001
3.00001
3.00001
3
2.99999
2.99995
2.99992
2.99979
2.99941
2.99964
2.99508
2.99476
2.966
2.94972
2.74973
2.47113
1.7128
0.715981
0.407109
0.402799
0.415566
0.42092
0.41043
0.395844
0.382653
0.372508
0.35955
0.344042
0.330144
0.319382
0.311808
0.302147
0.296198
0.287195
0.284021
3.00001
3.00001
3.00001
3.00001
3.00001
3.00001
3.00001
3.00001
3.00001
3.00001
3.00001
3.00001
3.00001
3.00001
3.00001
3.00001
3.00001
3.00001
3
2.99999
2.99994
2.99993
2.99964
2.99955
2.99842
2.99685
2.99057
2.97266
2.94952
2.77303
2.5654
1.84981
0.842766
0.469392
0.40923
0.423776
0.438349
0.43243
0.419265
0.4075
0.398548
0.386811
0.372549
0.360255
0.350913
0.345136
0.337641
0.333939
0.326688
0.32495
3.00001
3.00001
3.00001
3.00001
3.00001
3.00001
3.00001
3.00001
3.00001
3.00001
3.00001
3.00001
3.00001
3.00001
3.00001
3.00001
3.00001
3.00001
3
3
2.99994
2.99994
2.99963
2.99959
2.99844
2.99716
2.99196
2.9766
2.96232
2.81441
2.6491
1.98175
1.0057
0.560911
0.418241
0.436043
0.459613
0.456833
0.444541
0.434473
0.426607
0.41615
0.403418
0.392968
0.386125
0.383248
0.378972
0.378511
0.374866
0.375409
3.00001
3.00001
3.00001
3.00001
3.00001
3.00001
3.00001
3.00001
3.00001
3.00001
3.00001
3.00001
3.00001
3.00001
3.00001
3.00001
3.00001
3.00001
3
3
2.99996
2.99995
2.99964
2.99964
2.99771
2.99704
2.98741
2.99111
2.94556
3.03803
2.66419
2.12824
1.17377
0.659363
0.424843
0.451678
0.48322
0.4825
0.472168
0.46389
0.456886
0.447422
0.436863
0.429058
0.425152
0.426407
0.42709
0.432731
0.434216
0.441729
3.00001
3.00001
3.00001
3.00001
3.00001
3.00001
3.00001
3.00001
3.00001
3.00001
3.00001
3.00001
3.00001
3.00001
3.00001
3.00001
3.00001
3.00001
3.00001
3
2.99999
2.99998
2.9998
2.99976
2.99831
2.99772
2.98721
2.99727
2.92196
3.12277
2.76735
2.263
1.37663
0.755249
0.432722
0.470117
0.503485
0.507923
0.500899
0.493977
0.487916
0.479767
0.472159
0.468245
0.468857
0.475769
0.484462
0.499386
0.514021
0.537864
3.00001
3.00001
3.00001
3.00001
3.00001
3.00001
3.00001
3.00001
3.00001
3.00001
3.00001
3.00001
3.00001
3.00001
3.00001
3.00001
3.00001
3.00001
3.00001
3.00001
3.00001
3.00001
2.99997
2.99994
2.9995
2.99954
2.99416
3.00391
2.94235
3.13385
2.83505
2.42537
1.60186
0.870457
0.447006
0.487978
0.518671
0.531867
0.528643
0.524093
0.519577
0.514419
0.509818
0.510574
0.516843
0.531143
0.551427
0.582144
0.621837
0.7138
3.00001
3.00001
3.00001
3.00001
3.00001
3.00001
3.00001
3.00001
3.00001
3.00001
3.00001
3.00001
3.00001
3.00001
3.00001
3.00001
3.00001
3.00001
3.00001
3.00001
3
3.00001
3
3.00006
3.00006
3.00124
3.00024
3.01088
2.96768
3.1465
2.88964
2.57265
1.83652
1.06266
0.521132
0.512668
0.545145
0.566772
0.569651
0.567527
0.565698
0.563022
0.56375
0.571199
0.58603
0.611703
0.649757
0.709312
0.799897
0.954236
3.00001
3.00001
3.00001
3.00001
3.00001
3.00001
3.00001
3.00001
3.00001
3.00001
3.00001
3.00001
3.00001
3.00001
3.00001
3.00001
3.00001
3.00001
3.00001
3
3
2.99999
2.99999
2.99991
2.99989
2.9993
3.00051
2.9959
2.98804
3.02093
2.91587
2.80241
2.12761
1.34981
0.638048
0.550543
0.576881
0.600897
0.608991
0.611083
0.611242
0.612349
0.619217
0.633722
0.656956
0.692655
0.743601
0.820185
0.936656
1.08809
3.00001
3.00001
3.00001
3.00001
3.00001
3.00001
3.00001
3.00001
3.00001
3.00001
3.00001
3.00001
3.00001
3.00001
3.00001
3.00001
3.00001
3.00001
3.00001
3.00001
3
3
2.99995
2.99993
2.99977
2.99942
2.99848
2.99509
2.99116
2.96558
2.94582
2.76238
2.48425
1.78049
0.848992
0.62142
0.620669
0.636711
0.648646
0.654811
0.658925
0.664665
0.676189
0.695196
0.723387
0.764895
0.821209
0.898237
1.01143
1.13748
3.00001
3.00001
3.00001
3.00001
3.00001
3.00001
3.00001
3.00001
3.00001
3.00001
3.00001
3.00001
3.00001
3.00001
3.00001
3.00001
3.00001
3.00001
3.00001
3.00001
3
3
2.99997
2.99997
2.99979
2.99975
2.99801
2.99761
2.98793
2.99215
2.94163
2.94331
2.69643
2.09051
1.19357
0.78514
0.671556
0.670171
0.683807
0.699053
0.708664
0.71632
0.729558
0.750991
0.784463
0.829474
0.885886
0.956112
1.05148
1.15855
3.00001
3.00001
3.00001
3.00001
3.00001
3.00001
3.00001
3.00001
3.00001
3.00001
3.00001
3.00001
3.00001
3.00001
3.00001
3.00001
3.00001
3.00001
3.00001
3.00001
3.00001
3.00001
3
3
2.99997
2.99996
2.99975
2.99996
2.99671
3.00535
2.94895
3.12614
2.85146
2.47964
1.73915
1.05295
0.704592
0.696575
0.717919
0.740473
0.753838
0.765585
0.781202
0.805308
0.840277
0.883519
0.935763
0.998937
1.0783
1.16667
3.00001
3.00001
3.00001
3.00001
3.00001
3.00001
3.00001
3.00001
3.00001
3.00001
3.00001
3.00001
3.00001
3.00001
3.00001
3.00001
3.00001
3.00001
3.00001
3.00001
3.00001
3.00001
3
2.99999
2.99995
2.99996
2.99975
2.99938
2.99863
2.99596
2.98969
2.99085
2.92131
2.78273
2.1719
1.4162
0.846402
0.766024
0.767704
0.783677
0.799653
0.81244
0.829935
0.855591
0.888461
0.928368
0.975576
1.0315
1.1
1.17346
3.00001
3.00001
3.00001
3.00001
3.00001
3.00001
3.00001
3.00001
3.00001
3.00001
3.00001
3.00001
3.00001
3.00001
3.00001
3.00001
3.00001
3.00001
3.00001
3.00001
3.00001
3.00001
3.00001
3
3
2.99995
2.99994
2.99969
2.99959
2.9975
3.00077
2.98251
3.07728
2.8722
2.67492
1.96005
1.21627
0.828263
0.81995
0.832433
0.849487
0.865416
0.881907
0.904409
0.933278
0.968926
1.01038
1.05935
1.11838
1.17991
3.00001
3.00001
3.00001
3.00001
3.00001
3.00001
3.00001
3.00001
3.00001
3.00001
3.00001
3.00001
3.00001
3.00001
3.00001
3.00001
3.00001
3.00001
3.00001
3.00001
3.00001
3.00001
3.00001
3
3
2.99996
2.99995
2.99977
2.99941
2.9987
2.99446
2.99138
2.96575
2.94081
2.79556
2.48501
1.78957
1.03214
0.905516
0.90113
0.905142
0.914498
0.928707
0.94734
0.972772
1.00384
1.03997
1.08171
1.1327
1.18591
3.00001
3.00001
3.00001
3.00001
3.00001
3.00001
3.00001
3.00001
3.00001
3.00001
3.00001
3.00001
3.00001
3.00001
3.00001
3.00001
3.00001
3.00001
3.00001
3.00001
3.00001
3.00001
3.00001
3.00001
3.00001
3
3
2.99997
3.00027
2.99934
2.99887
2.98808
2.99325
2.9273
3.04492
2.78736
2.32244
1.52538
1.08416
0.957712
0.946466
0.954761
0.969442
0.988416
1.01029
1.03685
1.06864
1.10595
1.14972
1.19594
3.00001
3.00001
3.00001
3.00001
3.00001
3.00001
3.00001
3.00001
3.00001
3.00001
3.00001
3.00001
3.00001
3.00001
3.00001
3.00001
3.00001
3.00001
3.00001
3.00001
3.00001
3.00001
3.00001
3.00001
3
3
2.99998
2.99998
2.99985
2.99978
2.9991
2.99823
2.99663
2.98566
2.96278
2.90135
2.74132
2.19872
1.55457
1.0571
0.996118
0.997602
1.0137
1.03153
1.05048
1.07223
1.09941
1.13145
1.1715
1.21369
3.00001
3.00001
3.00001
3.00001
3.00001
3.00001
3.00001
3.00001
3.00001
3.00001
3.00001
3.00001
3.00001
3.00001
3.00001
3.00001
3.00001
3.00001
3.00001
3.00001
3.00001
3.00001
3.00001
3.00001
3.00001
3.00001
3
3
2.99999
2.99996
2.99993
2.99963
2.99891
2.99652
3.00303
2.95568
2.88963
2.70497
2.17145
1.46762
1.14388
1.06782
1.06341
1.07522
1.09309
1.11301
1.13725
1.1646
1.19889
1.23514
3.00001
3.00001
3.00001
3.00001
3.00001
3.00001
3.00001
3.00001
3.00001
3.00001
3.00001
3.00001
3.00001
3.00001
3.00001
3.00001
3.00001
3.00001
3.00001
3.00001
3.00001
3.00001
3.00001
3.00001
3.00001
3.00001
3
3
2.99999
2.99998
2.99989
2.99978
2.99959
2.99816
2.9974
2.98124
3.0329
2.86471
2.69659
2.15236
1.54891
1.18103
1.13619
1.12771
1.13585
1.15286
1.17427
1.19971
1.2321
1.26541
3.00001
3.00001
3.00001
3.00001
3.00001
3.00001
3.00001
3.00001
3.00001
3.00001
3.00001
3.00001
3.00001
3.00001
3.00001
3.00001
3.00001
3.00001
3.00001
3.00001
3.00001
3.00001
3.00001
3.00001
3.00001
3.00001
3.00001
3
3
2.99999
2.99998
2.9999
2.99979
2.99971
2.99783
2.99686
2.98276
2.99136
2.89307
2.77469
2.18177
1.61193
1.23841
1.19227
1.19343
1.20737
1.22366
1.24446
1.26775
1.29651
3.00001
3.00001
3.00001
3.00001
3.00001
3.00001
3.00001
3.00001
3.00001
3.00001
3.00001
3.00001
3.00001
3.00001
3.00001
3.00001
3.00001
3.00001
3.00001
3.00001
3.00001
3.00001
3.00001
3.00001
3.00001
3.00001
3.00001
3.00001
3.00001
3
3
2.99997
2.99994
2.99976
2.9997
2.99892
2.99571
2.99528
2.96578
2.87697
2.75683
2.2832
1.72195
1.37705
1.27101
1.25938
1.26798
1.28337
1.30458
1.32817
3.00001
3.00001
3.00001
3.00001
3.00001
3.00001
3.00001
3.00001
3.00001
3.00001
3.00001
3.00001
3.00001
3.00001
3.00001
3.00001
3.00001
3.00001
3.00001
3.00001
3.00001
3.00001
3.00001
3.00001
3.00001
3.00001
3.00001
3.00001
3.00001
3.00001
3
3
2.99998
2.99991
2.99983
2.99938
2.99867
2.99638
2.99459
2.97714
2.91743
2.80155
2.38879
1.89469
1.46015
1.34424
1.32692
1.33415
1.34876
1.36772
3.00001
3.00001
3.00001
3.00001
3.00001
3.00001
3.00001
3.00001
3.00001
3.00001
3.00001
3.00001
3.00001
3.00001
3.00001
3.00001
3.00001
3.00001
3.00001
3.00001
3.00001
3.00001
3.00001
3.00001
3.00001
3.00001
3.00001
3.00001
3.00001
3.00001
3.00001
3
3
2.99999
2.99991
2.99987
2.99937
2.99907
2.99537
2.99283
2.96899
2.94798
2.76496
2.57199
2.05999
1.605
1.43781
1.41077
1.40879
1.41949
3.00001
3.00001
3.00001
3.00001
3.00001
3.00001
3.00001
3.00001
3.00001
3.00001
3.00001
3.00001
3.00001
3.00001
3.00001
3.00001
3.00001
3.00001
3.00001
3.00001
3.00001
3.00001
3.00001
3.00001
3.00001
3.00001
3.00001
3.00001
3.00001
3.00001
3.00001
3.00001
3.00001
3
2.99999
2.99994
2.9999
2.99951
2.99928
2.99663
2.99544
2.97833
2.96186
2.84651
2.69944
2.294
1.83541
1.57604
1.49348
1.47824
3.00001
3.00001
3.00001
3.00001
3.00001
3.00001
3.00001
3.00001
3.00001
3.00001
3.00001
3.00001
3.00001
3.00001
3.00001
3.00001
3.00001
3.00001
3.00001
3.00001
3.00001
3.00001
3.00001
3.00001
3.00001
3.00001
3.00001
3.00001
3.00001
3.00001
3.00001
3.00001
3.00001
3.00001
3
3
2.99998
2.99989
2.99981
2.99914
2.99884
2.99502
2.99107
2.96869
2.92113
2.8154
2.49584
2.10185
1.74722
1.59375
3.00001
3.00001
3.00001
3.00001
3.00001
3.00001
3.00001
3.00001
3.00001
3.00001
3.00001
3.00001
3.00001
3.00001
3.00001
3.00001
3.00001
3.00001
3.00001
3.00001
3.00001
3.00001
3.00001
3.00001
3.00001
3.00001
3.00001
3.00001
3.00001
3.00001
3.00001
3.00001
3.00001
3.00001
3.00001
3
3
2.99999
2.99995
2.99989
2.99969
2.99939
2.99816
2.99444
2.98674
2.95688
2.89271
2.70281
2.3806
2.00875
3.00001
3.00001
3.00001
3.00001
3.00001
3.00001
3.00001
3.00001
3.00001
3.00001
3.00001
3.00001
3.00001
3.00001
3.00001
3.00001
3.00001
3.00001
3.00001
3.00001
3.00001
3.00001
3.00001
3.00001
3.00001
3.00001
3.00001
3.00001
3.00001
3.00001
3.00001
3.00001
3.00001
3.00001
3.00001
3.00001
3
3
2.99998
2.99997
2.99984
2.99978
2.99887
2.99874
2.99281
2.99477
2.96861
2.95499
2.82075
2.59615
3.00001
3.00001
3.00001
3.00001
3.00001
3.00001
3.00001
3.00001
3.00001
3.00001
3.00001
3.00001
3.00001
3.00001
3.00001
3.00001
3.00001
3.00001
3.00001
3.00001
3.00001
3.00001
3.00001
3.00001
3.00001
3.00001
3.00001
3.00001
3.00001
3.00001
3.00001
3.00001
3.00001
3.00001
3.00001
3.00001
3.00001
3
3
2.99999
2.99998
2.99987
2.99979
2.99906
2.99937
2.99443
3.00849
2.97788
2.94348
2.83362
3.00001
3.00001
3.00001
3.00001
3.00001
3.00001
3.00001
3.00001
3.00001
3.00001
3.00001
3.00001
3.00001
3.00001
3.00001
3.00001
3.00001
3.00001
3.00001
3.00001
3.00001
3.00001
3.00001
3.00001
3.00001
3.00001
3.00001
3.00001
3.00001
3.00001
3.00001
3.00001
3.00001
3.00001
3.00001
3.00001
3.00001
3.00001
3
3
2.99999
2.99998
2.99989
2.99986
2.99928
2.99906
2.99528
2.99491
2.9797
2.96057
3.00001
3.00001
3.00001
3.00001
3.00001
3.00001
3.00001
3.00001
3.00001
3.00001
3.00001
3.00001
3.00001
3.00001
3.00001
3.00001
3.00001
3.00001
3.00001
3.00001
3.00001
3.00001
3.00001
3.00001
3.00001
3.00001
3.00001
3.00001
3.00001
3.00001
3.00001
3.00001
3.00001
3.00001
3.00001
3.00001
3.00001
3.00001
3.00001
3.00001
3
3
2.99997
2.99996
2.99977
2.9997
2.99845
2.99816
2.99282
2.98678
3.00001
3.00001
3.00001
3.00001
3.00001
3.00001
3.00001
3.00001
3.00001
3.00001
3.00001
3.00001
3.00001
3.00001
3.00001
3.00001
3.00001
3.00001
3.00001
3.00001
3.00001
3.00001
3.00001
3.00001
3.00001
3.00001
3.00001
3.00001
3.00001
3.00001
3.00001
3.00001
3.00001
3.00001
3.00001
3.00001
3.00001
3.00001
3.00001
3.00001
3.00001
3.00001
3
3.00003
2.99997
2.99991
2.99969
2.99928
2.99772
2.99339
3.00001
3.00001
3.00001
3.00001
3.00001
3.00001
3.00001
3.00001
3.00001
3.00001
3.00001
3.00001
3.00001
3.00001
3.00001
3.00001
3.00001
3.00001
3.00001
3.00001
3.00001
3.00001
3.00001
3.00001
3.00001
3.00001
3.00001
3.00001
3.00001
3.00001
3.00001
3.00001
3.00001
3.00001
3.00001
3.00001
3.00001
3.00001
3.00001
3.00001
3.00001
3.00001
3.00001
3.00002
3
2.99998
2.99991
2.99978
2.99929
2.99803
3.00001
3.00001
3.00001
3.00001
3.00001
3.00001
3.00001
3.00001
3.00001
3.00001
3.00001
3.00001
3.00001
3.00001
3.00001
3.00001
3.00001
3.00001
3.00001
3.00001
3.00001
3.00001
3.00001
3.00001
3.00001
3.00001
3.00001
3.00001
3.00001
3.00001
3.00001
3.00001
3.00001
3.00001
3.00001
3.00001
3.00001
3.00001
3.00001
3.00001
3.00001
3.00001
3.00001
3.00001
3.00001
3
2.99998
2.99994
2.99978
2.99948
3.00001
3.00001
3.00001
3.00001
3.00001
3.00001
3.00001
3.00001
3.00001
3.00001
3.00001
3.00001
3.00001
3.00001
3.00001
3.00001
3.00001
3.00001
3.00001
3.00001
3.00001
3.00001
3.00001
3.00001
3.00001
3.00001
3.00001
3.00001
3.00001
3.00001
3.00001
3.00001
3.00001
3.00001
3.00001
3.00001
3.00001
3.00001
3.00001
3.00001
3.00001
3.00001
3.00001
3.00001
3.00001
3.00001
3
3
2.99996
2.99992
3.00001
3.00001
3.00001
3.00001
3.00001
3.00001
3.00001
3.00001
3.00001
3.00001
3.00001
3.00001
3.00001
3.00001
3.00001
3.00001
3.00001
3.00001
3.00001
3.00001
3.00001
3.00001
3.00001
3.00001
3.00001
3.00001
3.00001
3.00001
3.00001
3.00001
3.00001
3.00001
3.00001
3.00001
3.00001
3.00001
3.00001
3.00001
3.00001
3.00001
3.00001
3.00001
3.00001
3.00001
3.00001
3.00001
3.00001
3
3
2.99997
3.00001
3.00001
3.00001
3.00001
3.00001
3.00001
3.00001
3.00001
3.00001
3.00001
3.00001
3.00001
3.00001
3.00001
3.00001
3.00001
3.00001
3.00001
3.00001
3.00001
3.00001
3.00001
3.00001
3.00001
3.00001
3.00001
3.00001
3.00001
3.00001
3.00001
3.00001
3.00001
3.00001
3.00001
3.00001
3.00001
3.00001
3.00001
3.00001
3.00001
3.00001
3.00001
3.00001
3.00001
3.00001
3.00001
3.00001
3.00001
3.00001
3
3.00001
3.00001
3.00001
3.00001
3.00001
3.00001
3.00001
3.00001
3.00001
3.00001
3.00001
3.00001
3.00001
3.00001
3.00001
3.00001
3.00001
3.00001
3.00001
3.00001
3.00001
3.00001
3.00001
3.00001
3.00001
3.00001
3.00001
3.00001
3.00001
3.00001
3.00001
3.00001
3.00001
3.00001
3.00001
3.00001
3.00001
3.00001
3.00001
3.00001
3.00001
3.00001
3.00001
3.00001
3.00001
3.00001
3.00001
3.00001
3.00001
3.00001
3.00001
3.00001
3.00001
3.00001
3.00001
3.00001
3.00001
3.00001
3.00001
3.00001
3.00001
3.00001
3.00001
3.00001
3.00001
3.00001
3.00001
3.00001
3.00001
3.00001
3.00001
3.00001
3.00001
3.00001
3.00001
3.00001
3.00001
3.00001
3.00001
3.00001
3.00001
3.00001
3.00001
3.00001
3.00001
3.00001
3.00001
3.00001
3.00001
3.00001
3.00001
3.00001
3.00001
3.00001
3.00001
3.00001
3.00001
3.00001
3.00001
3.00001
3.00001
3.00001
3.00001
3.00001
3.00001
3.00001
3.00001
3.00001
3.00001
3.00001
3.00001
3.00001
3.00001
3.00001
3.00001
3.00001
3.00001
3.00001
3.00001
3.00001
3.00001
3.00001
3.00001
3.00001
3.00001
3.00001
3.00001
3.00001
3.00001
3.00001
3.00001
3.00001
3.00001
3.00001
3.00001
3.00001
3.00001
3.00001
3.00001
3.00001
3.00001
3.00001
3.00001
3.00001
3.00001
3.00001
3.00001
3.00001
3.00001
3.00001
3.00001
3.00001
3.00001
3.00001
3.00001
3.00001
3.00001
3.00001
3.00001
3.00001
3.00001
3.00001
3.00001
3.00001
3.00001
3.00001
3.00001
3.00001
3.00001
3.00001
3.00001
3.00001
3.00001
3.00001
3.00001
3.00001
3.00001
3.00001
3.00001
3.00001
3.00001
3.00001
3.00001
3.00001
3.00001
3.00001
3.00001
3.00001
3.00001
3.00001
3.00001
3.00001
3.00001
3.00001
3.00001
3.00001
3.00001
3.00001
3.00001
3.00001
3.00001
3.00001
3.00001
3.00001
3.00001
3.00001
3.00001
3.00001
3.00001
3.00001
3.00001
3.00001
3.00001
3.00001
3.00001
3.00001
3.00001
3.00001
3.00001
3.00001
3.00001
3.00001
3.00001
3.00001
3.00001
3.00001
3.00001
3.00001
3.00001
3.00001
3.00001
3.00001
3.00001
3.00001
3.00001
3.00001
3.00001
3.00001
3.00001
3.00001
3.00001
3.00001
3.00001
3.00001
3.00001
3.00001
3.00001
3.00001
3.00001
3.00001
3.00001
3.00001
3.00001
3.00001
3.00001
3.00001
3.00001
3.00001
3.00001
3.00001
3.00001
3.00001
3.00001
3.00001
3.00001
3.00001
3.00001
3.00001
3.00001
3.00001
3.00001
3.00001
3.00001
3.00001
3.00001
3.00001
3.00001
3.00001
3.00001
3.00001
3.00001
3.00001
3.00001
3.00001
3.00001
3.00001
3.00001
3.00001
3.00001
3.00001
3.00001
3.00001
3.00001
3.00001
3.00001
3.00001
3.00001
3.00001
3.00001
3.00001
3.00001
3.00001
3.00001
3.00001
3.00001
3.00001
3.00001
3.00001
3.00001
3.00001
3.00001
3.00001
3.00001
3.00001
3.00001
3.00001
3.00001
3.00001
3.00001
3.00001
3.00001
3.00001
3.00001
3.00001
3.00001
3.00001
3.00001
3.00001
3.00001
3.00001
3.00001
3.00001
3.00001
3.00001
3.00001
3.00001
3.00001
3.00001
3.00001
3.00001
3.00001
3.00001
3.00001
3.00001
3.00001
3.00001
3.00001
3.00001
3.00001
3.00001
3.00001
3.00001
3.00001
3.00001
3.00001
3.00001
3.00001
3.00001
3.00001
3.00001
3.00001
3.00001
3.00001
3.00001
3.00001
3.00001
3.00001
3.00001
3.00001
3.00001
3.00001
3.00001
3.00001
3.00001
3.00001
3.00001
3.00001
3.00001
3.00001
3.00001
3.00001
3.00001
3.00001
3.00001
3.00001
3.00001
3.00001
3.00001
3.00001
3.00001
3.00001
3.00001
3.00001
3.00001
3.00001
3.00001
3.00001
3.00001
3.00001
3.00001
3.00001
3.00001
3.00001
3.00001
3.00001
3.00001
3.00001
3.00001
3.00001
3.00001
3.00001
3.00001
3.00001
3.00001
3.00001
3.00001
3.00001
3.00001
3.00001
3.00001
3.00001
3.00001
3.00001
3.00001
3.00001
3.00001
3.00001
3.00001
3.00001
3.00001
3.00001
3.00001
3.00001
3.00001
3.00001
3.00001
3.00001
3.00001
3.00001
3.00001
3.00001
3.00001
3.00001
3.00001
3.00001
3.00001
3.00001
3.00001
3.00001
3.00001
3.00001
3.00001
3.00001
3.00001
3.00001
3.00001
3.00001
3.00001
3.00001
3.00001
3.00001
3.00001
3.00001
3.00001
3.00001
3.00001
3.00001
3.00001
3.00001
3.00001
3.00001
3.00001
3.00001
3.00001
3.00001
3.00001
3.00001
3.00001
3.00001
3.00001
3.00001
3.00001
3.00001
3.00001
3.00001
3.00001
3.00001
3.00001
3.00001
3.00001
3.00001
3.00001
3.00001
3.00001
3.00001
3.00001
3.00001
3.00001
3.00001
3.00001
3.00001
3.00001
3.00001
3.00001
3.00001
3.00001
3.00001
3.00001
3.00001
3.00001
3.00001
3.00001
3.00001
3.00001
3.00001
3.00001
3.00001
3.00001
3.00001
3.00001
3.00001
3.00001
3.00001
3.00001
3.00001
3.00001
3.00001
3.00001
3.00001
3.00001
3.00001
3.00001
3.00001
3.00001
3.00001
3.00001
3.00001
3.00001
3.00001
3.00001
3.00001
3.00001
3.00001
3.00001
3.00001
3.00001
3.00001
3.00001
3.00001
3.00001
1.3605
1.54254
1.59271
1.56104
1.4817
1.4005
1.32137
1.25735
1.23654
1.24199
1.25116
1.26444
1.28112
1.29211
1.29952
1.30639
1.31377
1.32272
1.33356
1.3463
1.36005
1.37431
1.38863
1.40297
1.41741
1.43193
1.4466
1.46159
1.47698
1.49275
1.50894
1.52558
1.54238
1.55856
1.57332
1.58653
1.59837
1.60848
1.61652
1.62302
1.62868
1.63403
1.63979
1.64767
1.66236
1.69023
1.73068
1.78172
1.84196
1.90946
1.982
2.05731
2.13327
2.20815
2.28052
2.34921
2.41335
2.47237
2.526
2.57423
2.61731
2.65565
2.68979
2.72024
2.7475
2.77205
2.79437
2.81484
2.83383
2.85163
2.86842
2.88432
2.89943
2.91375
2.92726
2.93987
2.95131
2.96133
2.96977
2.97678
2.98267
2.98789
2.99269
2.99671
2.99915
3.00136
3.00265
3.00312
3.00307
3.00272
3.00226
3.00178
3.00137
3.00099
3.00067
3.00045
3.00029
3.00018
3.00011
3.00007
1.33173
1.44804
1.50678
1.53973
1.57401
1.61884
1.65721
1.66585
1.66386
1.65421
1.63692
1.62463
1.62188
1.62878
1.63751
1.64876
1.65966
1.6689
1.67711
1.68514
1.69355
1.70264
1.71265
1.72332
1.73442
1.74579
1.75695
1.76775
1.77838
1.78889
1.79943
1.81056
1.82276
1.83564
1.84823
1.86015
1.87121
1.88059
1.88759
1.89261
1.89634
1.89938
1.90212
1.90502
1.90923
1.91732
1.93379
1.96205
1.99844
2.04177
2.09091
2.14476
2.20215
2.26175
2.32222
2.38232
2.44094
2.49722
2.55042
2.60004
2.64575
2.68741
2.72505
2.75882
2.78895
2.81572
2.8394
2.86029
2.87872
2.89504
2.90963
2.9228
2.93485
2.94594
2.95612
2.96533
2.97345
2.98033
2.98591
2.99035
2.99397
2.99715
3.00007
3.00212
3.00419
3.00544
3.00576
3.00547
3.00483
3.00405
3.0033
3.00259
3.0019
3.00136
3.00095
3.00065
3.00043
3.00028
3.00018
3.00012
1.31065
1.40761
1.48995
1.57732
1.66538
1.74903
1.80923
1.83944
1.84121
1.83972
1.83043
1.81386
1.80364
1.79834
1.80329
1.80887
1.81614
1.82505
1.83402
1.84192
1.84946
1.8573
1.86579
1.87477
1.88413
1.89393
1.90382
1.91364
1.92348
1.93317
1.94253
1.95192
1.96192
1.97233
1.98249
1.99225
2.00182
2.01043
2.01706
2.02199
2.02571
2.02873
2.03166
2.03561
2.0432
2.0583
2.08195
2.11225
2.14809
2.18833
2.232
2.27832
2.32673
2.37669
2.42762
2.47883
2.52955
2.57898
2.62641
2.67114
2.71265
2.75054
2.78455
2.81467
2.84105
2.86394
2.88368
2.90061
2.91509
2.92751
2.93825
2.94772
2.95626
2.96414
2.97145
2.9781
2.98393
2.9888
2.99266
2.99567
2.9981
3.00029
3.0023
3.00398
3.00576
3.00651
3.00647
3.00593
3.00513
3.00425
3.00343
3.00263
3.00192
3.00136
3.00095
3.00064
3.00043
3.00028
3.00018
3.00012
1.31259
1.40613
1.49133
1.57371
1.65224
1.72655
1.79112
1.84742
1.89026
1.9168
1.92705
1.92806
1.92711
1.92063
1.9165
1.91243
1.91582
1.91964
1.92449
1.93137
1.94017
1.94936
1.95895
1.96851
1.97808
1.9879
1.99798
2.00809
2.0183
2.02854
2.03838
2.04792
2.05775
2.068
2.07796
2.08748
2.09697
2.10598
2.11339
2.11946
2.12538
2.13274
2.14262
2.15559
2.17265
2.19427
2.22039
2.25061
2.28425
2.32057
2.35892
2.39881
2.43991
2.48192
2.52453
2.56732
2.60975
2.65119
2.69104
2.72874
2.76389
2.7962
2.82548
2.85164
2.87467
2.89467
2.91186
2.92653
2.939
2.9496
2.95867
2.96652
2.97345
2.97971
2.98545
2.99063
2.99507
2.99855
3.00104
3.00274
3.00401
3.00507
3.00621
3.00788
3.00876
3.00877
3.00816
3.0072
3.00609
3.00503
3.00397
3.00297
3.00217
3.00155
3.00109
3.00075
3.0005
3.00033
3.00022
3.00015
1.3072
1.40108
1.48574
1.56587
1.6423
1.71352
1.77993
1.84045
1.89364
1.94195
1.97517
1.99583
2.00447
2.00695
2.00708
2.00433
2.00082
1.99882
2.00045
2.0036
2.00834
2.01585
2.02576
2.03635
2.04748
2.05885
2.0699
2.08026
2.09009
2.09956
2.10873
2.11789
2.12764
2.13791
2.14808
2.15815
2.16864
2.17911
2.18925
2.19983
2.21185
2.22598
2.24228
2.26079
2.2821
2.30623
2.33299
2.36193
2.39262
2.42465
2.45785
2.492
2.52708
2.56294
2.5994
2.63615
2.67282
2.7089
2.74384
2.7771
2.80822
2.83689
2.86291
2.88616
2.90656
2.92411
2.93893
2.95124
2.96135
2.96967
2.97658
2.98243
2.98748
2.99194
2.99593
2.99947
3.00243
3.00461
3.00596
3.00672
3.00707
3.00727
3.00803
3.0094
3.00984
3.0095
3.00863
3.00748
3.00626
3.00511
3.00395
3.00293
3.00213
3.00152
3.00106
3.00073
3.00049
3.00032
3.00021
3.00014
1.29777
1.389
1.47279
1.55098
1.62438
1.6934
1.75818
1.81886
1.87502
1.92558
1.9707
2.01107
2.04075
2.06047
2.07138
2.0748
2.07557
2.07554
2.07449
2.0751
2.07769
2.08227
2.08901
2.09759
2.10842
2.12003
2.13158
2.1423
2.152
2.16111
2.16989
2.17857
2.1879
2.19826
2.20905
2.22048
2.23326
2.24712
2.26166
2.27726
2.29431
2.31292
2.33269
2.35357
2.37607
2.40028
2.42613
2.45336
2.48173
2.51111
2.54142
2.5726
2.60447
2.63677
2.66918
2.7014
2.73314
2.76407
2.79382
2.82203
2.84836
2.87258
2.89456
2.91422
2.93151
2.9464
2.95895
2.96925
2.97757
2.98425
2.9897
2.99424
2.99815
3.00161
3.00466
3.0073
3.00934
3.01065
3.01116
3.01105
3.0108
3.01065
3.01117
3.01187
3.01175
3.01095
3.00971
3.00829
3.00691
3.00552
3.0042
3.00312
3.00227
3.00163
3.00114
3.00078
3.00053
3.00035
3.00023
3.00015
1.287
1.37159
1.45256
1.52952
1.60224
1.67118
1.73665
1.79851
1.85635
1.9095
1.95783
2.00211
2.04101
2.07454
2.0992
2.11554
2.12637
2.13193
2.13506
2.13876
2.14203
2.14481
2.14924
2.15467
2.16068
2.1683
2.1781
2.18829
2.1982
2.2081
2.21812
2.22816
2.23894
2.25124
2.26434
2.27796
2.29321
2.31034
2.32897
2.34886
2.36988
2.39202
2.41482
2.43836
2.46263
2.48753
2.51295
2.53884
2.56515
2.59188
2.6191
2.64684
2.67499
2.70329
2.73138
2.75897
2.78584
2.81183
2.83677
2.86047
2.88266
2.9031
2.92163
2.93822
2.95283
2.96544