/*--------------------------------*- C++ -*----------------------------------*\
| =========                 |                                                 |
| \\      /  F ield         | OpenFOAM: The Open Source CFD Toolbox           |
|  \\    /   O peration     | Version:  2412                                  |
|   \\  /    A nd           | Website:  www.openfoam.com                      |
|    \\/     M anipulation  |                                                 |
\*---------------------------------------------------------------------------*/
FoamFile
{
    version     2.0;
    format      ascii;
    arch        "LSB;label=32;scalar=64";
    class       volScalarField;
    location    "0.5";
    object      p;
}
// * * * * * * * * * * * * * * * * * * * * * * * * * * * * * * * * * * * * * //

dimensions      [1 -1 -2 0 0 0 0];

internalField   nonuniform List<scalar> 
7000
(
1
1
1
1
1
1
1
1
1
1
1
1
1
1
1
1
1
1
1
1.00001
1.00001
1.00003
1.0001
0.998726
0.996465
0.996786
0.974389
0.999787
1.04546
0.944045
2.7545
4.21609
11.262
11.2488
10.8072
10.5276
10.509
10.5697
10.6802
10.7858
10.9082
11.0533
11.2086
11.3421
11.4327
11.4752
11.4727
11.4609
11.4265
11.4228
1
1
1
1
1
1
1
1
1
1
1
1
1
1
1
1
1
1
1
1
1
0.999931
0.999882
0.999079
0.996698
0.997128
0.974416
0.999262
1.04356
0.941417
2.75305
4.19416
11.2528
11.2475
10.8055
10.5278
10.51
10.5705
10.6795
10.7847
10.9074
11.0525
11.208
11.3418
11.4325
11.4751
11.4723
11.4605
11.4262
11.4221
1
1
1
1
1
1
1
1
1
1
1
1
1
1
1
1
1
1
1
1.00001
1.00001
1
1.00008
0.998919
0.997119
0.997565
0.972545
0.997244
1.03984
0.93754
2.74398
4.15025
11.2062
11.2418
10.7985
10.5239
10.5086
10.569
10.6765
10.7813
10.9039
11.0483
11.2034
11.3372
11.4283
11.4713
11.4683
11.4564
11.4221
11.4177
1
1
1
1
1
1
1
1
1
1
1
1
1
1
1
1
1
1
1
1.00001
1.00001
1.00002
1.00012
0.999059
0.997479
0.997796
0.973564
0.997481
1.03743
0.934393
2.73042
4.09221
11.1408
11.2354
10.7906
10.516
10.5038
10.5639
10.6702
10.7747
10.8973
11.0413
11.196
11.3298
11.4216
11.4649
11.4618
11.45
11.4155
11.411
1
1
1
1
1
1
1
1
1
1
1
1
1
1
1
1
1
1
1
1.00001
1.00001
0.999995
0.999985
0.999355
0.997842
0.997977
0.976798
0.998207
1.03409
0.931165
2.71045
4.02474
11.0454
11.2249
10.7786
10.5019
10.4927
10.5537
10.6606
10.7653
10.8877
11.0313
11.1857
11.3195
11.4119
11.4556
11.4527
11.4412
11.4066
11.4023
1
1
1
1
1
1
1
1
1
1
1
1
1
1
1
1
1
1
1.00001
1.00001
1.00001
1.00001
0.999985
0.999478
0.997895
0.998131
0.976213
0.996484
1.02889
0.923813
2.67819
3.93421
10.9144
11.2151
10.7665
10.4835
10.4757
10.5382
10.6474
10.753
10.8752
11.018
11.1718
11.3054
11.3983
11.4427
11.4401
11.4291
11.3948
11.3908
1
1
1
1
1
1
1
1
1
1
1
1
1
1
1
1
1
1
1.00001
1.00001
1.00001
1.00005
1.00005
0.999726
0.998705
0.998981
0.979619
0.996024
1.02328
0.917615
2.66808
3.77879
10.7589
11.2103
10.7574
10.4621
10.4538
10.5176
10.6303
10.7376
10.8594
11.0009
11.1535
11.2867
11.3799
11.4252
11.4229
11.4128
11.3792
11.376
1
1
1
1
1
1
1
1
1
1
1
1
1
1
1
1
1
1
1.00001
1.00001
1.00001
1.00006
1.00014
0.999836
0.999229
1
0.983204
0.992056
1.01948
0.91494
2.63845
3.54914
10.5439
11.2055
10.7505
10.4385
10.4281
10.4931
10.6099
10.7192
10.8403
10.9794
11.1303
11.2624
11.3556
11.4019
11.4005
11.3915
11.359
11.3567
1
1
1
1
1
1
1
1
1
1
1
1
1
1
1
1
1
1
1.00001
1.00001
1.00001
1.00009
1.00026
1.00017
0.999405
0.999171
0.987736
1.00109
0.990451
0.953947
2.5103
3.26708
10.2558
11.2097
10.7507
10.4161
10.3997
10.4654
10.5858
10.6974
10.8174
10.9528
11.1011
11.2315
11.3241
11.3715
11.371
11.3636
11.3327
11.3317
1
1
1
1
1
1
1
1
1
1
1
1
1
1
1
1
1
1
1.00001
1.00001
1.00004
1.00004
1.00023
1.00049
1.00038
1.00082
0.989159
0.997074
1.00161
0.88169
2.52519
3.16629
9.87574
11.2177
10.7552
10.3951
10.3693
10.435
10.5585
10.6725
10.7905
10.9211
11.0653
11.193
11.2845
11.3329
11.3331
11.3278
11.299
11.2994
1
1
1
1
1
1
1
1
1
1
1
1
1
1
1
1
1
1
1.00001
1.00001
1.00005
1.00006
1.00028
1.00044
1.00122
1.00492
1.00265
1.01449
0.997869
0.893502
2.43371
2.80474
9.41492
11.2412
10.7717
10.3764
10.3403
10.404
10.528
10.6443
10.7593
10.8833
11.0219
11.1458
11.2353
11.2841
11.2851
11.2819
11.2557
11.2577
1
1
1
1
1
1
1
1
1
1
1
1
1
1
1
1
1
1
1.00001
1.00001
1
1.00011
1.00019
1.00048
1.00164
1.00393
1.00609
1.03038
1.01216
0.924097
2.30587
2.49054
8.81938
11.2545
10.7914
10.3599
10.3137
10.3728
10.4927
10.6122
10.7226
10.838
10.9695
11.088
11.1745
11.2231
11.225
11.2241
11.2005
11.2042
1
1
1
1
1
1
1
1
1
1
1
1
1
1
1
1
1
1
1.00001
1.00001
1.00005
1.00007
1.00028
1.00048
1.00185
1.00284
1.01293
1.02002
1.07797
0.979841
2.08929
2.23656
7.92283
11.203
10.8051
10.3598
10.2921
10.342
10.4517
10.5744
10.6775
10.7837
10.906
11.0179
11.1002
11.1474
11.1498
11.151
11.1298
11.1354
1
1
1
1
1
1
1
1
1
1
1
1
1
1
1
1
1
1
1.00001
1.00001
1.00001
1.00008
1.00022
1.00038
1.00188
1.00229
1.01026
1.0179
1.07177
1.07083
1.82964
1.95913
6.90618
11.0915
10.8346
10.3805
10.2717
10.3108
10.4044
10.5284
10.6218
10.7167
10.8282
10.9318
11.0089
11.054
11.0563
11.0588
11.0395
11.0469
1
1
1
1
1
1
1
1
1
1
1
1
1
1
1
1
1
1
1
1.00002
1.00002
1.00009
1.00013
1.00038
1.00084
1.00259
1.00245
1.02701
1.06647
1.07283
1.69241
1.78124
5.81195
10.827
10.8043
10.469
10.267
10.2815
10.3481
10.4693
10.5522
10.6334
10.7321
10.8262
10.8965
10.9377
10.9388
10.9411
10.9223
10.931
1
1
1
1
1
1
1
1
1
1
1
1
1
1
1
1
1
1
1
1.00002
1.00002
1.00011
1.00012
1.00059
1.00046
1.00311
1.00704
1.01404
1.0686
1.05656
1.57246
1.68405
5.03955
10.1129
10.7858
10.5132
10.2468
10.2345
10.2848
10.3949
10.4658
10.5295
10.613
10.6955
10.7577
10.7931
10.7906
10.7898
10.7695
10.7782
1
1
1
1
1
1
1
1
1
1
1
1
1
1
1
1
1
1
1
1.00002
1.00002
1.00011
1.00016
1.00055
1.0006
1.00259
1.00626
1.01258
1.05664
1.04568
1.45676
1.51329
4.43972
9.08431
10.8054
10.562
10.2129
10.168
10.2135
10.3061
10.3617
10.4041
10.4682
10.535
10.585
10.6107
10.6009
10.5911
10.5621
10.5685
1
1
1
1
1
1
1
1
1
1
1
1
1
1
1
1
1
1
1
1.00001
1.00002
1.0001
1.00011
1.00066
1.00074
1.00375
1.00494
1.02255
1.01155
0.9831
1.41489
1.3164
4.03683
7.87511
10.9012
10.6536
10.183
10.0818
10.1287
10.1975
10.2377
10.256
10.2942
10.34
10.3718
10.3802
10.3581
10.3274
10.2725
10.2662
1
1
1
1
1
1
1
1
1
1
1
1
1
1
1
1
1
1
1
1
1.00001
1.00005
1.00006
1.00046
1.00049
1.00346
1.00537
1.02572
1.01513
1.07976
1.21805
1.19728
3.28513
6.35342
10.9235
10.6831
10.1366
9.98334
10.006
10.0581
10.0842
10.0851
10.094
10.1087
10.1115
10.0958
10.0419
9.96411
9.85054
9.79127
1
1
1
1
1
1
1
1
1
1
1
1
1
1
1
1
1
1
1
1
1
1.00001
1
1.00013
1.00018
1.0013
1.00223
1.01273
1.0024
1.04583
1.12387
1.03792
2.92354
4.82117
10.775
10.5801
10.1457
9.87214
9.8596
9.88251
9.897
9.88639
9.86359
9.84171
9.80717
9.74414
9.62373
9.45365
9.19694
8.94099
1
1
1
1
1
1
1
1
1
1
1
1
1
1
1
1
1
1
1
1
1
1
0.999988
1
1.00009
0.999021
0.997445
0.998239
0.984109
1.00885
1.04762
0.949013
2.57762
3.64922
9.72109
10.3561
10.052
9.72133
9.65406
9.66029
9.65961
9.62636
9.56392
9.49347
9.40063
9.25735
9.01628
8.6244
7.92105
6.38902
1
1
1
1
1
1
1
1
1
1
1
1
1
1
1
1
1
1
1
1
1
1.00001
1
1.00007
1.00021
1.00008
1.00101
1.00234
0.996965
1.01428
1.01554
0.924477
2.2887
2.39444
8.16307
10.097
9.92008
9.55519
9.42174
9.39052
9.36304
9.31041
9.21559
9.08893
8.92713
8.6888
8.32172
7.75328
6.89146
5.38895
1
1
1
1
1
1
1
1
1
1
1
1
1
1
1
1
1
1
1
1
1
1.00002
1.00002
1.00008
1.00013
1.00042
1.0014
1.00166
1.01057
1.01674
1.06599
1.05931
1.67584
1.75541
5.36712
9.56215
9.78079
9.55104
9.29001
9.16554
9.08969
8.99722
8.86904
8.69606
8.47443
8.17068
7.74352
7.14399
6.35758
5.24873
1
1
1
1
1
1
1
1
1
1
1
1
1
1
1
1
1
1
1
1
1
1.00001
1.00001
1.00008
1.0001
1.00005
1.00151
1.00313
1.00593
1.01603
1.02339
1.08972
1.35107
1.38147
3.92314
7.86867
9.56596
9.50574
9.23837
8.98337
8.8322
8.70693
8.55104
8.34124
8.09184
7.75628
7.32804
6.77699
6.10898
5.25696
1
1
1
1
1
1
1
1
1
1
1
1
1
1
1
1
1
1
1
1
1
1
1
1.00001
1.00003
1.00007
1.00012
1.00052
1.00099
1.00795
0.998558
1.03906
1.10921
1.03118
2.70503
4.12324
8.96971
9.37889
9.16165
8.79022
8.57591
8.43759
8.27511
8.06249
7.78693
7.4492
7.04146
6.54949
5.98039
5.28081
1
1
1
1
1
1
1
1
1
1
1
1
1
1
1
1
1
1
1
1
1
1
1
1.00002
1.00003
1.00001
1.00027
1.00022
1.00133
1.00417
0.999106
1.02992
1.01817
0.924445
2.20304
2.34853
7.41419
9.03664
8.97125
8.70529
8.40128
8.195
8.02458
7.81169
7.54493
7.22214
6.84287
6.40235
5.90913
5.3191
1
1
1
1
1
1
1
1
1
1
1
1
1
1
1
1
1
1
1
1
1
1
1
1.00001
1.00001
1.00004
1.00008
1.0002
1.00012
1.00175
1.00417
0.995474
1.0107
1.04814
0.975566
2.50723
3.10001
8.06237
8.72605
8.58466
8.31477
8.04531
7.82714
7.60848
7.35287
7.05004
6.69998
6.30236
5.86642
5.3551
1
1
1
1
1
1
1
1
1
1
1
1
1
1
1
1
1
1
1
1
1
1
1
1
1.00001
1.00002
1.00007
1.00015
1.00039
1.00157
1.00203
1.00935
1.0185
1.06306
1.04639
1.69877
1.77724
5.09551
7.98865
8.36749
8.24713
8.00483
7.72388
7.47278
7.21575
6.92982
6.60746
6.24507
5.85093
5.39306
1
1
1
1
1
1
1
1
1
1
1
1
1
1
1
1
1
1
1
1
1
1
1
1
1
1.00001
1.00001
0.999993
1.00002
0.999709
0.99922
1.00872
1.023
1.02434
1.08197
1.2389
1.23077
2.98964
5.56133
7.69472
8.07457
7.9678
7.70005
7.37908
7.0941
6.82007
6.52908
6.20358
5.85015
5.43459
1
1
1
1
1
1
1
1
1
1
1
1
1
1
1
1
1
1
1
1
1
1
1
1
1
1.00001
1.00001
1.00005
1.00005
1.00029
1.00037
1.00168
1.00159
1.01284
1.02296
1.08754
1.01589
2.10184
2.30159
6.10588
7.66315
7.80175
7.66448
7.37904
7.06463
6.76697
6.47688
6.17457
5.85389
5.48374
1
1
1
1
1
1
1
1
1
1
1
1
1
1
1
1
1
1
1
1
1
1
1
1
1
1
1
1.00001
1.00001
1.00004
1.00004
1.00043
1.00093
1.00158
0.998974
1.04701
1.02465
1.37328
1.43855
3.33267
6.01904
7.27799
7.46984
7.35616
7.07683
6.77008
6.47711
6.17983
5.86842
5.52205
1
1
1
1
1
1
1
1
1
1
1
1
1
1
1
1
1
1
1
1
1
1
1
1
1
1
1
1.00001
1.00001
1.00004
1.00006
1.00021
1.00013
1.00126
1.00511
0.999673
1.02504
1.06058
1.00732
2.15038
2.38136
5.93017
7.00767
7.15633
7.04554
6.79058
6.48884
6.19366
5.89593
5.57371
1
1
1
1
1
1
1
1
1
1
1
1
1
1
1
1
1
1
1
1
1
1
1
1
1
1
1
1
1.00001
1.00001
1.00003
1.00007
1.00018
0.999987
1.00194
1.00408
1.00588
1.03418
1.06025
1.007
2.10416
2.42706
5.27045
6.57551
6.82677
6.74364
6.54586
6.24218
5.94814
5.63602
1
1
1
1
1
1
1
1
1
1
1
1
1
1
1
1
1
1
1
1
1
1
1
1
1
1
1
1
1
1
1.00001
1.00001
1.00008
1.00014
1.0003
1.00112
1.00212
1.00776
1.03256
1.05179
1.29851
1.37773
2.73161
4.67437
6.06517
6.50387
6.47119
6.32129
6.05676
5.74224
1
1
1
1
1
1
1
1
1
1
1
1
1
1
1
1
1
1
1
1
1
1
1
1
1
1
1
1
1
1
1
1.00001
1.00003
1.00003
1.00023
1.00023
1.00128
1.00295
1.00079
1.02131
1.04994
1.01022
1.81021
1.82199
4.07757
5.6601
6.1849
6.17873
6.0746
5.85008
1
1
1
1
1
1
1
1
1
1
1
1
1
1
1
1
1
1
1
1
1
1
1
1
1
1
1
1
1
1
1
1
1
1.00003
1.00003
1.00018
1.00031
1.00111
1.00207
1.00853
1.01521
1.05836
1.10913
1.51272
1.64074
3.24501
5.12328
5.74509
5.88353
5.80923
1
1
1
1
1
1
1
1
1
1
1
1
1
1
1
1
1
1
1
1
1
1
1
1
1
1
1
1
1
1
1
1
1
1
1.00002
1.00003
1.00015
1.00017
1.00108
1.00105
1.00702
1.00635
1.05072
1.0424
1.38645
1.37816
2.68517
4.14931
5.15606
5.52077
1
1
1
1
1
1
1
1
1
1
1
1
1
1
1
1
1
1
1
1
1
1
1
1
1
1
1
1
1
1
1
1
1
1
1
1
1.00004
1.00005
1.00026
1.00034
1.00176
1.0019
1.00937
1.01915
1.07093
1.04329
1.61782
1.79288
3.02861
4.56651
1
1
1
1
1
1
1
1
1
1
1
1
1
1
1
1
1
1
1
1
1
1
1
1
1
1
1
1
1
1
1
1
1
1
1
1
1
1.00002
1.00002
1.00012
1.00023
1.00035
1.00216
1.00372
1.00305
1.04624
1.12229
1.13319
1.69918
2.02163
1
1
1
1
1
1
1
1
1
1
1
1
1
1
1
1
1
1
1
1
1
1
1
1
1
1
1
1
1
1
1
1
1
1
1
1
1
1.00001
1.00001
1.00005
1.00005
1.00035
1.00034
1.00227
1.00242
1.0122
1.01555
1.01115
1.2117
1.22668
1
1
1
1
1
1
1
1
1
1
1
1
1
1
1
1
1
1
1
1
1
1
1
1
1
1
1
1
1
1
1
1
1
1
1
1
1
1
1.00001
1.00001
1.00004
1.00005
1.00028
1.00043
1.00187
1.00123
1.007
1.013
1.00519
1.17694
1
1
1
1
1
1
1
1
1
1
1
1
1
1
1
1
1
1
1
1
1
1
1
1
1
1
1
1
1
1
1
1
1
1
1
1
1
1
1
1.00001
1.00001
1.00004
1.00004
1.00024
1.00022
1.00152
1.00138
1.00938
1.01439
1.01555
1
1
1
1
1
1
1
1
1
1
1
1
1
1
1
1
1
1
1
1
1
1
1
1
1
1
1
1
1
1
1
1
1
1
1
1
1
1
1
1
1
1.00001
1.00001
1.00008
1.00007
1.0005
1.00044
1.00305
1.00513
1.00571
1
1
1
1
1
1
1
1
1
1
1
1
1
1
1
1
1
1
1
1
1
1
1
1
1
1
1
1
1
1
1
1
1
1
1
1
1
1
1
1
1
1
1
1.00001
1.00001
1
1.00028
1.00079
1.00058
1.00694
1
1
1
1
1
1
1
1
1
1
1
1
1
1
1
1
1
1
1
1
1
1
1
1
1
1
1
1
1
1
1
1
1
1
1
1
1
1
1
1
1
1
1
1
1
1
1.00009
1.00024
1.00017
1.00219
1
1
1
1
1
1
1
1
1
1
1
1
1
1
1
1
1
1
1
1
1
1
1
1
1
1
1
1
1
1
1
1
1
1
1
1
1
1
1
1
1
1
0.999999
1
1
0.999997
1.00002
1.00007
1.00006
1.00061
1
1
1
1
1
1
1
1
1
1
1
1
1
1
1
1
1
1
1
1
1
1
1
1
1
1
1
1
1
1
1
1
1
1
1
1
1
1
1
1
1
1
1
1
1
1
1
1.00002
1.00003
1.00003
1
1
1
1
1
1
1
1
1
1
1
1
1
1
1
1
1
1
1
1
1
1
1
1
1
1
1
1
1
1
1
1
1
1
1
1
1
1
1
1
1
1
1
1
1
1
1
1
1
1.00004
1
1
1
1
1
1
1
1
1
1
1
1
1
1
1
1
1
1
1
1
1
1
1
1
1
1
1
1
1
1
1
1
1
1
1
1
1
1
1
1
1
1
1
1
1
1
1
1
1
1.00001
1
1
1
1
1
1
1
1
1
1
1
1
1
1
1
1
1
1
1
1
1
1
1
1
1
1
1
1
1
1
1
1
1
1
1
1
1
1
1
1
1
1
1
1
1
1
1
1
1
1
1
1
1
1
1
1
1
1
1
1
1
1
1
1
1
1
1
1
1
1
1
1
1
1
1
1
1
1
1
1
1
1
1
1
1
1
1
1
1
1
1
1
1
1
1
1
1
1
1
1
1
1
1
1
1
1
1
1
1
1
1
1
1
1
1
1
1
1
1
1
1
1
1
1
1
1
1
1
1
1
1
1
1
1
1
1
1
1
1
1
1
1
1
1
1
1
1
1
1
1
1
1
1
1
1
1
1
1
1
1
1
1
1
1
1
1
1
1
1
1
1
1
1
1
1
1
1
1
1
1
1
1
1
1
1
1
1
1
1
1
1
1
1
1
1
1
1
1
1
1
1
1
1
1
1
1
1
1
1
1
1
1
1
1
1
1
1
1
1
1
1
1
1
1
1
1
1
1
1
1
1
1
1
1
1
1
1
1
1
1
1
1
1
1
1
1
1
1
1
1
1
1
1
1
1
1
1
1
1
1
1
1
1
1
1
1
1
1
1
1
1
1
1
1
1
1
1
1
1
1
1
1
1
1
1
1
1
1
1
1
1
1
1
1
1
1
1
1
1
1
1
1
1
1
1
1
1
1
1
1
1
1
1
1
1
1
1
1
1
1
1
1
1
1
1
1
1
1
1
1
1
1
1
1
1
1
1
1
1
1
1
1
1
1
1
1
1
1
1
1
1
1
1
1
1
1
1
1
1
1
1
1
1
1
1
1
1
1
1
1
1
1
1
1
1
1
1
1
1
1
1
1
1
1
1
1
1
1
1
1
1
1
1
1
1
1
1
1
1
1
1
1
1
1
1
1
1
1
1
1
1
1
1
1
1
1
1
1
1
1
1
1
1
1
1
1
1
1
1
1
1
1
1
1
1
1
1
1
1
1
1
1
1
1
1
1
1
1
1
1
1
1
1
1
1
1
1
1
1
1
1
1
1
1
1
1
1
1
1
1
1
1
1
1
1
1
1
1
1
1
1
1
1
1
1
1
1
1
1
1
1
1
1
1
1
1
1
1
1
1
1
1
1
1
1
1
1
1
1
1
1
1
1
1
1
1
1
1
1
1
1
1
1
1
1
1
1
1
1
1
1
1
1
1
1
1
1
1
1
1
1
1
1
1
1
1
1
1
1
1
2.19122
1.09525
0.730298
0.61479
0.625514
0.666389
0.758042
0.899489
0.982704
0.997289
0.993715
0.983265
0.962999
0.950175
0.946407
0.946192
0.945538
0.943788
0.939933
0.932432
0.923865
0.914937
0.906269
0.89827
0.891061
0.884552
0.878549
0.872844
0.867312
0.8619
0.856626
0.851605
0.846963
0.842762
0.839168
0.83631
0.833986
0.832475
0.832141
0.832208
0.832507
0.833384
0.835422
0.83779
0.842023
0.846945
0.851515
0.85661
0.862248
0.868407
0.875004
0.881938
0.889153
0.896552
0.904049
0.911573
0.919065
0.926481
0.933787
0.940962
0.947984
0.954818
0.961416
0.967743
0.973781
0.979522
0.984969
0.990146
0.995071
0.999744
1.00412
1.0081
1.01155
1.01432
1.01629
1.01745
1.01792
1.018
1.01798
1.01788
1.01756
1.01673
1.01491
1.01223
1.01013
1.0078
1.00578
1.00417
1.00293
1.002
1.00133
1.00085
1.00051
1.00031
1.00018
1.0001
1.00005
1.00002
1.00001
0.999988
2.90014
1.75266
1.27237
1.07152
0.986768
0.937158
0.886785
0.883229
0.888729
0.903144
0.932097
0.964144
0.977197
0.975888
0.971514
0.962192
0.951031
0.941699
0.933953
0.927254
0.920879
0.9143
0.907365
0.900147
0.892891
0.885832
0.879097
0.872724
0.866731
0.861097
0.855788
0.850866
0.846379
0.842321
0.838855
0.83607
0.833743
0.832196
0.831833
0.83189
0.832162
0.832971
0.834771
0.837845
0.841413
0.845841
0.851674
0.856469
0.861937
0.867984
0.874454
0.88126
0.888305
0.895545
0.90293
0.910396
0.917877
0.925319
0.932684
0.939937
0.947044
0.95397
0.960662
0.96708
0.973189
0.978987
0.984494
0.989733
0.994722
0.999457
1.00389
1.00793
1.01143
1.01423
1.01623
1.01741
1.01792
1.01801
1.018
1.0179
1.01759
1.01675
1.01488
1.01265
1.01009
1.00771
1.00574
1.00416
1.00294
1.00202
1.00132
1.00081
1.00051
1.00032
1.00018
1.0001
1.00005
1.00002
1.00001
0.999985
3.69194
2.63598
1.97051
1.53771
1.24963
1.05715
0.931856
0.862373
0.860027
0.864855
0.878659
0.906845
0.93459
0.954547
0.958433
0.957476
0.954276
0.947289
0.936666
0.927208
0.91885
0.911341
0.904166
0.897129
0.890218
0.883491
0.877049
0.870913
0.86509
0.85956
0.854306
0.849423
0.844973
0.840939
0.837522
0.834793
0.832497
0.831012
0.830709
0.830777
0.831074
0.831918
0.833814
0.836626
0.84074
0.845782
0.850583
0.855821
0.86154
0.867694
0.874218
0.881043
0.88811
0.895369
0.902764
0.910237
0.917728
0.925184
0.932563
0.939831
0.94695
0.953874
0.960572
0.967005
0.973142
0.978972
0.984515
0.98979
0.994813
0.999579
1.00404
1.0081
1.01162
1.01442
1.01641
1.01757
1.01807
1.01816
1.01815
1.01805
1.01774
1.01689
1.01503
1.0127
1.00998
1.00764
1.0057
1.00414
1.00292
1.002
1.00128
1.00081
1.00051
1.00031
1.00018
1.0001
1.00005
1.00002
1.00001
0.999985
4.10984
3.17245
2.45963
1.94432
1.58218
1.33114
1.16003
1.04319
0.960464
0.914869
0.89451
0.895602
0.900453
0.911654
0.928233
0.943005
0.948219
0.94769
0.945239
0.939595
0.928141
0.917311
0.907284
0.898384
0.890492
0.883438
0.877049
0.871091
0.865416
0.859937
0.854631
0.849642
0.845049
0.840883
0.837367
0.83456
0.832232
0.830744
0.830457
0.83053
0.830826
0.831648
0.833425
0.836704
0.840732
0.845273
0.850253
0.855623
0.861365
0.867477
0.873935
0.8807
0.887721
0.894947
0.902325
0.909797
0.917304
0.924793
0.932217
0.939538
0.946717
0.953714
0.960485
0.96699
0.973202
0.979116
0.984743
0.99011
0.995232
1.00009
1.00462
1.00871
1.01223
1.01501
1.01696
1.01806
1.0185
1.01856
1.01854
1.01843
1.01807
1.01717
1.01526
1.01251
1.00987
1.00759
1.00567
1.00413
1.00291
1.00194
1.00125
1.00082
1.00052
1.00032
1.00019
1.0001
1.00005
1.00002
1.00001
0.999983
4.36212
3.54771
2.86433
2.32432
1.9169
1.61468
1.38942
1.21993
1.09584
1.00118
0.936099
0.901165
0.889441
0.890452
0.894104
0.902489
0.913945
0.923077
0.925874
0.925335
0.923264
0.918459
0.908846
0.899176
0.889964
0.881635
0.874278
0.867689
0.861731
0.856287
0.851177
0.846462
0.842144
0.838214
0.834936
0.832303
0.830092
0.828786
0.828606
0.828694
0.829031
0.829935
0.831891
0.835266
0.839302
0.843924
0.849036
0.854569
0.860484
0.866752
0.873339
0.880206
0.887304
0.894585
0.902
0.909493
0.917008
0.924495
0.931911
0.939221
0.946393
0.95339
0.960175
0.96671
0.972975
0.978967
0.984694
0.990175
0.995421
1.0004
1.00505
1.00923
1.01279
1.01558
1.0175
1.01857
1.01896
1.019
1.01897
1.01882
1.0184
1.01727
1.01522
1.01236
1.00975
1.00748
1.00559
1.00406
1.00283
1.00187
1.00123
1.00081
1.00051
1.00031
1.00018
1.0001
1.00005
1.00002
1.00001
0.999983
4.54545
3.83929
3.20816
2.67276
2.24158
1.90303
1.6398
1.43557
1.27856
1.15707
1.06575
0.993503
0.942574
0.912624
0.895659
0.893825
0.894958
0.898008
0.904189
0.910304
0.912628
0.91215
0.910229
0.90591
0.897369
0.888293
0.879375
0.871072
0.863624
0.857088
0.851306
0.846248
0.841818
0.837887
0.834721
0.832191
0.830088
0.828966
0.828826
0.828915
0.829263
0.830197
0.832213
0.835494
0.839413
0.843933
0.848985
0.854499
0.860416
0.866684
0.873267
0.880116
0.88719
0.894446
0.901825
0.909273
0.916739
0.924179
0.931555
0.938832
0.945979
0.952966
0.959754
0.966306
0.972603
0.978654
0.984477
0.99009
0.995493
1.00064
1.00544
1.00974
1.01338
1.01619
1.01811
1.01916
1.01955
1.0196
1.01954
1.01933
1.01875
1.01756
1.01517
1.01227
1.00966
1.0074
1.00553
1.00399
1.00273
1.00182
1.00123
1.0008
1.00051
1.00031
1.00018
1.0001
1.00005
1.00002
1.00001
0.999983
4.68863
4.07174
3.49593
2.97985
2.54112
2.1803
1.88888
1.65533
1.46905
1.32014
1.20131
1.10671
1.03174
0.973315
0.931566
0.906084
0.89176
0.885378
0.88554
0.886386
0.887564
0.88992
0.890644
0.890186
0.888696
0.885381
0.879082
0.87184
0.864437
0.857163
0.850406
0.844379
0.83919
0.834735
0.831253
0.828689
0.826622
0.825716
0.825694
0.825851
0.826374
0.827606
0.830136
0.833582
0.837707
0.842456
0.847743
0.853491
0.859634
0.866115
0.872883
0.879888
0.887089
0.894439
0.901902
0.909441
0.917004
0.924542
0.932009
0.939362
0.946564
0.953586
0.960393
0.966929
0.973196
0.979224
0.985053
0.990705
0.996168
1.00138
1.00623
1.01056
1.01417
1.01691
1.01872
1.01966
1.01993
1.01994
1.01996
1.01983
1.01933
1.01804
1.0154
1.01227
1.00958
1.0073
1.00542
1.00387
1.00263
1.00178
1.0012
1.00078
1.00049
1.0003
1.00017
1.0001
1.00005
1.00002
1.00001
0.999984
4.79876
4.24809
3.72382
3.23695
2.80545
2.43636
2.12806
1.87373
1.66578
1.49568
1.35679
1.24345
1.15101
1.07617
1.01556
0.966377
0.929382
0.904061
0.887621
0.878522
0.874376
0.873304
0.873458
0.87396
0.875033
0.874829
0.873988
0.872006
0.867994
0.861844
0.855076
0.848246
0.842019
0.836616
0.832125
0.828818
0.826329
0.824815
0.82464
0.824751
0.825184
0.826269
0.828567
0.832099
0.836364
0.84126
0.846691
0.852593
0.858904
0.865558
0.872503
0.879677
0.887041
0.894554
0.902177
0.909864
0.917563
0.925226
0.932811
0.940267
0.947553
0.954648
0.961528
0.968177
0.974563
0.980728
0.986669
0.992397
0.997913
1.00316
1.00801
1.01228
1.01574
1.01824
1.01975
1.0205
1.02092
1.02115
1.02111
1.02083
1.02008
1.01829
1.01526
1.01219
1.00951
1.00723
1.00534
1.00376
1.00255
1.00176
1.00119
1.00077
1.00049
1.0003
1.00017
1.0001
1.00005
1.00002
1.00001
0.999984
4.88939
4.38604
3.91104
3.4552
3.03726
2.66923
2.35323
2.0859
1.86149
1.67406
1.51816
1.38817
1.27965
1.18878
1.11254
1.0487
0.995537
0.951499
0.916924
0.892729
0.875938
0.865788
0.860517
0.857912
0.857496
0.857615
0.857972
0.857886
0.85736
0.856037
0.853114
0.848163
0.842793
0.83757
0.832823
0.828881
0.825866
0.823562
0.822597
0.82261
0.822842
0.823568
0.825213
0.828568
0.832967
0.837978
0.843511
0.849526
0.855977
0.862784
0.869887
0.877259
0.884828
0.892532
0.900355
0.908282
0.916229
0.924115
0.931949
0.939683
0.947209
0.954556
0.961745
0.968624
0.975224
0.981596
0.98778
0.993792
0.99956
1.00497
1.00989
1.01411
1.01741
1.01967
1.02104
1.02193
1.02233
1.02232
1.02217
1.0217
1.02052
1.01807
1.01493
1.01194
1.0093
1.00704
1.00515
1.00358
1.00247
1.00171
1.00115
1.00075
1.00047
1.00029
1.00017
1.00009
1.00005
1.00002
1.00001
0.999985
4.98912
4.52091
4.07203
3.64076
3.24032
2.87964
2.56237
2.28748
2.05241
1.85243
1.68277
1.53875
1.41634
1.31193
1.22272
1.1463
1.08083
1.02503
0.977832
0.938054
0.90582
0.882427
0.865935
0.855322
0.849247
0.84648
0.845026
0.844831
0.844955
0.844961
0.844716
0.843859
0.841905
0.838561
0.835093
0.831802
0.828959
0.826518
0.825065
0.82482
0.824911
0.825318
0.826409
0.828766
0.832568
0.83714
0.842353
0.848144
0.854459
0.861193
0.868234
0.875542
0.883099
0.890822
0.898591
0.906429
0.914472
0.922432
0.930279
0.938123
0.945782
0.953197
0.960681
0.967786
0.974602
0.981372
0.987929
0.994316
1.00048
1.00621
1.01132
1.0156
1.01887
1.02111
1.02273
1.02359
1.02367
1.02361
1.02331
1.02256
1.02079
1.01806
1.01478
1.01176
1.00911
1.00686
1.00496
1.00344
1.00242
1.00167
1.00112
1.00073
1.00046
1.00028
1.00017
1.00009
1.00005
1.00002
1.00001
0.999987
5.06193
4.6257
4.20784
3.80263
3.42118
3.07086
2.75562
2.47793
2.236
2.02679
1.84627
1.69075
1.55651
1.44036
1.33953
1.25173
1.17509
1.10835
1.05047
1.00051
0.958303
0.922847
0.893257
0.871905
0.856569
0.846053
0.839392
0.835481
0.833311
0.831968
0.831207
0.831004
0.830768
0.830286
0.829433
0.828412
0.827392
0.826614
0.826274
0.826244
0.826412
0.827155
0.828906
0.831604
0.835154
0.839451
0.844464
0.850169
0.8564
0.86303
0.86993
0.877034
0.88428
0.891625
0.899465
0.907151
0.914773
0.922438
0.930125
0.937758
0.945232
0.952622
0.95995
0.967045
0.974019
0.981108
0.987928
0.994401
1.00088
1.00687
1.01216
1.01652
1.01991
1.02253
1.02405
1.02443
1.02441
1.02436
1.02405
1.02325
1.02133
1.01812
1.01459
1.01149
1.00884
1.0066
1.00471
1.0033
1.00233
1.0016
1.00107
1.0007
1.00044
1.00027
1.00016
1.00009
1.00005
1.00002
1.00001
0.999988
5.14009
4.72273
4.33145
3.94972
3.5842
3.2446
2.93573
2.65869
2.41284
2.19697
2.00794
1.84286
1.69829
1.57169
1.46036
1.36238
1.27605
1.19989
1.1331
1.07461
1.02403
0.980165
0.94372
0.912112
0.885665
0.865415
0.850207
0.839062
0.831153
0.825928
0.822647
0.820645
0.819205
0.818804
0.818864
0.819052
0.819518
0.820446
0.821709
0.823271
0.825312
0.827751
0.830577
0.834039
0.838162
0.842808
0.848064
0.853977
0.860411
0.86722
0.874357
0.881668
0.889472
0.897676
0.905441
0.913191
0.92089
0.928461
0.935836
0.943002
0.949989
0.956832
0.963593
0.970318
0.977009
0.98362
0.990141
0.996717
1.00302
1.00885
1.01409
1.0185
1.02196
1.02404
1.02514
1.02556
1.02564
1.02554
1.02518
1.02417
1.02185
1.01812
1.01443
1.0113
1.00863
1.00637
1.00452
1.00321
1.00226
1.00155
1.00103
1.00067
1.00042
1.00026
1.00015
1.00009
1.00005
1.00002
1.00001
0.999989
5.22155
4.81985
4.44305
4.0805
3.73423
3.40639
3.10372
2.82919
2.58249
2.3624
2.16684
1.99369
1.84023
1.7043
1.58359
1.47647
1.3813
1.2969
1.2222
1.15624
1.09837
1.04755
1.0035
0.965033
0.932249
0.903801
0.879427
0.859869
0.844511
0.832707
0.823755
0.817419
0.813041
0.810528
0.809063
0.808419
0.808485
0.808849
0.809755
0.811632
0.814462
0.818209
0.82234
0.827186
0.832731
0.838605
0.845128
0.85256
0.860437
0.868268
0.876222
0.884883
0.893873
0.902281
0.910608
0.918807
0.926821
0.934647
0.942289
0.949719
0.956889
0.963805
0.97048
0.976983
0.983306
0.989497
0.995615
1.0017
1.00767
1.0133
1.01819
1.02206
1.02466
1.02621
1.02704
1.02736
1.02737
1.0272
1.02665
1.02515
1.02192
1.0177
1.01409
1.01098
1.00834
1.00608
1.00432
1.00309
1.00216
1.00147
1.00098
1.00064
1.0004
1.00025
1.00015
1.00008
1.00005
1.00002
1.00001
0.999991
5.32016
4.91696
4.54808
4.19901
3.8674
3.55695
3.26435
2.99397
2.7473
2.52385
2.32276
2.14252
1.98111
1.83678
1.70768
1.59238
1.48944
1.39773
1.31614
1.24375
1.1795
1.12269
1.07255
1.02823
0.98936
0.955037
0.92521
0.89904
0.87602
0.856887
0.841394
0.828984
0.819253
0.811992
0.806716
0.803497
0.801554
0.801519
0.801643
0.802127
0.803366
0.805914
0.809135
0.813408
0.819148
0.825221
0.832216
0.840564
0.849083
0.857372
0.866941
0.877456
0.88746
0.897543
0.907602
0.917505
0.927125
0.936347
0.945105
0.953362
0.961153
0.968517
0.975565
0.982373
0.989122
0.995742
1.00212
1.0082
1.01402
1.01939
1.02384
1.02703
1.02891
1.02976
1.03011
1.03024
1.03013
1.02975
1.0285
1.02562
1.0213
1.01729
1.01375
1.01067
1.00803
1.00581
1.00416
1.00297
1.00207
1.00141
1.00094
1.00061
1.00039
1.00024
1.00014
1.00008
1.00005
1.00002
1.00001
0.999992
5.43654
5.02541
4.66177
4.32392
4.00145
3.69799
3.4162
3.15235
2.90629
2.68024
2.47442
2.28791
2.11936
1.96757
1.83112
1.70873
1.59906
1.50099
1.41337
1.33517
1.26555
1.20345
1.14804
1.09859
1.0545
1.01512
0.980104
0.948811
0.921297
0.896801
0.874927
0.856413
0.841071
0.828535
0.818409
0.810692
0.804715
0.800938
0.798243
0.798055
0.798289
0.799071
0.800865
0.804337
0.808324
0.812843
0.817967
0.8249
0.832109
0.839353
0.849133
0.859422
0.869861
0.880758
0.891964
0.903305
0.9146
0.925695
0.936461
0.946806
0.956647
0.965976
0.974828
0.983244
0.991243
0.998836
1.006
1.0128
1.01909
1.02461
1.02905
1.03192
1.03319
1.03353
1.03353
1.03348
1.03305
1.03191
1.02915
1.02512
1.0208
1.01683
1.0133
1.01025
1.00764
1.0055
1.00397
1.00283
1.00196
1.00134
1.00089
1.00058
1.00036
1.00023
1.00013
1.00008
1.00004
1.00002
1.00001
0.999994
5.51647
5.14214
4.78938
4.45685
4.14556
3.84884
3.56826
3.30552
3.06218
2.83633
2.62704
2.43442
2.25869
2.09949
1.95593
1.82692
1.71111
1.60732
1.51425
1.43088
1.3561
1.28903
1.22883
1.17473
1.12606
1.08225
1.0429
1.00744
0.975664
0.947109
0.921783
0.899045
0.878504
0.86068
0.845826
0.833407
0.823227
0.815324
0.809141
0.805028
0.8021
0.801103
0.801261
0.801957
0.80351
0.806739
0.810843
0.816669
0.823051
0.828794
0.836732
0.845427
0.854339
0.863978
0.874343
0.885393
0.896945
0.90882
0.920833
0.932815
0.944604
0.956057
0.967109
0.97774
0.987871
0.99741
1.00624
1.01427
1.02142
1.02752
1.03227
1.03533
1.03634
1.03645
1.03638
1.03608
1.03515
1.03305
1.02936
1.0249
1.02039
1.01633
1.0128
1.00979
1.00723
1.00522
1.00378
1.00268
1.00186
1.00126
1.00084
1.00055
1.00035
1.00021
1.00013
1.00008
1.00004
1.00002
1.00001
0.999995
5.46145
5.23694
4.94821
4.62064
4.30149
4.00169
3.72044
3.45754
3.21156
2.98229
2.76949
2.57357
2.39424
2.23078
2.08235
1.94797
1.82676
1.71768
1.61957
1.53134
1.45185
1.38019
1.31545
1.25692
1.20394
1.15594
1.11244
1.07308
1.03759
1.00549
0.97669
0.950599
0.927537
0.906459
0.887785
0.870637
0.856406
0.844753
0.835062
0.827286
0.82132
0.8169
0.814076
0.81258
0.812693
0.813115
0.814341
0.816772
0.821084
0.825243
0.831118
0.838867
0.846774
0.855563
0.865223
0.875533
0.886355
0.897676
0.909485
0.921628
0.933931
0.946309
0.958618
0.97067
0.982334
0.993484
1.00379
1.01307
1.02122
1.02805
1.03333
1.0367
1.0378
1.03785
1.03775
1.03734
1.0362
1.03367
1.02945
1.02451
1.0198
1.01571
1.01222
1.00926
1.00678
1.00493
1.00356
1.00251
1.00174
1.00118
1.00078
1.00051
1.00032
1.0002
1.00012
1.00007
1.00004
1.00002
1.00001
0.999996
5.17588
5.16466
5.05023
4.81957
4.48606
4.17028
3.87951
3.61004
3.36
3.12801
2.91339
2.71377
2.52949
2.36085
2.2075
2.06868
1.94326
1.82998
1.72761
1.63501
1.55113
1.4751
1.40608
1.34338
1.28634
1.23452
1.18741
1.14466
1.10579
1.07057
1.03864
1.00983
0.98375
0.960491
0.939213
0.920854
0.903834
0.888438
0.875157
0.863975
0.854938
0.847585
0.84192
0.837656
0.835034
0.833253
0.833295
0.833716
0.834633
0.836731
0.839294
0.844396
0.850091
0.856671
0.864356
0.87309
0.882693
0.893122
0.904389
0.916279
0.92849
0.940954
0.953684
0.966408
0.978865
0.990839
1.00201
1.01212
1.0209
1.02822
1.03385
1.03732
1.03853
1.03866
1.03856
1.03816
1.03699
1.03438
1.02953
1.02401
1.01917
1.01507
1.01162
1.00872
1.00637
1.00465
1.00333
1.00234
1.00162
1.00109
1.00073
1.00047
1.0003
1.00019
1.00011
1.00007
1.00004
1.00002
1.00001
0.999998
4.23422
4.9412
4.97038
4.87514
4.66109
4.34409
4.04339
3.76565
3.5105
3.27405
3.05542
2.85334
2.66611
2.49383
2.33651
2.1934
2.06313
1.94509
1.83821
1.74132
1.65333
1.57329
1.50038
1.43393
1.37334
1.31809
1.26761
1.22158
1.17963
1.14149
1.10681
1.07536
1.04682
1.02108
0.997793
0.976965
0.958342
0.941758
0.926909
0.91354
0.901631
0.891238
0.882786
0.875889
0.870702
0.866485
0.863937
0.861964
0.861946
0.862181
0.862754
0.864407
0.867586
0.872027
0.877694
0.884512
0.892312
0.90109
0.911007
0.92168
0.932908
0.94476
0.957095
0.969575
0.981931
0.993861
1.00501
1.01504
1.02373
1.03084
1.03607
1.03901
1.04014
1.04028
1.04019
1.03977
1.03843
1.03541
1.02936
1.02332
1.01841
1.01436
1.01098
1.00817
1.00596
1.00433
1.00309
1.00216
1.00148
1.001
1.00066
1.00043
1.00028
1.00017
1.00011
1.00006
1.00004
1.00002
1.00001
0.999999
2.18621
4.2043
4.756
4.78389
4.69662
4.49966
4.21182
3.9296
3.66531
3.42326
3.19997
2.99393
2.80407
2.62908
2.46843
2.3216
2.18805
2.06639
1.95552
1.85442
1.76214
1.67784
1.60076
1.53029
1.46582
1.40686
1.35301
1.30386
1.25899
1.21806
1.18074
1.14677
1.11586
1.08784
1.06247
1.03961
1.0191
1.00068
0.984298
0.969757
0.956895
0.94557
0.9353
0.926303
0.91819
0.911783
0.906588
0.902679
0.900136
0.898203
0.898147