/*--------------------------------*- C++ -*----------------------------------*\
| =========                 |                                                 |
| \\      /  F ield         | OpenFOAM: The Open Source CFD Toolbox           |
|  \\    /   O peration     | Version:  2412                                  |
|   \\  /    A nd           | Website:  www.openfoam.com                      |
|    \\/     M anipulation  |                                                 |
\*---------------------------------------------------------------------------*/
FoamFile
{
    version     2.0;
    format      ascii;
    arch        "LSB;label=32;scalar=64";
    class       surfaceScalarField;
    location    "0.5";
    object      phi;
}
// * * * * * * * * * * * * * * * * * * * * * * * * * * * * * * * * * * * * * //

dimensions      [1 0 -1 0 0 0 0];

oriented        oriented;

internalField   nonuniform List<scalar> 
13790
(
0.00290515
-1.02349e-16
0.00290515
-4.1796e-17
0.00290515
2.67581e-16
0.00290515
6.64074e-17
0.00290515
1.79777e-15
0.00290515
-4.03751e-14
0.00290515
3.37764e-14
0.00290515
-2.84266e-14
0.00290515
4.87805e-14
0.00290515
-3.63918e-13
0.00290515
6.19154e-13
0.00290515
-3.11556e-12
0.00290515
8.47217e-12
0.00290515
-1.25467e-11
0.00290515
7.43196e-11
0.00290515
-5.89123e-11
0.00290515
2.86215e-10
0.00290515
-1.74231e-10
0.00290515
9.91799e-10
0.00290514
3.06031e-09
0.00290517
2.80619e-09
0.00290505
3.69859e-08
0.00290499
9.60273e-08
0.00290561
-1.59578e-07
0.00290816
-1.80049e-07
0.00291074
-3.44716e-07
0.0029142
-4.53651e-07
0.00287895
-2.94778e-07
0.00282873
5.79666e-07
0.00283428
1.02168e-06
0.00281467
4.03092e-06
0.00260439
2.26657e-05
0.0023925
0.00013813
0.00232546
0.00013771
0.00220492
0.000131459
0.00205462
0.000125229
0.001869
0.000115927
0.0017208
0.000106878
0.0016052
0.000105333
0.00149646
0.000110333
0.00136952
0.000125194
0.0012083
0.00014471
0.00103543
0.000161417
0.000862105
0.000162762
0.000697701
0.000151246
0.000543545
0.000137971
0.000399379
0.000134421
0.0002593
0.000137105
0.000127224
0.000134742
0.00013783
0.00301309
4.87349e-17
0.00301309
3.6646e-17
0.00301309
-2.79778e-16
0.00301309
-1.38182e-16
0.00301309
-8.09357e-16
0.00301309
-7.03959e-15
0.00301309
3.43998e-15
0.00301309
4.02812e-14
0.00301309
-4.83634e-14
0.00301309
5.87528e-13
0.00301309
-1.55272e-12
0.00301309
1.83004e-12
0.00301309
-1.03682e-11
0.00301309
1.78752e-12
0.00301309
1.48049e-11
0.00301309
-4.49787e-11
0.00301309
-2.67849e-10
0.00301309
-8.71583e-12
0.0030131
-5.17886e-10
0.0030131
-1.23423e-09
0.0030131
-7.33719e-10
0.00301321
-2.07938e-08
0.00301327
-7.44429e-08
0.00301378
-3.05265e-08
0.00301624
-3.61865e-07
0.00301773
-6.70802e-07
0.00302366
-1.86142e-07
0.00298216
-1.41716e-07
0.00293143
1.04979e-06
0.00294938
1.79722e-06
0.00292962
6.26929e-06
0.00270556
5.96783e-05
0.00249479
0.000262396
0.00239169
0.000300401
0.00223709
0.000288401
0.00206048
0.000266682
0.00186799
0.000241861
0.00171841
0.000222214
0.00159691
0.000218314
0.00147877
0.000228802
0.001344
0.000254683
0.00118368
0.00028884
0.00101785
0.000317401
0.00084844
0.000321997
0.000682622
0.000302961
0.000525224
0.000278658
0.000382663
0.000267552
0.000248879
0.00026842
0.000122097
0.000264697
0.000270982
0.00312505
1.9868e-17
0.00312505
6.64887e-17
0.00312505
2.25514e-16
0.00312505
-2.04372e-17
0.00312505
-4.82416e-16
0.00312505
-1.31435e-15
0.00312505
-3.2326e-15
0.00312505
-8.60542e-15
0.00312505
9.46294e-14
0.00312505
-1.09364e-13
0.00312505
5.88225e-13
0.00312505
1.1171e-12
0.00312505
-1.85639e-12
0.00312505
2.59153e-12
0.00312505
-9.13e-11
0.00312505
4.52282e-11
0.00312505
-1.66826e-10
0.00312505
-1.67526e-10
0.00312505
-1.01109e-09
0.00312504
-1.07414e-09
0.00312507
-2.62962e-09
0.003125
-1.37077e-08
0.00312494
-2.81774e-08
0.00312521
-1.22109e-07
0.00312886
-3.37691e-07
0.00312747
-4.2855e-07
0.00314225
-1.43914e-06
0.00308558
-2.36457e-06
0.00303185
-1.42333e-06
0.00305335
-1.22527e-06
0.0030424
1.00239e-05
0.00282873
7.06349e-05
0.00255223
0.000452911
0.00244121
0.000477252
0.00229626
0.000439751
0.00212434
0.000405014
0.00193044
0.000368364
0.00177461
0.00034381
0.00164244
0.000341901
0.00151196
0.000359684
0.00136597
0.000394974
0.00119939
0.000438327
0.00103242
0.00047444
0.000862866
0.0004817
0.000692595
0.000458662
0.000528887
0.000425084
0.000382477
0.00040491
0.000248064
0.000401096
0.00012127
0.00039526
0.000403831
0.00324116
2.05185e-17
0.00324116
-2.17111e-17
0.00324116
5.15538e-17
0.00324116
9.45424e-17
0.00324116
8.10414e-16
0.00324116
1.3523e-15
0.00324116
-1.29307e-15
0.00324116
-1.17293e-14
0.00324116
4.46625e-14
0.00324116
-2.38379e-13
0.00324116
1.06319e-12
0.00324116
-6.89428e-13
0.00324116
1.63622e-12
0.00324116
6.44003e-12
0.00324116
-2.34285e-11
0.00324116
7.73096e-12
0.00324116
-4.55018e-11
0.00324116
1.63808e-11
0.00324116
-3.17457e-10
0.00324115
-1.85273e-11
0.00324117
-3.31698e-09
0.00324109
1.15117e-09
0.00324089
3.8008e-08
0.00324133
-1.39682e-07
0.00324499
-2.43073e-07
0.00324314
-2.41703e-07
0.00326178
-2.40811e-06
0.00319999
-3.7314e-06
0.00314973
-2.53144e-06
0.00317712
-2.84503e-06
0.00316836
1.37014e-05
0.00294774
7.83872e-05
0.00266361
0.000637273
0.00252312
0.000679112
0.00236277
0.000606858
0.00218612
0.000549243
0.00199181
0.000498537
0.00183499
0.000468064
0.00170079
0.000468173
0.00156747
0.00049434
0.00141758
0.000539944
0.00124696
0.000591096
0.00107848
0.000632199
0.000906675
0.00064368
0.000730186
0.000620728
0.000555596
0.000581847
0.000398887
0.00055218
0.000256509
0.000541847
0.000124885
0.000530987
0.000540895
0.00336158
-5.68935e-17
0.00336158
9.24282e-17
0.00336158
-7.9472e-17
0.00336158
4.09639e-16
0.00336158
7.77698e-16
0.00336158
2.45892e-15
0.00336158
8.10856e-15
0.00336158
2.43161e-14
0.00336158
-2.51884e-14
0.00336158
2.29358e-15
0.00336158
3.69202e-13
0.00336158
-5.14727e-13
0.00336158
4.33619e-12
0.00336158
3.4061e-13
0.00336158
7.50604e-13
0.00336158
1.18052e-11
0.00336158
1.08865e-12
0.00336158
3.69505e-11
0.00336159
-1.04646e-10
0.00336158
-8.18267e-11
0.00336161
-1.56357e-09
0.00336162
-6.57025e-09
0.00336159
-9.0047e-09
0.00336219
-7.01066e-08
0.00336474
-1.23098e-07
0.00336216
-2.92994e-07
0.00338321
-9.0499e-07
0.00331355
-1.50313e-06
0.00327352
-4.20889e-08
0.00331431
7.13907e-07
0.00329942
2.45797e-05
0.00304039
0.000109262
0.00273881
0.000817258
0.00261424
0.000871231
0.00245797
0.000775045
0.00227807
0.000697635
0.00207863
0.000632909
0.00191761
0.000596625
0.00177992
0.000598787
0.00164406
0.000632992
0.00149201
0.000688777
0.00131714
0.000746753
0.00114499
0.000792311
0.000970521
0.000808612
0.000786382
0.000792113
0.000597283
0.000752023
0.000426873
0.000712308
0.000272666
0.00069442
0.000132282
0.000675837
0.0006861
0.00348648
2.19822e-17
0.00348648
2.18467e-17
0.00348648
3.06911e-16
0.00348648
1.15487e-15
0.00348648
2.26162e-15
0.00348648
1.28539e-14
0.00348648
4.08536e-15
0.00348648
1.60957e-13
0.00348648
-6.20761e-14
0.00348648
6.3718e-13
0.00348648
-4.61803e-13
0.00348648
1.94463e-12
0.00348648
7.80221e-13
0.00348648
3.47573e-12
0.00348648
2.94306e-11
0.00348648
2.16857e-11
0.00348648
7.76767e-11
0.00348648
5.4274e-11
0.00348649
-1.85345e-10
0.00348648
-3.62776e-10
0.0034865
5.13176e-09
0.00348651
-1.13685e-08
0.0034866
-4.62243e-08
0.0034871
-1.34762e-07
0.00349021
-3.53865e-07
0.00348968
-4.83577e-07
0.00350973
-2.4059e-06
0.00345715
-1.73656e-06
0.00340857
1.714e-06
0.00344223
-1.86799e-08
0.00343577
2.83474e-05
0.00312409
0.000180867
0.00280879
0.000982644
0.00270995
0.00105098
0.00256987
0.000934187
0.00239232
0.000844284
0.00218656
0.000769848
0.00201838
0.000730628
0.00187411
0.000736842
0.00173323
0.000778082
0.00157797
0.000841545
0.00139928
0.000905649
0.00122356
0.000955262
0.00104436
0.000979244
0.000852203
0.000971878
0.00064842
0.000934073
0.000462681
0.000886174
0.000294411
0.000860988
0.000142545
0.000832696
0.000842416
0.00361602
-7.25873e-17
0.00361602
2.81215e-16
0.00361602
2.78071e-16
0.00361602
2.03879e-15
0.00361602
2.66315e-15
0.00361602
1.21942e-14
0.00361602
1.35025e-14
0.00361602
-2.9834e-15
0.00361602
1.63948e-13
0.00361602
-2.15534e-14
0.00361602
1.79851e-12
0.00361602
-2.95905e-13
0.00361602
7.05286e-12
0.00361602
8.83745e-13
0.00361602
8.65101e-11
0.00361602
-3.22442e-13
0.00361602
2.196e-10
0.00361602
1.83766e-10
0.00361602
3.87793e-11
0.00361602
3.23484e-10
0.00361603
1.95634e-09
0.00361601
-1.14597e-08
0.00361642
-5.75488e-08
0.00361643
-1.00198e-07
0.00361898
-3.02526e-07
0.00361686
-6.42625e-07
0.00364961
-2.36481e-06
0.00355453
-1.73328e-06
0.00356338
2.60854e-06
0.00362737
-1.26339e-07
0.00360822
4.31177e-05
0.0032786
0.000225797
0.00294481
0.00115408
0.00283496
0.0012466
0.00268936
0.0011001
0.00250744
0.000990826
0.00229764
0.000906871
0.00212574
0.000867075
0.00197713
0.000880923
0.001832
0.00093032
0.00167252
0.00100046
0.00148901
0.00106903
0.00130877
0.00112282
0.0011238
0.00115576
0.000923425
0.00115966
0.000705655
0.00112826
0.000503993
0.00107381
0.000320093
0.00104221
0.000154935
0.00100315
0.00101205
0.00375038
1.89464e-17
0.00375038
7.54063e-17
0.00375038
4.90168e-16
0.00375038
4.20069e-15
0.00375038
1.85534e-16
0.00375038
1.5091e-14
0.00375038
3.52816e-15
0.00375038
-3.90342e-14
0.00375038
1.23885e-13
0.00375038
-5.78915e-15
0.00375038
-7.95592e-14
0.00375038
-3.17028e-13
0.00375038
2.16336e-12
0.00375038
-9.33662e-13
0.00375038
6.78946e-12
0.00375038
-4.74471e-12
0.00375037
4.10636e-12
0.00375038
3.03276e-11
0.00375037
-2.6087e-10
0.00375037
2.94188e-10
0.00375037
-1.74095e-09
0.00375043
-1.39091e-08
0.00375065
-4.64852e-08
0.00375162
-1.28711e-07
0.00375246
-3.09139e-07
0.00375195
-4.31315e-07
0.00377764
-2.58459e-06
0.00367786
-4.94005e-06
0.00372014
1.63017e-06
0.00378039
-1.07897e-05
0.00375463
5.54328e-05
0.00344535
0.000208622
0.00308821
0.00133375
0.00297086
0.00144825
0.00282086
0.00127162
0.00263443
0.00114016
0.00241784
0.00104729
0.0022408
0.00100842
0.00208761
0.00103277
0.00193847
0.00109237
0.00177402
0.00116829
0.00158387
0.00123911
0.00139776
0.00129676
0.00120616
0.00133866
0.000996843
0.00135597
0.000764661
0.00133388
0.000547802
0.00127429
0.000349221
0.00123753
0.000169049
0.00118929
0.00119688
0.00388972
1.53686e-17
0.00388972
1.79734e-16
0.00388972
1.83176e-16
0.00388972
-1.44299e-15
0.00388972
4.67166e-15
0.00388972
-3.5535e-15
0.00388972
3.67001e-14
0.00388972
3.20888e-14
0.00388972
9.05159e-14
0.00388972
6.63651e-13
0.00388972
-6.64781e-13
0.00388972
-1.0666e-12
0.00388972
1.23826e-13
0.00388972
-1.17731e-12
0.00388972
-5.84693e-11
0.00388972
2.76961e-11
0.00388972
-1.88346e-10
0.00388972
-7.60446e-11
0.00388972
-5.3035e-10
0.00388972
-1.21207e-09
0.00388972
-1.73087e-08
0.00388982
1.08609e-08
0.0038896
6.19806e-11
0.00389076
-1.0777e-07
0.00389292
-3.86923e-07
0.0038936
-1.35653e-06
0.00389934
-2.94137e-06
0.00388779
-7.57018e-06
0.00385224
-1.43978e-05
0.00355255
3.27187e-06
0.00385335
2.53594e-05
0.00370021
0.000107066
0.0032284
0.00157881
0.00308693
0.0016721
0.00293076
0.00144951
0.00273905
0.00129143
0.00251981
0.00118716
0.0023441
0.00115076
0.00219317
0.0011863
0.0020459
0.00125799
0.0018798
0.00134071
0.00168324
0.00141429
0.00148992
0.00147628
0.0012901
0.00152789
0.00107173
0.00155916
0.000826801
0.00154968
0.000594186
0.00148897
0.00037955
0.00144869
0.000184181
0.0013908
0.00139791
0.00403424
2.00577e-17
0.00403424
2.20635e-17
0.00403424
1.19425e-16
0.00403424
-1.00397e-16
0.00403424
7.4753e-16
0.00403424
-2.3193e-15
0.00403424
5.97718e-15
0.00403424
-2.36811e-15
0.00403424
1.02127e-14
0.00403424
-6.05783e-13
0.00403424
6.5614e-13
0.00403424
-4.43491e-13
0.00403424
1.29934e-12
0.00403424
-2.15e-12
0.00403424
-5.80549e-12
0.00403424
6.42188e-12
0.00403424
-1.47312e-11
0.00403424
8.22507e-12
0.00403424
3.34473e-11
0.00403425
-5.07818e-10
0.00403426
-3.58072e-09
0.0040343
-4.60887e-09
0.00403418
-3.57784e-09
0.0040341
-4.604e-09
0.00403384
-3.58119e-07
0.00403707
-1.20772e-06
0.004077
-5.45679e-06
0.00400465
-1.08826e-05
0.00402585
-8.63185e-06
0.00409638
-2.94955e-05
0.0040984
5.29648e-05
0.0037387
0.000229068
0.00330875
0.00170762
0.00319376
0.00188245
0.0030485
0.00161779
0.00285541
0.00143297
0.00263648
0.00132593
0.002464
0.00129466
0.00231354
0.00134472
0.00216528
0.00142909
0.00199483
0.00151946
0.00178937
0.00159664
0.00158594
0.00166299
0.00137599
0.00172412
0.00114717
0.00176994
0.000889758
0.00177459
0.000641953
0.0017157
0.000411405
0.00167592
0.000200304
0.00160889
0.00161634
0.00418414
-1.43657e-18
0.00418414
1.68512e-16
0.00418414
2.51833e-16
0.00418414
7.97837e-16
0.00418414
1.69282e-15
0.00418414
5.03642e-15
0.00418414
8.4065e-15
0.00418414
2.05854e-14
0.00418414
2.09908e-14
0.00418414
-1.41825e-13
0.00418414
1.90585e-13
0.00418414
-3.83396e-13
0.00418414
5.5559e-13
0.00418414
-1.12541e-11
0.00418414
2.82261e-11
0.00418414
-5.47515e-11
0.00418414
1.46243e-10
0.00418413
1.75227e-10
0.00418414
6.77389e-10
0.00418412
1.03058e-09
0.00418412
1.4214e-08
0.00418412
-7.36342e-09
0.00418424
2.75252e-08
0.00418366
2.35182e-10
0.00418466
-2.20348e-07
0.00417958
4.1319e-07
0.00417277
-1.98459e-06
0.00419949
-5.33507e-06
0.00420778
-1.18064e-05
0.00456118
-2.71744e-05
0.00426991
7.0049e-05
0.0040642
0.000214171
0.00347102
0.00185629
0.00333279
0.00209308
0.00317786
0.00178538
0.00299167
0.00156801
0.00278095
0.0014617
0.00261144
0.00144044
0.00245842
0.00151106
0.00230535
0.0016101
0.00212593
0.00170947
0.0019068
0.00179087
0.00168953
0.00186104
0.00146608
0.00193149
0.00122454
0.00199036
0.000955261
0.00200806
0.000692894
0.00195482
0.0004463
0.00191907
0.000217599
0.00184566
0.00185355
0.0043396
-6.01732e-18
0.0043396
2.89482e-17
0.0043396
-2.53459e-16
0.0043396
6.75621e-16
0.0043396
1.18623e-15
0.0043396
3.75644e-15
0.0043396
6.57167e-15
0.0043396
3.11532e-14
0.0043396
5.57364e-14
0.0043396
2.02366e-13
0.0043396
3.6414e-13
0.0043396
9.11874e-13
0.0043396
1.7066e-12
0.0043396
9.12121e-13
0.0043396
1.25139e-12
0.0043396
-6.04946e-13
0.0043396
6.95902e-11
0.0043396
-7.53366e-11
0.00433959
2.55203e-10
0.00433961
-2.21133e-10
0.00433964
-6.02778e-09
0.00433961
1.21342e-08
0.00433959
-6.79713e-09
0.00433964
2.8193e-08
0.00434067
-3.6071e-08
0.00433312
4.09997e-07
0.00435737
-1.6076e-06
0.00432043
2.67427e-06
0.00443821
-1.73146e-05
0.0047503
-2.97734e-05
0.00442568
9.5007e-05
0.00432175
0.000186123
0.00367452
0.00187035
0.0035303
0.00228495
0.00334501
0.00196477
0.00315793
0.00170469
0.00295043
0.00160397
0.00278096
0.00159206
0.0026264
0.00168407
0.00246916
0.00180327
0.00227847
0.00191479
0.002042
0.00200194
0.00180732
0.00207526
0.00156664
0.00215163
0.00130917
0.00222175
0.0010256
0.00225369
0.000747406
0.00220829
0.000483953
0.00217776
0.000237035
0.00210092
0.00211178
0.00450084
-1.16823e-17
0.00450084
3.88686e-17
0.00450084
2.83302e-16
0.00450084
2.366e-16
0.00450084
-5.95498e-17
0.00450084
3.7232e-15
0.00450084
5.49872e-15
0.00450084
3.17317e-14
0.00450084
5.12884e-14
0.00450084
2.30399e-13
0.00450084
4.30311e-13
0.00450084
1.25702e-12
0.00450084
3.13253e-12
0.00450084
2.85246e-12
0.00450084
1.26341e-11
0.00450084
-1.72076e-11
0.00450084
8.71851e-11
0.00450084
-2.2962e-10
0.00450084
6.15388e-10
0.00450082
-8.79657e-10
0.00450083
6.55296e-09
0.00450074
-5.53947e-09
0.0045009
2.68031e-08
0.00450008
2.78322e-08
0.00450074
9.27315e-08
0.00449799
1.62952e-07
0.00450079
1.3871e-06
0.00450172
2.17493e-06
0.00453341
3.72806e-06
0.00465071
-1.73877e-05
0.00446238
9.64499e-05
0.0044461
0.00017062
0.00391545
0.00167611
0.00373821
0.00242213
0.00352151
0.0021652
0.00334648
0.00184542
0.00313819
0.00175362
0.00296748
0.00175074
0.00281185
0.00186384
0.00265234
0.00200727
0.00245235
0.00213415
0.00219696
0.00222895
0.00194077
0.00230525
0.00168035
0.00238543
0.00140595
0.00246537
0.00110837
0.00251219
0.000811042
0.00247763
0.000528622
0.00245655
0.000259881
0.00237893
0.00239453
0.00466806
5.39662e-17
0.00466806
3.90855e-17
0.00466806
-9.1344e-18
0.00466806
9.59438e-16
0.00466806
-5.21312e-16
0.00466806
6.71604e-15
0.00466806
4.10051e-15
0.00466806
3.82404e-14
0.00466806
8.69888e-14
0.00466806
3.20405e-13
0.00466806
5.66143e-13
0.00466806
2.06216e-12
0.00466806
2.17169e-12
0.00466806
7.75635e-12
0.00466806
1.57513e-11
0.00466807
-3.67698e-12
0.00466806
3.84639e-11
0.00466807
-4.07701e-10
0.00466806
3.46027e-10
0.00466807
-2.7266e-09
0.00466809
-2.31182e-09
0.00466808
-5.23122e-09
0.00466778
1.70989e-08
0.00466838
-1.87453e-08
0.00466779
3.53203e-07
0.00466717
-8.26884e-08
0.00466827
2.71931e-06
0.00466532
-1.79611e-08
0.00464728
4.10776e-06
0.004552
2.71958e-06
0.00462616
7.86987e-05
0.0046145
0.000122112
0.00434006
0.00131435
0.00400105
0.00259953
0.00373827
0.00239973
0.00356403
0.00202275
0.00334647
0.00191611
0.00317606
0.00192336
0.00301843
0.00205446
0.00285525
0.00222167
0.00264466
0.00236397
0.00237406
0.00246734
0.00209703
0.00255045
0.00181588
0.00263365
0.00152134
0.00272371
0.00120591
0.00278512
0.000890092
0.00276583
0.000582503
0.00276242
0.000288212
0.00268511
0.00270765
0.00484151
-4.72441e-17
0.00484151
-5.81132e-17
0.00484151
-1.06523e-16
0.00484151
-3.87873e-16
0.00484151
1.50292e-15
0.00484151
1.36824e-15
0.00484151
7.26204e-15
0.00484151
2.90873e-14
0.00484151
2.88493e-14
0.00484151
1.85747e-13
0.00484151
3.99467e-13
0.00484151
1.24261e-12
0.00484151
3.22478e-12
0.00484151
9.57007e-12
0.00484151
1.30882e-11
0.00484151
4.81844e-11
0.00484151
6.1409e-11
0.00484151
1.50989e-10
0.00484151
3.50276e-10
0.00484151
-6.31422e-11
0.00484149
-4.49824e-10
0.0048416
-6.18217e-09
0.00484135
2.91039e-09
0.0048425
-5.58811e-08
0.00483626
1.02243e-07
0.0048438
-9.00405e-08
0.00484652
-3.10351e-07
0.00482426
3.31338e-06
0.00483902
3.4035e-06
0.00474357
6.09911e-06
0.00476771
6.89919e-05
0.00488268
9.10135e-05
0.00476268
0.000972894
0.00420773
0.0027764
0.0040146
0.00255732
0.00379762
0.00221721
0.00357976
0.0020833
0.00339936
0.00210992
0.00324148
0.00225096
0.00307129
0.00244492
0.00285084
0.0026035
0.00256835
0.00271532
0.00227528
0.00280481
0.00197539
0.00289695
0.0016645
0.00299671
0.00133182
0.00308003
0.000990882
0.00307911
0.000655919
0.00309324
0.000326402
0.00302647
0.00306079
0.00502139
-1.64528e-17
0.00502139
-8.47575e-17
0.00502139
-4.40457e-17
0.00502139
-5.64652e-16
0.00502139
-9.51523e-16
0.00502139
1.36891e-15
0.00502139
-3.70672e-15
0.00502139
6.16746e-15
0.00502139
1.2649e-14
0.00502139
1.0268e-13
0.00502139
8.62635e-14
0.00502139
1.43742e-12
0.00502139
1.62944e-12
0.00502139
1.1446e-11
0.00502139
1.90082e-11
0.00502139
7.91649e-11
0.00502139
1.45963e-10
0.00502139
4.34939e-10
0.0050214
6.88705e-10
0.00502139
2.10152e-09
0.00502138
3.45364e-09
0.00502138
7.74936e-09
0.00502141
7.52547e-09
0.00502141
1.88528e-08
0.00502233
6.00015e-09
0.00502127
7.05505e-08
0.0050082
-3.27937e-08
0.00505115
4.61323e-07
0.00498968
5.33908e-06
0.00512035
7.81554e-06
0.00498017
5.90156e-05
0.00490827
0.000111456
0.00483414
0.000810319
0.00438396
0.002733
0.00421771
0.0026759
0.00403581
0.00234761
0.00383497
0.00222899
0.00364969
0.00230041
0.00348997
0.00246176
0.00330832
0.00268319
0.0030759
0.00285548
0.0027821
0.00297048
0.00248178
0.00306359
0.0021712
0.00316903
0.00184448
0.00328744
0.0014925
0.00339498
0.00112314
0.00341938
0.000751829
0.00345901
0.00038067
0.0034104
0.00346935
0.00520796
-2.13317e-17
0.00520796
-4.44523e-18
0.00520796
-6.50521e-17
0.00520796
-1.45229e-16
0.00520796
-3.86518e-16
0.00520796
-4.15534e-15
0.00520796
-7.28828e-16
0.00520796
-4.76951e-15
0.00520796
-1.16381e-14
0.00520796
3.89426e-14
0.00520796
8.72202e-14
0.00520796
7.15226e-13
0.00520796
1.46084e-12
0.00520796
8.76918e-12
0.00520796
1.59023e-11
0.00520796
8.08473e-11
0.00520796
1.22393e-10
0.00520796
6.02393e-10
0.00520797
9.25036e-10
0.00520796
3.25671e-09
0.00520795
5.46087e-09
0.00520801
1.43282e-08
0.0052077
3.21747e-08
0.00520825
2.86681e-08
0.00520681
6.29733e-08
0.00520814
-4.99652e-08
0.005197
2.84485e-07
0.00523301
-2.26853e-06
0.00517241
1.12785e-05
0.00529246
1.43049e-05
0.00516056
3.91397e-05
0.00510995
0.000106856
0.00504415
0.000692364
0.00468991
0.00257256
0.00452692
0.00277083
0.00433142
0.00249422
0.00412356
0.0023983
0.00393075
0.00250348
0.00376564
0.00270088
0.00356157
0.002942
0.00331691
0.00311952
0.0030153
0.00322905
0.00271098
0.00332324
0.00240048
0.00343815
0.00206951
0.0035784
0.00170518
0.00372352
0.00130575
0.00378834
0.00089296
0.00387248
0.00046137
0.00385799
0.00396113
0.00540147
2.40151e-17
0.00540147
2.5289e-17
0.00540147
1.793e-16
0.00540147
5.27735e-17
0.00540147
7.46744e-17
0.00540147
-1.34129e-15
0.00540147
-1.65615e-15
0.00540147
-8.36042e-15
0.00540147
-1.07907e-14
0.00540147
-3.14035e-14
0.00540147
-6.39919e-14
0.00540147
1.99012e-14
0.00540147
2.85887e-14
0.00540147
2.40436e-12
0.00540147
3.41278e-12
0.00540147
3.87933e-11
0.00540147
7.52055e-11
0.00540147
3.69856e-10
0.00540146
6.95115e-10
0.00540146
3.16024e-09
0.00540144
4.97106e-09
0.0054014
2.17183e-08
0.00540141
3.53497e-08
0.00540131
1.19061e-07
0.00540102
2.05715e-07
0.00540082
4.82426e-07
0.00540329
7.7384e-07
0.00539219
8.28175e-07
0.00543113
3.77068e-06
0.00582062
-7.04623e-06
0.00553892
6.26034e-05
0.00591954
0.000104583
0.00525253
0.000613207
0.00502753
0.00218872
0.00491671
0.00286973
0.0046635
0.00272745
0.00443376
0.00261337
0.00422844
0.00274872
0.00405818
0.00297734
0.00383398
0.00321581
0.00357853
0.00338459
0.00327613
0.00347853
0.00297887
0.00356947
0.0026729
0.00369733
0.00234822
0.00386041
0.00198527
0.00405252
0.00156521
0.00417962
0.00110137
0.00433516
0.000596231
0.00438194
0.00459137
0.00560216
2.03559e-17
0.00560216
6.20706e-17
0.00560216
8.11796e-17
0.00560216
1.29291e-16
0.00560216
3.61636e-16
0.00560216
3.32105e-16
0.00560216
7.3391e-16
0.00560216
-1.23522e-15
0.00560216
-1.77637e-15
0.00560216
-2.81393e-14
0.00560216
-5.2868e-14
0.00560216
-2.194e-13
0.00560216
-3.42587e-13
0.00560216
-6.53498e-13
0.00560216
-2.07818e-12
0.00560216
1.63208e-12
0.00560216
4.64638e-13
0.00560216
7.78281e-11
0.00560216
1.64583e-10
0.00560216
1.30677e-09
0.00560213
2.89545e-09
0.00560213
1.40308e-08
0.00560203
2.39897e-08
0.00560182
1.2535e-07
0.00560235
1.91985e-07
0.00560017
8.80136e-07
0.00559953
1.68062e-06
0.00558739
5.86543e-06
0.00557696
8.29344e-06
0.00550001
2.05167e-05
0.00542562
4.19717e-05
0.0053621
8.87629e-05
0.00541648
0.000358815
0.00544553
0.0014423
0.0053538
0.00296196
0.00500191
0.00307745
0.00472968
0.00288796
0.00452394
0.00303573
0.00432562
0.00326044
0.00410167
0.00347836
0.00385627
0.00362772
0.00356796
0.0037112
0.00329124
0.00379591
0.00300754
0.00393506
0.00270866
0.00412408
0.00236463
0.00436494
0.00193733
0.00458174
0.00144242
0.0048225
0.000844471
0.00499604
0.0054695
0.00581031
1.05574e-17
0.00581031
5.52265e-17
0.00581031
1.46354e-16
0.00581031
4.24004e-16
0.00581031
6.83224e-16
0.00581031
2.14546e-15
0.00581031
3.41539e-15
0.00581031
9.68937e-15
0.00581031
1.59093e-14
0.00581031
4.74305e-14
0.00581031
6.17992e-14
0.00581031
2.43416e-13
0.00581031
-1.96854e-13
0.00581031
6.32217e-13
0.00581031
-4.52657e-12
0.00581031
-2.95839e-12
0.00581031
-3.06679e-11
0.00581031
-3.10638e-11
0.00581031
-1.77519e-10
0.00581031
-9.22669e-11
0.00581031
-4.60179e-10
0.0058103
1.80341e-09
0.0058104
4.08098e-09
0.00581015
3.4926e-08
0.00581052
5.08489e-08
0.00580925
5.34549e-07
0.00580972
1.291e-06
0.00579389
4.11985e-06
0.00580061
6.80065e-06
0.00576118
1.52333e-05
0.00574029
2.72125e-05
0.00577369
4.50078e-05
0.00582622
0.000224292
0.00591206
0.000794037
0.00567522
0.00317283
0.00541521
0.00330038
0.00500674
0.00331894
0.00476542
0.00335894
0.00456729
0.00354757
0.0043832
0.00371976
0.00418279
0.00384732
0.00392206
0.00391755
0.00367096
0.00399202
0.00342201
0.00414271
0.0031558
0.00435576
0.00285446
0.00463716
0.00247646
0.00493405
0.00199718
0.00529476
0.00137432
0.00563223
0.0068793
0.00840003
9.96111e-18
0.00840003
5.15132e-17
0.00840003
5.85469e-17
0.00840003
4.52641e-16
0.00840003
7.1846e-16
0.00840003
2.61763e-15
0.00840003
4.47355e-15
0.00840003
1.32521e-14
0.00840003
2.39753e-14
0.00840003
5.03991e-14
0.00840003
1.1552e-13
0.00840003
1.06024e-13
0.00840003
7.84818e-13
0.00840003
4.80184e-14
0.00840003
4.27336e-12
0.00840003
-9.10536e-13
0.00840003
1.5343e-11
0.00840003
2.55712e-12
0.00840003
-3.49834e-11
0.00840003
-9.34021e-11
0.00840003
-6.20598e-10
0.00840002
-1.25175e-09
0.0084001
-3.91494e-09
0.00839986
-1.5215e-08
0.00839952
-3.06214e-08
0.00840116
-1.46265e-07
0.00840701
-5.05339e-07
0.00840891
-3.04498e-07
0.00842878
-2.51657e-06
0.00838343
-2.57784e-06
0.00830392
3.54756e-06
0.00838339
-1.1046e-06
0.00842965
0.000134877
0.00829901
0.000486614
0.0081366
0.00299484
0.0077696
0.00373642
0.00737153
0.00381535
0.00713156
0.00378501
0.00695933
0.00387533
0.00678642
0.00398284
0.00656332
0.00405943
0.00625014
0.00409996
0.00597539
0.00417698
0.00572281
0.00433446
0.00547894
0.00455596
0.00524551
0.00483844
0.00501586
0.00513293
0.00486305
0.00543719
0.00497734
0.0055274
0.00505945
0.00683013
0.00840003
-2.57498e-18
0.00840003
-1.58565e-18
0.00840003
1.32679e-17
0.00840003
9.63314e-17
0.00840003
2.11907e-16
0.00840003
9.17696e-16
0.00840003
1.81642e-15
0.00840003
8.14477e-15
0.00840003
1.27817e-14
0.00840003
6.09831e-14
0.00840003
8.90855e-14
0.00840003
3.74577e-13
0.00840003
5.4322e-13
0.00840003
1.75594e-12
0.00840003
3.48912e-12
0.00840003
6.38316e-12
0.00840003
1.49228e-11
0.00840003
-3.12943e-12
0.00840003
1.08369e-10
0.00840003
-1.09038e-10
0.00840003
3.76329e-10
0.00840003
-1.22432e-09
0.00840005
-2.47082e-09
0.00839997
-6.12157e-09
0.00839934
8.60804e-10
0.00840033
-6.80281e-08
0.00839386
-1.76993e-07
0.00839598
-2.94537e-07
0.00845108
-2.95421e-06
0.00835411
-1.99393e-06
0.00855937
-6.51809e-06
0.00910295
-2.68243e-05
0.00860908
0.000150203
0.00869201
0.000266026
0.00836654
0.00262435
0.00798481
0.00411315
0.00773507
0.00418242
0.00754966
0.00406471
0.00741738
0.00404324
0.00726352
0.00408912
0.00706345
0.00414048
0.00685578
0.00418965
0.00668371
0.00427826
0.00654087
0.00442491
0.00644268
0.0046192
0.00639167
0.00484857
0.00643416
0.00505144
0.0066328
0.00519752
0.0069683
0.00516702
0.00458783
0.00743015
0.00840003
3.63208e-18
0.00840003
8.3348e-18
0.00840003
-5.61075e-18
0.00840003
4.86265e-17
0.00840003
-6.47811e-18
0.00840003
6.56132e-16
0.00840003
3.95829e-16
0.00840003
4.51418e-15
0.00840003
3.30984e-15
0.00840003
1.59061e-14
0.00840003
3.43614e-14
0.00840003
1.82534e-13
0.00840003
2.38612e-13
0.00840003
1.34156e-12
0.00840003
1.75716e-12
0.00840003
1.11143e-11
0.00840003
1.85065e-11
0.00840003
5.38396e-11
0.00840003
1.22312e-10
0.00840003
3.72771e-10
0.00840002
6.73136e-10
0.00840003
1.9938e-09
0.00840001
3.0507e-09
0.00840015
7.87668e-09
0.00839992
1.85589e-08
0.00839971
8.40787e-08
0.00839738
5.82115e-08
0.00839776
-7.7633e-09
0.00839784
8.70066e-07
0.00838269
1.21761e-06
0.00834155
1.08433e-05
0.00850322
2.14919e-06
0.0083288
9.58043e-05
0.00863069
0.00018516
0.00916189
0.00135109
0.00876769
0.00429996
0.00849597
0.00439708
0.00813766
0.00433563
0.00795882
0.00411885
0.00780462
0.00412087
0.00763319
0.00418336
0.00747001
0.00424734
0.00735031
0.00434025
0.00727048
0.0044596
0.00725949
0.00461946
0.00731424
0.00478946
0.00745136
0.0049081
0.0077044
0.00493401
0.00800794
0.00485013
0.00441362
0.00817098
0.00840003
-2.22261e-17
0.00840003
-5.48606e-17
0.00840003
-6.82776e-17
0.00840003
-1.02986e-16
0.00840003
1.58294e-17
0.00840003
-2.02e-16
0.00840003
3.98607e-16
0.00840003
-7.10789e-16
0.00840003
3.68139e-15
0.00840003
3.08129e-15
0.00840003
8.00178e-15
0.00840003
-1.41745e-14
0.00840003
6.53085e-14
0.00840003
9.487e-14
0.00840003
5.41198e-13
0.00840003
1.78848e-12
0.00840003
1.76761e-12
0.00840003
2.62917e-11
0.00840003
2.11409e-11
0.00840003
2.7239e-10
0.00840004
2.87707e-10
0.00840002
2.03827e-09
0.00840004
2.65145e-09
0.00840001
1.57816e-08
0.00840011
2.32313e-08
0.00840037
2.8953e-08
0.00839991
2.84746e-07
0.00840313
6.5046e-07
0.00838913
1.48884e-06
0.0084426
3.58665e-06
0.00831293
7.81008e-06
0.0084357
1.50703e-05
0.00829347
6.48708e-05
0.00806792
0.000129975
0.00884867
0.000749575
0.00938042
0.00254534
0.00899292
0.00447078
0.00877389
0.00438214
0.00850053
0.00433849
0.00832652
0.00423991
0.00815606
0.00426377
0.0080101
0.00432912
0.00790193
0.00441239
0.00788964
0.00451371
0.00797382
0.00464563
0.00808985
0.00475319
0.0082367
0.00480164
0.00842279
0.00476037
0.00864661
0.00462422
0.00427084
0.00878218
0.00840003
1.34983e-17
0.00840003
4.95887e-17
0.00840003
6.58924e-17
0.00840003
1.19899e-16
0.00840003
1.57724e-16
0.00840003
4.51028e-16
0.00840003
7.22594e-16
0.00840003
2.16412e-15
0.00840003
3.71354e-15
0.00840003
1.20253e-14
0.00840003
2.01683e-14
0.00840003
5.32654e-14
0.00840003
1.00746e-13
0.00840003
2.87926e-13
0.00840003
3.5674e-13
0.00840003
8.18207e-13
0.00840003
3.50649e-12
0.00840003
5.02593e-12
0.00840003
2.76111e-11
0.00840003
5.65034e-11
0.00840003
8.29352e-11
0.00840003
3.21048e-10
0.00840003
8.35888e-10
0.00840006
2.18189e-09
0.00840005
5.63628e-09
0.00840004
1.16239e-08
0.00840024
4.80357e-08
0.00839897
1.89682e-07
0.00840008
3.15092e-07
0.00836532
1.43214e-06
0.00837027
1.33855e-06
0.00832297
4.28511e-06
0.00830003
2.31293e-05
0.00836324
4.08287e-05
0.00869059
0.000338915
0.00939687
0.00088789
0.00961575
0.0040253
0.00921239
0.00472756
0.00887536
0.00466623
0.00866841
0.00446266
0.00854913
0.00443004
0.00848475
0.00446725
0.0084527
0.00453388
0.00849919
0.00461384
0.00859463
0.0046895
0.00870609
0.00473235
0.00882987
0.00471915
0.00895603
0.00463671
0.00908924
0.00447516
0.00416449
0.00917472
0.00840003
-5.42101e-19
0.00840003
3.30682e-18
0.00840003
2.53161e-17
0.00840003
6.78982e-17
0.00840003
9.16151e-17
0.00840003
2.86907e-16
0.00840003
3.81883e-16
0.00840003
1.91905e-15
0.00840003
1.93487e-15
0.00840003
1.14689e-14
0.00840003
1.12681e-14
0.00840003
6.6634e-14
0.00840003
6.36403e-14
0.00840003
3.66703e-13
0.00840003
3.91551e-13
0.00840003
2.06549e-12
0.00840003
1.53772e-12
0.00840003
1.06551e-11
0.00840003
1.43133e-11
0.00840003
1.57489e-11
0.00840003
1.94272e-10
0.00840003
4.91736e-10
0.00840002
9.09612e-10
0.00840005
2.39606e-09
0.00840001
5.52437e-09
0.00840032
5.67857e-09
0.00839986
3.6858e-08
0.00840094
3.09331e-08
0.00839992
2.04942e-07
0.00838707
4.10273e-07
0.00845286
-4.30989e-07
0.00834398
5.31781e-06
0.00859916