/*--------------------------------*- C++ -*----------------------------------*\
| =========                 |                                                 |
| \\      /  F ield         | OpenFOAM: The Open Source CFD Toolbox           |
|  \\    /   O peration     | Version:  2412                                  |
|   \\  /    A nd           | Website:  www.openfoam.com                      |
|    \\/     M anipulation  |                                                 |
\*---------------------------------------------------------------------------*/
FoamFile
{
    version     2.0;
    format      ascii;
    arch        "LSB;label=32;scalar=64";
    class       volVectorField;
    location    "0.5";
    object      U;
}
// * * * * * * * * * * * * * * * * * * * * * * * * * * * * * * * * * * * * * //

dimensions      [0 1 -1 0 0 0 0];

internalField   nonuniform List<vector> 
7000
(
(3 -3.26639e-14 0)
(3 -3.13373e-14 0)
(3 6.7793e-14 0)
(3 4.02392e-14 0)
(3 7.45249e-13 0)
(3 -1.52425e-11 0)
(3 1.04233e-11 0)
(3 -1.20798e-11 0)
(3 1.17801e-11 0)
(3 -1.76213e-10 0)
(3 2.67897e-10 0)
(3 -1.3696e-09 0)
(3 3.9872e-09 0)
(3 -4.16375e-09 0)
(3 2.61075e-08 0)
(3 -1.39499e-08 0)
(3 1.4978e-07 0)
(3 -1.376e-08 0)
(3 4.61133e-07 0)
(3 1.30718e-06 0)
(2.99999 1.53692e-06 0)
(2.99998 1.47589e-05 0)
(3.0001 4.61666e-05 0)
(3.00038 -4.80314e-05 0)
(3.0004 -4.89325e-05 0)
(3.00308 -7.78912e-05 0)
(3.00274 -0.000137506 0)
(2.99521 -0.000155024 0)
(3.00834 7.40073e-05 0)
(2.76961 1.19024e-05 0)
(2.35595 0.00130824 0)
(1.51853 0.00461323 0)
(0.45676 0.0111693 0)
(0.472447 0.00909297 0)
(0.542327 0.00799476 0)
(0.572827 0.00806505 0)
(0.549592 0.00841136 0)
(0.503347 0.00851383 0)
(0.454768 0.00859953 0)
(0.417866 0.00908814 0)
(0.384743 0.0106608 0)
(0.345931 0.0129605 0)
(0.30109 0.0148954 0)
(0.256079 0.0151618 0)
(0.213644 0.0140835 0)
(0.177902 0.0132149 0)
(0.136356 0.0138484 0)
(0.107026 0.0149297 0)
(0.0521335 0.0154242 0)
(0.0300255 0.0153651 0)
(3 -1.56539e-14 0)
(3 -1.1903e-15 0)
(3 -4.80598e-15 0)
(3 -2.59176e-14 0)
(3 3.18368e-13 0)
(3 -1.53232e-11 0)
(3 1.02245e-11 0)
(3 4.46737e-12 0)
(3 -1.43423e-12 0)
(3 8.00922e-11 0)
(3 -2.99133e-10 0)
(3 -5.32294e-10 0)
(3 -6.4294e-10 0)
(3 -3.58045e-09 0)
(3 3.47526e-08 0)
(3 -3.01297e-08 0)
(3 1.07973e-08 0)
(3 -4.49775e-08 0)
(3 1.97866e-07 0)
(3 6.5796e-07 0)
(3 6.63482e-07 0)
(3.00001 5.3856e-06 0)
(3.00007 8.398e-06 0)
(3.00032 -4.99045e-05 0)
(3.00038 -0.000167597 0)
(3.00303 -0.00033184 0)
(3.0027 -0.000182767 0)
(2.99534 -1.02536e-06 0)
(3.00844 0.000735151 0)
(2.77043 0.00113702 0)
(2.36237 0.00195671 0)
(1.52879 0.015012 0)
(0.462921 0.0293597 0)
(0.471916 0.0301292 0)
(0.535738 0.0306456 0)
(0.56026 0.0300697 0)
(0.53304 0.0282992 0)
(0.486007 0.0263264 0)
(0.437593 0.0253783 0)
(0.400022 0.0259496 0)
(0.36595 0.0286585 0)
(0.327477 0.0327001 0)
(0.285115 0.0360854 0)
(0.243403 0.0365919 0)
(0.202979 0.0345217 0)
(0.167659 0.0323702 0)
(0.125818 0.0325377 0)
(0.0993672 0.033586 0)
(0.0471313 0.0344561 0)
(0.029036 0.0344474 0)
(3 2.08241e-14 0)
(3 3.62604e-14 0)
(3 -8.92991e-15 0)
(3 -5.12071e-14 0)
(3 -5.68998e-13 0)
(3 -5.06149e-13 0)
(3 -1.43521e-12 0)
(3 1.11847e-11 0)
(3 1.27311e-11 0)
(3 1.63124e-10 0)
(3 -3.50912e-10 0)
(3 1.33296e-09 0)
(3 -4.55907e-09 0)
(3 1.92076e-09 0)
(3 -2.90321e-08 0)
(3 -1.5653e-09 0)
(3 -1.80032e-07 0)
(3 -8.64878e-08 0)
(3 -5.88749e-07 0)
(3 -1.03452e-06 0)
(3 -1.15886e-06 0)
(2.99998 -1.29382e-05 0)
(3.00007 -4.59383e-05 0)
(3.00027 -3.99607e-05 0)
(3.00023 -0.000219213 0)
(3.00306 -0.000368255 0)
(3.00296 -0.000460828 0)
(2.99579 -0.000393346 0)
(3.00894 0.000322709 0)
(2.77078 0.000711257 0)
(2.37447 0.00408442 0)
(1.54729 0.0244797 0)
(0.46414 0.054262 0)
(0.46217 0.0553084 0)
(0.528405 0.0539412 0)
(0.555452 0.0515624 0)
(0.529601 0.0480403 0)
(0.483356 0.0451942 0)
(0.434568 0.0443762 0)
(0.395449 0.0460175 0)
(0.359708 0.0503053 0)
(0.320517 0.0561572 0)
(0.278815 0.0609761 0)
(0.238561 0.0620118 0)
(0.199243 0.059399 0)
(0.164053 0.0564057 0)
(0.1215 0.056095 0)
(0.0957747 0.056961 0)
(0.0445292 0.0583011 0)
(0.0284306 0.0580219 0)
(3 1.27444e-14 0)
(3 1.38314e-14 0)
(3 7.71391e-14 0)
(3 4.35869e-14 0)
(3 1.21563e-13 0)
(3 1.17875e-13 0)
(3 -1.11897e-12 0)
(3 -7.96608e-12 0)
(3 4.34631e-11 0)
(3 -1.5334e-10 0)
(3 5.72101e-10 0)
(3 1.10206e-10 0)
(3 4.55162e-10 0)
(3 3.42288e-09 0)
(3 -3.85228e-08 0)
(3 1.70525e-08 0)
(3 -4.82521e-08 0)
(3 -2.62786e-08 0)
(3 -3.57761e-07 0)
(3 -2.80421e-07 0)
(2.99999 -1.76655e-06 0)
(2.99998 -2.77367e-06 0)
(3.00005 9.40572e-06 0)
(3.00021 -7.54917e-05 0)
(3.00018 -0.000172629 0)
(3.00286 -0.000170987 0)
(3.00269 -0.00125099 0)
(2.99584 -0.00190948 0)
(3.00902 -0.00166577 0)
(2.77334 -0.00263809 0)
(2.38835 0.00561298 0)
(1.5683 0.0274444 0)
(0.478811 0.0835063 0)
(0.462584 0.0831062 0)
(0.526474 0.076973 0)
(0.552605 0.0720504 0)
(0.526394 0.0673528 0)
(0.480985 0.0643613 0)
(0.433263 0.0640193 0)
(0.394858 0.0668145 0)
(0.359588 0.0725185 0)
(0.320965 0.0796961 0)
(0.280093 0.0854774 0)
(0.240806 0.0870522 0)
(0.202147 0.0844473 0)
(0.166635 0.0811938 0)
(0.122677 0.0803361 0)
(0.0956535 0.0806514 0)
(0.0441486 0.0822212 0)
(0.0281861 0.0816201 0)
(3 -9.86205e-15 0)
(3 2.48405e-14 0)
(3 -1.66207e-14 0)
(3 1.25148e-13 0)
(3 3.87356e-13 0)
(3 7.53576e-13 0)
(3 1.614e-12 0)
(3 -1.87137e-12 0)
(3 -8.68432e-13 0)
(3 -1.03245e-10 0)
(3 4.33896e-10 0)
(3 -7.06818e-10 0)
(3 2.02926e-09 0)
(3 2.52545e-09 0)
(3 -1.39679e-09 0)
(3 4.94595e-09 0)
(3 -1.63753e-08 0)
(3 2.35927e-08 0)
(3 -9.07679e-08 0)
(3 9.71571e-08 0)
(2.99999 -2.14485e-06 0)
(2.99999 -1.60302e-06 0)
(3.00002 1.21636e-05 0)
(3.00016 -5.4776e-05 0)
(3.00017 -0.000101101 0)
(3.00236 -0.000144451 0)
(3.00185 -0.000888735 0)
(2.99548 -0.00143499 0)
(3.00847 -0.00101737 0)
(2.77607 -0.000887639 0)
(2.40411 0.00816272 0)
(1.58939 0.0323781 0)
(0.483395 0.110701 0)
(0.458841 0.112148 0)
(0.527259 0.103285 0)
(0.555412 0.0954978 0)
(0.52945 0.0885814 0)
(0.48427 0.0845675 0)
(0.436843 0.0842251 0)
(0.398805 0.0880197 0)
(0.364045 0.095084 0)
(0.326123 0.103417 0)
(0.285923 0.110014 0)
(0.247097 0.112243 0)
(0.208676 0.110225 0)
(0.172583 0.107286 0)
(0.127105 0.10609 0)
(0.0978422 0.10573 0)
(0.045461 0.10714 0)
(0.0282042 0.106015 0)
(3 -1.1486e-14 0)
(3 2.72571e-14 0)
(3 5.09896e-14 0)
(3 4.20528e-13 0)
(3 8.40911e-13 0)
(3 4.27431e-12 0)
(3 3.33676e-12 0)
(3 5.64496e-11 0)
(3 -3.1691e-11 0)
(3 2.18242e-10 0)
(3 -2.49606e-10 0)
(3 5.24837e-10 0)
(3 7.90033e-10 0)
(3 2.96201e-10 0)
(3 4.86996e-09 0)
(3 8.29504e-09 0)
(3 1.41115e-08 0)
(3 7.2239e-09 0)
(3 -1.40111e-07 0)
(3 -2.22011e-07 0)
(2.99999 1.56811e-06 0)
(2.99999 -3.80711e-06 0)
(3.00001 -1.60586e-05 0)
(3.00014 -5.63565e-05 0)
(3.00012 -0.000126146 0)
(3.00234 -0.000221354 0)
(3.00188 -0.000845969 0)
(2.99567 -0.000620765 0)
(3.00912 0.000951995 0)
(2.77983 0.000894103 0)
(2.42007 0.0131223 0)
(1.61721 0.056186 0)
(0.490328 0.141653 0)
(0.452498 0.138852 0)
(0.528133 0.126885 0)
(0.560849 0.117664 0)
(0.536418 0.109721 0)
(0.491501 0.105432 0)
(0.443746 0.105471 0)
(0.405511 0.110195 0)
(0.370933 0.118391 0)
(0.333551 0.12769 0)
(0.293852 0.135039 0)
(0.255171 0.138148 0)
(0.216611 0.137224 0)
(0.179858 0.13509 0)
(0.133159 0.13395 0)
(0.101415 0.133003 0)
(0.0478876 0.133943 0)
(0.0283767 0.132086 0)
(3 -1.50269e-14 0)
(3 9.20434e-14 0)
(3 1.90717e-13 0)
(3 9.02502e-13 0)
(3 1.55473e-12 0)
(3 7.60132e-12 0)
(3 6.5578e-12 0)
(3 5.53051e-11 0)
(3 3.50717e-11 0)
(3 2.27672e-10 0)
(3 4.71873e-10 0)
(3 7.29375e-10 0)
(3 2.08138e-09 0)
(3 1.47236e-09 0)
(3 3.91053e-08 0)
(3 8.93449e-09 0)
(3 1.06267e-07 0)
(3 9.96411e-08 0)
(3 3.57049e-08 0)
(3 8.27868e-09 0)
(2.99999 2.46941e-06 0)
(2.99998 -6.43315e-06 0)
(2.99999 -3.16729e-05 0)
(3.00008 -7.3514e-05 0)
(3.00005 -0.000196746 0)
(3.00185 -0.000321689 0)
(3.00158 -0.00149891 0)
(2.99675 -0.00109726 0)
(3.00944 0.00145906 0)
(2.78746 -0.00133045 0)
(2.46737 0.0161989 0)
(1.67868 0.0812056 0)
(0.512501 0.170114 0)
(0.452607 0.164192 0)
(0.530531 0.150236 0)
(0.566163 0.139956 0)
(0.543119 0.131305 0)
(0.49919 0.127138 0)
(0.451659 0.12797 0)
(0.413409 0.133608 0)
(0.378987 0.142684 0)
(0.341928 0.152751 0)
(0.302475 0.160772 0)
(0.263731 0.164959 0)
(0.22484 0.165535 0)
(0.187461 0.16463 0)
(0.139872 0.163916 0)
(0.105719 0.162626 0)
(0.0509868 0.16305 0)
(0.0286389 0.160389 0)
(3 -1.65739e-14 0)
(3 1.05732e-13 0)
(3 2.36077e-13 0)
(3 2.16921e-12 0)
(3 6.0978e-13 0)
(3 8.963e-12 0)
(3 2.29768e-12 0)
(3 -2.50027e-11 0)
(3 7.32718e-11 0)
(3 -1.52725e-10 0)
(3 5.10743e-10 0)
(3 -4.54973e-10 0)
(3 3.10853e-09 0)
(3 3.31644e-10 0)
(3 3.17343e-08 0)
(3 -2.26033e-09 0)
(3 8.14877e-08 0)
(3 7.06637e-08 0)
(3 -3.73175e-08 0)
(3 3.68756e-07 0)
(2.99999 1.29666e-06 0)
(2.99996 -8.93439e-06 0)
(2.99997 -3.5375e-05 0)
(3.00002 -7.47017e-05 0)
(2.99994 -0.000191602 0)
(3.00141 -0.000264797 0)
(3.00133 -0.00138106 0)
(2.99785 -0.00134502 0)
(3.00923 0.00305549 0)
(2.79859 -0.0010974 0)
(2.52012 0.0264551 0)
(1.74892 0.0927373 0)
(0.536944 0.200411 0)
(0.453026 0.191904 0)
(0.534745 0.175022 0)
(0.573534 0.162713 0)
(0.551482 0.153318 0)
(0.508079 0.149633 0)
(0.46031 0.151732 0)
(0.421729 0.158435 0)
(0.387362 0.168201 0)
(0.350457 0.17877 0)
(0.311032 0.187381 0)
(0.272099 0.192754 0)
(0.232764 0.195125 0)
(0.194761 0.195876 0)
(0.146582 0.196077 0)
(0.110332 0.194789 0)
(0.0544976 0.1948 0)
(0.0289771 0.191315 0)
(3 1.03516e-14 0)
(3 7.70521e-14 0)
(3 1.97058e-13 0)
(3 7.32143e-13 0)
(3 1.19881e-12 0)
(3 2.99678e-12 0)
(3 1.17143e-11 0)
(3 -1.41076e-12 0)
(3 7.31229e-11 0)
(3 2.83875e-10 0)
(3 -3.66283e-10 0)
(3 -5.03781e-10 0)
(3 2.25614e-10 0)
(3 -9.1592e-10 0)
(3 -2.28959e-08 0)
(3 2.6188e-09 0)
(3 -8.04527e-08 0)
(3 -4.92531e-08 0)
(3 -3.30948e-07 0)
(3 -4.11926e-07 0)
(2.99998 -6.00822e-06 0)
(2.99995 5.26399e-07 0)
(2.99994 -8.11053e-06 0)
(2.99996 -6.84424e-05 0)
(2.99991 -0.000206663 0)
(3.00097 -0.000592222 0)
(3.00076 -0.00173717 0)
(3.00003 -0.00356045 0)
(3.00979 -0.00466209 0)
(2.81485 -0.00235548 0)
(2.5718 0.0189976 0)
(1.82773 0.06254 0)
(0.57109 0.23424 0)
(0.447855 0.222565 0)
(0.533355 0.200919 0)
(0.575363 0.18605 0)
(0.554539 0.175928 0)
(0.512909 0.172869 0)
(0.466498 0.176421 0)
(0.428828 0.184348 0)
(0.395286 0.194758 0)
(0.358827 0.205679 0)
(0.319358 0.214902 0)
(0.280088 0.221576 0)
(0.240209 0.22597 0)
(0.201613 0.228769 0)
(0.153057 0.230413 0)
(0.114971 0.229554 0)
(0.058103 0.229391 0)
(0.0293361 0.225142 0)
(3 1.08611e-14 0)
(3 5.93381e-14 0)
(3 8.87637e-14 0)
(3 -8.48776e-13 0)
(3 1.52705e-12 0)
(3 -3.45858e-12 0)
(3 1.20245e-11 0)
(3 1.06769e-11 0)
(3 2.55809e-11 0)
(3 2.98069e-11 0)
(3 6.19621e-11 0)
(3 -3.67836e-10 0)
(3 4.38026e-10 0)
(3 -1.50231e-10 0)
(3 -1.84793e-08 0)
(3 1.42309e-08 0)
(3 -6.98446e-08 0)
(3 -1.8423e-08 0)
(3 -1.71758e-07 0)
(2.99999 -5.48707e-07 0)
(2.99999 -8.01756e-06 0)
(2.99996 2.07329e-06 0)
(2.99991 -2.68923e-06 0)
(2.99987 -2.68255e-05 0)
(2.99953 -0.000222152 0)
(3.00023 -0.000795561 0)
(2.99903 -0.00272186 0)
(2.9952 -0.00577721 0)
(3.00944 -0.00845108 0)
(2.80806 -0.0118695 0)
(2.57545 0.0171208 0)
(1.87134 0.0712196 0)
(0.606257 0.274552 0)
(0.433282 0.253686 0)
(0.529715 0.226739 0)
(0.577619 0.209281 0)
(0.559185 0.198719 0)
(0.519985 0.196396 0)
(0.475031 0.2016 0)
(0.437858 0.210962 0)
(0.404622 0.222206 0)
(0.368137 0.233633 0)
(0.328129 0.243584 0)
(0.288076 0.251678 0)
(0.24735 0.258227 0)
(0.208023 0.263335 0)
(0.159183 0.266842 0)
(0.119565 0.266955 0)
(0.0617917 0.267041 0)
(0.0297384 0.262166 0)
(3 5.62375e-15 0)
(3 5.58394e-14 0)
(3 1.08505e-13 0)
(3 2.82757e-13 0)
(3 6.88515e-13 0)
(3 9.09771e-13 0)
(3 1.70364e-12 0)
(3 -2.00593e-12 0)
(3 -7.27088e-12 0)
(3 -3.40872e-10 0)
(3 1.85554e-10 0)
(3 -3.27881e-10 0)
(3 3.72282e-10 0)
(3 -4.63234e-09 0)
(3 9.76597e-09 0)
(3 -1.61648e-08 0)
(3 5.69817e-08 0)
(3 5.43185e-08 0)
(3 2.79425e-07 0)
(2.99999 3.13915e-07 0)
(2.99999 5.9356e-06 0)
(2.99996 -4.91329e-06 0)
(2.99992 8.04181e-06 0)
(2.99979 -5.45114e-07 0)
(2.9993 -0.000177849 0)
(2.99896 -0.000143831 0)
(2.99675 -0.00218549 0)
(2.99527 -0.00444041 0)
(3.00441 -0.00563252 0)
(2.83064 -0.0178018 0)
(2.65152 0.0322595 0)
(1.97878 0.104874 0)
(0.658559 0.314695 0)
(0.427616 0.282851 0)
(0.529969 0.251232 0)
(0.582438 0.231063 0)
(0.567177 0.220805 0)
(0.531045 0.219992 0)
(0.487455 0.227732 0)
(0.449994 0.238834 0)
(0.416318 0.251155 0)
(0.379166 0.263319 0)
(0.337988 0.274051 0)
(0.29661 0.283563 0)
(0.254654 0.292254 0)
(0.214385 0.299795 0)
(0.165266 0.305537 0)
(0.124281 0.307106 0)
(0.0656231 0.307911 0)
(0.0302163 0.302651 0)
(3 -2.17965e-15 0)
(3 6.2759e-14 0)
(3 7.37453e-15 0)
(3 4.57864e-13 0)
(3 1.01488e-12 0)
(3 3.09619e-12 0)
(3 5.41617e-12 0)
(3 1.88749e-11 0)
(3 3.06436e-11 0)
(3 9.23608e-11 0)
(3 1.63224e-10 0)
(3 1.68507e-10 0)
(3 5.56862e-10 0)
(3 -3.08546e-09 0)
(3 7.67151e-09 0)
(3 -1.86809e-08 0)
(3 6.35923e-08 0)
(3 4.82568e-08 0)
(3 2.53209e-07 0)
(3 3.6923e-07 0)
(2.99998 1.38106e-06 0)
(2.99996 2.19415e-06 0)
(2.99992 4.21455e-06 0)
(2.99971 6.16542e-06 0)
(2.99942 -6.30041e-05 0)
(2.99858 0.000276441 0)
(2.99542 -0.00101662 0)
(2.99228 -0.000589429 0)
(2.99877 -0.00940519 0)
(2.84662 -0.0186268 0)
(2.70893 0.0442387 0)
(2.08082 0.0987859 0)
(0.721655 0.348826 0)
(0.429439 0.309814 0)
(0.534908 0.27603 0)
(0.59019 0.252757 0)
(0.578601 0.243336 0)
(0.545885 0.244484 0)
(0.503323 0.255325 0)
(0.464774 0.268479 0)
(0.430316 0.282159 0)
(0.392199 0.295228 0)
(0.349495 0.30679 0)
(0.306429 0.317608 0)
(0.262851 0.328348 0)
(0.221352 0.33838 0)
(0.171809 0.346743 0)
(0.12941 0.350295 0)
(0.0698031 0.352409 0)
(0.0308922 0.347069 0)
(3 -5.70326e-15 0)
(3 1.65579e-14 0)
(3 -6.42411e-16 0)
(3 2.16713e-13 0)
(3 2.60273e-13 0)
(3 2.01281e-12 0)
(3 3.14255e-12 0)
(3 1.79447e-11 0)
(3 2.99609e-11 0)
(3 1.26007e-10 0)
(3 2.28563e-10 0)
(3 6.54783e-10 0)
(3 1.42237e-09 0)
(3 1.70669e-09 0)
(3 3.77457e-09 0)
(3 -3.4991e-09 0)
(3 4.01951e-08 0)
(3 -7.66075e-08 0)
(3 1.77829e-07 0)
(2.99999 -2.36834e-07 0)
(2.99999 -9.382e-07 0)
(2.99996 2.64317e-06 0)
(2.99992 2.5428e-06 0)
(2.99973 2.08996e-05 0)
(2.99953 2.02026e-05 0)
(2.99814 0.000168273 0)
(2.99603 -9.82983e-05 0)
(2.98802 0.00166427 0)
(2.98901 -0.00302519 0)
(2.87205 -0.0125778 0)
(2.76501 0.0528084 0)
(2.18742 0.0930663 0)
(0.808826 0.362421 0)
(0.441449 0.332886 0)
(0.54077 0.303543 0)
(0.596977 0.275715 0)
(0.591609 0.267254 0)
(0.563334 0.270457 0)
(0.521892 0.284487 0)
(0.481782 0.300082 0)
(0.446446 0.315484 0)
(0.407416 0.329636 0)
(0.363145 0.342145 0)
(0.318239 0.354213 0)
(0.272837 0.366853 0)
(0.229892 0.37943 0)
(0.179726 0.390762 0)
(0.135647 0.397026 0)
(0.0747576 0.401178 0)
(0.03188 0.396104 0)
(3 1.2906e-14 0)
(3 2.41475e-14 0)
(3 8.89902e-14 0)
(3 3.77482e-13 0)
(3 -3.07541e-13 0)
(3 3.15379e-12 0)
(3 2.77364e-12 0)
(3 2.10578e-11 0)
(3 4.11929e-11 0)
(3 1.65252e-10 0)
(3 2.95903e-10 0)
(3 1.02531e-09 0)
(3 1.65911e-09 0)
(3 3.26815e-09 0)
(3 8.81444e-09 0)
(3 -7.68027e-09 0)
(3 3.6238e-08 0)
(3 -2.19486e-07 0)
(3 2.76974e-07 0)
(3 -1.2505e-06 0)
(2.99999 2.19606e-06 0)
(2.99997 -4.47439e-06 0)
(2.99993 1.60279e-05 0)
(2.99973 1.94469e-06 0)
(2.99955 0.000149131 0)
(2.99848 2.17099e-05 0)
(2.99676 0.00139371 0)
(2.9897 0.00058526 0)
(2.98665 0.00316088 0)
(2.89549 -0.00221223 0)
(2.80974 0.0470334 0)
(2.30071 0.0783328 0)
(0.9315 0.337132 0)
(0.482067 0.353968 0)
(0.549083 0.335252 0)
(0.60133 0.300932 0)
(0.606395 0.293116 0)
(0.583278 0.298398 0)
(0.542857 0.315438 0)
(0.500798 0.333767 0)
(0.464546 0.351204 0)
(0.424837 0.366669 0)
(0.379366 0.380275 0)
(0.332801 0.393654 0)
(0.28558 0.408205 0)
(0.241001 0.423462 0)
(0.18997 0.438239 0)
(0.143854 0.447975 0)
(0.0810611 0.455114 0)
(0.0334259 0.4509 0)
(3 2.43127e-15 0)
(3 -4.52685e-15 0)
(3 -3.58976e-14 0)
(3 1.94081e-13 0)
(3 4.25749e-13 0)
(3 2.32835e-12 0)
(3 3.86229e-12 0)
(3 2.10567e-11 0)
(3 3.76662e-11 0)
(3 1.60169e-10 0)
(3 3.13304e-10 0)
(3 1.02014e-09 0)
(3 1.68154e-09 0)
(3 5.3323e-09 0)
(3 8.64496e-09 0)
(3 1.28335e-08 0)
(3 2.81702e-08 0)
(3 -8.58663e-08 0)
(3 1.89878e-07 0)
(3 -9.02717e-07 0)
(2.99999 -2.16736e-06 0)
(2.99997 -4.33027e-06 0)
(2.99993 1.41884e-06 0)
(2.99986 -2.92903e-05 0)
(2.99955 0.000128547 0)
(2.9993 -5.67119e-05 0)
(2.99654 0.000631762 0)
(2.98959 0.000763175 0)
(2.98684 0.00190023 0)
(2.9132 0.0019252 0)
(2.84355 0.0376221 0)
(2.40786 0.0595052 0)
(1.07216 0.286091 0)
(0.54154 0.387082 0)
(0.549041 0.367434 0)
(0.600362 0.328861 0)
(0.622751 0.320934 0)
(0.605225 0.328776 0)
(0.565526 0.348087 0)
(0.521355 0.369474 0)
(0.48425 0.389288 0)
(0.444268 0.406353 0)
(0.398236 0.421242 0)
(0.350632 0.436111 0)
(0.301985 0.452735 0)
(0.25591 0.470995 0)
(0.203839 0.489888 0)
(0.155113 0.504134 0)
(0.089691 0.515584 0)
(0.0359699 0.513213 0)
(3 -1.95437e-14 0)
(3 -4.7227e-14 0)
(3 -5.39288e-14 0)
(3 -3.15599e-13 0)
(3 1.83675e-13 0)
(3 8.83105e-13 0)
(3 1.01071e-12 0)
(3 9.75733e-12 0)
(3 1.05687e-11 0)
(3 8.34059e-11 0)
(3 1.34375e-10 0)
(3 7.65475e-10 0)
(3 1.35916e-09 0)
(3 6.21178e-09 0)
(3 9.30136e-09 0)
(3 3.83729e-08 0)
(3 6.34042e-08 0)
(3 1.85686e-07 0)
(3 3.26143e-07 0)
(3 6.80813e-07 0)
(2.99998 1.29032e-06 0)
(2.99997 4.22359e-07 0)
(2.99991 3.02451e-06 0)
(2.99985 -1.10693e-05 0)
(2.99952 -1.08831e-06 0)
(2.99895 3.36654e-06 0)
(2.99758 -0.000277509 0)
(2.99091 0.00131574 0)
(2.9878 0.00278656 0)
(2.92902 0.00474365 0)
(2.86914 0.0340088 0)
(2.49093 0.0577757 0)
(1.25056 0.246671 0)
(0.636384 0.428991 0)
(0.544532 0.394254 0)
(0.604507 0.353987 0)
(0.642996 0.347704 0)
(0.629437 0.360385 0)
(0.589335 0.382288 0)
(0.543467 0.407267 0)
(0.505489 0.429755 0)
(0.465628 0.448491 0)
(0.419837 0.464794 0)
(0.372125 0.481395 0)
(0.322877 0.500558 0)
(0.275743 0.522502 0)
(0.222736 0.546603 0)
(0.171002 0.567181 0)
(0.101939 0.584999 0)
(0.0402574 0.586122 0)
(3 -1.12402e-14 0)
(3 -2.57473e-14 0)
(3 -3.2498e-14 0)
(3 -2.25493e-13 0)
(3 -5.17724e-13 0)
(3 -8.97872e-13 0)
(3 -2.01235e-12 0)
(3 -1.34128e-12 0)
(3 -2.72266e-12 0)
(3 3.62902e-11 0)
(3 4.25651e-11 0)
(3 6.38927e-10 0)
(3 9.54326e-10 0)
(3 6.17796e-09 0)
(3 1.11892e-08 0)
(3 4.99186e-08 0)
(3 8.62912e-08 0)
(3 3.24947e-07 0)
(3 5.22713e-07 0)
(3 1.68213e-06 0)
(2.99999 2.82354e-06 0)
(2.99997 6.94293e-06 0)
(2.99991 1.26851e-05 0)
(2.99985 1.42468e-05 0)
(2.99957 2.12101e-05 0)
(2.99903 -2.54594e-05 0)
(2.99783 4.25418e-05 0)
(2.99265 -0.000839655 0)
(2.99027 0.00463013 0)
(2.94387 0.006796 0)
(2.90165 0.0262478 0)
(2.56785 0.0618437 0)
(1.46289 0.228252 0)
(0.784841 0.460788 0)
(0.5514 0.415731 0)
(0.618433 0.376319 0)
(0.670044 0.374725 0)
(0.656334 0.393648 0)
(0.613464 0.419394 0)
(0.566394 0.447941 0)
(0.527704 0.472692 0)
(0.488576 0.492622 0)
(0.444251 0.510339 0)
(0.39783 0.529017 0)
(0.349334 0.5515 0)
(0.302141 0.578392 0)
(0.248864 0.609259 0)
(0.194148 0.638894 0)
(0.120358 0.66687 0)
(0.0476922 0.674902 0)
(3 7.75613e-16 0)
(3 5.12855e-15 0)
(3 3.44577e-14 0)
(3 -2.3252e-14 0)
(3 -7.9773e-14 0)
(3 -1.96108e-12 0)
(3 -7.48763e-13 0)
(3 -4.14185e-12 0)
(3 -6.33751e-12 0)
(3 6.04648e-13 0)
(3 5.3084e-12 0)
(3 1.9445e-10 0)
(3 4.05006e-10 0)
(3 3.23275e-09 0)
(3 5.672e-09 0)
(3 3.57042e-08 0)
(3 6.02775e-08 0)
(3 2.97567e-07 0)
(3 5.19547e-07 0)
(3 2.01412e-06 0)
(2.99999 3.35595e-06 0)
(2.99998 1.1395e-05 0)
(2.99992 2.17494e-05 0)
(2.99986 4.54821e-05 0)
(2.99948 8.39186e-05 0)
(2.99897 8.69637e-05 0)
(2.99671 0.000240657 0)
(2.99571 -0.000793748 0)
(2.99568 0.0039341 0)
(2.95046 0.000299617 0)
(2.93094 0.0272991 0)
(2.62852 0.0611196 0)
(1.68997 0.225248 0)
(0.948749 0.483501 0)
(0.558691 0.43368 0)
(0.636049 0.403879 0)
(0.697289 0.407391 0)
(0.681265 0.431351 0)
(0.635966 0.461224 0)
(0.589105 0.49186 0)
(0.550635 0.517556 0)
(0.513465 0.537754 0)
(0.472274 0.556591 0)
(0.428949 0.578061 0)
(0.383106 0.605082 0)
(0.337304 0.638558 0)
(0.285196 0.678386 0)
(0.228822 0.721203 0)
(0.149755 0.766251 0)
(0.0615478 0.789626 0)
(3 1.33183e-14 0)
(3 2.90767e-14 0)
(3 8.34703e-14 0)
(3 6.84727e-14 0)
(3 1.46636e-13 0)
(3 -1.57274e-13 0)
(3 -2.23344e-13 0)
(3 -3.20607e-12 0)
(3 -5.08585e-12 0)
(3 -2.38463e-11 0)
(3 -5.08167e-11 0)
(3 -1.30303e-10 0)
(3 -2.23381e-10 0)
(3 -1.11748e-11 0)
(3 -4.70939e-10 0)
(3 8.73554e-09 0)
(3 1.72376e-08 0)
(3 1.18314e-07 0)
(3 2.34218e-07 0)
(3 1.30223e-06 0)
(3 2.39846e-06 0)
(2.99999 1.09563e-05 0)
(2.99995 1.87503e-05 0)
(2.99992 7.82009e-05 0)
(2.99962 0.000133778 0)
(2.99921 0.0004534 0)
(2.9969 0.000856299 0)
(2.99658 0.00229953 0)
(2.99119 0.00410203 0)
(2.97038 0.00293134 0)
(2.96906 0.0320271 0)
(2.68882 0.0618347 0)
(1.94252 0.191372 0)
(1.13336 0.454882 0)
(0.578878 0.434966 0)
(0.650115 0.439949 0)
(0.711189 0.447372 0)
(0.697659 0.475917 0)
(0.654669 0.507983 0)
(0.610716 0.538372 0)
(0.574576 0.562907 0)
(0.541006 0.582465 0)
(0.505309 0.602609 0)
(0.467592 0.6275 0)
(0.426739 0.660203 0)
(0.38459 0.702092 0)
(0.33675 0.754674 0)
(0.282753 0.816633 0)
(0.201209 0.890929 0)
(0.0904205 0.9516 0)
(3 9.22205e-15 0)
(3 3.57391e-14 0)
(3 6.92345e-14 0)
(3 1.6243e-13 0)
(3 3.15665e-13 0)
(3 7.62057e-13 0)
(3 1.31383e-12 0)
(3 2.66882e-12 0)
(3 4.76557e-12 0)
(3 6.64906e-12 0)
(3 6.25126e-12 0)
(3 1.49616e-11 0)
(3 -1.77212e-10 0)
(3 -2.29413e-11 0)
(3 -2.38406e-09 0)
(3 -2.25839e-09 0)
(3 -1.44716e-08 0)
(3 -7.32303e-09 0)
(3 -5.02229e-08 0)
(3 1.80539e-07 0)
(3 3.81411e-07 0)
(3 3.53531e-06 0)
(2.99999 6.55661e-06 0)
(2.99998 4.40354e-05 0)
(2.9999 6.74457e-05 0)
(2.99978 0.000424455 0)
(2.99878 0.000931606 0)
(2.99937 0.00314323 0)
(2.99593 0.00521466 0)
(2.98289 0.0105035 0)
(2.99097 0.0233754 0)
(2.7447 0.0436883 0)
(2.21486 0.118849 0)
(1.37631 0.341947 0)
(0.594933 0.451256 0)
(0.650383 0.486398 0)
(0.704214 0.498342 0)
(0.706354 0.525755 0)
(0.67041 0.55598 0)
(0.632378 0.582876 0)
(0.600895 0.604603 0)
(0.573663 0.623599 0)
(0.545698 0.645581 0)
(0.515561 0.674304 0)
(0.482686 0.713357 0)
(0.448917 0.765213 0)
(0.411155 0.833557 0)
(0.36893 0.922665 0)
(0.299779 1.04878 0)
(0.158431 1.23096 0)
(3 6.07759e-15 0)
(3 3.05933e-14 0)
(3 6.10756e-14 0)
(3 2.73909e-13 0)
(3 4.6832e-13 0)
(3 1.57012e-12 0)
(3 2.72694e-12 0)
(3 7.75865e-12 0)
(3 1.3941e-11 0)
(3 3.46052e-11 0)
(3 6.3699e-11 0)
(3 1.30008e-10 0)
(3 2.14619e-10 0)
(3 2.52446e-10 0)
(3 2.97579e-11 0)
(3 -1.37373e-09 0)
(3 -3.99024e-09 0)
(3 -4.17152e-09 0)
(3 -6.7461e-08 0)
(3 -1.24058e-07 0)
(3 -5.12092e-07 0)
(3 -8.07303e-07 0)
(3 -1.49327e-06 0)
(2.99999 -6.47674e-07 0)
(3.00008 -8.46161e-06 0)
(3.00029 5.91078e-05 0)
(3.00028 8.8848e-05 0)
(3.00188 0.000711842 0)
(3.00057 0.000673661 0)
(2.99368 0.00157399 0)
(3.00587 0.0077312 0)
(2.79504 0.0106361 0)
(2.44997 0.0765461 0)
(1.71314 0.238687 0)
(0.693908 0.50504 0)
(0.635413 0.554673 0)
(0.68757 0.572919 0)
(0.713214 0.589984 0)
(0.695637 0.610563 0)
(0.670496 0.630303 0)
(0.65017 0.648748 0)
(0.633807 0.668185 0)
(0.617463 0.69297 0)
(0.599827 0.726972 0)
(0.582285 0.773514 0)
(0.568391 0.836036 0)
(0.561516 0.91896 0)
(0.573561 1.03088 0)
(0.641409 1.1882 0)
(0.727066 1.4179 0)
(3 2.21032e-15 0)
(3 1.54529e-14 0)
(3 2.35455e-14 0)
(3 1.61982e-13 0)
(3 2.71306e-13 0)
(3 1.02491e-12 0)
(3 1.86695e-12 0)
(3 6.44826e-12 0)
(3 1.12498e-11 0)
(3 3.44747e-11 0)
(3 6.45735e-11 0)
(3 1.40377e-10 0)
(3 4.17581e-10 0)
(3 4.06466e-10 0)
(3 2.67254e-09 0)
(3 1.252e-09 0)
(3 1.17739e-08 0)
(3 -9.00738e-10 0)
(3 3.08908e-08 0)
(3 -6.43692e-08 0)
(3 -4.32557e-08 0)
(3 -8.75637e-07 0)
(2.99999 -2.13946e-06 0)
(2.99997 -7.95953e-06 0)
(2.99996 -1.24512e-05 0)
(2.99984 -9.98717e-05 0)
(2.9996 -0.000300234 0)
(2.99985 -0.000456157 0)
(2.99666 -0.00229518 0)
(2.99275 -0.00250969 0)
(3.00166 -0.00394724 0)
(2.84842 -0.0143818 0)
(2.70263 0.0663929 0)
(2.10116 0.169913 0)
(0.851679 0.570406 0)
(0.642908 0.617277 0)
(0.684365 0.628075 0)
(0.725653 0.631306 0)
(0.731139 0.644378 0)
(0.723014 0.661975 0)
(0.714167 0.681087 0)
(0.707434 0.703144 0)
(0.701746 0.731172 0)
(0.696619 0.768996 0)
(0.695329 0.819353 0)
(0.703536 0.884903 0)
(0.728656 0.968295 0)
(0.78338 1.0745 0)
(0.916654 1.20611 0)
(1.10187 1.35463 0)
(3 3.8521e-16 0)
(3 4.28927e-15 0)
(3 5.69601e-15 0)
(3 4.37375e-14 0)
(3 4.8861e-14 0)
(3 4.21338e-13 0)
(3 5.4115e-13 0)
(3 3.53878e-12 0)
(3 4.08522e-12 0)
(3 2.21228e-11 0)
(3 3.52568e-11 0)
(3 1.74503e-10 0)
(3 2.48076e-10 0)
(3 1.05212e-09 0)
(3 1.76062e-09 0)
(3 6.10199e-09 0)
(3 1.13127e-08 0)
(3 1.1512e-08 0)
(3 7.30237e-08 0)
(3 6.15849e-08 0)
(3 3.54552e-07 0)
(3 2.05726e-07 0)
(2.99999 1.39459e-07 0)
(2.99997 7.55773e-07 0)
(2.99993 6.92043e-06 0)
(2.99981 1.567e-05 0)
(2.99969 -8.76099e-06 0)
(2.99856 -5.96256e-05 0)
(2.99716 -0.000505496 0)
(2.99082 0.00018304 0)
(2.98673 0.00117726 0)
(2.91497 -0.0065948 0)
(2.84279 0.0673134 0)
(2.44063 0.12053 0)
(1.20674 0.510013 0)
(0.739361 0.655223 0)
(0.722089 0.673362 0)
(0.764004 0.669877 0)
(0.792139 0.671659 0)
(0.796388 0.686542 0)
(0.793322 0.708785 0)
(0.790929 0.735188 0)
(0.791384 0.766708 0)
(0.796092 0.805761 0)
(0.808307 0.855012 0)
(0.833359 0.916052 0)
(0.87906 0.988908 0)
(0.953691 1.07376 0)
(1.08946 1.16647 0)
(1.26701 1.24392 0)
(3 -5.68503e-15 0)
(3 -1.92449e-14 0)
(3 -3.55005e-14 0)
(3 -3.66363e-14 0)
(3 -2.10552e-14 0)
(3 8.61657e-14 0)
(3 1.66364e-13 0)
(3 6.44162e-13 0)
(3 1.45286e-12 0)
(3 3.19989e-12 0)
(3 7.75683e-12 0)
(3 2.49952e-11 0)
(3 5.69629e-11 0)
(3 2.94106e-10 0)
(3 4.82975e-10 0)
(3 3.24603e-09 0)
(3 5.23267e-09 0)
(3 2.86481e-08 0)
(3 4.4635e-08 0)
(3 2.23787e-07 0)
(3 3.30209e-07 0)
(3 1.42834e-06 0)
(2.99999 2.2856e-06 0)
(2.99998 8.64401e-06 0)
(2.99999 1.56186e-05 0)
(2.99982 4.3455e-05 0)
(2.99947 0.000119577 0)
(2.99902 0.00019817 0)
(2.99707 0.000921521 0)
(2.99556 0.00152704 0)
(2.99079 0.00651714 0)
(2.9528 0.00766443 0)
(2.93163 0.0468504 0)
(2.6167 0.0948089 0)
(1.67621 0.347299 0)
(1.04561 0.681028 0)
(0.821228 0.710824 0)
(0.822399 0.707554 0)
(0.85203 0.703087 0)
(0.87279 0.715847 0)
(0.875792 0.738974 0)
(0.873453 0.766726 0)
(0.874993 0.798804 0)
(0.884637 0.836318 0)
(0.906167 0.880882 0)
(0.941909 0.932603 0)
(0.996744 0.990687 0)
(1.07622 1.05292 0)
(1.19812 1.11496 0)
(1.34737 1.15991 0)
(3 -2.61452e-15 0)
(3 -2.09772e-15 0)
(3 -8.7286e-16 0)
(3 3.72186e-15 0)
(3 4.64336e-14 0)
(3 3.64907e-14 0)
(3 2.906e-13 0)
(3 1.88557e-14 0)
(3 1.94724e-12 0)
(3 3.24602e-12 0)
(3 7.33101e-12 0)
(3 -3.63979e-12 0)
(3 3.76994e-11 0)
(3 2.95804e-11 0)
(3 1.77101e-10 0)
(3 1.8085e-11 0)
(3 4.10386e-10 0)
(3 5.69308e-09 0)
(3 6.24794e-09 0)
(3 8.37255e-08 0)
(3 6.51383e-08 0)
(3 5.26322e-07 0)
(3 8.11283e-07 0)
(3 4.39719e-06 0)
(2.99999 7.64646e-06 0)
(2.99998 6.86846e-06 0)
(2.99994 9.55719e-05 0)
(2.9999 0.000290393 0)
(2.99937 0.000563766 0)
(3.00017 0.0017359 0)
(2.9969 0.00285186 0)
(2.98529 0.00496229 0)
(2.99249 0.0259539 0)
(2.77457 0.0512898 0)
(2.3342 0.209863 0)
(1.59062 0.556982 0)
(0.895104 0.706113 0)
(0.854384 0.73666 0)
(0.887002 0.748138 0)
(0.92307 0.758311 0)
(0.933838 0.777289 0)
(0.935647 0.801702 0)
(0.941937 0.829488 0)
(0.957997 0.86172 0)
(0.985819 0.898797 0)
(1.02662 0.939905 0)
(1.08417 0.984106 0)
(1.16161 1.02872 0)
(1.26975 1.07021 0)
(1.39497 1.09878 0)
(3 3.98444e-15 0)
(3 1.98531e-14 0)
(3 3.78475e-14 0)
(3 7.40668e-14 0)
(3 1.03083e-13 0)
(3 2.72426e-13 0)
(3 4.17428e-13 0)
(3 1.46623e-12 0)
(3 2.09005e-12 0)
(3 8.14119e-12 0)
(3 1.15166e-11 0)
(3 4.43129e-11 0)
(3 6.32418e-11 0)
(3 2.31011e-10 0)
(3 2.92544e-10 0)
(3 1.06449e-09 0)
(3 1.85073e-09 0)
(3 4.73834e-09 0)
(3 1.43839e-08 0)
(3 1.88311e-08 0)
(3 8.24383e-08 0)
(3 1.60043e-07 0)
(3 4.81785e-07 0)
(2.99999 4.68856e-07 0)
(2.99999 2.3464e-06 0)
(2.99996 3.82679e-06 0)
(2.99994 7.44629e-06 0)
(2.9998 1.65825e-05 0)
(2.99948 3.6269e-05 0)
(2.99935 0.000248196 0)
(2.99622 -0.00051525 0)
(2.99264 0.00190931 0)
(3.00158 0.00722531 0)
(2.8546 0.00195724 0)
(2.71132 0.145024 0)
(2.14996 0.237729 0)
(1.09061 0.765753 0)
(0.9129 0.807092 0)
(0.914689 0.816817 0)
(0.951175 0.816447 0)
(0.979711 0.82119 0)
(0.990803 0.836085 0)
(1.00122 0.857015 0)
(1.02074 0.882091 0)
(1.05154 0.910488 0)
(1.09448 0.941655 0)
(1.15155 0.974349 0)
(1.22433 1.00617 0)
(1.31997 1.03427 0)
(1.42689 1.05264 0)
(3 -5.08743e-16 0)
(3 2.43397e-15 0)
(3 3.31486e-15 0)
(3 1.14904e-14 0)
(3 1.61117e-14 0)
(3 8.58405e-14 0)
(3 1.26746e-13 0)
(3 5.93177e-13 0)
(3 8.08636e-13 0)
(3 3.75657e-12 0)
(3 5.42813e-12 0)
(3 2.36418e-11 0)
(3 3.30055e-11 0)
(3 1.38534e-10 0)
(3 2.15966e-10 0)
(3 8.03395e-10 0)
(3 9.58763e-10 0)
(3 4.3734e-09 0)
(3 6.64725e-09 0)
(3 7.51979e-09 0)
(3 6.79437e-08 0)
(3 2.27305e-07 0)
(3 3.0546e-07 0)
(3 1.34285e-06 0)
(2.99999 2.17057e-06 0)
(2.99999 4.65338e-06 0)
(2.99997 1.7008e-05 0)
(2.99995 2.4718e-05 0)
(2.99976 0.000101117 0)
(2.99926 0.000217071 0)
(2.99971 0.000318046 0)
(2.99822 0.00171625 0)
(2.99308 0.00304021 0)
(2.99967 -0.00458086 0)
(2.81111 0.0836943 0)
(2.57546 0.115949 0)
(1.86564 0.515795 0)
(1.00664 0.821956 0)
(0.959828 0.864387 0)
(0.983004 0.868193 0)
(1.01732 0.864466 0)
(1.04294 0.866285 0)
(1.06116 0.877819 0)
(1.08313 0.895499 0)
(1.11429 0.916919 0)
(1.1562 0.9404 0)
(1.21011 0.964528 0)
(1.2767 0.987463 0)
(1.36103 1.00693 0)
(1.45336 1.01907 0)
(3 -1.51777e-15 0)
(3 5.48326e-15 0)
(3 1.65558e-14 0)
(3 3.11271e-14 0)
(3 4.73681e-14 0)
(3 7.87976e-14 0)
(3 1.42588e-13 0)
(3 2.00501e-13 0)
(3 6.09231e-13 0)
(3 9.92652e-13 0)
(3 3.63736e-12 0)
(3 6.44107e-12 0)
(3 2.27848e-11 0)
(3 4.32969e-11 0)
(3 1.50232e-10 0)
(3 2.52401e-10 0)
(3 9.80705e-10 0)
(3 1.60752e-09 0)
(3 5.74423e-09 0)
(3 1.10737e-08 0)
(3 3.066e-08 0)
(3 7.11879e-08 0)
(3 8.95691e-08 0)
(3 4.9031e-07 0)
(3 1.00915e-06 0)
(2.99999 3.0179e-06 0)
(2.99998 5.72196e-06 0)
(2.99994 2.15282e-05 0)
(2.9998 2.99557e-05 0)
(2.99971 0.000174452 0)
(2.99871 0.000540249 0)
(2.99711 -0.000262744 0)
(2.99103 -0.000458648 0)
(2.98756 0.0013937 0)
(2.91349 -0.00674473 0)
(2.84093 0.0978996 0)
(2.45586 0.213675 0)
(1.40204 0.713089 0)
(1.07948 0.886687 0)
(1.04645 0.914251 0)
(1.06826 0.908469 0)
(1.09862 0.899648 0)
(1.12666 0.899353 0)
(1.15225 0.909202 0)
(1.18217 0.924529 0)
(1.22007 0.941717 0)
(1.26833 0.958918 0)
(1.32737 0.974778 0)
(1.40097 0.98785 0)
(1.48068 0.995608 0)
(3 1.5305e-14 0)
(3 2.33775e-14 0)
(3 4.27356e-14 0)
(3 5.60429e-14 0)