/*--------------------------------*- C++ -*----------------------------------*\
| =========                 |                                                 |
| \\      /  F ield         | OpenFOAM: The Open Source CFD Toolbox           |
|  \\    /   O peration     | Version:  2412                                  |
|   \\  /    A nd           | Website:  www.openfoam.com                      |
|    \\/     M anipulation  |                                                 |
\*---------------------------------------------------------------------------*/
FoamFile
{
    version     2.0;
    format      ascii;
    arch        "LSB;label=32;scalar=64";
    class       volScalarField;
    location    "8.5";
    object      Ma;
}
// * * * * * * * * * * * * * * * * * * * * * * * * * * * * * * * * * * * * * //

dimensions      [0 0 0 0 0 0 0];

internalField   nonuniform List<scalar> 
7000
(
2.99397
2.97687
2.96504
2.87064
2.71929
2.2709
1.38225
0.687828
0.310299
0.376546
0.444149
0.469252
0.469851
0.460646
0.449121
0.4412
0.436232
0.432092
0.427141
0.420907
0.413571
0.405269
0.396168
0.38644
0.376163
0.365379
0.354121
0.341891
0.32853
0.314875
0.301021
0.286763
0.272743
0.258803
0.24446
0.229973
0.215521
0.200837
0.186189
0.17185
0.157671
0.143369
0.127817
0.110844
0.0930834
0.0748018
0.0565349
0.0387856
0.0216954
0.00942493
2.99369
2.97666
2.96781
2.86729
2.72906
2.24679
1.39073
0.689373
0.309782
0.37556
0.443486
0.468697
0.469383
0.460304
0.448927
0.441106
0.436208
0.432122
0.427195
0.420987
0.413702
0.405495
0.396546
0.38706
0.377156
0.366919
0.356412
0.345222
0.332942
0.320366
0.307719
0.294598
0.281564
0.268443
0.254419
0.239745
0.224701
0.209052
0.193169
0.177456
0.161862
0.146247
0.129671
0.112237
0.0946681
0.0771183
0.0598147
0.0429437
0.0266562
0.0150895
2.99372
2.97654
2.96619
2.86895
2.72648
2.26919
1.38452
0.686035
0.309044
0.375259
0.442637
0.467389
0.467788
0.458859
0.447879
0.440438
0.435851
0.431999
0.427193
0.42107
0.413853
0.405709
0.396834
0.387441
0.377663
0.367592
0.3573
0.346415
0.334471
0.322204
0.309921
0.297162
0.284413
0.271618
0.257782
0.243143
0.228051
0.212296
0.196234
0.180377
0.164695
0.149081
0.132625
0.115515
0.0985044
0.0816974
0.0652207
0.0492557
0.0342811
0.0243129
2.99435
2.97679
2.96686
2.86811
2.7253
2.23888
1.37894
0.685488
0.311621
0.376201
0.443101
0.467647
0.467947
0.458977
0.448017
0.440636
0.436102
0.432287
0.427487
0.421385
0.414194
0.406081
0.397259
0.387932
0.378225
0.368226
0.358006
0.347175
0.33531
0.323165
0.310997
0.298349
0.285649
0.272907
0.259199
0.244701
0.229783
0.214274
0.198469
0.182923
0.167609
0.152446
0.136517
0.120008
0.103682
0.0876102
0.0718982
0.0568506
0.0432409
0.0346477
2.99385
2.97888
2.96201
2.86386
2.71894
2.23093
1.37047
0.675032
0.307565
0.37511
0.443127
0.46814
0.468558
0.459526
0.448501
0.441098
0.436561
0.432746
0.427912
0.421817
0.414658
0.406593
0.397833
0.388578
0.378944
0.369015
0.358864
0.348066
0.336284
0.324297
0.312279
0.299803
0.287302
0.274779
0.261338
0.247138
0.232541
0.217373
0.20189
0.186666
0.171687
0.156936
0.141536
0.125576
0.109908
0.0945747
0.0796687
0.0656167
0.0533775
0.045988
2.99367
2.97644
2.96635
2.86411
2.72364
2.22578
1.36587
0.675043
0.313383
0.378308
0.444875
0.469225
0.46907
0.459756
0.448698
0.441401
0.43698
0.433238
0.428411
0.422357
0.41526
0.407276
0.398615
0.389474
0.37996
0.370154
0.360128
0.349433
0.337813
0.326043
0.314239
0.302009
0.28979
0.277597
0.264542
0.250753
0.236564
0.221783
0.206606
0.191653
0.176937
0.162512
0.147589
0.132153
0.11712
0.102549
0.0885299
0.0755681
0.0646758
0.0583531
2.99357
2.97595
2.96505
2.85925
2.72263
2.21884
1.35591
0.668366
0.314245
0.378895
0.444735
0.468745
0.468241
0.459004
0.448262
0.441375
0.437297
0.43374
0.428995
0.423025
0.416017
0.408133
0.399594
0.390597
0.381244
0.371607
0.361756
0.35123
0.339812
0.328283
0.31674
0.304806
0.292938
0.28114
0.268501
0.25513
0.241352
0.226952
0.21211
0.197467
0.183052
0.168972
0.154548
0.139671
0.125322
0.111578
0.0985272
0.0867025
0.077084
0.0716909
2.99326
2.97575
2.96413
2.8881
2.7003
2.22957
1.34277
0.660392
0.30955
0.375863
0.442587
0.467076
0.466834
0.457982
0.447708
0.441344
0.437683
0.434318
0.429678
0.423815
0.416919
0.409158
0.400757
0.391922
0.382754
0.373316
0.363668
0.353365
0.342187
0.330916
0.319661
0.308047
0.296556
0.285156
0.272917
0.259956
0.246594
0.232604
0.218167
0.203925
0.18991
0.176259
0.162423
0.148194
0.13457
0.121718
0.109706
0.0990378
0.0905959
0.0860018
2.99419
2.97632
2.96362
2.8725
2.70825
2.19821
1.3266
0.655953
0.315669
0.378514
0.443203
0.466986
0.466263
0.457405
0.44744
0.441523
0.438248
0.435016
0.430479
0.42474
0.41798
0.410367
0.402133
0.393491
0.384538
0.375326
0.365901
0.355851
0.344983
0.334021
0.323074
0.31179
0.300637
0.289608
0.277776
0.265249
0.252341
0.238831
0.224877
0.211127
0.197614
0.184482
0.171326
0.157851
0.145013
0.133108
0.122177
0.112648
0.105272
0.101339
2.99456
2.97779
2.96069
2.85492
2.71537
2.18059
1.31001
0.649077
0.316936
0.378936
0.443154
0.466729
0.465685
0.456865
0.44724
0.441791
0.438904
0.435813
0.431413
0.425829
0.419232
0.411789
0.403749
0.395339
0.386643
0.377694
0.368522
0.358756
0.348218
0.337581
0.326966
0.316044
0.305249
0.294619
0.283243
0.271203
0.258809
0.245869
0.23247
0.219281
0.206354
0.193826
0.181437
0.168779
0.156794
0.145896
0.136068
0.127639
0.121223
0.117868
2.99443
2.97919
2.9551
2.86445
2.69339
2.20821
1.29523
0.641795
0.316723
0.378698
0.442276
0.465383
0.463925
0.455487
0.446516
0.441775
0.439439
0.436591
0.432417
0.427053
0.420665
0.413424
0.405615
0.397485
0.3891
0.380458
0.371565
0.362062
0.351888
0.341635
0.331395
0.320882
0.310498
0.300332
0.289467
0.277974
0.266154
0.253854
0.241098
0.22856
0.216311
0.204474
0.192934
0.181193
0.170095
0.160225
0.151521
0.144173
0.138651
0.135779
2.994
2.97488
2.96256
2.8759
2.69054
2.21329
1.28022
0.640705
0.324183
0.38175
0.442879
0.465043
0.462941
0.454706
0.44623
0.442082
0.440159
0.437502
0.433551
0.428424
0.422272
0.415262
0.407708
0.399899
0.391871
0.383588
0.37503
0.365832
0.356054
0.346255
0.336484
0.326457
0.316587
0.306939
0.29664
0.28575
0.274563
0.262953
0.250904
0.239092
0.227609
0.216558
0.20596
0.195244
0.185118
0.176359
0.168823
0.162563
0.157875
0.155466
2.99457
2.97672
2.95598
2.85912
2.69386
2.15608
1.26179
0.629885
0.325679
0.382424
0.442806
0.464602
0.462244
0.454285
0.44628
0.442682
0.441034
0.438548
0.434813
0.42994
0.42406
0.417313
0.410044
0.402587
0.394945
0.387055
0.378877
0.37006
0.360726
0.351421
0.342177
0.332716
0.323498
0.314488
0.304826
0.294602
0.28411
0.273248
0.261985
0.250973
0.240353
0.230202
0.220637
0.211122
0.202065
0.194469
0.188187
0.183096
0.179329
0.177314
2.99377
2.97697
2.95802
2.87099
2.68253
2.18279
1.24872
0.627761
0.325435
0.380601
0.440654
0.462597
0.460751
0.453437
0.446202
0.443325
0.441946
0.439665
0.436176
0.43158
0.425996
0.419552
0.412618
0.405545
0.398319
0.390851
0.383083
0.374711
0.365921
0.357183
0.348526
0.339697
0.331157
0.322842
0.313905
0.304441
0.294732
0.284711
0.27435
0.26425
0.254618
0.245512
0.237113
0.228979
0.22125
0.21497
0.210085
0.206327
0.20357
0.202173
2.99402
2.97501
2.96029
2.84723
2.701
2.12837
1.23918
0.625731
0.331288
0.383786
0.442511
0.463597
0.46143
0.454076
0.447171
0.444629
0.443263
0.441047
0.437725
0.43338
0.4281
0.422004
0.415458
0.40881
0.402027
0.395005
0.387653
0.379727
0.371501
0.36336
0.355342
0.34722
0.33943
0.331892
0.323787
0.315205
0.306392
0.297373
0.288049
0.278966
0.270475
0.262603
0.255539
0.249078
0.242935
0.238223
0.235117
0.233068
0.23167
0.230942
2.99414
2.97417
2.95714
2.8497
2.68195
2.16746
1.23321
0.625075
0.3295
0.382338
0.44158
0.462844
0.461164
0.454249
0.447945
0.445852
0.44458
0.442475
0.439356
0.4353
0.430366
0.424657
0.418545
0.412354
0.406025
0.399441
0.392488
0.385018
0.377416
0.369971
0.362686
0.355381
0.348525
0.341815
0.334586
0.326963
0.319154
0.311251
0.303144
0.29525
0.288059
0.281633
0.276157
0.271647
0.267607
0.264839
0.263922
0.264199
0.264858
0.265603
2.99467
2.97763
2.95556
2.85376
2.68436
2.13345
1.22876
0.625112
0.334448
0.385512
0.44381
0.464254
0.46228
0.455374
0.449329
0.44738
0.44608
0.444014
0.441044
0.437266
0.432712
0.427445
0.421811
0.416113
0.410261
0.404106
0.397514
0.390598
0.383686
0.376981
0.370459
0.364083
0.358305
0.352511
0.346255
0.339683
0.332983
0.326283
0.319481
0.312995
0.307365
0.302673
0.299137
0.296931
0.295551
0.295449
0.29768
0.301479
0.30568
0.308786
2.99397
2.97376
2.95449
2.8566
2.67898
2.17408
1.23167
0.627407
0.335185
0.386823
0.445023
0.465349
0.463407
0.456645
0.450865
0.448935
0.447585
0.445542
0.442717
0.439227
0.435071
0.430256
0.425098
0.419883
0.414499
0.408712
0.402599
0.396402
0.390266
0.384384
0.378692
0.373415
0.368772
0.363943
0.358773
0.353358
0.347891
0.342462
0.33714
0.332311
0.328472
0.325813
0.32456
0.325116
0.327338
0.330958
0.337442
0.346694
0.357175
0.367109
2.99354
2.97476
2.96226
2.8883
2.67201
2.1764
1.23616
0.635481
0.338462
0.389132
0.447212
0.467388
0.465376
0.458637
0.452894
0.450753
0.449167
0.447075
0.44434
0.441025
0.437189
0.432785
0.428067
0.42329
0.418346
0.412987
0.407426
0.401974
0.396777
0.391868
0.387264
0.383326
0.379713
0.375892
0.37189
0.36778
0.363645
0.359672
0.356093
0.353241
0.351478
0.351136
0.35266
0.356507
0.363034
0.372168
0.38511
0.403391
0.425879
0.452685
2.99473
2.97773
2.95606
2.85827
2.68668
2.15586
1.25242
0.63825
0.337372
0.389757
0.448947
0.469692
0.467659
0.460883
0.455061
0.452512
0.450609
0.448417
0.445771
0.442581
0.438869
0.434691
0.430278
0.42584
0.421297
0.416553
0.411688
0.407015
0.402778
0.398924
0.395656
0.393208
0.390848
0.388311
0.385652
0.382881
0.380192
0.378017
0.376553
0.375679
0.376004
0.378318
0.382883
0.390882
0.402626
0.418881
0.44129
0.474351
0.523594
0.617184
2.99487
2.97844
2.95596
2.86431
2.69669
2.1851
1.27393
0.65367
0.339168
0.391312
0.451248
0.472499
0.470386
0.463584
0.457633
0.454411
0.451837
0.449194
0.44628
0.44298
0.43933
0.435314
0.431222
0.427236
0.423335
0.419569
0.416093
0.413052
0.410555
0.408694
0.407703
0.40718
0.406677
0.406157
0.405471
0.404723
0.404443
0.404885
0.406126
0.408407
0.411996
0.417764
0.426693
0.439815
0.459456
0.486835
0.525097
0.58313
0.678085
0.823903
2.99466
2.97842
2.95897
2.8552
2.70948
2.21726
1.31237
0.674456
0.338475
0.391957
0.453894
0.476224
0.473985
0.466812
0.460416
0.456173
0.452713
0.449672
0.446457
0.44296
0.439352
0.435751
0.432331
0.429202
0.426335
0.423863
0.421971
0.420805
0.420396
0.420693
0.421573
0.422753
0.424111
0.425394
0.426648
0.428282
0.43053
0.433391
0.437208
0.442479
0.449386
0.458775
0.471728
0.489585
0.514421
0.549901
0.599385
0.667757
0.772768
0.897194
2.99437
2.97725
2.96678
2.87756
2.71521
2.23246
1.35245
0.69352
0.337274
0.3936
0.458363
0.482093
0.47898
0.470757
0.462856
0.456882
0.452159
0.448343
0.44469
0.44121
0.437983
0.435068
0.43262
0.430764
0.429562
0.42912
0.429486
0.4306
0.43232
0.434573
0.437249
0.440246
0.44331
0.446418
0.449952
0.453923
0.458445
0.463615
0.469816
0.477679
0.487485
0.500061
0.516077
0.537288
0.56513
0.601978
0.652475
0.716947
0.806943
0.900485
2.99489
2.98286
2.97225
2.87301
2.72588
2.26633
1.37779
0.709051
0.335089
0.393433
0.461209
0.48482
0.481287
0.471906
0.462614
0.455666
0.450527
0.446509
0.442948
0.44003
0.437692
0.435922
0.434972
0.434944
0.435793
0.437424
0.43981
0.442872
0.446474
0.450524
0.454972
0.459589
0.464223
0.469305
0.474886
0.48072
0.48717
0.494352
0.502633
0.512463
0.524521
0.539026
0.557169
0.579501
0.608114
0.643242
0.688723
0.743873
0.814731
0.888529
2.98943
2.99232
2.96738
2.89586
2.73775
2.24084
1.36898
0.69269
0.324504
0.392541
0.466676
0.491342
0.486425
0.475308
0.46395
0.45521
0.448859
0.444002
0.440226
0.43778
0.436612
0.436643
0.437922
0.440239
0.44344
0.447433
0.452097
0.457258
0.462832
0.468767
0.474899
0.481108
0.48757
0.49436
0.501345
0.508582
0.516522
0.525222
0.534988
0.54611
0.559377
0.574842
0.59393
0.615982
0.643731
0.67598
0.715948
0.763005
0.819789
0.87975
2.98752
2.99206
2.95466
3.0041
2.69811
2.22002
1.3508
0.694453
0.352458
0.408453
0.475012
0.498742
0.493586
0.481809
0.469134
0.458846
0.451079
0.445062
0.441246
0.439712
0.439832
0.441608
0.444681
0.448853
0.454025
0.460089
0.46675
0.473758
0.481181
0.488832
0.496594
0.504465
0.512364
0.52029
0.528289
0.536584
0.545489
0.555028
0.565627
0.577381
0.591227
0.606792
0.625807
0.647197
0.672852
0.702721
0.73744
0.777593
0.824349
0.871738
3.00593
2.99025
3.05045
2.95874
2.7912
2.07466
1.28913
0.465045
0.288028
0.351775
0.414651
0.435813
0.439749
0.440118
0.438797
0.438693
0.439866
0.441339
0.443004
0.445529
0.448968
0.453162
0.458068
0.46365
0.469931
0.476957
0.484415
0.491913
0.499579
0.507542
0.515889
0.524527
0.5333
0.542176
0.551195
0.560424
0.570097
0.580315
0.591518
0.603591
0.617497
0.633174
0.651252
0.672253
0.695766
0.722966
0.754009
0.788267
0.82761
0.866482
2.99414
2.98841
2.97223
2.91528
2.84916
2.12623
1.34907
0.490819
0.308489
0.365628
0.419735
0.436675
0.441015
0.443285
0.444684
0.447668
0.451505
0.454846
0.457576
0.46062
0.464316
0.468499
0.473191
0.478761
0.484882
0.49129
0.497969
0.505066
0.512719
0.520767
0.529045
0.537506
0.546177
0.555126
0.564404
0.574065
0.584279
0.595088
0.606836
0.619527
0.633612
0.649678
0.667346
0.687702
0.710184
0.73499
0.763035
0.793401
0.827222
0.860231
2.99498
2.98979
2.97557
2.92278
2.83293
2.18017
1.4099
0.527137
0.315599
0.37778
0.4399
0.462732
0.469508
0.47169
0.472092
0.47334
0.475868
0.477945
0.47878
0.479809
0.481737
0.484505
0.487635
0.491274
0.4959
0.500971
0.506388
0.51227
0.518567
0.525192
0.532329
0.540059
0.548228
0.556794
0.565934
0.575722
0.586144
0.5974
0.609595
0.622964
0.637523
0.653961
0.671984
0.691937
0.71387
0.737474
0.76325
0.790973
0.820715
0.849938
2.9944
2.98736
2.95842
2.93773
2.78936
2.30201
1.4926
0.567959
0.316681
0.384049
0.44945
0.480468
0.491693
0.49483
0.495006
0.494911
0.495743
0.495587
0.494271
0.493742
0.494277
0.4954
0.496783
0.498903
0.502144
0.505822
0.509917
0.514523
0.519603
0.525299
0.531472
0.538189
0.54548
0.553424
0.562137
0.571641
0.581935
0.593238
0.605597
0.619137
0.633895
0.649988
0.667729
0.687013
0.70804
0.730639
0.754642
0.780441
0.80761
0.834097
2.99377
2.98779
2.95517
2.93887
2.73781
2.40152
1.62731
0.612459
0.31948
0.38137
0.444418
0.484892
0.501653
0.506983
0.508375
0.508287
0.507729
0.505705
0.50363
0.50222
0.501136
0.500318
0.499875
0.500597
0.502752
0.505655
0.509239
0.513513
0.518346
0.523564
0.529181
0.535195
0.541887
0.549232
0.557495
0.566671
0.576723
0.587942
0.600268
0.613773
0.628492
0.644394
0.661545
0.679859
0.699435
0.720345
0.742469
0.76608
0.790974
0.814993
2.99382
2.98853
2.95705
2.94336
2.75416
2.44417
1.67716
0.633354
0.320136
0.375394
0.438803
0.485879
0.506532
0.51347
0.515647
0.514995
0.512932
0.510484
0.508576
0.50684
0.504645
0.502421
0.501419
0.502178
0.504103
0.507055
0.510633
0.514797
0.519413
0.524521
0.530115
0.536261
0.542944
0.550321
0.558356
0.567281
0.576958
0.58755
0.599117
0.611873
0.625607
0.64046
0.656808
0.674123
0.692625
0.712304
0.732676
0.753855
0.776026
0.797306
2.99275
3.00197
2.94048
3.13761
2.84382
2.46222
1.63051
0.868085
0.364138
0.391909
0.443737
0.484984
0.494686
0.489883
0.484817
0.481951
0.480531
0.48062
0.48228
0.484529
0.486729
0.489123
0.492749
0.497182
0.501885
0.507092
0.512793
0.518865
0.525184
0.531758
0.53853
0.545588
0.552856
0.560531
0.568562
0.577183
0.586358
0.596078
0.606636
0.617967
0.630237
0.643435
0.657676
0.673319
0.689745
0.70746
0.726159
0.745572
0.76607
0.785493
2.99613
3.00515
2.94851
3.13818
2.86588
2.49867
1.69079
0.924284
0.376757
0.386901
0.439531
0.477518
0.482539
0.471962
0.463068
0.458049
0.457087
0.460177
0.465323
0.471089
0.477463
0.483894
0.490636
0.497521
0.504702
0.512233
0.519686
0.527344
0.535232
0.543169
0.551068
0.558922
0.566701
0.574529
0.582466
0.590814
0.599486
0.608561
0.618285
0.628521
0.639563
0.651331
0.663833
0.677549
0.69198
0.707432
0.723864
0.741077
0.759134
0.776578
2.99682
3.00547
2.9497
3.13816
2.86558
2.51295
1.69869
0.933984
0.377417
0.376383
0.428241
0.469332
0.478425
0.471385
0.464108
0.459532
0.458813
0.462142
0.467951
0.47496
0.48248
0.489943
0.497354
0.504733
0.512092
0.519648
0.527444
0.535165
0.542787
0.550899
0.559513
0.568012
0.576578
0.585108
0.593575
0.602141
0.61072
0.619534
0.628587
0.638213
0.648232
0.658979
0.67027
0.682389
0.695344
0.709023
0.723679
0.738916
0.755109
0.770589
2.99551
2.99275
2.97317
2.93923
2.77647
2.51416
1.73045
0.755255
0.3951
0.386193
0.444274
0.49236
0.507751
0.50625
0.501091
0.496237
0.493481
0.49292
0.493845
0.495594
0.497778
0.501013
0.50499
0.509399
0.514874
0.521361
0.528636
0.536436
0.544497
0.552805
0.561529
0.570541
0.579588
0.588728
0.597854
0.606972
0.616029
0.625233
0.634441
0.644047
0.653879
0.664187
0.675031
0.686387
0.698323
0.710798
0.72394
0.737676
0.75197
0.765853
2.99872
3.00789
2.95541
3.13722
2.87544
2.53666
1.73934
0.973445
0.399651
0.382965
0.436071
0.484264
0.498048
0.497553
0.49507
0.493748
0.494608
0.496594
0.499517
0.502554
0.505404
0.508508
0.511984
0.515968
0.520803
0.526521
0.53294
0.540049
0.547769
0.555766
0.563938
0.572293
0.580864
0.589812
0.598781
0.608151
0.61755
0.627054
0.636528
0.646232
0.656173
0.666277
0.676988
0.687944
0.69957
0.711542
0.723931
0.736799
0.750124
0.762843
3.00155
3.01135
2.9614
3.1417
2.89126
2.5495
1.77343
0.999772
0.395564
0.377978
0.431834
0.478972
0.491851
0.491338
0.491073
0.492721
0.496409
0.501274
0.507218
0.513142
0.517943
0.52182
0.525655
0.529857
0.534426
0.539239
0.544318
0.549845
0.555732
0.561994
0.568677
0.575811
0.583178
0.59097
0.599023
0.607711
0.61659
0.625933
0.635488
0.645127
0.655133
0.665298
0.67577
0.686587
0.697943
0.709766
0.721834
0.734395
0.747211
0.759486
3.00354
3.01423
2.96955
3.15259
2.89826
2.56098
1.81253
1.03492
0.400992
0.368551
0.419706
0.466146
0.480212
0.482594
0.486051
0.491751
0.499567
0.508214
0.517376
0.525999
0.53244
0.536991
0.540874
0.544604
0.548294
0.551795
0.555353
0.558988
0.562562
0.56655
0.571154
0.576571
0.582603
0.589409
0.59668
0.604627
0.612905
0.621943
0.631343
0.641126
0.651227
0.66164
0.672334
0.683327
0.694581
0.706284
0.718412
0.730998
0.743657
0.755668
3.00322
3.01294
2.97597
3.15173
2.89847
2.61193
1.86022
1.07591
0.41434
0.361342
0.413916
0.467136
0.486857
0.492127
0.496773
0.502999
0.511347
0.520524
0.529937
0.538594
0.544756
0.548828
0.552055
0.555028
0.557734
0.560031
0.562349
0.564504
0.566371
0.568748
0.572198
0.576862
0.58249
0.588899
0.595824
0.603407
0.611374
0.620035
0.629113
0.63884
0.648875
0.659436
0.670319
0.681424
0.692993
0.704721
0.716648
0.728847
0.741273
0.753152
2.99914
2.99015
2.99075
2.94506
2.90144
2.65076
1.95479
1.01659
0.541296
0.389686
0.441458
0.50533
0.531422
0.53373
0.528918
0.524301
0.521014
0.520064
0.52133
0.523115
0.524591
0.526565
0.529086
0.532519
0.536723
0.5413
0.545957
0.550735
0.555651
0.560657
0.566022
0.572349
0.579315
0.586805
0.594354
0.602503
0.610796
0.619765
0.629136
0.639066
0.649505
0.660213
0.671394
0.682666
0.69423
0.705994
0.717655
0.729517
0.741537
0.752909
2.99958
2.9969
2.99263
3.01426
2.95388
2.82177
2.09546
1.26818
0.435809
0.321276
0.395446
0.470464
0.502474
0.512234
0.516632
0.520072
0.523475
0.527394
0.531895
0.535556
0.53783
0.539425
0.540864
0.542565
0.544784
0.547304
0.550248
0.553736
0.557661
0.562029
0.566868
0.572589
0.579006
0.586002
0.593253
0.60109
0.609334
0.618083
0.627456
0.637304
0.647913
0.65898
0.670727
0.682713
0.694748
0.706753
0.718728
0.730738
0.742744
0.754078
2.99857
2.99485
2.98869
2.97684
2.92856
2.80247
2.14674
1.34251
0.509772
0.322926
0.385876
0.456961
0.490456
0.505123
0.514225
0.522228
0.530638
0.539394
0.547263
0.55269
0.556067
0.558276
0.559767
0.560601
0.561032
0.561447
0.561743
0.562259
0.563704
0.56639
0.569949
0.574269
0.579328
0.585245
0.591885
0.599291
0.607377
0.616052
0.62527
0.63505
0.645317
0.656086
0.667227
0.678595
0.690308
0.702499
0.714987
0.727498
0.739905
0.751494
2.99841
2.98734
2.99664
2.92255
3.13197
2.78991
2.32965
1.43858
0.743842
0.358539
0.410498
0.47876
0.520362
0.532033
0.530068
0.526877
0.526527
0.528455
0.53081
0.533213
0.535262
0.537322
0.539712
0.542357
0.545158
0.548003
0.550986
0.554166
0.557985
0.562898
0.568409
0.574334
0.580611
0.587236
0.594176
0.601563
0.609371
0.617648
0.626344
0.635504
0.645028
0.654843
0.664937
0.675416
0.686148
0.697037
0.708055
0.719331
0.731113
0.742204
2.99888
2.99163
3.00149
2.93675
3.13811
2.83615
2.42308
1.58301
0.825951
0.344084
0.406519
0.471755
0.518455
0.530385
0.524287
0.516165
0.511394
0.509294
0.508916
0.509862
0.511821
0.514786
0.518876
0.524027
0.529956
0.536348
0.54284
0.549368
0.556098
0.562985
0.569904
0.576797
0.583706
0.590637
0.597612
0.6046
0.611566
0.618717
0.626642
0.635482
0.644518
0.653709
0.662916
0.67208
0.68139
0.69081
0.700478
0.710388
0.720815
0.73078
2.99907
2.99284
3.00235
2.9409
3.13656
2.84735
2.46965
1.63844
0.876207
0.365513
0.402717
0.459995
0.506152
0.519245
0.515211
0.50909
0.506274
0.505275
0.505138
0.505829
0.507437
0.51011
0.514178
0.519696
0.526348
0.53398
0.542307
0.55092
0.559191
0.566788
0.57409
0.58116
0.588032
0.59478
0.601407
0.607863
0.614038
0.619945
0.626187
0.633664
0.641983
0.650574
0.659377
0.66825
0.677205
0.686145
0.695117
0.704196
0.713511
0.722597
2.99863
2.99423
2.99185
2.96848
2.93891
2.74614
2.44743
1.72033
0.69257
0.342923
0.378846
0.439761
0.490504
0.514399
0.523618
0.529116
0.534642
0.54035
0.545156
0.548349
0.550319
0.551562
0.552619
0.554092
0.555681
0.557431
0.559577
0.562289
0.565543
0.569234
0.573291
0.577727
0.582562
0.587832
0.593517
0.5995
0.605833
0.612474
0.619423
0.626847
0.635075
0.643644
0.652367
0.661079
0.6697
0.678558
0.687351
0.696536
0.705907
0.714885
2.9994
2.99499
3.00413
2.9475
3.13435
2.86302
2.51407
1.71052
0.952176
0.416211
0.413702
0.465586
0.511334
0.525898
0.525287
0.522683
0.521636
0.522968
0.526134
0.529648
0.532914
0.536294
0.540081
0.544081
0.54822
0.552556
0.55721
0.5622
0.567403
0.572661
0.577911
0.583124
0.588103
0.593106
0.598351
0.603793
0.609377
0.615062
0.621284
0.628398
0.635888
0.643505
0.650995
0.658724
0.666273
0.674031
0.681777
0.689821
0.698266
0.706503
2.99961
2.99643
3.00518
2.95105
3.13489
2.87317
2.53431
1.74293
0.985371
0.422595
0.407009
0.460652
0.508257
0.523131
0.520641
0.515939
0.512522
0.511003
0.512087
0.515126
0.518472
0.5224
0.527104
0.532489
0.538602
0.545453
0.552798
0.560379
0.567979
0.575394
0.58226
0.588123
0.593168
0.597838
0.602407
0.607039
0.611748
0.616329
0.621043
0.627073
0.634328
0.641599
0.648783
0.655939
0.662998
0.670059
0.677149
0.6844
0.691816
0.699059
2.9987
2.99503
2.99344
2.9718
2.94471
2.82455
2.4957
1.81781
0.812491
0.420697
0.398815
0.457533
0.512028
0.536775
0.545649
0.549775
0.552264
0.554341
0.556797
0.559656
0.561852
0.563578
0.564907
0.56568
0.56615
0.566485
0.566911
0.567755
0.569411
0.571697
0.574275
0.577055
0.580258
0.584167
0.588649
0.59329
0.598493
0.604496
0.611112
0.61808
0.625547
0.633468
0.64128
0.648893
0.656433
0.664027
0.671503
0.67925
0.686786
0.694114
2.99986
2.99731
3.00626
2.95567
3.13108
2.88271
2.56323
1.79566
1.04352
0.462196
0.415248
0.461775
0.507932
0.52369
0.524532
0.523003
0.522604
0.524457
0.527756
0.532566
0.537831
0.542764
0.547311
0.551681
0.556047
0.560441
0.564957
0.569742
0.574755
0.579707
0.584384
0.588926
0.592983
0.596226
0.599582
0.603364
0.607645
0.612248
0.617306
0.623508
0.630382
0.637164
0.643872
0.650436
0.656937
0.663567
0.67007
0.676921
0.683653
0.690265
3.00068
2.99905
3.00814
2.96066
3.13104
2.89428
2.57453
1.82738
1.07346
0.46282
0.407766
0.455491
0.500749
0.51411
0.511973
0.509051
0.5077
0.509033
0.512807
0.518325
0.52458
0.531009
0.537738
0.544762
0.552029
0.559516
0.567068
0.574523
0.581742
0.588615
0.594911
0.59992
0.603294
0.606042
0.608641
0.611399
0.614398
0.617379
0.620814
0.626017
0.632415
0.638767
0.645116
0.651394
0.657588
0.663779
0.66998
0.676234
0.682614
0.688523
3.00105
3.00004
3.00884
2.96308
3.12963
2.89955
2.58809
1.85333
1.10139
0.475196
0.403567
0.44658
0.489731
0.502934
0.502052
0.5
0.500077
0.502873
0.507592
0.513625
0.520448
0.527758
0.535464
0.543455
0.551609
0.559834
0.567992
0.575924
0.583483
0.590553
0.596831
0.601418
0.604159
0.606306
0.608283
0.610417
0.612785
0.615098
0.618128
0.623283
0.629631
0.635983
0.642348
0.648691
0.654996
0.661298
0.667587
0.673967
0.680566
0.686316
3.00157
3.00104
3.00957
2.96599
3.12853
2.90437
2.61312
1.88099
1.12613
0.480462
0.38914
0.430027
0.475636
0.493772
0.496535
0.49549
0.495768
0.498192
0.502218
0.507544
0.513744
0.520457
0.52748
0.534737
0.542112
0.549534
0.556948
0.564245
0.571336
0.578148
0.584332
0.588932
0.591993
0.594752
0.597571
0.600676
0.604008
0.607233
0.611441
0.61769
0.624497
0.631185
0.637763
0.644224
0.650603
0.65694
0.663238
0.669661
0.676231
0.681733
2.99907
2.99629
2.99408
2.97936
2.95026
2.8247
2.63663
2.03482
1.0699
0.573329
0.412879
0.45555
0.51387
0.55194
0.566507
0.569022
0.56922
0.570204
0.572341
0.575646
0.57875
0.580737
0.58147
0.581203
0.580244
0.57877
0.577064
0.575364
0.574009
0.573812
0.574768
0.576196
0.577961
0.580472
0.583654
0.587385
0.592144
0.597736
0.603949
0.610687
0.617541
0.624291
0.630847
0.637451
0.644025
0.650477
0.656993
0.663925
0.670748
0.677147
2.99924
2.99668
2.99348
2.97699
2.95969
2.84597
2.68432
2.10845
1.20081
0.641064
0.416008
0.465456
0.535656
0.582382
0.597192
0.597132
0.594339
0.591831
0.590522
0.590138
0.589809
0.588308
0.585952
0.583002
0.579661
0.576098
0.572496
0.569084
0.566075
0.564243
0.564308
0.565657
0.567977
0.571112
0.575296
0.580569
0.586886
0.594097
0.601298
0.607926
0.614567
0.621184
0.627768
0.634387
0.641061
0.647597
0.653602
0.660286
0.667957
0.675313
2.999
2.99604
2.99422
2.97607
2.95868
2.83952
2.65488
2.03844
1.12954
0.596131
0.415521
0.468237
0.539816
0.585593
0.600236
0.600956
0.599096
0.597556
0.596882
0.596883
0.596564
0.594858
0.592277
0.58912
0.585585
0.581874
0.578196
0.574706
0.571845
0.570562
0.570518
0.571032
0.572241
0.574209
0.577178
0.581014
0.585801
0.591778
0.598554
0.605756
0.612836
0.619353
0.625586
0.631727
0.637959
0.644243
0.650121
0.656495
0.664259
0.672357
3.00151
3.00117
3.00881
2.99015
3.10584
2.90789
2.69703
1.94108
1.15215
0.433242
0.354345
0.409847
0.470697
0.498646
0.508346
0.512965
0.517112
0.522153
0.528157
0.534271
0.539712
0.544601
0.549011
0.553061
0.556877
0.560602
0.564341
0.568163
0.572194
0.576361
0.580552
0.58456
0.587435
0.589412
0.591737
0.594523
0.597807
0.601191
0.605032
0.610665
0.617061
0.622814
0.627975
0.63264
0.637135
0.641711
0.645961
0.650455
0.655775
0.66123
3.0014
3.0014
3.01027
2.98335
3.13109
2.90863
2.67148
1.94263
1.16901
0.450903
0.370041
0.419552
0.473211
0.495995
0.50263
0.505913
0.510178
0.515711
0.522051
0.528496
0.53471
0.540721
0.546627
0.552516
0.558471
0.564554
0.570757
0.577011
0.583207
0.589219
0.594561
0.598592
0.60155
0.603963
0.606079
0.60816
0.610348
0.612374
0.614503
0.618248
0.62334
0.628206
0.632771
0.637024
0.641035
0.645196
0.649478
0.652917
0.656367
0.65999
3.00179
3.00192
3.01328
2.98059
3.14763
2.91146
2.63835
1.91818
1.14547
0.445303
0.375151
0.429857
0.48574
0.507247
0.511778
0.513796
0.517535
0.523333
0.530771
0.538321
0.545167
0.551467
0.55747
0.563366
0.569301
0.575356
0.58153
0.587735
0.593804
0.599543
0.60454
0.608299
0.610957
0.612853
0.614247
0.615461
0.61681
0.618298
0.619755
0.622472
0.627189
0.632136
0.636841
0.641306
0.645513
0.649681
0.654168
0.658021
0.661152
0.664283
1.11009
0.937127
0.485304
0.177309
0.0203801
0.0815222
0.146022
0.204621
0.225604
0.221365
0.213768
0.207188
0.199419
0.189022
0.174639
0.155686
0.133242
0.108586
0.0825805
0.0559335
0.030788
0.0156676
0.0345165
0.0608915
0.0870049
0.112506
0.137322
0.161477
0.184992
0.207887
0.230173
0.25128
0.271281
0.291264
0.311999
0.332632
0.352541
0.371737
0.390378
0.408515
0.426187
0.443427
0.460226
0.476638
0.492668
0.508314
0.52358
0.538513
0.553036
0.567278
0.581134
0.594676
0.607885
0.620769
0.633307
0.645499
0.657329
0.668754
0.679776
0.690338
0.700424
0.709988
0.719061
0.727548
0.735464
0.742782
0.749456
0.755482
0.760848
0.765537
0.769543
0.772908
0.775632
0.777784
0.779395
0.780469
0.781144
0.781456
0.781481
0.781291
0.780996
0.78068
0.780304
0.779859
0.779497
0.779294
0.779287
0.779513
0.779966
0.780609
0.781452
0.782486
0.783675
0.785002
0.786462
0.788018
0.789608
0.791101
0.792534
0.796764
1.03909
0.956861
0.781359
0.566285
0.525803
0.467774
0.417895
0.368624
0.325948
0.282498
0.238226
0.205223
0.19571
0.203217
0.212752
0.224526
0.240466
0.258283
0.277125
0.296495
0.315853
0.334832
0.353839
0.373183
0.392519
0.411702
0.430584
0.449221
0.467514
0.485524
0.503248
0.520388
0.536689
0.552789
0.569431
0.586339
0.602634
0.618332
0.63355
0.648367
0.662806
0.67685
0.690529
0.703806
0.71671
0.729224
0.741389
0.75318
0.764667
0.775821
0.78667
0.797211
0.807472
0.817445
0.827175
0.836709
0.84605
0.855232
0.864243
0.873007
0.881467
0.889548
0.897187
0.904314
0.910935
0.916988
0.922534
0.927524
0.932012
0.936012
0.939452
0.942382
0.944855
0.946757
0.94837
0.949342
0.950178
0.950625
0.95082
0.950805
0.950681
0.950614
0.950507
0.950274
0.9501
0.950078
0.950177
0.950551
0.951187
0.951925
0.952837
0.953918
0.955192
0.956552
0.958036
0.959509
0.96104
0.962353
0.963487
0.967131
1.00066
1.0123
0.966418
0.880882
0.825782
0.791299
0.766571
0.736724
0.705521
0.677156
0.654306
0.638012
0.623628
0.613612
0.607546
0.604521
0.604012
0.60625
0.610641
0.616284
0.623253
0.631117
0.639782
0.649322
0.659533
0.670251
0.681325
0.692653
0.704191
0.715932
0.727884
0.739692
0.751092
0.7625
0.774543
0.787298
0.800034
0.812508
0.824779
0.836925
0.848967
0.860894
0.872684
0.884323
0.895805
0.907123
0.918275
0.92925
0.940036
0.95061
0.960943
0.971005
0.980765
0.990188
0.999216
1.00778
1.01588
1.02364
1.03102
1.03773
1.04358
1.04893
1.05383
1.05828
1.06229
1.06587
1.06904
1.07181
1.07422
1.07628
1.07801
1.07945
1.08052
1.08125
1.08178
1.082
1.08179
1.08145
1.08103
1.08039
1.07969
1.07906
1.07855
1.07804
1.07756
1.07711
1.07697
1.07712
1.0776
1.0782
1.07906
1.08009
1.08159
1.0831
1.08497
1.08692
1.08876
1.09081
1.09204
1.09622
0.986793
1.02968
1.03803
1.01713
0.987168
0.969448
0.960379
0.950873
0.937197
0.921525
0.906271
0.894149
0.886394
0.879782
0.872788
0.865905
0.85954
0.854187
0.849899
0.846399
0.844336
0.843676
0.843766
0.845378