/*--------------------------------*- C++ -*----------------------------------*\
| =========                 |                                                 |
| \\      /  F ield         | OpenFOAM: The Open Source CFD Toolbox           |
|  \\    /   O peration     | Version:  2412                                  |
|   \\  /    A nd           | Website:  www.openfoam.com                      |
|    \\/     M anipulation  |                                                 |
\*---------------------------------------------------------------------------*/
FoamFile
{
    version     2.0;
    format      ascii;
    arch        "LSB;label=32;scalar=64";
    class       volScalarField;
    location    "8.5";
    object      p;
}
// * * * * * * * * * * * * * * * * * * * * * * * * * * * * * * * * * * * * * //

dimensions      [1 -1 -2 0 0 0 0];

internalField   nonuniform List<scalar> 
7000
(
1.00743
1.00752
1.03937
1.05346
1.29594
1.27076
3.29677
6.27514
11.3401
11.1184
10.5399
10.265
10.2548
10.2928
10.378
10.452
10.5004
10.5409
10.5763
10.6083
10.6347
10.6562
10.676
10.6971
10.7222
10.7524
10.7867
10.8239
10.8633
10.9038
10.9431
10.9803
11.0181
11.0519
11.0831
11.1121
11.1394
11.1617
11.1829
11.2018
11.2185
11.2341
11.2478
11.2615
11.2743
11.2865
11.2972
11.3062
11.3131
11.3177
1.00732
1.00807
1.03731
1.05663
1.28501
1.30586
3.22429
6.31127
11.3427
11.1164
10.5366
10.263
10.2524
10.2909
10.376
10.4501
10.4985
10.539
10.5744
10.6062
10.6326
10.654
10.6737
10.6949
10.7201
10.7503
10.7848
10.8226
10.8612
10.9021
10.9415
10.9789
11.0167
11.0506
11.0819
11.111
11.1383
11.1607
11.182
11.2009
11.2176
11.2333
11.247
11.2607
11.2736
11.2858
11.2966
11.3057
11.3128
11.3177
1.00749
1.00748
1.04023
1.04993
1.29521
1.26744
3.29105
6.32636
11.3345
11.108
10.5297
10.2577
10.2472
10.2865
10.3717
10.4458
10.4946
10.535
10.5702
10.6018
10.6279
10.6492
10.6689
10.6901
10.7154
10.7457
10.7804
10.8185
10.8568
10.8979
10.9374
10.975
11.0126
11.0466
11.078
11.1073
11.1346
11.1571
11.1783
11.1973
11.2141
11.2297
11.2434
11.2571
11.2701
11.2823
11.2932
11.3026
11.3101
11.3156
1.00722
1.00647
1.03889
1.05758
1.28781
1.3036
3.24838
6.37618
11.3219
11.0954
10.5195
10.2491
10.2394
10.2792
10.365
10.4394
10.4886
10.5287
10.5637
10.5949
10.6206
10.6416
10.6613
10.6826
10.7081
10.7386
10.7735
10.8118
10.8504
10.8916
10.9312
10.969
11.0065
11.0405
11.072
11.1012
11.1284
11.151
11.1721
11.191
11.2078
11.2235
11.2373
11.251
11.2641
11.2765
11.2876
11.2974
11.3054
11.3116
1.00677
1.00717
1.04255
1.05831
1.29726
1.35166
3.25294
6.41736
11.2979
11.0719
10.5027
10.236
10.2282
10.2687
10.3559
10.4305
10.4803
10.5199
10.5545
10.5852
10.6103
10.631
10.6506
10.6721
10.6979
10.7288
10.764
10.8023
10.8415
10.8827
10.9224
10.9603
10.9978
11.0318
11.0632
11.0924
11.1194
11.142
11.163
11.1818
11.1986
11.2144
11.2283
11.2422
11.2555
11.2681
11.2796
11.2898
11.2982
11.3051
1.00733
1.00822
1.03814
1.06171
1.29172
1.33705
3.26542
6.47831
11.2702
11.0475
10.483
10.2193
10.214
10.2555
10.3444
10.419
10.4696
10.5085
10.5427
10.5726
10.597
10.6173
10.6367
10.6584
10.6846
10.716
10.7516
10.79
10.83
10.8712
10.911
10.949
10.9864
11.0203
11.0516
11.0807
11.1074
11.1298
11.1507
11.1695
11.1863
11.2021
11.2163
11.2303
11.2438
11.2567
11.2687
11.2793
11.288
11.2954
1.00753
1.00825
1.03995
1.06433
1.29532
1.36595
3.28345
6.53359
11.231
11.0125
10.4577
10.1998
10.1971
10.2397
10.3304
10.4047
10.4562
10.4944
10.5279
10.557
10.5805
10.6002
10.6195
10.6414
10.668
10.7001
10.7362
10.7748
10.8154
10.8568
10.8966
10.9347
10.9721
11.0058
11.0369
11.0657
11.0921
11.1143
11.1349
11.1536
11.1703
11.1862
11.2007
11.2147
11.2285
11.2418
11.2542
11.2651
11.2742
11.2821
1.00768
1.00814
1.04155
1.03672
1.32508
1.33237
3.3764
6.58591
11.1909
10.9737
10.428
10.1782
10.1781
10.2215
10.3139
10.3878
10.4399
10.4775
10.5103
10.5381
10.5607
10.5797
10.5988
10.621
10.6481
10.6808
10.7175
10.7567
10.7977
10.8393
10.8792
10.9173
10.9546
10.9881
11.0188
11.0472
11.0732
11.0951
11.1154
11.1338
11.1504
11.1663
11.1813
11.195
11.2092
11.2228
11.2356
11.2468
11.2561
11.2644
1.00683
1.0086
1.03642
1.06648
1.30687
1.36483
3.36379
6.68531
11.1518
10.9405
10.4046
10.1572
10.1577
10.2019
10.2953
10.3688
10.4209
10.4579
10.4896
10.5161
10.5376
10.5558
10.5747
10.5972
10.6248
10.6582
10.6955
10.7352
10.7767
10.8185
10.8586
10.8966
10.9337
10.9668
10.9971
11.025
11.0504
11.0718
11.0917
11.1097
11.1261
11.142
11.1574
11.1705
11.1851
11.199
11.2121
11.2236
11.2331
11.2418
1.00631
1.00797
1.04178
1.06641
1.30654
1.37449
3.39437
6.79631
11.1181
10.9079
10.3802
10.136
10.1367
10.181
10.2748
10.348
10.3993
10.4355
10.4659
10.4908
10.5111
10.5285
10.5471
10.5699
10.5982
10.6322
10.6702
10.7104
10.7524
10.7944
10.8345
10.8724
10.9091
10.9418
10.9715
10.9987
11.0233
11.0441
11.0634
11.0808
11.0969
11.1126
11.1279
11.141
11.1555
11.1696
11.1828
11.1946
11.2042
11.2133
1.00679
1.00595
1.04297
1.06648
1.33269
1.30195
3.53656
6.85676
11.0726
10.8691
10.3567
10.1153
10.1159
10.1599
10.2528
10.3259
10.3754
10.4106
10.4394
10.4625
10.4814
10.498
10.5163
10.5394
10.5683
10.6029
10.6417
10.6821
10.7247
10.7668
10.8069
10.8446
10.8807
10.9128
10.9418
10.968
10.9916
11.0116
11.0299
11.0466
11.0621
11.0772
11.0923
11.1053
11.1197
11.1337
11.1469
11.1587
11.1684
11.1779
1.00717
1.00818
1.04359
1.03245
1.35095
1.25659
3.63503
6.95393
11.0267
10.8319
10.3371
10.0939
10.0949
10.1389
10.23
10.3029
10.3497
10.3837
10.4104
10.4313
10.4486
10.4643
10.4823
10.5058
10.5353
10.5705
10.6101
10.6507
10.6936
10.7356
10.7755
10.8128
10.8483
10.8795
10.9075
10.9325
10.9549
10.9737
10.9908
11.0064
11.021
11.0352
11.0497
11.0624
11.0762
11.0898
11.1027
11.1144
11.124
11.134
1.00578
1.00886
1.04617
1.05696
1.34022
1.3875
3.51745
7.04235
10.975
10.7869
10.3074
10.0679
10.0721
10.1178
10.2071
10.279
10.3233
10.3552
10.3793
10.3977
10.413
10.4277
10.4455
10.4694
10.4995
10.5351
10.5753
10.6161
10.659
10.7009
10.7403
10.7768
10.8116
10.8416
10.8682
10.8918
10.9126
10.93
10.9454
10.9596
10.9728
10.9857
10.9989
11.011
11.0237
11.0363
11.0484
11.0596
11.069
11.0797
1.00723
1.00664
1.04501
1.04584
1.35444
1.27973
3.67509
7.09037
10.9259
10.7434
10.2763
10.0417
10.0481
10.0958
10.1841
10.2538
10.2958
10.3252
10.3463
10.3619
10.3751
10.3885
10.406
10.4305
10.4612
10.4971
10.5376
10.5784
10.6211
10.6624
10.7012
10.7367
10.7703
10.7988
10.8237
10.8454
10.8643
10.8799
10.893
10.9054
10.9166
10.9275
10.9388
10.9495
10.96
10.9708
10.9814
10.9915
11.0002
11.0114
1.00679
1.00897
1.04335
1.073
1.31876
1.40604
3.53818
7.13995
10.9006
10.7211
10.2493
10.0152
10.0227
10.0733
10.1621
10.2284
10.2676
10.2939
10.3116
10.3243
10.3353
10.3473
10.3645
10.3895
10.4206
10.4566
10.497
10.5376
10.5798
10.6203
10.658
10.6921
10.7242
10.7509
10.7737
10.7931
10.8095
10.823
10.8331
10.8429
10.8515
10.8595
10.8677
10.8761
10.8825
10.8903
10.8978
10.9054
10.9125
10.9246
1.00708
1.00764
1.04708
1.07141
1.34535
1.31076
3.67234
7.20656
10.8855
10.6935
10.2164
9.98898
9.99822
10.0504
10.14
10.2022
10.2384
10.261
10.2752
10.285
10.2938
10.3044
10.3212
10.3467
10.378
10.4139
10.4537
10.494
10.5351
10.5743
10.6107
10.6428
10.6732
10.6974
10.7177
10.7344
10.7478
10.7584
10.7651
10.7714
10.7762
10.78
10.7838
10.7874
10.7885
10.7906
10.7925
10.795
10.7984
10.8102
1.00616
1.00581
1.048
1.05668
1.34759
1.37252
3.58966
7.23382
10.8648
10.6739
10.1942
9.96723
9.97721
10.0297
10.1195
10.1767
10.2088
10.227
10.2375
10.2443
10.2509
10.2601
10.2765
10.3023
10.3335
10.3692
10.4074
10.4474
10.4869
10.5245
10.5589
10.5889
10.617
10.6383
10.6556
10.6691
10.6789
10.6858
10.6885
10.6901
10.6897
10.6878
10.6849
10.681
10.6741
10.6662
10.6574
10.6494
10.6443
10.6542
1.00676
1.01056
1.0452
1.06969
1.34902
1.3391
3.66709
7.14011
10.8264
10.644
10.1735
9.94941
9.96005
10.0118
10.0998
10.1518
10.1785
10.1917
10.1983
10.2023
10.2068
10.2145
10.2304
10.2564
10.2872
10.3214
10.3588
10.3972
10.4348
10.4704
10.5027
10.5306
10.5549
10.5732
10.5871
10.5968
10.6027
10.6046
10.6031
10.5989
10.5911
10.5813
10.569
10.5538
10.5346
10.5093
10.4819
10.4529
10.4263
10.4267
1.00777
1.00792
1.0451
1.02448
1.36579
1.33017
3.63872
7.08013
10.8254
10.6419
10.1619
9.93706
9.94785
9.99704
10.081
10.127
10.1472
10.1549
10.1576
10.159
10.1615
10.1678
10.1833
10.2089
10.2388
10.2714
10.3072
10.3436
10.379
10.412
10.4413
10.4675
10.4873
10.5023
10.5124
10.5178
10.5188
10.5165
10.5086
10.4958
10.4796
10.4596
10.4346
10.4032
10.3639
10.3123
10.2506
10.1785
10.1007
10.0598
1.00572
1.00711
1.04722
1.05541
1.34709
1.38905
3.52582
7.00661
10.8142
10.6341
10.1634
9.9325
9.94023
9.98414
10.0615
10.101
10.114
10.1165
10.1153
10.1137
10.1148
10.12
10.1351
10.1596
10.1876
10.2189
10.252
10.2861
10.3189
10.3493
10.3755
10.3983
10.4144
10.4256
10.4314
10.4319
10.429
10.4203
10.4036
10.3819
10.3556
10.3227
10.2809
10.2282
10.1589
10.0679
9.94677
9.78912
9.58502
9.37191
1.00577
1.00735
1.04534
1.05755
1.33173
1.36387
3.46187
6.85424
10.844
10.6604
10.1733
9.92784
9.93061
9.9678
10.0354
10.0661
10.0702
10.0681
10.0605
10.0565
10.0569
10.0614
10.0765
10.0991
10.1247
10.1534
10.1835
10.2142
10.2432
10.2692
10.2928
10.3098
10.3216
10.3278
10.3278
10.3245
10.3143
10.2946
10.2684
10.2357
10.1947
10.1437
10.078
9.992
9.87741
9.71712
9.48528
9.12678
8.49934
7.13114
1.00576
1.00668
1.04541
1.06943
1.30517
1.3737
3.36353
6.63357
10.9157
10.7155
10.1812
9.91489
9.91232
9.94723
10.0018
10.0182
10.016
10.0065
9.99459
9.99011
9.99038
9.99516
10.0099
10.0296
10.0521
10.0771
10.1033
10.1295
10.1539
10.1753
10.1925
10.2045
10.2109
10.2108
10.2072
10.1962
10.1741
10.1445
10.1072
10.0608
10.0026
9.92914
9.83457
9.71005
9.54254
9.3111
8.97699
8.47967
7.74144
6.5304
1.00629
1.00834
1.03354
1.06639
1.29494
1.34705
3.28129
6.38872
10.9814
10.7727
10.214
9.91154
9.8866
9.91696
9.95135
9.95404
9.94834
9.93386
9.92315
9.92001
9.92096
9.92738
9.94147
9.95809
9.97712
9.99803
10.0198
10.0407
10.0599
10.0759
10.0877
10.094
10.0948
10.0918
10.0812
10.0597
10.0298
9.9916
9.94354
9.88403
9.80938
9.71579
9.59683
9.44332
9.2421
8.97469
8.61735
8.13148
7.49856
6.64167
1.00256
1.00587
1.04015
1.0286
1.29833
1.24789
3.32053
6.31726
11.0921
10.8443
10.211
9.8816
9.83999
9.85733
9.88263
9.88206
9.87528
9.86213
9.85466
9.8534
9.85549
9.8633
9.87508
9.88849
9.90411
9.92039
9.93716
9.95284
9.96637
9.97661
9.98291
9.98385
9.98078
9.9718
9.95276
9.92499
9.88881
9.843
9.78564
9.71447
9.62719
9.51945
9.38553
9.21802
9.00728
8.74171
8.40813
7.99178
7.49481
6.87886
0.999524
1.01223
1.01261
1.04918
1.28456
1.30281
3.32847
6.53185
11.189
10.8738
10.1485
9.79281
9.73763
9.7522
9.78229
9.79271
9.79059
9.78566
9.78298
9.78438
9.78945
9.79768
9.80777
9.81859
9.83052
9.84275
9.85432
9.8647
9.87258
9.87785
9.87841
9.87584
9.86809
9.85156
9.82734
9.79508
9.75339
9.70112
9.63655
9.55748
9.46222
9.34615
9.20545
9.03496
8.82873
8.57887
8.27908
7.92249
7.50757
7.02662
0.999623
1.0157
1.00629
0.992663
1.32891
1.35747
3.39011
6.68112
10.9888
10.724
10.0556
9.70951
9.65878
9.6743
9.70814
9.72584
9.72789
9.72568
9.72523
9.72676
9.7312
9.73787
9.74425
9.75169
9.75887
9.76666
9.77223
9.7773
9.78039
9.78025
9.77788
9.77066
9.75572
9.73448
9.70575
9.66883
9.62223
9.56493
9.49533
9.41092
9.31144
9.19208
9.05203
8.88494
8.68807
8.45777
8.18978
7.88151
7.53474
7.13889
1.00028
0.990634
1.00345
0.987074
0.94648
2.24317
2.55437
8.16709
10.3961
10.1066
9.6762
9.52418
9.53332
9.56715
9.61138
9.63976
9.65404
9.6606
9.66575
9.67231
9.67759
9.68273
9.68696
9.69027
9.69201
9.69309
9.69302
9.69152
9.68741
9.68131
9.67256
9.65969
9.64159
9.61747
9.5861
9.54622
9.49687
9.43611
9.36343
9.2772
9.17585
9.0568
8.91877
8.75938
8.57575
8.36529
8.12649
7.85805
7.5626
7.23183
1.00093
1.00651
1.02879
1.02789
0.972947
2.18658
2.44638
7.8249
10.312
10.0646
9.6325
9.48302
9.4878
9.51234
9.55543
9.5881
9.60819
9.61693
9.62355
9.62714
9.62877
9.62852
9.62717
9.62507
9.62054
9.61536
9.60949
9.60307
9.59514
9.58439
9.57044
9.55242
9.52988
9.50192
9.46721
9.42447
9.37289
9.31084
9.23749
9.1516
9.05171
8.93696
8.80467
8.65457
8.48477
8.29345
8.08078
7.84567
7.59056
7.3108
1.00114
1.00474
1.02581
1.02545
0.939293
2.18039
2.15665
7.73216
10.5948
10.2657
9.6957
9.48056
9.45667
9.47352
9.51241
9.55158
9.57622
9.58566
9.58978
9.59005
9.58837
9.58355
9.57522
9.56744
9.55877
9.54689
9.53466
9.52141
9.50667
9.48985
9.47111
9.44948
9.42336
9.39198
9.35417
9.30947
9.25571
9.19336
9.12088
9.03698
8.94002
8.83113
8.70715
8.56717
8.41123
8.23878
8.04907
7.8431
7.62191
7.38061
0.999628
1.01176
1.02206
1.07944
1.00108
1.96759
2.05031
7.04475
10.6463
10.3583
9.75674
9.49085
9.43349
9.44875
9.488
9.5297
9.55576
9.56015
9.56007
9.5565
9.54748
9.53635
9.52293
9.51096
9.49658
9.47977
9.4628
9.44468
9.42509
9.40402
9.3803
9.35356
9.32358
9.28925
9.24962
9.20397
9.15127
9.09001
9.01939
8.9384
8.8459
8.74137
8.62461
8.49412
8.35076
8.19495
8.02562
7.84311
7.64945
7.44046
0.999405
1.01247
1.02352
1.082
1.06211
1.78474
1.82352
6.32797
10.6062
10.4021
9.88726
9.56808
9.46533
9.47181
9.49628
9.52964
9.54242
9.5413
9.53492
9.52078
9.50437
9.48786
9.47059
9.45453
9.43579
9.41548
9.39466
9.37289
9.34962
9.3242
9.29658
9.26632
9.23288
9.19566
9.1539
9.10676
9.05326
8.99241
8.92338
8.84537
8.75774
8.66006
8.55221
8.43348
8.303
8.16072
8.00673
7.84288
7.67075
7.48772
0.999542
1.01231
1.02174
1.07566
1.06678
1.70048
1.74462
5.96198
10.5934
10.4376
9.97601
9.6305
9.49332
9.48721
9.49875
9.5192
9.52265
9.51848
9.50574
9.48509
9.4634
9.44244
9.42372
9.4018
9.37942
9.35653
9.33277
9.30787
9.28134
9.25303
9.22236
9.18897
9.15255
9.11266
9.06871
9.01998
8.96581
8.90542
8.83808
8.7631
8.6799
8.58801
8.48713
8.37696
8.25732
8.12828
7.99105
7.84462
7.69128
7.52687
1.00006
1.01462
1.00259
1.04254
1.10728
1.00985
2.83673
4.49026
10.5668
10.5411
10.1614
9.70646
9.5175
9.49113
9.49409
9.49595
9.48966
9.47547
9.45569
9.43528
9.41395
9.39125
9.37192
9.34686
9.32242
9.29827
9.27355
9.2475
9.21968
9.18959
9.15671
9.12081
9.0817
9.03919
8.99301
8.94274
8.88787
8.82777
8.76185
8.68966
8.61051
8.52395
8.42962
8.32717
8.21683
8.09886
7.9737
7.84164
7.70288
7.55616
1.00049
1.00817
0.997571
1.03158
1.08529
0.975967
2.73069
4.16105
10.2316
10.491
10.1239
9.67128
9.48754
9.46607
9.46852
9.46679
9.45899
9.4425
9.41994
9.39925
9.37772
9.35404
9.32861
9.30255
9.27807
9.25063
9.2225
9.19412
9.16443
9.13275
9.09783
9.05954
9.0179
8.97308
8.92484
8.87295
8.81711
8.75694
8.69197
8.62158
8.54548
8.46328
8.37478
8.27999
8.17886
8.0713
7.95711
7.83701
7.71152
7.57913
1.00066
1.00528
0.997379
1.03081
1.08262
0.978064
2.70898
4.12552
10.0939
10.4386
10.0849
9.64562
9.46268
9.43707
9.43778
9.4347
9.42459
9.40455
9.38149
9.35857
9.33655
9.31229
9.28697
9.25999
9.23248
9.20503
9.17725
9.14765
9.11536
9.08319
9.04609
9.00615
8.96324
8.91672
8.8668
8.81355
8.75684
8.69635
8.63189
8.56315
8.48982
8.41161
8.32819
8.23938
8.14499
8.04492
7.93973
7.82954
7.71525
7.59532
0.999992
1.00722
1.01162
1.05865
1.08257
1.55552
1.75482
5.01925
9.79895
10.2462
9.97161
9.57072
9.39546
9.37171
9.37785
9.38213
9.37852
9.3667
9.34506
9.32189
9.29888
9.27577
9.24941
9.22342
9.19632
9.16801
9.13836
9.10747
9.07381
9.03797
8.99997
8.95755
8.9125
8.86468
8.81351
8.75936
8.70221
8.64201
8.5786
8.51176
8.44118
8.36656
8.28768
8.20425
8.11609
8.02318
7.92594
7.82491
7.72027
7.61059
0.999897
1.00215
0.994055
1.02516
1.0722
0.968944
2.65668
3.95832
9.79983
10.2779
9.94247
9.49502
9.31756
9.30749
9.31879
9.3338
9.33247
9.32522
9.308
9.28318
9.2589
9.23473
9.21066
9.18458
9.15807
9.13011
9.10016
9.06909
9.03498
8.99805
8.95833
8.91526
8.86905
8.81958
8.76748
8.71264
8.65527
8.5954
8.533
8.46793
8.4
8.32878
8.25403
8.17555
8.09327
8.00725
7.91737
7.82343
7.72604
7.62422
0.99645
0.999739
0.98831
1.01713
1.06022
0.953448
2.60758
3.78589
9.68944
10.2116
9.87022
9.432
9.26492
9.2626
9.27447
9.29163
9.29158
9.28681
9.27291
9.24924
9.22437
9.20073
9.17686
9.15073
9.12383
9.09473
9.06447
9.0324
8.99702
8.95914
8.91839
8.87456
8.82761
8.77787
8.72548
8.67081
8.61407
8.55542
8.49475
8.4318
8.36641
8.2984
8.22747
8.15344
8.07608
7.99537
7.9111
7.82351
7.7326
7.63806
0.994423
0.99789
0.98061
1.00657
1.04709
0.943764
2.56054
3.62567
9.57752
10.2249
9.88465
9.42362
9.24142
9.22935
9.23799
9.25524
9.25773
9.25365
9.24148
9.21988
9.19356
9.17001
9.14508
9.11785
9.09002
9.0585
9.02836
8.99406
8.95779
8.91923
8.87819
8.83414
8.78763
8.73882
8.68775
8.63433
8.57894
8.52176
8.46289
8.40227
8.33958
8.27463
8.20725
8.13715
8.06391
7.98762
7.90814
7.82561
7.74091
7.65285
0.995394
0.998049
0.9778
0.998018
1.02622
0.923445
2.52426
3.45894
9.48374
10.3542
9.96392
9.43325
9.20058
9.1701
9.18055
9.20431
9.21639
9.21479
9.20629
9.18765
9.16119
9.13638
9.11097
9.08316
9.0542
9.02158
8.99073
8.95513
8.91831
8.87942
8.8386
8.79602
8.75081
8.70336
8.65404
8.60296
8.55012
8.49549
8.4391
8.38089
8.32066
8.25834
8.19357
8.12626
8.05638
7.9838
7.90864
7.83093
7.75106
7.66756
0.999574
1.00704
1.01438
1.02732
1.05557
1.40976
1.5149
4.27744
8.62523
10.5524
10.2508
9.61114
9.26622
9.18646
9.19217
9.20869
9.21143
9.20782
9.19292
9.16209
9.13242
9.10428
9.0759
9.04751
9.01747
8.98582
8.95281
8.91774
8.88074
8.8425
8.80165
8.76171
8.71762
8.67241
8.62565
8.57704
8.52663
8.47456
8.42074
8.36498
8.30722
8.24718
8.18482
8.1201
8.053
7.98354
7.91149
7.83734
7.76094
7.6813
1.00009
1.00307
0.999681
1.00338
0.963761
0.902874
2.30217
2.55719
8.94422
10.6088
10.1902
9.55927
9.26308
9.19293
9.19423
9.20027
9.19845
9.18907
9.16656
9.13378
9.10371
9.07563
9.04789
9.01881
8.98889
8.95651
8.92258
8.88696
8.84943
8.81044
8.77005
8.73056
8.68806
8.64466
8.60011
8.55391
8.50576
8.45563
8.40355
8.34963
8.29382
8.23632
8.17662
8.11485
8.05078
7.98435
7.91573
7.84456
7.77115
7.69473
1.00138
1.00289
1.00641
1.02445
1.02891
0.918145
2.22524
2.4092
8.23172
10.6706
10.2635
9.63459
9.33502
9.24342
9.22495
9.22079
9.21074
9.18893
9.15624
9.11924
9.08595
9.05447
9.02466
8.9934
8.96348
8.93133
8.89739
8.86183
8.8247
8.78642
8.74694
8.70682
8.66636
8.6246
8.58167
8.53717
8.49104
8.44284
8.39312
8.34125
8.28725
8.23169
8.17368
8.11371
8.05167
7.98734
7.92094
7.85244
7.78213
7.7088
1.00167
1.00563
1.02514
1.01305
1.06868
1.1757
1.12509
3.12898
5.8394
10.917
10.667
9.9845
9.50621
9.30402
9.25362
9.24153
9.2213
9.18556
9.14361
9.10458
9.06644
9.03362
9.00266
8.97202
8.94122
8.9098
8.87663
8.84154
8.80526
8.76736
8.72842
8.68899
8.64897
8.6081
8.5663
8.52326
8.47873
8.43252
8.3846
8.33442
8.28213
8.22772
8.17144
8.11386
8.05339
7.99095
7.92653
7.86018
7.79189
7.72114
1.0014
1.00337
1.01597
1.00457
1.04749
1.12079
1.02071
2.91745
4.73659
10.8562
10.6195
10.0943
9.54302
9.30095
9.24631
9.23632
9.21749
9.18036
9.13854
9.09972
9.06322
9.03046
8.9993
8.96854
8.93721
8.90561
8.87171
8.83643
8.79919
8.76056
8.72036
8.67961
8.63847
8.59696
8.55499
8.51207
8.46839
8.42213
8.37719
8.32833
8.27773
8.22544
8.17054
8.11372
8.05478
7.99367
7.93068
7.86607
7.80015
7.73224
1.00122
1.00286
1.0137
1.00229
1.04137
1.10399
1.00371
2.81025
4.41449
10.4939
10.401
10.0108
9.51947
9.2941
9.23922
9.22909
9.2102
9.17365
9.13233
9.09385
9.05847
9.02525
8.99358
8.96233
8.93018
8.89813
8.86449
8.83003
8.79258
8.75368
8.7144
8.67365
8.63252
8.5911
8.54911
8.50667
8.46286
8.41812
8.37149
8.32627
8.27588
8.22436
8.17119
8.11587
8.05854
7.99936
7.93842
7.87576
7.81155
7.7453
1.00176
1.00147
1.00922
1.01428
1.0652
1.05555
1.67958
1.69765
5.51942
10.1835
10.1037
9.76677
9.40264
9.23347
9.19478
9.19115
9.18135
9.15635
9.11922
9.08099
9.04723
9.01456
8.9835
8.95329
8.92164
8.88995
8.85719
8.8232
8.78748
8.75036
8.71162
8.67173
8.63093
8.58952
8.54774
8.50479
8.46161
8.41704
8.3715
8.32406
8.27632
8.22497
8.17222
8.11762
8.06114
8.00296
7.94328
7.88234
7.82029
7.75666
1.00084
1.00199
1.00942
0.998953
1.03366
1.0854
0.982885
2.68564
4.06093
9.84521
10.1967
9.86074
9.40028
9.19646
9.15942
9.16119
9.15835
9.14494
9.11481
9.07817
9.04381
9.01289
8.98212
8.95122
8.92016
8.88869
8.85626
8.82252
8.78719
8.75014
8.71149
8.67226
8.63045
8.58939
8.54737
8.50474
8.46135
8.41649
8.37156
8.32536
8.2763
8.22555
8.17341
8.11951
8.06386
8.00682
7.94851
7.88912
7.82891
7.7674
1.0007
1.0017
1.00542
0.997432
1.02881
1.07489
0.970808
2.62989
3.89147
9.61007
10.1531
9.82621
9.3547
9.14452
9.11383
9.12012
9.1269
9.12172
9.10461
9.0708
9.03721
9.0063
8.9764
8.94553
8.91561
8.88507
8.85347
8.8204
8.78573
8.74913
8.71129
8.67089
8.63065
8.58952
8.54758
8.50495
8.46173
8.41683
8.36962
8.32616
8.27651
8.2259
8.17414
8.12088
8.06616
8.01022
7.95337
7.89513
7.83707
7.77766
1.00151
1.00151
1.00832
1.01123
1.05281
1.04508
1.57822
1.63338
4.86634
9.39533
9.96125
9.713
9.31543
9.13208
9.10298
9.10984
9.12166
9.11858
9.10584
9.07801
9.04182
9.01114
8.97991
8.94959
8.91943
8.88816
8.85587
8.82216
8.78732
8.75103
8.71273
8.6738
8.63325
8.59247
8.55083
8.50709
8.46394
8.41903
8.37311
8.32565
8.27791
8.22716
8.17531
8.12258
8.0688
8.01418
7.95884
7.90299
7.84674
7.78969
1.00072
1.00097
1.00333
0.995239
1.02401
1.06459
0.963615
2.54572
3.66333
9.14184
10.0239
9.76026
9.31406
9.11238
9.08315
9.09067
9.10383
9.1018
9.09228
9.07022
9.03777
9.00778
8.97896
8.94997
8.91986
8.88831
8.8554
8.82145
8.78646
8.75031
8.71249
8.67529
8.63459
8.5932
8.55191
8.50875
8.46507
8.41865
8.37197
8.32674
8.27713
8.22682
8.17579
8.12393
8.07131
8.01818
7.96457
7.91071
7.85677
7.80197
0.999823
0.999395
1.00095
0.992273
1.01876
1.05567
0.94885
2.50781
3.50528
8.98532
10.0188
9.76473
9.32514
9.13221
9.10544
9.11033
9.11221
9.10663
9.09046
9.06425
9.03568
9.00821
8.98088
8.95173
8.92087
8.88837
8.85464
8.82001
8.7851
8.74913
8.71295
8.6727
8.63336
8.59283
8.55078
8.50722
8.46306
8.41641
8.36901
8.32605
8.27582
8.22636
8.17676
8.12653
8.07572
8.02447
7.97278
7.92038
7.86933
7.81583
0.999667
0.998725
1.00002
0.991245
1.01646
1.05079
0.94484
2.47142
3.39946
8.79002
9.9743
9.74824
9.33537
9.1551
9.12409
9.12409
9.1195
9.10487
9.07907
9.05258
9.02727
9.00209
8.9755
8.94667
8.91576
8.88331
8.84997
8.81587
8.7815
8.74585
8.71048
8.66916
8.63014
8.58917
8.54644
8.50254
8.4581
8.41135
8.36504
8.32282
8.27362
8.22546
8.17744
8.129
8.0801
8.03099
7.9812
7.9316
7.88273
7.82978
0.999423
0.997477
0.998454
0.989707
1.01358
1.04432
0.94192
2.43992
3.3193
8.67589
10.033
9.81134
9.38614
9.17972
9.12513
9.11911
9.11136
9.09342
9.06653
9.03627
9.00626
8.97755
8.94901
8.92005
8.88983
8.8588
8.82712
8.79483
8.76192
8.72768
8.69339
8.65282
8.61453
8.5744
8.53236
8.48965
8.44624
8.40063
8.35785
8.31537
8.26889
8.22329
8.17767
8.13165
8.08518
8.03836
7.99054
7.944
7.89645
7.84452
1.00111
1.00118
1.00616
1.00735
1.0536
1.04875
1.42352
1.40333
4.10973
8.04554
10.1581
9.99822
9.55851
9.22055
9.09024
9.07269
9.07647
9.07366
9.0577
9.02528
8.987
8.9537
8.92376
8.89657
8.8685
8.83974
8.80981
8.77879
8.74484
8.71278
8.67623
8.63802
8.59836
8.55933
8.51712
8.47579
8.43422
8.39164
8.34995
8.30746
8.2652
8.22169
8.17793
8.13434
8.09028
8.04532
7.99979
7.95561
7.90924
7.86148
1.00092
1.00077
1.00726
1.00734
1.04686
1.06699
1.33787
1.45004
3.6403
7.42099
10.4549
10.2671
9.69405
9.21173
9.01491
9.00548
9.01636
9.03035
9.02358
9.00189
8.95967
8.9231
8.8925
8.86425
8.83588
8.8065
8.77607
8.74453
8.71138
8.67786
8.64337
8.60621
8.5684
8.53023
8.49203
8.45324
8.41488
8.37708
8.33625
8.29704
8.25777
8.21718
8.17628
8.13488
8.09306
8.04985
8.00495
7.96491
7.91977
7.87367
1.00119
1.00127
1.00634
1.01126
1.03937
1.07547
1.37081
1.47145
3.90547
7.9704
10.3959
10.1885
9.62169
9.1708
8.99415
8.99206
9.00404
9.01885
9.01278
8.99349
8.95413
8.91858
8.88701
8.85631
8.82517
8.79318
8.76021
8.72656
8.69054
8.6577
8.62062
8.58319
8.54625
8.5084
8.47314
8.43487
8.39919
8.36316
8.32653
8.29089
8.25303
8.21494
8.17625
8.13669
8.09641
8.05515
8.01246
7.97107
7.92942
7.88423
0.999918
0.997297
0.997934
0.984395
0.995133
1.02243
0.924915
2.46971
3.11883
8.95941
10.1463
9.8049
9.28257
9.04206
8.98795
8.99124
8.99935
8.99691
8.98508
8.95701
8.92368
8.89049
8.85799
8.82531
8.79245
8.7588
8.72482
8.69039
8.65609
8.62102
8.58597
8.55219
8.51351
8.47994
8.44649
8.41257
8.37961
8.3456
8.31116
8.28201
8.24528
8.20897
8.17237
8.13452
8.09584
8.05716
8.01414
7.97362
7.93168
7.88807
0.999587
0.997325
0.997387
0.979793
0.995176
1.00986
0.899332
2.45921
3.06926
8.86041
10.0925
9.79802
9.32456
9.10391
9.04931
9.04341
9.03516
9.01743
8.99056
8.95815
8.92382
8.88913
8.85434
8.81925
8.78388
8.74826
8.71264
8.67697
8.64193
8.6069
8.57223
8.53613
8.50263
8.46959
8.43704
8.40507
8.37396
8.34127
8.30707
8.27926
8.24405
8.20877
8.17315
8.13653
8.09798
8.06054
8.02136
7.97658
7.93629
7.89462
0.999726
0.996259
0.997098
0.975247
0.991718
1.01226
0.906218
2.45123
3.16157
8.98393
10.1529
9.83204
9.31361
9.07878
9.02677
9.0254
9.02073
9.00697
8.9786
8.94368
8.90862
8.87433
8.83967
8.80441
8.76876
8.7331
8.69768
8.66269
8.62782
8.59349
8.55941
8.52497
8.49257
8.46044
8.4289
8.39761
8.367
8.33604
8.30285
8.27434
8.24192
8.20671
8.17161
8.13569
8.09801
8.0598
8.02264
7.97748
7.93702
7.89625
3.28489
2.84492
3.42529
4.50525
4.47547
4.3923
4.25743
4.15665
4.11323
4.1049
4.1185
4.13315
4.14333
4.15985
4.19325
4.24462
4.30599
4.37241
4.44073
4.50877
4.57427
4.63806
4.69712
4.74811
4.79174
4.82814
4.85772
4.88075
4.89759
4.9086
4.91418
4.91484
4.91318
4.90777
4.89633
4.88043
4.86211
4.84164
4.81881
4.79367
4.76645
4.7374
4.70675
4.67472
4.64155
4.60745
4.57266
4.53738
4.50185
4.46623
4.43073
4.39548
4.36063
4.32628
4.29258
4.25959
4.22738
4.19615
4.16585
4.1366
4.10856
4.08182
4.05644
4.03253
4.01017
3.98942
3.97037
3.95308
3.93763
3.92394
3.91198
3.90185
3.89349
3.88664
3.88128
3.87724
3.87437
3.8724
3.87122
3.87059
3.87042
3.87046
3.87055
3.87056
3.87042
3.87005
3.8693
3.86829
3.86675
3.86475
3.86231
3.85935
3.85609
3.8524
3.84868
3.84502
3.84174
3.83892
3.83659
3.83557
4.42551
3.98297
4.15857
4.55989
4.48149
4.34457
4.21543
4.13101
4.11097
4.12126
4.14499
4.15202
4.14922
4.15513
4.18299
4.23793
4.299
4.36496
4.43316
4.50115
4.56718
4.63079
4.68968
4.74096
4.78475
4.82144
4.85136
4.87473
4.8919
4.90318
4.90895
4.90946
4.90829
4.90408
4.89421
4.87703
4.85804
4.83754
4.81496
4.79007
4.76303
4.73412
4.7036
4.67171
4.63868
4.60474
4.5701
4.53498
4.49958
4.46409
4.42868
4.39351
4.35872
4.32441
4.29072
4.25774
4.22552
4.19428
4.16401
4.13469
4.10666
4.07992
4.05454
4.03063
4.00828
3.98756
3.96854
3.95129
3.93587
3.92229
3.91045
3.90036
3.89209
3.88546
3.88029
3.87645
3.8738
3.87204
3.87118
3.87082
3.87092
3.87116
3.87151
3.87176
3.87183
3.87174
3.87137
3.8705
3.86897
3.86698
3.86458
3.86164
3.85827
3.85454
3.85061
3.84668
3.84309
3.84023
3.83769
3.83765
5.49726
4.79353
4.55206
4.56998
4.54146
4.4557
4.30759
4.20953
4.16126
4.14268
4.14202
4.14432
4.15166
4.16901
4.20232
4.25083
4.30849
4.37135
4.43631
4.50214
4.56617
4.62739
4.68419
4.73457
4.77781
4.8142
4.84386
4.86708
4.88413
4.89538
4.90109
4.90127
4.90033
4.89697
4.88885
4.87242
4.8525
4.83123
4.80849
4.78382
4.75709
4.72846
4.69818
4.66652
4.63374
4.60007
4.56572
4.53087
4.49573
4.46047
4.42526
4.39024
4.35556
4.32132
4.28767
4.25471
4.22248
4.19124
4.16114
4.13149
4.10359
4.07698
4.05166
4.02786
4.00559
3.98504
3.96616
3.94909
3.93384
3.92045
3.90896
3.89902
3.89086
3.88442
3.87998
3.87627
3.87401
3.87263
3.87212
3.87225
3.87254
3.87308
3.8737
3.87428
3.87481
3.87487
3.87475
3.87428
3.87314
3.87095
3.86841
3.8654
3.8619
3.85808
3.85386
3.84961
3.84552
3.84227
3.83945
3.8397
6.03735
5.34947
4.93028
4.73564
4.67948
4.58712
4.44955
4.32977
4.25206
4.21275
4.20175
4.20249
4.20657
4.21696
4.23932
4.27781
4.32775
4.38408
4.44364
4.50461
4.56493
4.62267
4.67644
4.72499
4.76696
4.80282
4.83201
4.85495
4.87179
4.88306
4.88879
4.88885
4.88808
4.88532
4.87857
4.86444
4.84411
4.82209
4.79898
4.77441
4.74805
4.71985
4.68999
4.6587
4.62628
4.59297
4.55898
4.52448
4.48967
4.45472
4.41978
4.385
4.35051
4.31643
4.28292
4.25006
4.21794
4.18678
4.1566
4.12738
4.09951
4.07297
4.04779
4.0242
4.00211
3.9818
3.96304
3.94623
3.93129
3.91821
3.9069
3.8974
3.88973
3.88381
3.87936
3.87639
3.87447
3.8738
3.87401
3.8744
3.87507
3.87599
3.87705
3.87818
3.87924
3.87968
3.87962
3.87929
3.87842
3.87659
3.87357
3.87052
3.86673
3.86273
3.85802
3.85352
3.84862
3.84485
3.84101
3.84141
6.36906
5.77771
5.3292
5.04746
4.88898
4.75795
4.61674
4.48537
4.38409
4.31891
4.28305
4.26562
4.26519
4.26854
4.28042
4.30784
4.35386
4.40513
4.45854
4.51328
4.56815
4.6211
4.67146
4.71714
4.75743
4.79185
4.82013
4.84251
4.85858
4.86979
4.87525
4.87528
4.87459
4.87217
4.86629
4.85397
4.8343
4.81209
4.7886
4.76391
4.73773
4.70989
4.68045
4.64962
4.61763
4.58477
4.55123
4.51715
4.48273
4.44815
4.41354
4.37904
4.3448
4.31093
4.27758
4.24489
4.21294
4.18191
4.15185
4.12287
4.09515
4.06881
4.04389
4.02056
3.99877
3.97888
3.96059
3.94399
3.9295
3.91687
3.90604
3.89707
3.8899
3.88448
3.88056
3.87815
3.87687
3.87705
3.87749
3.87813
3.87943
3.88083
3.88235
3.8839
3.88537
3.88606
3.88601
3.88571
3.8849
3.88315
3.88003
3.87665
3.87256
3.86826
3.86313
3.8581
3.8524
3.84805
3.84302
3.84331
6.60898
6.116
5.68955
5.36025
5.12799
4.95214
4.79635
4.65469
4.53652
4.44803
4.38969
4.35527
4.34123
4.34134
4.34501
4.35723
4.38493
4.4292
4.47654
4.52441
4.5725
4.61981
4.66538
4.70771
4.74562
4.77824
4.80544
4.82688
4.84269
4.85367
4.85865
4.85865
4.858
4.85582
4.85061
4.83977
4.8215
4.7998
4.77631
4.75153
4.72551
4.69797
4.66901
4.63867
4.60716
4.5748
4.54174
4.50809
4.47411
4.43996
4.40575
4.3716
4.33767
4.30409
4.27103
4.2386
4.20692
4.17615
4.14637
4.11772
4.09034
4.06435
4.03984
4.01691
3.99563
3.97611
3.9584
3.94245
3.92835
3.91621
3.90598
3.89755
3.89096
3.88605
3.88276
3.8808
3.88063
3.88089
3.88157
3.88294
3.88455
3.88645
3.8884
3.8902
3.89185
3.89263
3.89256
3.89225
3.89142
3.88962
3.88641
3.88264
3.87831
3.87344
3.86795
3.86242
3.85611
3.85093
3.84497
3.84511
6.79645
6.38157
5.99211
5.65171
5.37945
5.16571
4.9875
4.83242
4.6997
4.59293
4.51411
4.46013
4.42797
4.41252
4.41239
4.41541
4.42613
4.45092
4.49166
4.53466
4.57731
4.6193
4.65993
4.69841
4.73326
4.76396
4.79012
4.81062
4.82571
4.83618
4.8413
4.84128
4.84069
4.83868
4.83389
4.82386
4.80697
4.7863
4.76331
4.73863
4.71278
4.68546
4.65693
4.62704
4.59602
4.56416
4.53174
4.49848
4.46492
4.4313
4.39756
4.36381
4.33024
4.29703
4.26433
4.23224
4.20092
4.1705
4.14111
4.11288
4.08594
4.06042
4.03642
4.01404
3.99335
3.97442
3.95733
3.94215
3.92867
3.91714
3.9076
3.89983
3.89387
3.88955
3.88682
3.88561
3.88579