/*--------------------------------*- C++ -*----------------------------------*\
| =========                 |                                                 |
| \\      /  F ield         | OpenFOAM: The Open Source CFD Toolbox           |
|  \\    /   O peration     | Version:  2412                                  |
|   \\  /    A nd           | Website:  www.openfoam.com                      |
|    \\/     M anipulation  |                                                 |
\*---------------------------------------------------------------------------*/
FoamFile
{
    version     2.0;
    format      ascii;
    arch        "LSB;label=32;scalar=64";
    class       surfaceScalarField;
    location    "8.5";
    object      phi;
}
// * * * * * * * * * * * * * * * * * * * * * * * * * * * * * * * * * * * * * //

dimensions      [1 0 -1 0 0 0 0];

oriented        oriented;

internalField   nonuniform List<scalar> 
13790
(
0.00290463
-3.08285e-08
0.00289725
-4.05205e-07
0.00289833
-3.47727e-08
0.0029298
2.96686e-08
0.00288551
1.28132e-06
0.00305128
-3.61367e-06
0.00282588
2.25182e-06
0.00280074
-3.70932e-05
0.00282475
-2.79447e-05
0.00283669
-1.09124e-05
0.00282864
-1.0303e-06
0.00281184
3.13218e-06
0.00277684
7.15728e-06
0.00274355
1.09902e-05
0.00272029
1.4841e-05
0.0027017
1.85545e-05
0.0026857
2.18493e-05
0.00266815
2.51133e-05
0.00264271
2.80329e-05
0.0026085
3.07275e-05
0.00256588
3.33683e-05
0.00251632
3.60966e-05
0.00246195
3.91032e-05
0.00240436
4.2571e-05
0.00234391
4.66584e-05
0.00228067
5.14979e-05
0.00221281
5.6801e-05
0.00213506
6.20576e-05
0.00205389
6.84297e-05
0.00197249
7.38401e-05
0.00188986
7.88915e-05
0.00180654
8.33337e-05
0.00172574
8.6154e-05
0.00164028
8.82703e-05
0.00155095
8.93798e-05
0.00145962
8.96771e-05
0.00136607
8.95541e-05
0.0012706
8.96889e-05
0.00117723
8.99222e-05
0.00108447
9.08747e-05
0.000990059
9.28521e-05
0.000889715
9.62878e-05
0.0007789
0.000100845
0.000665005
0.000105584
0.000548938
0.000110466
0.000431253
0.00011381
0.000314438
0.000113542
0.000201561
0.000109859
9.42921e-05
0.000103487
8.92344e-05
0.0030127
-7.25469e-08
0.00300622
7.19076e-08
0.00301594
-8.24188e-07
0.0029861
1.54465e-06
0.00300598
-2.81019e-06
0.00284043
1.14126e-05
0.00300363
-2.75829e-05
0.00291798
-4.56184e-05
0.00292301
-4.24427e-05
0.00293308
-2.10543e-05
0.00292835
-5.83998e-06
0.0029124
4.5731e-06
0.00287665
1.37492e-05
0.0028431
2.20982e-05
0.00281984
2.99241e-05
0.00280108
3.75491e-05
0.00278502
4.4317e-05
0.00276702
5.10201e-05
0.00274076
5.69173e-05
0.00270549
6.23162e-05
0.00266177
6.75156e-05
0.00261118
7.27648e-05
0.00255608
7.83871e-05
0.00249833
8.47201e-05
0.00243869
9.20518e-05
0.00237746
0.000100574
0.0023132
0.000110171
0.00223969
0.000120339
0.0021616
0.000131236
0.00208422
0.000141957
0.00200623
0.000152411
0.00192711
0.000162151
0.00185062
0.000170436
0.00176677
0.000177336
0.00167495
0.000182365
0.00157745
0.000185746
0.00147476
0.000187844
0.00136763
0.000189764
0.00126155
0.000191746
0.00115552
0.000194671
0.00104776
0.000198799
0.000935113
0.000204277
0.000814492
0.000210856
0.000694205
0.000217319
0.000575077
0.000223815
0.00045672
0.000228133
0.000339308
0.000227502
0.000223864
0.000222148
0.000109943
0.000213531
0.000193964
0.00312408
1.29619e-07
0.0031218
3.66619e-07
0.00311823
2.50851e-07
0.0031483
-1.75793e-06
0.00311626
-3.10242e-08
0.00323386
-1.13479e-05
0.00306675
-1.54185e-05
0.00301052
-6.90057e-05
0.00302471
-6.09186e-05
0.00303567
-3.03169e-05
0.00302777
-8.33064e-06
0.00300911
7.10981e-06
0.00297143
2.03047e-05
0.00293898
3.29081e-05
0.0029177
4.41801e-05
0.00290055
5.56621e-05
0.00288597
6.64272e-05
0.00286837
7.68703e-05
0.00284172
8.61235e-05
0.00280552
9.44964e-05
0.00276049
0.000102423
0.00270841
0.000110286
0.00265178
0.000118555
0.00259259
0.000127724
0.00253168
0.000138202
0.00246943
0.000150222
0.00240443
0.000163866
0.00233031
0.000178838
0.00225084
0.000194049
0.00217225
0.000210069
0.0020934
0.000226193
0.002013
0.000241569
0.00193589
0.000256005
0.00185085
0.000268513
0.00175643
0.000278405
0.00165501
0.000285761
0.00154778
0.000290941
0.00143498
0.00029493
0.00132318
0.00029875
0.00121173
0.000303588
0.00109876
0.000309736
0.000981257
0.000316871
0.000856053
0.000325017
0.000731696
0.000333043
0.000609131
0.000340466
0.000487677
0.000345419
0.000366365
0.00034514
0.000245357
0.000339833
0.000123141
0.000331812
0.000311737
0.00323895
2.17546e-07
0.00324552
4.91634e-08
0.00324634
-9.40235e-07
0.00321484
-5.66166e-07
0.00323722
-3.91943e-06
0.00304785
-1.94285e-05
0.00324604
-1.92562e-05
0.00313826
-8.1815e-05
0.00314413
-7.25034e-05
0.0031493
-3.28502e-05
0.00313929
-8.42841e-06
0.0031196
1.06947e-05
0.00308042
2.81428e-05
0.00304706
4.49541e-05
0.00302562
5.96831e-05
0.00300808
7.50083e-05
0.00299341
8.95895e-05
0.00297512
0.000103818
0.00294747
0.000116318
0.00290991
0.000127638
0.00286322
0.000138304
0.0028094
0.000148815
0.00275104
0.000159797
0.00269011
0.000171902
0.00262738
0.000185663
0.00256318
0.000201362
0.00249597
0.000219174
0.00241917
0.000238885
0.00233723
0.000258875
0.00225609
0.000280371
0.00217455
0.000302416
0.00209087
0.000323831
0.00201024
0.000344297
0.00192206
0.00036271
0.00182466
0.000377581
0.0017201
0.00038886
0.00161007
0.000397131
0.00149415
0.000403085
0.00137936
0.000408402
0.00126529
0.000414827
0.0011499
0.000422893
0.00102992
0.000432001
0.000901834
0.000441801
0.00077417
0.000451819
0.000647565
0.000460882
0.000521311
0.000467302
0.000394131
0.000468326
0.000265891
0.000464492
0.000134854
0.000458858
0.000441082
0.00336167
-1.96635e-07
0.00336065
-3.08443e-07
0.00335237
8.55047e-07
0.00334531
-8.43868e-07
0.00335551
3.31849e-07
0.00313219
6.7596e-07
0.0033115
-2.63763e-05
0.00320708
-0.000107326
0.00323003
-9.3634e-05
0.00325457
-4.75606e-05
0.00325313
-1.51713e-05
0.00323533
1.28137e-05
0.00319516
3.68725e-05
0.00316098
5.89053e-05
0.00313908
7.75782e-05
0.00312066
9.65718e-05
0.00310572
0.000114669
0.00308629
0.000132169
0.00305729
0.000147613
0.00301819
0.000161711
0.00296981
0.000175067
0.00291423
0.000188259
0.00285411
0.000202044
0.00279137
0.000217227
0.0027267
0.000234462
0.00266042
0.000254102
0.0025908
0.00027631
0.00251106
0.00030075
0.00242688
0.000325986
0.00234333
0.000353113
0.00225924
0.000381158
0.00217292
0.000408687
0.00208971
0.000435211
0.00199903
0.000459416
0.00189914
0.000479215
0.00179207
0.000494452
0.0016796
0.000505789
0.00156081
0.000513912
0.00144294
0.000520788
0.00132578
0.000528846
0.00120733
0.000538896
0.0010843
0.000550389
0.000952101
0.000562216
0.000820053
0.000574336
0.000688502
0.000585794
0.000556393
0.000594682
0.000422052
0.000598286
0.000285555
0.000597138
0.000145358
0.000595017
0.000580782
0.00348607
-1.16982e-07
0.00347735
-1.49507e-07
0.00349213
-6.04408e-07
0.00344812
-1.05692e-06
0.00348093
-2.29835e-06
0.00324188
-1.4426e-05
0.003462
-2.64294e-05
0.00334879
-0.000119922
0.00337421
-0.000111871
0.00338918
-5.19217e-05
0.00337929
-1.24675e-05
0.00335572
2.04784e-05
0.0033114
4.96521e-05
0.00327614
7.59052e-05
0.00325444
9.79629e-05
0.00323599
0.000120017
0.00322145
0.000141308
0.00320118
0.000161596
0.00317097
0.00017972
0.00313043
0.00019645
0.0030805
0.000212446
0.00302334
0.000228343
0.00296166
0.000245006
0.00289736
0.000263388
0.00283105
0.000284267
0.00276298
0.000308099
0.00269128
0.000334953
0.00260908
0.000364274
0.00252299
0.00039504
0.0024373
0.000427875
0.00235091
0.000461935
0.00226226
0.000495525
0.00217696
0.000527936
0.00208441
0.000557931
0.00198269
0.000582761
0.0018736
0.00060214
0.00175888
0.0006169
0.00163689
0.000627598
0.00151518
0.000636387
0.00139394
0.000646444
0.00127121
0.000658769
0.001144
0.000672941
0.00100665
0.000687219
0.000868857
0.000701716
0.00073121
0.000716159
0.000592315
0.000728451
0.000450137
0.000735762
0.000304825
0.000738346
0.000155281
0.000740468
0.000730267
0.00361551
-6.56231e-08
0.00360581
-1.04547e-07
0.00361838
-5.07338e-07
0.00356886
5.08258e-06
0.00360822
-7.14682e-06
0.00334238
-3.50709e-06
0.0035489
-4.48147e-05
0.00345231
-0.000143753
0.00348857
-0.000134507
0.0035069
-5.71663e-05
0.00349528
-7.02093e-06
0.00346823
3.07656e-05
0.00342184
6.46188e-05
0.00338833
9.41875e-05
0.00336939
0.000119031
0.00335306
0.000143958
0.00334017
0.00016851
0.00331977
0.000191487
0.00328869
0.000212212
0.00324687
0.000231565
0.00319546
0.000250195
0.00313681
0.000268837
0.00307372
0.000288444
0.00300807
0.000310132
0.0029404
0.0003348
0.00287084
0.000363034
0.00279734
0.000394787
0.00271292
0.000429255
0.0026247
0.000465663
0.00253685
0.000504357
0.00244831
0.000544494
0.00235767
0.000584148
0.00227083
0.000622588
0.00217664
0.000658385
0.00207296
0.000688278
0.00196154
0.000711946
0.00184405
0.000730377
0.00171847
0.000743995
0.00159267
0.00075525
0.00146707
0.000767807
0.00133965
0.00078283
0.00120768
0.000800052
0.00106466
0.000817215
0.000920542
0.000834518
0.000776137
0.000852678
0.000629646
0.000869396
0.000478902
0.000881502
0.000324213
0.000888584
0.000165017
0.000895459
0.000889375
0.00374947
2.57677e-07
0.00374646
4.02987e-08
0.00375046
9.78249e-07
0.00378629
-3.10019e-06
0.00372248
3.68757e-07
0.00382355
-7.03525e-06
0.00361113
-3.93279e-05
0.0035301
-0.0001629
0.00356381
-0.000149962
0.00359836
-7.31503e-05
0.00359992
-1.34855e-05
0.00357694
3.59104e-05
0.00353228
7.80478e-05
0.00350257
0.00011176
0.00348707
0.000140232
0.00347384
0.000168213
0.00346285
0.000196099
0.00344247
0.000221674
0.00341052
0.000244891
0.00336752
0.000266784
0.00331478
0.000288071
0.00325471
0.000309505
0.00319027
0.000332148
0.00312336
0.000357272
0.00305449
0.0003859
0.00298361
0.000418728
0.00290857
0.000455629
0.0028222
0.000495595
0.0027317
0.000537815
0.00264158
0.00058263
0.00255082
0.000628982
0.00245816
0.000674792
0.00236971
0.000719431
0.00227356
0.000760986
0.00216747
0.000795968
0.00205333
0.000824047
0.0019328
0.000846285
0.00180362
0.000863123
0.00167387
0.000877246
0.00154407
0.00089273
0.0014121
0.000910902
0.00127539
0.00093162
0.00112676
0.000952472
0.000975502
0.000973345
0.000823732
0.000995824
0.000669109
0.00101791
0.000509298
0.00103591
0.000344661
0.00104843
0.000175382
0.00106045
0.00105874
0.00388941
1.79715e-07
0.00388244
2.33462e-07
0.00391984
-9.63707e-07
0.00378222
1.39457e-07
0.00385137
-3.65289e-06
0.00367063
-5.24175e-06
0.00380456
-5.58695e-05
0.00368229
-0.000182899
0.00371551
-0.000163693
0.00373643
-7.81976e-05
0.00372672
-1.13753e-05
0.00369684
4.4844e-05
0.0036512
9.28752e-05
0.00362361
0.000130554
0.00361026
0.000163119
0.00360016
0.000193785
0.00359049
0.000224353
0.00356978
0.000252104
0.00353683
0.000277532
0.00349264
0.000301776
0.00343872
0.000325686
0.00337742
0.000350001
0.00331182
0.000375818
0.00324385
0.000404559
0.00317396
0.000437394
0.00310183
0.000475059
0.00302531
0.000517344
0.0029375
0.000563186
0.00284525
0.000611599
0.00275291
0.000662818
0.00265969
0.000715622
0.00256432
0.000767731
0.00247331
0.000818459
0.00237469
0.000865757
0.00226603
0.000905849
0.00214916
0.000938409
0.00202579
0.000964574
0.00189328
0.000984899
0.00175986
0.00100214
0.00162617
0.00102088
0.00148984
0.0010427
0.0013484
0.00106755
0.00119463
0.00109298
0.00103564
0.00111831
0.000875789
0.00114614
0.000712311
0.00117477
0.000542678
0.00119991
0.000367167
0.00121901
0.000186505
0.00123683
0.00123912
0.0040344
-2.06239e-07
0.00402934
-4.91767e-08
0.00404159
-5.49643e-07
0.00391603
-2.46188e-06
0.004033
-7.22702e-06
0.00371571
3.51829e-06
0.00398339
-6.35297e-05
0.00381092
-0.000171034
0.00384046
-0.000169723
0.00386262
-8.26319e-05
0.00385403
-1.00229e-05
0.0038203
5.42176e-05
0.00377387
0.000107609
0.00374831
0.000149712
0.00373741
0.00018666
0.00373098
0.000220071
0.00372241
0.000252946
0.00370154
0.000282476
0.00366776
0.000309833
0.00362255
0.000336227
0.00356775
0.000362629
0.00350536
0.000390002
0.00343886
0.000419107
0.00337015
0.000451688
0.00329954
0.00048903
0.00322636
0.000531824
0.00314847
0.000579847
0.00305925
0.000631937
0.00296511
0.000686812
0.0028704
0.000744745
0.00277457
0.000804235
0.00267631
0.000862786
0.00258249
0.000919505
0.00248142
0.000972556
0.00237041
0.00101772
0.00225112
0.00105471
0.00212546
0.00108484
0.0019901
0.00110892
0.00185318
0.0011295
0.00171574
0.00115183
0.00157526
0.0011779
0.0014291
0.00120778
0.00127022
0.00123895
0.00110316
0.00126973
0.000934712
0.0013041
0.000761487
0.00134076
0.000580778
0.00137451
0.000393034
0.00140133
0.000199702
0.00142561
0.0014326
0.00418312
-5.90759e-08
0.00418599
-4.63549e-07
0.00417849
-7.21174e-07
0.00419707
4.73862e-06
0.00413295
-5.2744e-06
0.00442333
6.33702e-06
0.00406754
-5.9067e-05
0.00391775
-0.000170675
0.00395767
-0.000166785
0.00398709
-8.20911e-05
0.00397686
-4.93176e-06
0.00393668
6.41566e-05
0.00389144
0.000121597
0.00387092
0.000167647
0.00386456
0.000208031
0.00386399
0.000244849
0.00385746
0.000280149
0.00383721
0.000311709
0.00380319
0.000341073
0.00375735
0.000369603
0.00370186
0.000398511
0.00363878
0.000428947
0.00357187
0.000461553
0.00350288
0.000498281
0.00343191
0.00054051
0.00335776
0.000588828
0.00327805
0.000643002
0.003187
0.000701544
0.00309127
0.000763368
0.00299435
0.000828352
0.00289599
0.00089484
0.00279495
0.000959927
0.00269857
0.00102266
0.00259534
0.00108136
0.00248228
0.00113145
0.00236095
0.0011727
0.00223345
0.00120669
0.00209591
0.00123458
0.00195612
0.00125873
0.00181543
0.00128511
0.00167118
0.00131613
0.00152055
0.00135205
0.00135681
0.00139053
0.00118104
0.00142859
0.0010028
0.00147067
0.000818694
0.00151698
0.00062559
0.00156124
0.000423829
0.0015975
0.000215203
0.00162962
0.00164151
0.0043375
4.07699e-07
0.00433845
1.55064e-07
0.00432723
-5.57447e-07
0.0044398
-4.39669e-06
0.00435196
-6.06293e-07
0.00478428
-2.68868e-05
0.00430482
-2.61465e-05
0.00410291
-0.000177105
0.00413303
-0.000151854
0.00414172
-6.07673e-05
0.00411643
1.50891e-05
0.00406417
8.14322e-05
0.00401931
0.000138342
0.00400293
0.000185492
0.00399975
0.000227974
0.00400371
0.000268454
0.00399824
0.000305982
0.0039782
0.000339641
0.00394382
0.000370935
0.00389746
0.000401546
0.00384147
0.000432959
0.00377793
0.00046644
0.00371094
0.00050278
0.00364208
0.000544014
0.00357116
0.000591526
0.00349646
0.000645841
0.00341512
0.000706635
0.00332217
0.000771994
0.00322502
0.000841097
0.00312659
0.000913493
0.00302631
0.000987243
0.00292324
0.00105909
0.00282476
0.00112802
0.00271957
0.00119229
0.00260478
0.00124705
0.00248181
0.0012923
0.00235284
0.00132998
0.00221354
0.00136158
0.00207137
0.00138947
0.00192794
0.00142027
0.00178041
0.00145695
0.00162573
0.00150006
0.00145737
0.00154771
0.00127293
0.00159511
0.0010843
0.00164657
0.000888021
0.00170478
0.00068046
0.00176212
0.000461724
0.00181058
0.000234885
0.00185212
0.00187007
0.00450049
-1.82896e-07
0.00450962
6.19529e-07
0.00448202
-1.15924e-08
0.00454315
1.43799e-06
0.00448892
-3.93625e-06
0.00417896
1.77832e-05
0.00443781
-5.79102e-05
0.00423059
-0.000150208
0.00426977
-0.000133762
0.00428146
-4.08401e-05
0.00425459
3.71877e-05
0.00419583
9.98171e-05
0.0041552
0.000156104
0.00414267
0.000203446
0.00414282
0.000247398
0.00414982
0.000290789
0.00414505
0.000330305
0.00412491
0.000365844
0.00409007
0.000399012
0.0040433
0.000431675
0.00398712
0.00046559
0.00392337
0.000502144
0.00385657
0.000542602
0.00378811
0.000588736
0.00371743
0.000641951
0.00364247
0.000702694
0.00355995
0.000770599
0.0034655
0.000843245
0.00336687
0.000920063
0.00326696
0.00100012
0.00316518
0.00108114
0.00306113
0.00115964
0.00296213
0.00123491
0.00285589
0.0013045
0.00273999
0.00136365
0.00261599
0.00141262
0.00248614
0.00145377
0.0023458
0.00148902
0.00220185
0.00152098
0.00205624
0.00155662
0.00190611
0.00159974
0.00174793
0.00165121
0.00157567
0.00170969
0.00138265
0.00176984
0.00118225
0.00183291
0.000972423
0.00190514
0.000748491
0.00197855
0.000509965
0.00204266
0.000259338
0.0020978
0.00212302
0.00466569
2.11513e-08
0.00466565
-4.1656e-07
0.00467011
-1.27338e-07
0.0047557
-3.96946e-06
0.00464837
2.39612e-06
0.00502119
-2.32615e-05
0.00460993
-1.69083e-05
0.00437704
-0.000120609
0.00438964
-9.45778e-05
0.00439842
-1.82117e-05
0.0043739
5.37471e-05
0.00431976
0.000114379
0.00428842
0.00017002
0.00428251
0.000218237
0.00429072
0.000264181
0.00430101
0.000310237
0.00429723
0.000351907
0.00427718
0.000389461
0.00424212
0.000424604
0.00419511
0.000459479
0.00413887
0.000496068
0.00407525
0.000535945
0.00400912
0.00058086
0.00394143
0.000632412
0.00387118
0.000691842
0.00379616
0.000759504
0.00371274
0.000834938
0.00361777
0.000915297
0.00351842
0.00100015
0.00341742
0.001088
0.00331438
0.00117621
0.00320935
0.00126104
0.00310985
0.00134199
0.00300336
0.00141638
0.00288751
0.00147951
0.00276372
0.00153199
0.00263424
0.00157647
0.00249434
0.00161541
0.00234987
0.00165202
0.00220332
0.00169288
0.00205172
0.00174326
0.00189108
0.00180445
0.00171565
0.00187571
0.00151581
0.00195137
0.00130294
0.0020305
0.00107767
0.00211999
0.000834515
0.0022141
0.000571667
0.00229914
0.000292941
0.00237154
0.00240949
0.00484041
-9.68357e-09
0.00483269
7.33785e-08
0.00485737
-7.24391e-07
0.00468652
-6.31755e-07
0.00481605
-6.32068e-06
0.00438618
1.29185e-05
0.00475539
-4.35739e-05
0.00457352
-7.68732e-05
0.0045872
-4.37864e-05
0.0045778
1.66704e-05
0.00453441
7.6204e-05
0.00447375
0.000129861
0.00444364
0.000184514
0.00444008
0.00023392
0.00445275
0.00028175
0.00446279
0.000329156
0.00445793
0.000372007
0.00443669
0.00041093
0.0044008
0.000447751
0.00435355
0.000484758
0.00429753
0.000524226
0.00423459
0.000567842
0.00416968
0.000617593
0.00410316
0.000675121
0.00403354
0.000741424
0.00395841
0.000816528
0.00387364
0.000899759
0.0037779
0.00098798
0.00367766
0.00108102
0.00357561
0.00117664
0.00347167
0.00127192
0.00336635
0.00136253
0.00326701
0.00144881
0.00316158
0.00152723
0.0030476
0.00159357
0.00292599
0.00164906
0.00279896
0.00169671
0.0026621
0.0017398
0.00251841
0.00178118
0.00237251
0.0018278
0.00222117
0.00188614
0.00205978
0.00195836
0.00188246
0.00204449
0.00167853
0.00213987
0.00145278
0.00223848
0.001212
0.00234987
0.00094723
0.002471
0.000654505
0.00258515
0.000336696
0.00268445
0.00273975
0.00501719
1.74119e-07
0.00502536
2.05715e-07
0.00502239
-1.97594e-08
0.00499303
1.41435e-06
0.00497397
-9.99852e-07
0.00524881
-1.14937e-05
0.00490975
3.57765e-06
0.0047387
-2.37237e-05
0.00472649
3.13767e-06
0.00470777
3.81425e-05
0.00467406
8.63172e-05
0.00461937
0.000139791
0.0045978
0.000194879
0.00459996
0.000246385
0.00461897
0.000296845
0.00462986
0.000345483
0.0046243
0.000389348
0.00460212
0.000429359
0.00456585
0.000467763
0.00451881
0.00050706
0.00446338
0.000549703
0.00440145
0.000597682
0.00433813
0.000652984
0.00427282
0.000717189
0.00420345
0.000791006
0.00412767
0.000874152
0.00404097
0.000965213
0.00394477
0.00106167
0.00384463
0.00116285
0.00374305
0.001266
0.00363955
0.00136771
0.00353656
0.00146354
0.00343898
0.00155502
0.00333528
0.00163638
0.0032242
0.00170491
0.00310643
0.00176259
0.00298379
0.0018128
0.00285259
0.00185982
0.00271259
0.00190619
0.00256924
0.00195908
0.00242008
0.00202626
0.00226036
0.00211057
0.00208344
0.00221339
0.00187921
0.00233176
0.00164245
0.00245685
0.00138462
0.0025951
0.00109597
0.00275123
0.000767924
0.00290637
0.000401476
0.00304711
0.00313501
0.0052028
-1.74215e-07
0.00522488
-5.52658e-07
0.00518626
6.18045e-07
0.00529872
-1.97953e-06
0.00522239
1.7964e-06
0.00482044
1.78097e-06
0.00517643
1.29928e-05
0.00495084
6.15401e-05
0.00494052
5.54435e-05
0.00490835
6.77442e-05
0.00485423
0.00010398
0.00479142
0.000153963
0.00477083
0.000207893
0.00477502
0.000259834
0.00479624
0.000311681
0.00480579
0.000360448
0.0047981
0.000404514
0.00477406
0.000445044
0.00473692
0.000484794
0.00469042
0.000526442
0.00463624
0.000572761
0.00457601
0.000625784
0.0045149
0.000687426
0.00445098
0.000759101
0.00438152
0.000841135
0.00430375
0.000932886
0.00421514
0.00103183
0.00411936
0.00113713
0.00401989
0.00124613
0.00391927
0.00135607
0.00381725
0.0014629
0.00371939
0.00156321
0.00362562
0.00165886
0.00352576
0.0017418
0.00341951
0.00181158
0.00330746
0.00187058
0.00319124
0.0019227
0.00306702
0.00197286
0.00293383
0.00202396
0.00279701
0.00208319
0.00265425
0.00215957
0.00249913
0.00225756
0.00232668
0.00237845
0.00212621
0.00252235
0.0018843
0.00268005
0.00161276
0.00285344
0.00130076
0.00305454
0.000931429
0.00326845
0.000495177
0.00347816
0.00362409
0.00540233
-1.0222e-07
0.00539217
5.59309e-07
0.00538889
3.44154e-07
0.00541017
6.83023e-06
0.00532617
1.10119e-06
0.00566702
4.72729e-06
0.00523255
2.42929e-05
0.00510903
7.85991e-05
0.00512409
9.52287e-05
0.00509875
9.93057e-05
0.00503378
0.000128825
0.00496992
0.000174134
0.00495274
0.00022472
0.00495943
0.000274997
0.00498126
0.00032619
0.00498865
0.000373948
0.00497818
0.000417268
0.00495209
0.00045782
0.00491401
0.000498933
0.00486809
0.000543233
0.00481521
0.000593797
0.00475678
0.000652629
0.00469804
0.000721563
0.00463499
0.000801641
0.00456445
0.000892503
0.0044842
0.000992715
0.00439631
0.00110056
0.00430214
0.00121409
0.00420471
0.00133033
0.00410613
0.00144594
0.00400781
0.00155638
0.00391766
0.0016611
0.00382901
0.00175765
0.00373541
0.00184036
0.00363654
0.00191009
0.00353272
0.00196957
0.00342553
0.00202317
0.00331162
0.00207487
0.00319017
0.00213067
0.00306193
0.0021982
0.00292751
0.00228432
0.00278208
0.00239487
0.0026204
0.00253401
0.00243087
0.0027043
0.00219642
0.00290114
0.0019154
0.00311884
0.00158557
0.00337572
0.00117604
0.00367137
0.000659573
0.00398991
0.00427804
0.00559979
3.82253e-07
0.00558068
1.75233e-07
0.00558464
4.78025e-07
0.00574087
-2.1605e-06
0.00561103
4.50046e-06
0.00585399
-2.28842e-06
0.00541661
4.12703e-05
0.00534287
0.000127054
0.00535454
0.000144872
0.00531482
0.000137818
0.0052362
0.000157353
0.0051692
0.00019951
0.00515157
0.000246506
0.00515916
0.000293706
0.0051781
0.000342143
0.00518048
0.000387346
0.00516522
0.000428688
0.00513638
0.000468639
0.00509587
0.000511267
0.00504875
0.000558918
0.00499609
0.000614198
0.00493914
0.000679679
0.00488247
0.000756866
0.00481947
0.000846116
0.0047476
0.000946208
0.00466556
0.00105517
0.00457798
0.00117129
0.00448685
0.00129166
0.00439425
0.00141344
0.004301
0.0015325
0.00421251
0.00164523
0.00413102
0.00175237
0.00404837
0.00184748
0.00396278
0.00192836
0.00387426
0.00199658
0.00378258
0.00205563
0.00368951
0.00210898
0.00359036
0.00216325
0.00348175
0.00222532
0.00336806
0.00229946
0.00324888
0.0023933
0.00311974
0.00251586
0.00297639
0.00267183
0.00280673
0.00286701
0.00259706
0.0031021
0.00232834
0.00337224
0.0020001
0.00369488
0.00156627
0.00409802
0.000956371
0.00459582
0.00522975
0.00580685
8.81973e-08
0.00582845
1.31117e-07
0.00578594
8.53145e-07
0.0058735
3.87502e-07
0.00580692
5.02319e-06
0.00542943
6.58751e-06
0.00576862
4.52086e-05
0.00552747
0.000163415
0.00555144
0.00018124
0.00553441
0.000169389
0.00545292
0.000188595
0.00538418
0.000228731
0.00536134
0.000272754
0.00536905
0.000315861
0.00538217
0.000360355
0.00537729
0.000401834
0.00535666
0.000439812
0.00532537
0.000479026
0.00528195
0.000523485
0.00523223
0.000575068
0.00517671
0.000636524
0.00511859
0.000709793
0.00506145
0.000796024
0.00499719
0.000894807
0.00492549
0.00100405
0.00484491
0.00112148
0.00475807
0.00124434
0.00466976
0.00136961
0.00458237
0.00149407
0.00449753
0.00161365
0.00442341
0.00172744
0.00435494
0.0018329
0.00428484
0.00192467
0.00421235
0.00200243
0.00413791
0.00206827
0.00406315
0.00212424
0.00398657
0.00217766
0.00390491
0.0022361
0.00381717
0.00230265
0.00372035
0.00238153
0.00362089
0.00248206
0.00351522
0.00261278
0.00340023
0.00277974
0.00326931
0.00299464
0.00310271
0.00325972
0.00288167
0.00358018
0.0025984
0.0039678
0.0022082
0.00448092
0.00160562
0.00519576
0.00683111
0.0083978
1.67662e-07
0.00841631
3.16121e-07
0.00835141
4.09859e-07
0.00854632
-4.08117e-07
0.00839393
5.71124e-06
0.00785683
2.98114e-06
0.0083529
5.32504e-05
0.00808514
0.000196592
0.00810788
0.000225956
0.00805862
0.000215269
0.00792416
0.000236497
0.00782154
0.000273358
0.00778011
0.000315246
0.00779316
0.000351691
0.00779882
0.000390423
0.00777395
0.000426423
0.00772995
0.000460104
0.00767028
0.000499641
0.00760033
0.000547077
0.00752744
0.000605898
0.00744637
0.000677652
0.00736351
0.000762882
0.00728205
0.000861728
0.00719128
0.000971951
0.00709407
0.0010906
0.00699224
0.00121495
0.00688804
0.00134193
0.00678581
0.00146849
0.00668875
0.0015914
0.0066059
0.00170808
0.00653722
0.00181673
0.00647233
0.00191345
0.00640804
0.00199709
0.00634327
0.00206844
0.00627839
0.00212759
0.00621164
0.00218115
0.00614165
0.00223605
0.00607284
0.00229498
0.00600136
0.0023643
0.00592215
0.00245017
0.00583356
0.00255527
0.00574556
0.00268896
0.00565766
0.00285787
0.00557752
0.00306879
0.00550537
0.00333481
0.00541553
0.00365729
0.0053394
0.00403047
0.00536947
0.00443872
0.00574661
0.00481178
0.00476312
0.00781476
0.0083935
1.43956e-07
0.00841392
2.60208e-07
0.00838345
1.69403e-06
0.00836019
2.79835e-06
0.00837956
5.35465e-06
0.00781941
8.98294e-06
0.00829757
5.36557e-05
0.00818578
0.000192565
0.00819529
0.000227414
0.00810816
0.00023939
0.00796295
0.000276549
0.00786883
0.000325912
0.00782167
0.000368373
0.00782884
0.000400693
0.00780939
0.000431829
0.00776015
0.000459354
0.00769818
0.000489461
0.00762351
0.000529388
0.00754751
0.000581777
0.00747004
0.00064928
0.0073907
0.00073171
0.00731719
0.000827981
0.00724468
0.000936386
0.007166
0.00105328
0.0070847
0.00117545
0.00700439
0.0013002
0.00692948
0.00142474
0.00686362
0.00154647
0.00680836
0.00166229
0.00676446
0.00176986
0.00672855
0.00186725
0.00669804
0.0019531
0.00667069
0.00202755
0.00664624
0.00208983
0.00662098
0.00214577
0.00659038
0.00219893
0.00656398
0.00225209
0.00654068
0.00231052
0.006521
0.00237999
0.00650026
0.00246639
0.00647661
0.00257165
0.00645686
0.00270135
0.00644893
0.00285806
0.00646339
0.00304704
0.00652565
0.00326877
0.0066628
0.00352526
0.00688236
0.00380511
0.00725907
0.00405104
0.00780807
0.0042456
0.0039833
0.00857285
0.00839539
6.98597e-07
0.0083485
-2.24403e-08
0.00845951
5.18962e-08
0.00817392
5.44047e-06
0.00830839
2.88768e-06
0.00795915
1.57254e-05
0.00833956
1.83679e-05
0.00826755
9.62562e-05
0.00828688
0.000197663
0.00819548
0.000273416
0.00804821
0.000351916
0.00794449
0.000399283
0.00789442
0.000437435
0.00785931
0.000466115
0.00779265
0.000488624
0.0077112
0.000508856
0.00762458
0.000537121
0.00753903
0.000577836
0.00746065
0.000634854
0.00738616
0.000708925
0.00731538
0.000798261
0.00725264
0.00089997
0.00719054
0.00101097
0.00713239
0.00112728
0.00708214
0.00124611
0.00704169
0.0013646
0.00701203
0.00148033
0.00699061
0.00159085
0.00697732
0.00169407
0.00697141
0.00178837
0.00697221
0.00187291
0.00697859
0.00194756
0.00699104
0.00201118
0.00700227
0.00206892
0.0070091
0.00212314
0.00702042
0.00217299
0.00703515
0.00222565
0.00705242
0.002284
0.00707412
0.00235193
0.00710279
0.00243473
0.00713641
0.00253467
0.00717837
0.00265276
0.00723785
0.00279064
0.00732892
0.00294709
0.00746499
0.00312204
0.00768216
0.00330084
0.00800007
0.00348855
0.00842197
0.00363215
0.0089334
0.00372749
0.0036067
0.00929726
0.00838072
5.23964e-07
0.00840648
-1.83908e-06
0.00834198
2.41181e-06
0.00852059
3.50428e-07
0.00841268
-2.07685e-06
0.0088806
-6.66491e-06
0.00836513
-3.03126e-06
0.00838111
6.59276e-06
0.00835508
0.000195914
0.00821089
0.000338711
0.00803955
0.00043898
0.0079575
0.000487846
0.00789715
0.000515251
0.00781758
0.000536551
0.00772004
0.000551752
0.00762265
0.000568013
0.00752732
0.000596127
0.00744208
0.000638994
0.00736989
0.000699381
0.0073102
0.000776784
0.00725969
0.000867813
0.00721863
0.000968536
0.00718572
0.0010751
0.00716467
0.00118388
0.00715422
0.00129189
0.00715339
0.001397
0.00716277
0.0014978
0.00718029
0.00159267
0.00720499
0.00168041
0.00723605
0.00176068
0.00727432
0.00183327
0.00731504
0.00189716
0.00735339
0.00195534
0.0073936
0.00200976
0.00743515
0.00206015
0.00747916
0.00210948
0.00752542
0.00216274
0.00757397
0.00222135
0.00762664
0.00228796
0.0076893
0.00236515
0.00776225
0.00245687
0.00784819
0.00255974
0.0079521
0.00267884
0.00808708
0.00280243
0.00825917
0.00293849
0.00848574
0.00306292
0.00878489
0.00318369
0.00914515
0.00326723
0.00957489
0.00329483
0.0032334
0.00993767
0.00839036
1.20209e-08
0.00842537
2.52547e-07
0.00831389
2.28079e-06
0.00818112
8.09035e-06
0.0084654
1.5602e-05
0.00813812
-2.22159e-05
0.00858112
4.28594e-05
0.00824743
-0.000106734
0.00826748
0.000102068
0.00816062
0.000364877
0.00806332
0.000487231
0.00798913
0.000562603
0.00789783
0.000603011
0.00778223
0.000624986
0.00765699
0.000640787
0.00753643
0.000656948
0.00742898
0.000683229
0.0073375
0.000723087
0.00726791
0.000778104
0.00722685
0.000849384
0.00720533
0.000931792
0.00720018
0.0010216
0.00721058
0.00111446
0.00723347
0.00120675
0.00726811
0.00129692
0.00731287
0.00138388
0.00736544
0.00146725
0.007424
0.00154534
0.00748831
0.00161869
0.00755774
0.00168711
0.00762825
0.00175043
0.00769483
0.00181004
0.00776032
0.00186575
0.00782594
0.00191817
0.00788921
0.00196927
0.00795295
0.00202066
0.0080188
0.00207593
0.00808647
0.00213561
0.00815709
0.00220151
0.00823549
0.00227438
0.00832713
0.00235817
0.00843558
0.002447
0.00855914
0.00254782
0.00870726
0.00264552
0.00888534
0.00274864
0.00909412
0.00283824
0.00935098
0.00291356
0.00964518
0.00295815
0.0099708
0.00295913
0.00289373
0.0103023
0.00838372
-1.37466e-07
0.00842638
4.63167e-06
0.00845601
4.18187e-06
0.00869123
3.83834e-06
0.00852526
8.98792e-05
0.00830645
-0.000171782
0.00829483
0.000181132
0.00839991
-0.000691578
0.00847279
-4.72817e-05
0.00831191
0.000458548
0.00814116
0.00066377
0.00802855
0.000704364
0.007917
0.000728708
0.00777957
0.000752136
0.00763268
0.000767908
0.00749273
0.000784339
0.00737077
0.000804824
0.00727717
0.000833137
0.00723799
0.00087217
0.00723123
0.000921613
0.00724885
0.000979959
0.00728346
0.00104395
0.00732926
0.00111066
0.00738726
0.00117895
0.00745647
0.00124764
0.00753645
0.00131633
0.00761951
0.00138331
0.00771008
0.00144824
0.00780596
0.00151101
0.00790395
0.00157189
0.0079992
0.00163147
0.00808883
0.00168947
0.00817508
0.00174588
0.00825596
0.00180166
0.00833127
0.00185734
0.00840625
0.00191419
0.00848031
0.00197379
0.00855465
0.00203665
0.00863227
0.00210426
0.00871604
0.00217455
0.00881335
0.00225236
0.00892428
0.00233132
0.00905484