/*--------------------------------*- C++ -*----------------------------------*\
| =========                 |                                                 |
| \\      /  F ield         | OpenFOAM: The Open Source CFD Toolbox           |
|  \\    /   O peration     | Version:  2412                                  |
|   \\  /    A nd           | Website:  www.openfoam.com                      |
|    \\/     M anipulation  |                                                 |
\*---------------------------------------------------------------------------*/
FoamFile
{
    version     2.0;
    format      ascii;
    arch        "LSB;label=32;scalar=64";
    class       volVectorField;
    location    "8.5";
    object      U;
}
// * * * * * * * * * * * * * * * * * * * * * * * * * * * * * * * * * * * * * //

dimensions      [0 1 -1 0 0 0 0];

internalField   nonuniform List<vector> 
7000
(
(2.99832 -1.76924e-05 0)
(2.99445 -0.000172063 0)
(2.98889 -0.000110753 0)
(2.95848 0.000158332 0)
(2.93654 0.000517565 0)
(2.69096 0.000809393 0)
(1.95006 0.000442662 0)
(1.093 -0.00530399 0)
(0.511788 -0.00220855 0)
(0.616918 -0.000666843 0)
(0.724607 0.000156609 0)
(0.765766 0.000416365 0)
(0.768562 0.000640962 0)
(0.7575 0.000884835 0)
(0.740552 0.00115527 0)
(0.727864 0.00143345 0)
(0.71946 0.00168629 0)
(0.711951 0.00193666 0)
(0.703239 0.00216271 0)
(0.692709 0.00237619 0)
(0.680501 0.00259269 0)
(0.666784 0.00282664 0)
(0.65178 0.00309617 0)
(0.635721 0.00341816 0)
(0.618741 0.00380593 0)
(0.600961 0.00426775 0)
(0.582521 0.00477548 0)
(0.562967 0.00528158 0)
(0.542037 0.00586221 0)
(0.52015 0.00633067 0)
(0.497374 0.00671579 0)
(0.473622 0.00700182 0)
(0.449687 0.0071082 0)
(0.425908 0.00712342 0)
(0.40191 0.0070639 0)
(0.378009 0.00695051 0)
(0.354379 0.00682241 0)
(0.330675 0.00674448 0)
(0.306909 0.00669843 0)
(0.283338 0.00673965 0)
(0.25992 0.00692132 0)
(0.236439 0.00731749 0)
(0.211424 0.00794957 0)
(0.184149 0.00871689 0)
(0.155048 0.00950626 0)
(0.124533 0.0100694 0)
(0.0938304 0.010182 0)
(0.0638754 0.00988761 0)
(0.0347836 0.0092319 0)
(0.0135653 0.00775955 0)
(2.99824 -3.44489e-05 0)
(2.99439 -0.000112803 0)
(2.98908 -0.000305001 0)
(2.95887 0.000296814 0)
(2.93689 -0.000436 0)
(2.68842 0.000924158 0)
(1.94828 -0.00317037 0)
(1.09529 -0.00961123 0)
(0.510917 -0.00510799 0)
(0.61529 -0.00237326 0)
(0.723527 -0.000520425 0)
(0.76489 0.000618385 0)
(0.767898 0.00166282 0)
(0.75702 0.00262729 0)
(0.740251 0.00352552 0)
(0.727701 0.00438251 0)
(0.719397 0.00512809 0)
(0.711955 0.00584931 0)
(0.703281 0.00648262 0)
(0.692796 0.0070637 0)
(0.680662 0.00762924 0)
(0.667077 0.0082082 0)
(0.652306 0.00883643 0)
(0.636633 0.00954868 0)
(0.620256 0.0103748 0)
(0.60335 0.0113376 0)
(0.586085 0.0124075 0)
(0.568099 0.0135195 0)
(0.54902 0.0147954 0)
(0.529124 0.0159672 0)
(0.508416 0.0170524 0)
(0.486524 0.0180148 0)
(0.464057 0.0186968 0)
(0.44124 0.0191866 0)
(0.417553 0.0195042 0)
(0.393285 0.0196744 0)
(0.368694 0.0197499 0)
(0.34349 0.0198862 0)
(0.31776 0.0200395 0)
(0.291916 0.0202814 0)
(0.266095 0.0206699 0)
(0.240357 0.0212803 0)
(0.213531 0.0221791 0)
(0.185235 0.0231589 0)
(0.15613 0.024069 0)
(0.126434 0.0245758 0)
(0.0968363 0.0243672 0)
(0.0676104 0.0234762 0)
(0.0383586 0.0220032 0)
(0.0158739 0.0193372 0)
(2.99826 7.63922e-06 0)
(2.99428 0.000149817 0)
(2.98912 -5.8214e-05 0)
(2.9584 -5.7107e-05 0)
(2.93657 -0.000445008 0)
(2.69303 0.000824159 0)
(1.94573 -0.00618737 0)
(1.09105 -0.0135138 0)
(0.509553 -0.00759006 0)
(0.614516 -0.00397666 0)
(0.722057 -0.00130452 0)
(0.762758 0.000779952 0)
(0.765529 0.00261969 0)
(0.754841 0.00432394 0)
(0.73856 0.0058165 0)
(0.726558 0.00726724 0)
(0.718723 0.00857748 0)
(0.711621 0.00983406 0)
(0.703151 0.0109369 0)
(0.692808 0.0119402 0)
(0.680782 0.0129004 0)
(0.667291 0.0138653 0)
(0.652625 0.0148906 0)
(0.637083 0.0160319 0)
(0.620888 0.0173362 0)
(0.604225 0.018833 0)
(0.587271 0.020521 0)
(0.569716 0.0223647 0)
(0.551155 0.024337 0)
(0.53182 0.0263285 0)
(0.511721 0.0282334 0)
(0.490381 0.029966 0)
(0.468344 0.0314098 0)
(0.445829 0.0325446 0)
(0.422256 0.0334256 0)
(0.397897 0.0340864 0)
(0.373087 0.0345609 0)
(0.347572 0.0350297 0)
(0.321455 0.0354983 0)
(0.295231 0.0360393 0)
(0.269062 0.0367347 0)
(0.243064 0.0376453 0)
(0.216088 0.0389175 0)
(0.187808 0.0403065 0)
(0.158991 0.0415347 0)
(0.129729 0.0422079 0)
(0.100446 0.0419948 0)
(0.0711519 0.04096 0)
(0.0411413 0.0392824 0)
(0.0174066 0.0363574 0)
(2.99831 0.000134037 0)
(2.99437 0.000158274 0)
(2.98896 -0.000222604 0)
(2.95864 -0.000654596 0)
(2.93749 -0.00121519 0)
(2.68503 -0.0089574 0)
(1.93614 -0.0061292 0)
(1.08998 -0.0180594 0)
(0.513639 -0.00941274 0)
(0.616038 -0.00432269 0)
(0.722832 -0.00105285 0)
(0.763199 0.00148147 0)
(0.765819 0.00376418 0)
(0.755033 0.00603785 0)
(0.738734 0.00803368 0)
(0.726797 0.0100667 0)
(0.71902 0.0119837 0)
(0.711951 0.0138224 0)
(0.703478 0.0154305 0)
(0.693149 0.0168808 0)
(0.681152 0.0182483 0)
(0.667704 0.0196007 0)
(0.653096 0.0210151 0)
(0.637627 0.0225691 0)
(0.621509 0.0243269 0)
(0.604922 0.0263246 0)
(0.588041 0.0285863 0)
(0.570538 0.0311132 0)
(0.552039 0.0337654 0)
(0.532784 0.036562 0)
(0.512752 0.0393184 0)
(0.491472 0.0418954 0)
(0.46946 0.0441862 0)
(0.446955 0.0460793 0)
(0.423401 0.0476051 0)
(0.399058 0.0487906 0)
(0.374315 0.0496785 0)
(0.348953 0.0504416 0)
(0.323048 0.0511675 0)
(0.297098 0.0519539 0)
(0.271234 0.0529148 0)
(0.245585 0.0540998 0)
(0.218982 0.055689 0)
(0.19102 0.0574422 0)
(0.162505 0.0589553 0)
(0.133432 0.0598267 0)
(0.104057 0.0597428 0)
(0.0743122 0.0587991 0)
(0.0433291 0.0572097 0)
(0.0184634 0.0543918 0)
(2.99839 5.36699e-06 0)
(2.99406 -9.74818e-05 0)
(2.98862 1.41968e-05 0)
(2.95769 -0.000415024 0)
(2.93181 -0.000897912 0)
(2.68086 -0.00541221 0)
(1.92791 -0.00714552 0)
(1.0753 -0.02156 0)
(0.507004 -0.0116421 0)
(0.61417 -0.00565195 0)
(0.722809 -0.00179072 0)
(0.763972 0.00171312 0)
(0.766876 0.00493757 0)
(0.755969 0.00802602 0)
(0.739461 0.0106317 0)
(0.727421 0.0132494 0)
(0.719576 0.015722 0)
(0.712457 0.0180838 0)
(0.703932 0.020149 0)
(0.693609 0.0220202 0)
(0.681647 0.0237869 0)
(0.668254 0.0255322 0)
(0.653716 0.0273527 0)
(0.638327 0.0293476 0)
(0.622282 0.0315981 0)
(0.605753 0.0341491 0)
(0.58892 0.0370331 0)
(0.571413 0.0402611 0)
(0.552916 0.0436712 0)
(0.533707 0.0472951 0)
(0.513722 0.0509164 0)
(0.492536 0.0543608 0)
(0.470661 0.0574843 0)
(0.448338 0.0601415 0)
(0.42502 0.0623069 0)
(0.400943 0.0639976 0)
(0.376493 0.0652765 0)
(0.351436 0.0663145 0)
(0.325803 0.0672579 0)
(0.300082 0.0682501 0)
(0.274384 0.0694494 0)
(0.248904 0.0709174 0)
(0.222514 0.0728337 0)
(0.194692 0.0749863 0)
(0.166255 0.0768607 0)
(0.137136 0.0780454 0)
(0.107435 0.0782522 0)
(0.0770659 0.0775987 0)
(0.0450502 0.0762953 0)
(0.0191783 0.0737841 0)
(2.99826 -0.000123637 0)
(2.99437 -0.000162716 0)
(2.98874 0.000162411 0)
(2.95803 -0.000373324 0)
(2.93457 2.67419e-05 0)
(2.68159 -0.00129873 0)
(1.91903 -0.00868201 0)
(1.07627 -0.0260307 0)
(0.516247 -0.0146893 0)
(0.619015 -0.00736866 0)
(0.72547 -0.0024596 0)
(0.765643 0.00223391 0)
(0.767829 0.00655419 0)
(0.756402 0.010485 0)
(0.739688 0.0136825 0)
(0.727732 0.0168058 0)
(0.719998 0.0197604 0)
(0.712946 0.0225511 0)
(0.704445 0.0250191 0)
(0.69418 0.0272846 0)
(0.682295 0.0294435 0)
(0.668996 0.0315884 0)
(0.654577 0.0338303 0)
(0.639326 0.0362881 0)
(0.623422 0.0390593 0)
(0.607024 0.0422003 0)
(0.590309 0.0457383 0)
(0.572873 0.0496723 0)
(0.55445 0.0538833 0)
(0.535348 0.0583359 0)
(0.515476 0.0628161 0)
(0.494457 0.0671185 0)
(0.47281 0.0710499 0)
(0.450779 0.0744554 0)
(0.427819 0.0772669 0)
(0.404123 0.0794904 0)
(0.380041 0.0812014 0)
(0.355299 0.0825772 0)
(0.329874 0.0837952 0)
(0.304244 0.0850437 0)
(0.278514 0.0865183 0)
(0.252959 0.0883093 0)
(0.226561 0.0905867 0)
(0.198673 0.0932056 0)
(0.170086 0.095566 0)
(0.140719 0.0972195 0)
(0.110554 0.0978811 0)
(0.0794977 0.0976759 0)
(0.0464697 0.0967855 0)
(0.0196894 0.0946948 0)
(2.99825 -5.29204e-05 0)
(2.99423 -6.87144e-05 0)
(2.98845 -0.000406904 0)
(2.95761 0.000671147 0)
(2.93108 -0.00305602 0)
(2.67851 -0.0070968 0)
(1.90892 -0.01461 0)
(1.06676 -0.0309216 0)
(0.517308 -0.0182634 0)
(0.619573 -0.00796883 0)
(0.725087 -0.00122473 0)
(0.764831 0.00415586 0)
(0.766773 0.00904329 0)
(0.755287 0.0134375 0)
(0.738869 0.0170263 0)
(0.727482 0.0205481 0)
(0.720195 0.0239577 0)
(0.713404 0.0271381 0)
(0.705039 0.0299896 0)
(0.694893 0.0326408 0)
(0.683117 0.0351899 0)
(0.669936 0.0377376 0)
(0.655663 0.0404096 0)
(0.64059 0.0433456 0)
(0.624879 0.0466599 0)
(0.608668 0.0504253 0)
(0.592124 0.0546559 0)
(0.574833 0.0593282 0)
(0.556555 0.0643767 0)
(0.537607 0.0696811 0)
(0.517894 0.0750295 0)
(0.497062 0.0801862 0)
(0.47565 0.0849122 0)
(0.453906 0.0890532 0)
(0.431272 0.0925138 0)
(0.407918 0.0952953 0)
(0.384164 0.0974892 0)
(0.359697 0.0992766 0)
(0.334453 0.100854 0)
(0.308889 0.102438 0)
(0.283088 0.104248 0)
(0.257382 0.106412 0)
(0.230891 0.109089 0)
(0.202855 0.112241 0)
(0.173993 0.115185 0)
(0.144249 0.117449 0)
(0.113529 0.118725 0)
(0.0817519 0.119105 0)
(0.0477335 0.118722 0)
(0.0200934 0.117101 0)
(2.9982 4.46827e-05 0)
(2.9941 -5.42591e-05 0)
(2.98926 0.000153685 0)
(2.95608 0.00054989 0)
(2.92884 -0.0013481 0)
(2.68056 -0.00164066 0)
(1.897 -0.0145807 0)
(1.05471 -0.0349485 0)
(0.509591 -0.0208807 0)
(0.614549 -0.00960765 0)
(0.721509 -0.00153856 0)
(0.762128 0.00518654 0)
(0.764767 0.0111842 0)
(0.753685 0.0162412 0)
(0.737818 0.0203333 0)
(0.727185 0.0243006 0)
(0.720436 0.028203 0)
(0.713931 0.0317821 0)
(0.705741 0.0350184 0)
(0.695745 0.0380581 0)
(0.684099 0.0410042 0)
(0.671054 0.0439649 0)
(0.656948 0.0470806 0)
(0.642076 0.0505146 0)
(0.626587 0.0543975 0)
(0.61059 0.0588184 0)
(0.594233 0.0637799 0)
(0.577118 0.0692364 0)
(0.559017 0.0751457 0)
(0.540239 0.081339 0)
(0.520694 0.0875727 0)
(0.500035 0.093585 0)
(0.478823 0.0991184 0)
(0.457307 0.103986 0)
(0.434922 0.1081 0)
(0.411839 0.111467 0)
(0.38836 0.114185 0)
(0.36415 0.116442 0)
(0.339112 0.118456 0)
(0.313672 0.12045 0)
(0.287869 0.122662 0)
(0.262048 0.125257 0)
(0.235485 0.128396 0)
(0.207298 0.132181 0)
(0.178093 0.135819 0)
(0.147895 0.138832 0)
(0.116563 0.140878 0)
(0.0840333 0.141974 0)
(0.0490144 0.142167 0)
(0.0204878 0.141007 0)
(2.99823 0.000160728 0)
(2.99434 0.000196768 0)
(2.98889 9.28463e-05 0)
(2.95644 -0.000486126 0)
(2.92951 -0.000192906 0)
(2.66961 -0.00112588 0)
(1.87542 -0.0162026 0)
(1.04796 -0.0390696 0)
(0.519092 -0.0227392 0)
(0.618519 -0.0111376 0)
(0.72262 -0.00209223 0)
(0.762233 0.0061228 0)
(0.76424 0.0133321 0)
(0.752808 0.0190832 0)
(0.737163 0.0237649 0)
(0.727133 0.0281765 0)
(0.720832 0.0325275 0)
(0.714552 0.0364704 0)
(0.70655 0.0400685 0)
(0.696739 0.0434839 0)
(0.685262 0.0468299 0)
(0.672387 0.0502197 0)
(0.658483 0.0537975 0)
(0.64385 0.0577539 0)
(0.628618 0.0622381 0)
(0.612863 0.0673484 0)
(0.596702 0.0730777 0)
(0.579768 0.0793694 0)
(0.561853 0.0861718 0)
(0.543242 0.0932923 0)
(0.523848 0.100443 0)
(0.503347 0.107337 0)
(0.482298 0.113707 0)
(0.460958 0.119315 0)
(0.43878 0.124094 0)
(0.415934 0.128063 0)
(0.392716 0.131322 0)
(0.368784 0.134078 0)
(0.344007 0.136576 0)
(0.318766 0.13904 0)
(0.293046 0.141725 0)
(0.267167 0.144833 0)
(0.240585 0.148533 0)
(0.212271 0.15306 0)
(0.182667 0.157551 0)
(0.151947 0.161493 0)
(0.119923 0.164484 0)
(0.0865617 0.166427 0)
(0.0504503 0.167266 0)
(0.0209254 0.166552 0)
(2.99839 -1.39204e-05 0)
(2.99409 5.0342e-05 0)
(2.98882 -0.000436009 0)
(2.95576 -0.000968427 0)
(2.92865 -0.00344831 0)
(2.66354 -0.00218688 0)
(1.85473 -0.0230257 0)
(1.03802 -0.04015 0)
(0.520928 -0.0244811 0)
(0.619041 -0.0117439 0)
(0.722554 -0.00150399 0)
(0.761952 0.00778612 0)
(0.763593 0.0158409 0)
(0.75193 0.0222315 0)
(0.736581 0.0275395 0)
(0.727181 0.0323433 0)
(0.721358 0.0370262 0)
(0.715316 0.041239 0)
(0.707533 0.0451362 0)
(0.69794 0.0488884 0)
(0.686665 0.0526204 0)
(0.673986 0.0564597 0)
(0.660315 0.0605257 0)
(0.645966 0.0650379 0)
(0.631039 0.0701661 0)
(0.615563 0.0760075 0)
(0.599619 0.0825495 0)
(0.582878 0.0897359 0)
(0.56515 0.0974712 0)
(0.546697 0.10556 0)
(0.527446 0.113669 0)
(0.507104 0.121479 0)
(0.486217 0.128699 0)
(0.465053 0.135066 0)
(0.4431 0.140516 0)
(0.420515 0.145082 0)
(0.397592 0.148886 0)
(0.373994 0.152156 0)
(0.34955 0.155174 0)
(0.324582 0.158171 0)
(0.299019 0.16142 0)
(0.273127 0.165158 0)
(0.246552 0.169558 0)
(0.218133 0.174945 0)
(0.188091 0.180476 0)
(0.156764 0.185548 0)
(0.123933 0.189681 0)
(0.089598 0.192643 0)
(0.0522268 0.194228 0)
(0.0215006 0.193959 0)
(2.99826 -0.000125451 0)
(2.99401 -0.000244088 0)
(2.98806 -0.000391816 0)
(2.95409 0.000734497 0)
(2.92784 -0.00307436 0)
(2.66212 0.00221669 0)
(1.845 -0.0215398 0)
(1.02823 -0.0374268 0)
(0.520383 -0.0246747 0)
(0.61839 -0.0125251 0)
(0.721228 -0.00163826 0)
(0.760113 0.00910674 0)
(0.761269 0.0181749 0)
(0.749739 0.0252992 0)
(0.735144 0.0312093 0)
(0.726733 0.036444 0)
(0.72166 0.0414479 0)
(0.71603 0.0459323 0)
(0.708593 0.0501238 0)
(0.699301 0.0542024 0)
(0.688299 0.0583166 0)
(0.675869 0.0626202 0)
(0.662471 0.0672022 0)
(0.648463 0.0723115 0)
(0.633901 0.078137 0)
(0.618754 0.0847654 0)
(0.603074 0.0921877 0)
(0.586541 0.100337 0)
(0.569008 0.109072 0)
(0.550731 0.11818 0)
(0.531633 0.127293 0)
(0.511467 0.136045 0)
(0.490773 0.144117 0)
(0.469828 0.151246 0)
(0.448153 0.157359 0)
(0.425896 0.162511 0)
(0.40334 0.166855 0)
(0.380159 0.170652 0)
(0.356134 0.174223 0)
(0.331526 0.177822 0)
(0.306202 0.18174 0)
(0.280346 0.186248 0)
(0.253789 0.191517 0)
(0.225283 0.197929 0)
(0.194772 0.204736 0)
(0.162736 0.211205 0)
(0.128953 0.216744 0)
(0.0934409 0.22095 0)
(0.0545256 0.223429 0)
(0.0222731 0.223621 0)
(2.99816 0.000132858 0)
(2.99385 -2.19053e-05 0)
(2.98961 -0.000331051 0)
(2.95346 0.000403255 0)
(2.92928 -0.00125702 0)
(2.66268 -0.00395138 0)
(1.83157 -0.0134068 0)
(1.02607 -0.0374437 0)
(0.532036 -0.0231808 0)
(0.623039 -0.0105394 0)
(0.72243 0.000482876 0)
(0.759977 0.0112822 0)
(0.760096 0.0205517 0)
(0.748423 0.028049 0)
(0.734362 0.0344056 0)
(0.726723 0.040196 0)
(0.722219 0.0455865 0)
(0.716921 0.050417 0)
(0.709812 0.0549319 0)
(0.700841 0.0593451 0)
(0.690157 0.0638503 0)
(0.678016 0.0686256 0)
(0.664926 0.0737589 0)
(0.651311 0.0795203 0)
(0.637165 0.0861075 0)
(0.622394 0.0935957 0)
(0.607025 0.101975 0)
(0.590744 0.111149 0)
(0.573443 0.120959 0)
(0.555383 0.131138 0)
(0.536484 0.141294 0)
(0.516542 0.151014 0)
(0.496114 0.159937 0)
(0.475473 0.167825 0)
(0.45416 0.174587 0)
(0.432322 0.180307 0)
(0.410231 0.185187 0)
(0.387564 0.189524 0)
(0.364065 0.193687 0)
(0.339923 0.197963 0)
(0.314946 0.202668 0)
(0.289205 0.208107 0)
(0.262692 0.21446 0)
(0.234147 0.222105 0)
(0.203187 0.230474 0)
(0.170351 0.23867 0)
(0.135425 0.245953 0)
(0.0984486 0.251723 0)
(0.0575949 0.255335 0)
(0.0233594 0.256052 0)
(2.99826 6.66291e-05 0)
(2.9936 0.000262354 0)
(2.98837 -0.000128444 0)
(2.95325 -0.000921546 0)
(2.92472 -0.00158004 0)
(2.64767 -0.00391827 0)
(1.80254 -0.0158118 0)
(1.00939 -0.0367317 0)
(0.534006 -0.0223952 0)
(0.623763 -0.0080858 0)
(0.722157 0.00392109 0)
(0.759453 0.014411 0)
(0.759287 0.0236113 0)
(0.747639 0.031164 0)
(0.734123 0.0377211 0)
(0.727143 0.0439462 0)
(0.723039 0.0496294 0)
(0.718016 0.0547536 0)
(0.711212 0.0595561 0)
(0.702582 0.064287 0)
(0.692258 0.0691794 0)
(0.680449 0.0744275 0)
(0.667713 0.0801612 0)
(0.654532 0.0866377 0)
(0.640835 0.094054 0)
(0.626469 0.102477 0)
(0.611436 0.111893 0)
(0.595439 0.122154 0)
(0.578415 0.133104 0)
(0.560621 0.144408 0)
(0.541991 0.15563 0)
(0.522351 0.166322 0)
(0.502291 0.1761 0)
(0.482072 0.184721 0)
(0.461232 0.192104 0)
(0.439939 0.198373 0)
(0.418442 0.203779 0)
(0.396421 0.208666 0)
(0.373585 0.213475 0)
(0.350053 0.218521 0)
(0.325573 0.224157 0)
(0.300088 0.230721 0)
(0.273674 0.238414 0)
(0.245159 0.247569 0)
(0.213823 0.257871 0)
(0.180117 0.268221 0)
(0.143862 0.277701 0)
(0.10508 0.285485 0)
(0.0617406 0.290609 0)
(0.0248649 0.292031 0)
(2.99837 -7.86033e-05 0)
(2.99365 1.65383e-05 0)
(2.98859 3.4695e-05 0)
(2.95238 -0.000635717 0)
(2.92684 0.000315223 0)
(2.65386 0.000104354 0)
(1.79211 -0.0118432 0)
(1.00431 -0.0290121 0)
(0.533682 -0.0171545 0)
(0.621075 -0.00454096 0)
(0.719088 0.00700125 0)
(0.756806 0.0170356 0)
(0.757189 0.0261583 0)
(0.746159 0.0337734 0)
(0.733699 0.0405848 0)
(0.727622 0.0472399 0)
(0.723956 0.0532694 0)
(0.719237 0.0587258 0)
(0.712758 0.0638516 0)
(0.7045 0.0689338 0)
(0.694576 0.0742422 0)
(0.683162 0.0799909 0)
(0.670841 0.0863837 0)
(0.658129 0.0936479 0)
(0.644901 0.101968 0)
(0.630958 0.111401 0)
(0.616261 0.121928 0)
(0.600563 0.133342 0)
(0.583853 0.14548 0)
(0.566371 0.157943 0)
(0.548078 0.170243 0)
(0.528847 0.181893 0)
(0.50928 0.192519 0)
(0.489617 0.201836 0)
(0.469411 0.209805 0)
(0.448832 0.216599 0)
(0.4281 0.222519 0)
(0.406911 0.227956 0)
(0.384932 0.233481 0)
(0.362203 0.239396 0)
(0.338429 0.246123 0)
(0.313407 0.254034 0)
(0.28722 0.263368 0)
(0.258877 0.274369 0)
(0.227325 0.287114 0)
(0.192728 0.300191 0)
(0.154953 0.312542 0)
(0.113964 0.323039 0)
(0.0674493 0.330264 0)
(0.0270492 0.332682 0)
(2.99823 -7.21118e-06 0)
(2.99369 -0.000125409 0)
(2.98774 -0.000346196 0)
(2.95355 -0.00129734 0)
(2.92532 -0.0011983 0)
(2.64256 -0.00384537 0)
(1.77051 -0.0102636 0)
(1.00111 -0.0205326 0)
(0.543271 -0.00991736 0)
(0.626262 2.28692e-05 0)
(0.722128 0.0100596 0)
(0.758738 0.0194103 0)
(0.758473 0.0284331 0)
(0.747077 0.0362147 0)
(0.734953 0.0433293 0)
(0.729203 0.0502991 0)
(0.725555 0.05661 0)
(0.720901 0.0623543 0)
(0.714618 0.0677881 0)
(0.706683 0.0732303 0)
(0.697157 0.0789872 0)
(0.686183 0.0852939 0)
(0.674342 0.092408 0)
(0.66213 0.100545 0)
(0.649377 0.109864 0)
(0.63585 0.120391 0)
(0.621466 0.132096 0)
(0.606046 0.144717 0)
(0.589658 0.158082 0)
(0.572518 0.171722 0)
(0.554631 0.1851 0)
(0.535937 0.197672 0)
(0.517027 0.209102 0)
(0.498098 0.219075 0)
(0.478734 0.227575 0)
(0.459092 0.234849 0)
(0.439339 0.241265 0)
(0.419237 0.24727 0)
(0.398374 0.253545 0)
(0.376689 0.260442 0)
(0.353904 0.268437 0)
(0.329648 0.27795 0)
(0.303896 0.289283 0)
(0.275994 0.302604 0)
(0.244509 0.318287 0)
(0.209093 0.334854 0)
(0.169713 0.350999 0)
(0.126067 0.365268 0)
(0.0754158 0.375652 0)
(0.0301743 0.379721 0)
(2.99824 7.43396e-05 0)
(2.99334 0.000101858 0)
(2.98753 -0.000196496 0)
(2.95152 0.000219572 0)
(2.92394 -0.00215104 0)
(2.64293 0.000943782 0)
(1.77267 -0.0081375 0)
(1.00156 -0.0114201 0)
(0.540603 -0.00324184 0)
(0.624132 0.00407938 0)
(0.720849 0.0126274 0)
(0.75801 0.0215857 0)
(0.758227 0.0306114 0)
(0.747214 0.0386468 0)
(0.735861 0.0460818 0)
(0.730666 0.0532291 0)
(0.72717 0.0597132 0)
(0.722655 0.0656609 0)
(0.716615 0.0713645 0)
(0.709057 0.0771677 0)
(0.69999 0.0834086 0)
(0.689529 0.0903524 0)
(0.678242 0.0982739 0)
(0.666576 0.107383 0)
(0.654299 0.117806 0)
(0.641158 0.129529 0)
(0.627045 0.142474 0)
(0.611881 0.156349 0)
(0.595821 0.170951 0)
(0.579053 0.185735 0)
(0.561632 0.200131 0)
(0.543607 0.213529 0)
(0.525555 0.225686 0)
(0.507564 0.236227 0)
(0.489277 0.245185 0)
(0.470843 0.252882 0)
(0.452355 0.259762 0)
(0.433615 0.266369 0)
(0.414175 0.273399 0)
(0.393878 0.281392 0)
(0.372445 0.29086 0)
(0.349377 0.302259 0)
(0.324462 0.315971 0)
(0.297308 0.332213 0)
(0.266321 0.351392 0)
(0.23046 0.372475 0)
(0.189536 0.393776 0)
(0.142888 0.41347 0)
(0.0870119 0.428789 0)
(0.0350231 0.435785 0)
(2.99836 -2.87179e-06 0)
(2.99345 -0.000127523 0)
(2.9879 0.000200772 0)
(2.95174 -0.000187071 0)
(2.92572 0.000342506 0)
(2.63665 -0.0024842 0)
(1.7609 0.00351377 0)
(1.00142 0.00443845 0)
(0.548088 0.00456287 0)
(0.628872 0.00782792 0)
(0.724293 0.0145821 0)
(0.760662 0.0233212 0)
(0.76025 0.0323761 0)
(0.748954 0.0406542 0)
(0.737807 0.0484313 0)
(0.732728 0.0557214 0)
(0.729154 0.0623399 0)
(0.724641 0.0684507 0)
(0.718778 0.0744156 0)
(0.711566 0.0806066 0)
(0.702967 0.0874032 0)
(0.693049 0.0951006 0)
(0.682344 0.103966 0)
(0.67124 0.114186 0)
(0.659436 0.125846 0)
(0.646657 0.138906 0)
(0.632795 0.153139 0)
(0.617909 0.168334 0)
(0.602219 0.184136 0)
(0.585895 0.199974 0)
(0.569041 0.215241 0)
(0.55188 0.229322 0)
(0.534922 0.242072 0)
(0.518094 0.253027 0)
(0.50116 0.262343 0)
(0.484237 0.270399 0)
(0.467348 0.277709 0)
(0.450283 0.284934 0)
(0.432606 0.292752 0)
(0.414138 0.301914 0)
(0.394522 0.31303 0)
(0.373173 0.326626 0)
(0.349714 0.343114 0)
(0.323847 0.362897 0)
(0.294054 0.386315 0)
(0.258606 0.413201 0)
(0.216663 0.441491 0)
(0.166951 0.469182 0)
(0.104492 0.492775 0)
(0.0427483 0.505455 0)
(2.99812 -0.000113037 0)
(2.99354 1.71275e-06 0)
(2.98742 0.000160476 0)
(2.95167 0.00125374 0)
(2.9222 0.000612677 0)
(2.64448 0.000747986 0)
(1.77854 0.00675067 0)
(1.00268 0.0155995 0)
(0.54879 0.0110307 0)
(0.630888 0.0120962 0)
(0.726518 0.0178533 0)
(0.762997 0.0262277 0)
(0.762264 0.034975 0)
(0.750906 0.0431176 0)
(0.739946 0.0509073 0)
(0.734846 0.0581307 0)
(0.731129 0.064731 0)
(0.726589 0.070911 0)
(0.720901 0.0771105 0)
(0.714047 0.0837042 0)
(0.705936 0.0911161 0)
(0.696561 0.0996563 0)
(0.686408 0.109579 0)
(0.675815 0.121035 0)
(0.664453 0.134044 0)
(0.651959 0.148513 0)
(0.638359 0.164121 0)
(0.623849 0.180633 0)
(0.608613 0.197557 0)
(0.592882 0.21432 0)
(0.5768 0.230249 0)
(0.560798 0.244879 0)
(0.545208 0.257981 0)
(0.529814 0.269166 0)
(0.514568 0.278713 0)
(0.499491 0.287045 0)
(0.484562 0.294752 0)
(0.469513 0.30249 0)
(0.453968 0.31113 0)
(0.437823 0.32162 0)
(0.420642 0.334546 0)
(0.401696 0.350552 0)
(0.380529 0.370185 0)
(0.356783 0.394065 0)
(0.32933 0.422658 0)
(0.295823 0.456672 0)
(0.254246 0.494478 0)
(0.202596 0.534162 0)
(0.132717 0.572005 0)
(0.056615 0.597768 0)
(2.9983 0.000106421 0)
(2.99369 0.000204621 0)
(2.98923 0.000268753 0)
(2.95214 0.0014594 0)
(2.92524 0.00136187 0)
(2.65066 0.00203682 0)
(1.78408 0.0112131 0)
(1.01334 0.0213429 0)
(0.553628 0.0178835 0)
(0.634466 0.017936 0)
(0.730191 0.0224784 0)
(0.766676 0.0300896 0)
(0.765554 0.0381176 0)
(0.75398 0.0457941 0)
(0.742868 0.0532748 0)
(0.737381 0.0602362 0)
(0.733272 0.0666649 0)
(0.728565 0.0728397 0)
(0.722957 0.0793064 0)
(0.716365 0.0864234 0)
(0.708644 0.0945929 0)
(0.699698 0.104158 0)
(0.689968 0.115344 0)
(0.679741 0.128229 0)
(0.66868 0.142717 0)
(0.656448 0.158609 0)
(0.643171 0.175628 0)
(0.629142 0.193328 0)
(0.614579 0.211196 0)
(0.599707 0.228625 0)
(0.584801 0.244952 0)
(0.570356 0.259891 0)
(0.556444 0.273042 0)
(0.542884 0.28428 0)
(0.529717 0.293917 0)
(0.516863 0.302426 0)
(0.504178 0.310389 0)
(0.491516 0.318583 0)
(0.478724 0.328155 0)
(0.465462 0.340029 0)
(0.451231 0.3548 0)
(0.435475 0.373272 0)
(0.417712 0.396277 0)
(0.397486 0.42458 0)
(0.374051 0.45928 0)
(0.345039 0.501607 0)
(0.307252 0.55187 0)
(0.257294 0.609343 0)
(0.182187 0.672286 0)
(0.0849727 0.7312 0)
(2.99838 0.000118772 0)
(2.99371 3.56375e-05 0)
(2.98877 0.000361491 0)
(2.95277 -0.00054338 0)
(2.92318 0.00224515 0)
(2.64382 0.000657853 0)
(1.7976 0.0154401 0)
(1.01712 0.0309323 0)
(0.551564 0.0242293 0)
(0.635397 0.0229903 0)
(0.733313 0.0271086 0)
(0.770787 0.034608 0)
(0.769263 0.0421733 0)
(0.757395 0.049264 0)
(0.745952 0.0561774 0)
(0.739853 0.0626578 0)
(0.735159 0.0686938 0)
(0.730179 0.0747641 0)
(0.724565 0.0814838 0)
(0.718059 0.0891501 0)
(0.710534 0.0981531 0)
(0.701852 0.108831 0)
(0.69236 0.121353 0)
(0.68229 0.135705 0)
(0.671344 0.151662 0)
(0.659365 0.168928 0)
(0.646541 0.187185 0)
(0.633201 0.205883 0)
(0.619647 0.224454 0)
(0.606075 0.242247 0)
(0.592907 0.258766 0)
(0.580503 0.2737 0)
(0.568736 0.286666 0)
(0.557529 0.297776 0)
(0.546886 0.307372 0)
(0.53658 0.315853 0)
(0.526523 0.323981 0)
(0.516838 0.332795 0)
(0.507279 0.343249 0)
(0.497322 0.356258 0)
(0.48666 0.372742 0)
(0.475015 0.393536 0)
(0.461895 0.419748 0)
(0.447079 0.452498 0)
(0.430192 0.49341 0)
(0.40956 0.544866 0)
(0.382158 0.609974 0)
(0.343684 0.692819 0)
(0.277408 0.803076 0)
(0.152057 0.970193 0)
(2.99839 6.3298e-05 0)
(2.99402 0.0001585 0)
(2.98853 0.000302889 0)
(2.95463 -0.000339313 0)
(2.92782 0.00283286 0)
(2.65449 0.00332499 0)
(1.82753 0.0188048 0)
(1.03727 0.040086 0)
(0.553884 0.0308845 0)
(0.637977 0.0289905 0)
(0.737668 0.03333 0)
(0.775801 0.0404921 0)
(0.773581 0.0475703 0)
(0.761306 0.0537041 0)
(0.7494 0.0596964 0)
(0.742284 0.0653831 0)
(0.736575 0.0707796 0)
(0.731004 0.0768079 0)
(0.724918 0.0839591 0)
(0.717946 0.0925957 0)
(0.710107 0.103065 0)
(0.701243 0.115538 0)
(0.691698 0.130039 0)
(0.681695 0.146361 0)
(0.671044 0.164103 0)
(0.659812 0.182855 0)
(0.648278 0.202154 0)
(0.636778 0.221458 0)
(0.625576 0.240187 0)
(0.614962 0.257797 0)
(0.605302 0.273933 0)
(0.59658 0.288242 0)
(0.588652 0.300627 0)
(0.581522 0.311313 0)
(0.574898 0.320542 0)
(0.568694 0.328932 0)
(0.563202 0.337473 0)
(0.558196 0.34698 0)
(0.553312 0.358251 0)
(0.548525 0.372306 0)
(0.543665 0.390282 0)
(0.538742 0.413208 0)
(0.533957 0.442301 0)
(0.529448 0.47911 0)
(0.526181 0.525502 0)
(0.52538 0.584514 0)
(0.529302 0.661157 0)
(0.546134 0.762397 0)
(0.603551 0.898249 0)
(0.671211 1.09242 0)
(2.99853 7.8897e-05 0)
(2.99398 0.000192208 0)
(2.98796 0.000572605 0)
(2.9567 0.00056344 0)
(2.92816 0.00307236 0)
(2.66645 0.00339077 0)
(1.87547 0.0210652 0)
(1.06593 0.0449129 0)
(0.553032 0.0351425 0)
(0.639808 0.0346403 0)
(0.74295 0.0405668 0)
(0.781992 0.0485322 0)
(0.778772 0.0555709 0)
(0.765398 0.0609047 0)
(0.752657 0.0660198 0)
(0.74391 0.0708648 0)
(0.736905 0.0758407 0)
(0.730646 0.0820706 0)
(0.723958 0.0899002 0)
(0.716589 0.0997671 0)
(0.708474 0.111794 0)
(0.699527 0.125909 0)
(0.690143 0.141951 0)
(0.680538 0.159495 0)
(0.670702 0.178043 0)
(0.660879 0.197137 0)
(0.651396 0.216285 0)
(0.642551 0.235018 0)
(0.634572 0.252843 0)
(0.627657 0.269406 0)
(0.621885 0.284409 0)
(0.617198 0.297656 0)
(0.613512 0.309232 0)
(0.610458 0.319235 0)
(0.608002 0.328097 0)
(0.60652 0.336703 0)
(0.605729 0.345693 0)
(0.605241 0.355659 0)
(0.605115 0.3675 0)
(0.605505 0.382172 0)
(0.606627 0.40075 0)
(0.608866 0.424359 0)
(0.612951 0.454145 0)
(0.619938 0.491485 0)
(0.631585 0.538075 0)
(0.651436 0.595922 0)
(0.685205 0.667823 0)
(0.741391 0.757245 0)
(0.849104 0.863445 0)
(0.990406 0.974126 0)
(2.99861 0.00024088 0)
(2.99481 0.000154075 0)
(2.98918 0.000595392 0)
(2.95869 0.00257035 0)
(2.93234 0.00294998 0)
(2.67995 0.00894018 0)
(1.91726 0.0144694 0)
(1.08979 0.0341664 0)
(0.552088 0.0326072 0)
(0.643866 0.0387118 0)
(0.751635 0.0494629 0)
(0.791342 0.0585366 0)
(0.785505 0.0648393 0)
(0.769818 0.0687379 0)
(0.755124 0.0720378 0)
(0.743992 0.0752997 0)
(0.735193 0.0797212 0)
(0.727641 0.0862016 0)
(0.719981 0.0951425 0)
(0.712086 0.106714 0)
(0.703838 0.120666 0)
(0.69534 0.136592 0)
(0.686973 0.154041 0)
(0.678878 0.172376 0)
(0.671145 0.191074 0)
(0.664027 0.209698 0)
(0.657796 0.227842 0)
(0.652619 0.245176 0)
(0.648607 0.261416 0)
(0.645854 0.276351 0)
(0.644334 0.289821 0)
(0.64395 0.301832 0)
(0.644323 0.31237 0)
(0.645361 0.321717 0)
(0.647472 0.330592 0)
(0.650483 0.339443 0)
(0.653899 0.348679 0)
(0.657718 0.358994 0)
(0.662119 0.371191 0)
(0.667421 0.38609 0)
(0.674079 0.404546 0)
(0.682722 0.427459 0)
(0.694439 0.455732 0)
(0.710788 0.490237 0)
(0.734006 0.531857 0)
(0.767243 0.581314 0)
(0.815828 0.638555 0)
(0.885539 0.702497 0)
(0.992484 0.768548 0)
(1.11851 0.816657 0)
(2.99889 0.000380253 0)
(2.99463 -0.000578221 0)
(2.99206 0.000750039 0)
(2.9606 0.00208252 0)
(2.93819 0.000122385 0)
(2.6909 0.00204812 0)
(1.93404 -0.00088838 0)
(1.11316 0.00922911 0)
(0.55109 0.0269872 0)
(0.646134 0.0435477 0)
(0.757545 0.0606849 0)
(0.794545 0.0719699 0)
(0.786104 0.078696 0)
(0.768216 0.0828738 0)
(0.751748 0.0858921 0)
(0.739396 0.088817 0)
(0.73005 0.0932688 0)
(0.722218 0.099874 0)
(0.714602 0.109101 0)
(0.707037 0.120881 0)
(0.699537 0.134825 0)
(0.692394 0.150441 0)
(0.685963 0.167137 0)
(0.680386 0.184292 0)
(0.675818 0.201429 0)
(0.672377 0.218197 0)
(0.670175 0.234317 0)
(0.669272 0.249553 0)
(0.669641 0.263761 0)
(0.671224 0.276834 0)
(0.673962 0.288732 0)
(0.677519 0.299431 0)
(0.68175 0.309123 0)
(0.687011 0.318297 0)
(0.693131 0.327261 0)
(0.699708 0.33626 0)
(0.706689 0.345798 0)
(0.714217 0.356479 0)
(0.722559 0.368913 0)
(0.73201 0.38375 0)
(0.74308 0.401489 0)
(0.756573 0.422779 0)
(0.773596 0.448135 0)
(0.795666 0.477922 0)
(0.824758 0.512231 0)
(0.863338 0.550799 0)
(0.914755 0.592626 0)
(0.981941 0.635003 0)
(1.0733 0.674051 0)
(1.17656 0.696805 0)
(2.99801 0.00014724 0)
(2.99556 -0.000995393 0)
(2.9937 0.000537171 0)
(2.95785 0.00100037 0)
(2.93294 -0.00270772 0)
(2.67425 -0.00537264 0)
(1.91946 -0.00200199 0)
(1.09887 0.00113022 0)
(0.536575 0.038884 0)
(0.647021 0.0619773 0)
(0.767002 0.0750322 0)
(0.801941 0.0818484 0)
(0.791104 0.0852438 0)
(0.771226 0.0875153 0)
(0.752087 0.0895665 0)
(0.737376 0.0924149 0)
(0.726182 0.0974724 0)
(0.716911 0.105165 0)
(0.708645 0.115563 0)
(0.701292 0.128374 0)
(0.695078 0.142866 0)
(0.690267 0.158384 0)
(0.687038 0.174275 0)
(0.685374 0.190009 0)
(0.685235 0.205292 0)
(0.686557 0.219935 0)
(0.68921 0.233901 0)
(0.693067 0.247025 0)
(0.698014 0.259303 0)
(0.70392 0.270722 0)
(0.710527 0.281308 0)
(0.717764 0.291163 0)
(0.725779 0.300586 0)
(0.734369 0.309769 0)
(0.743296 0.318848 0)
(0.752599 0.328183 0)
(0.762317 0.338208 0)
(0.7726 0.349347 0)
(0.783775 0.362005 0)
(0.796104 0.376614 0)
(0.810149 0.393431 0)
(0.826752 0.412841 0)
(0.84679 0.43497 0)
(0.871504 0.459919 0)
(0.902456 0.487406 0)
(0.941502 0.516757 0)
(0.990651 0.54686 0)
(1.05177 0.575433 0)
(1.12841 0.599815 0)
(1.21147 0.613298 0)
(2.99749 -7.12213e-05 0)
(2.99531 0.00189738 0)
(2.9955 0.00301444 0)
(2.95532 0.00562621 0)
(2.92976 0.0328051 0)
(2.66852 -0.0479919 0)
(1.90989 0.0549126 0)
(1.10417 -0.0746663 0)
(0.585211 -0.00497792 0)
(0.674588 0.0570528 0)
(0.778508 0.0932512 0)
(0.809177 0.109706 0)
(0.797415 0.116972 0)
(0.776603 0.120274 0)
(0.755565 0.121816 0)
(0.738548 0.1234 0)
(0.725125 0.126242 0)
(0.71389 0.130926 0)
(0.704709 0.137565 0)
(0.697836 0.146042 0)
(0.693407 0.156063 0)
(0.691676 0.167179 0)
(0.692445 0.178947 0)
(0.695436 0.191014 0)
(0.700383 0.203115 0)
(0.707017 0.215055 0)
(0.714861 0.226748 0)
(0.72357 0.238075 0)
(0.733036 0.248934 0)
(0.742976 0.259278 0)
(0.753272 0.269154 0)
(0.763843 0.278743 0)