/*--------------------------------*- C++ -*----------------------------------*\
| =========                 |                                                 |
| \\      /  F ield         | OpenFOAM: The Open Source CFD Toolbox           |
|  \\    /   O peration     | Version:  2412                                  |
|   \\  /    A nd           | Website:  www.openfoam.com                      |
|    \\/     M anipulation  |                                                 |
\*---------------------------------------------------------------------------*/
FoamFile
{
    version     2.0;
    format      ascii;
    arch        "LSB;label=32;scalar=64";
    class       volScalarField;
    location    "6";
    object      Ma;
}
// * * * * * * * * * * * * * * * * * * * * * * * * * * * * * * * * * * * * * //

dimensions      [0 0 0 0 0 0 0];

internalField   nonuniform List<scalar> 
7000
(
3.00001
3.00001
3.00001
3
3
2.99996
2.99995
2.99976
2.99972
2.99867
2.99912
2.9946
2.98728
2.9998
2.93308
2.80898
2.04815
1.22465
0.38599
0.268493
0.337578
0.386308
0.39025
0.379993
0.3645
0.34753
0.335076
0.325793
0.316719
0.309002
0.301266
0.290993
0.280062
0.266118
0.250151
0.235912
0.221995
0.209168
0.19595
0.181224
0.166135
0.150864
0.135708
0.120645
0.105113
0.0887686
0.0712126
0.0526189
0.0321343
0.0157684
3.00001
3.00001
3.00001
3
3
2.99996
2.99995
2.9998
2.99972
2.99904
2.99804
2.99695
2.98921
3.011
2.94251
2.79181
2.05453
1.25014
0.407379
0.280805
0.345647
0.392918
0.395983
0.38522
0.369151
0.351404
0.338194
0.328158
0.318256
0.309653
0.300966
0.289624
0.277614
0.262661
0.246353
0.232033
0.218409
0.206193
0.193748
0.180107
0.166102
0.151666
0.136959
0.122001
0.106362
0.0898709
0.0723034
0.054054
0.0348018
0.0216431
3.00001
3.00001
3.00001
3
3
2.99996
2.99996
2.99979
2.99974
2.99911
2.9979
2.99612
2.9887
3.0318
2.90008
2.74162
2.03363
1.2351
0.407255
0.273094
0.341285
0.39031
0.394751
0.385467
0.370668
0.353726
0.340948
0.331198
0.321472
0.312977
0.304445
0.293119
0.281019
0.265964
0.249394
0.234872
0.221145
0.20892
0.196562
0.183004
0.169023
0.154515
0.139669
0.124606
0.108984
0.0927323
0.0757512
0.0587161
0.042083
0.0326814
3.00001
3.00001
3.00001
3
3
2.99996
2.99996
2.99977
2.99972
2.99875
2.99808
2.99378
2.98786
2.97497
2.92234
2.7954
2.05796
1.23846
0.407094
0.277011
0.345356
0.394199
0.398563
0.389372
0.374629
0.357472
0.344359
0.334346
0.324432
0.315813
0.307275
0.295962
0.283897
0.268933
0.252343
0.237924
0.224351
0.212291
0.200139
0.186697
0.172755
0.158245
0.143387
0.128388
0.112995
0.0972378
0.0811663
0.065695
0.0517015
0.0447786
3.00001
3.00001
3.00001
3
3
2.99996
2.99995
2.99977
2.99969
2.9988
2.99818
2.99409
2.98769
2.98326
2.9226
2.79306
2.07934
1.25324
0.411034
0.273449
0.343121
0.39296
0.398133
0.389525
0.374867
0.357816
0.344921
0.335017
0.32518
0.316701
0.308241
0.297092
0.285316
0.27073
0.254571
0.240661
0.227563
0.215954
0.204277
0.191159
0.177423
0.163051
0.148302
0.133504
0.118491
0.103402
0.088414
0.0745888
0.0628782
0.0575981
3.00001
3.00001
3.00001
3
3
2.99996
2.99995
2.99978
2.99967
2.99901
2.99783
2.99596
2.98491
2.99298
2.93049
2.82339
2.10173
1.27911
0.421286
0.27454
0.343961
0.393326
0.398384
0.389867
0.375133
0.358259
0.345695
0.336052
0.32645
0.318212
0.309749
0.298668
0.287083
0.272775
0.257042
0.243638
0.23104
0.219927
0.208764
0.196062
0.182669
0.168609
0.154177
0.139796
0.125372
0.111144
0.0973751
0.0851715
0.075365
0.0712471
3.00001
3.00001
3.00001
3
3
2.99997
2.99996
2.99978
2.99966
2.99878
2.99819
2.9939
2.9895
2.97076
2.91354
2.72854
2.10267
1.29511
0.438589
0.268925
0.33886
0.388919
0.394523
0.387251
0.373903
0.358309
0.346814
0.337972
0.32901
0.32134
0.313199
0.302362
0.291004
0.276899
0.261329
0.248112
0.235686
0.224778
0.213946
0.201579
0.188547
0.17491
0.160974
0.147214
0.133583
0.120385
0.10792
0.0972495
0.0890373
0.0858017
3.00001
3.00001
3.00001
3
3
2.99996
2.99996
2.99976
2.9997
2.9987
2.99815
2.99319
2.98899
2.97094
2.91125
2.6025
2.17723
1.3288
0.458122
0.276362
0.344941
0.394509
0.39992
0.392701
0.37902
0.362825
0.350977
0.342025
0.333172
0.32579
0.317948
0.307452
0.296433
0.282701
0.267191
0.253997
0.24159
0.230715
0.220105
0.208027
0.195366
0.182218
0.168883
0.155875
0.143173
0.131106
0.119971
0.110749
0.103892
0.101361
3.00001
3.00001
3.00001
3
3
2.99996
2.99996
2.99979
2.99973
2.99897
2.99818
2.99515
2.98541
2.99509
2.93643
2.80874
2.14848
1.34364
0.472084
0.270611
0.339586
0.391935
0.40009
0.395552
0.383263
0.367133
0.355039
0.345854
0.337009
0.329912
0.322435
0.31243
0.301921
0.288741
0.273535
0.260581
0.248355
0.23763
0.227351
0.215655
0.20343
0.190823
0.178151
0.165958
0.154251
0.143366
0.133539
0.125646
0.119974
0.118033
3.00001
3.00001
3.00001
3
3
2.99996
2.99996
2.99977
2.99971
2.99869
2.99801
2.99265
2.9873
2.96239
2.94212
2.813
2.19742
1.38545
0.497529
0.28325
0.350696
0.401975
0.410055
0.405281
0.392182
0.37471
0.361468
0.351434
0.342155
0.335038
0.327528
0.317721
0.307579
0.294869
0.280056
0.267515
0.2557
0.24538
0.235646
0.224502
0.212851
0.200886
0.18895
0.177623
0.166924
0.157236
0.148701
0.142064
0.137432
0.136042
3.00001
3.00001
3.00001
3
3
2.99997
2.99996
2.99977
2.99972
2.99869
2.9982
2.99213
2.98842
2.9574
2.93844
2.68766
2.28476
1.44694
0.522817
0.286577
0.355526
0.406708
0.416155
0.412398
0.39939
0.381383
0.367768
0.357434
0.348162
0.341237
0.333512
0.323713
0.313764
0.301358
0.286937
0.274897
0.263644
0.253914
0.244924
0.234529
0.223608
0.212418
0.201322
0.190934
0.181306
0.17279
0.165542
0.160139
0.156514
0.155579
3.00001
3.00001
3.00001
3
3
2.99997
2.99996
2.99978
2.99973
2.99882
2.99819
2.99308
2.98863
2.96009
2.93018
2.74592
2.29901
1.51391
0.555301
0.28387
0.351644
0.402213
0.415127
0.414002
0.402386
0.385205
0.372395
0.362689
0.354048
0.347674
0.340073
0.330478
0.320793
0.308737
0.294723
0.283197
0.27255
0.263482
0.255346
0.24584
0.235781
0.225487
0.215346
0.205988
0.197509
0.190265
0.184294
0.180077
0.177441
0.177062
3.00001
3.00001
3.00001
3
3
2.99997
2.99995
2.99977
2.9997
2.9987
2.9981
2.99254
2.98794
2.95853
2.9397
2.74378
2.3729
1.57738
0.592951
0.302974
0.358228
0.403019
0.418777
0.418762
0.407253
0.390295
0.377962
0.368815
0.360933
0.355144
0.347659
0.338349
0.329004
0.31739
0.303825
0.292806
0.282768
0.274354
0.267136
0.258602
0.249499
0.240214
0.231138
0.22294
0.215668
0.209788
0.205239
0.202331
0.200714
0.200838
3.00001
3.00001
3.00001
3
3
2.99997
2.99996
2.99978
2.99972
2.99875
2.99826
2.99263
2.99051
2.96128
2.94762
2.7368
2.44032
1.66494
0.634532
0.324659
0.362438
0.40219
0.423163
0.424485
0.412705
0.396083
0.384258
0.37562
0.368613
0.3634
0.356057
0.347087
0.33816
0.327081
0.313958
0.303485
0.29417
0.286493
0.280273
0.272826
0.264817
0.256681
0.248841
0.241936
0.236121
0.231752
0.228759
0.2273
0.226908
0.22773
3.00001
3.00001
3.00001
3
3
2.99997
2.99996
2.99979
2.99975
2.99877
2.99845
2.99333
2.98899
2.96057
2.94545
2.78912
2.46149
1.73034
0.697735
0.35823
0.368429
0.405798
0.431456
0.433134
0.419968
0.40312
0.391274
0.382775
0.376527
0.371655
0.364527
0.355953
0.34753
0.337077
0.324651
0.314972
0.306596
0.299822
0.294763
0.288588
0.281838
0.275027
0.26863
0.263239
0.259015
0.256525
0.255307
0.255621
0.256818
0.258518
3.00001
3.00001
3.00001
3
3
2.99997
2.99996
2.9998
2.99973
2.99879
2.99849
2.99312
2.99045
2.96193
2.94423
2.76375
2.51705
1.79969
0.768831
0.388544
0.364491
0.404012
0.434551
0.438231
0.425295
0.409376
0.398147
0.390253
0.385056
0.380273
0.373242
0.36503
0.357142
0.347364
0.335802
0.327105
0.319893
0.314263
0.310524
0.305886
0.300644
0.295411
0.290712
0.287099
0.284966
0.284518
0.2858
0.288557
0.291836
0.295151
3.00001
3.00001
3.00001
3
3
2.99998
2.99997
2.99982
2.99976
2.99889
2.99855
2.99348
2.99034
2.96232
2.95054
2.76281
2.56497
1.85561
0.837524
0.42849
0.366208
0.405943
0.440211
0.444549
0.431228
0.416379
0.40571
0.398502
0.394248
0.389459
0.382612
0.374829
0.367505
0.358482
0.347922
0.340295
0.334347
0.329925
0.327588
0.324739
0.321276
0.317903
0.315238
0.313847
0.314082
0.316603
0.320847
0.327172
0.334198
0.340072
3.00001
3.00001
3.00001
3.00001
3
2.99998
2.99996
2.99983
2.99976
2.99894
2.99865
2.99386
2.99157
2.96531
2.95116
2.79224
2.59295
1.93312
0.926156
0.47583
0.367958
0.407516
0.445715
0.450812
0.437793
0.424017
0.413944
0.407873
0.404517
0.399716
0.393228
0.385993
0.379309
0.371072
0.361484
0.354884
0.350183
0.346996
0.346175
0.345346
0.343906
0.342685
0.342351
0.343602
0.346978
0.352996
0.362195
0.373784
0.38699
0.399602
3.00001
3.00001
3.00001
3.00001
3
2.99999
2.99996
2.9999
2.99977
2.99926
2.9987
2.99462
2.99209
2.96775
2.95561
2.81358
2.61589
2.00828
1.00794
0.517349
0.359244
0.403103
0.44795
0.455404
0.444158
0.431855
0.422941
0.41859
0.415697
0.411047
0.405051
0.39852
0.392637
0.385326
0.376762
0.371096
0.367609
0.365733
0.366515
0.367888
0.368722
0.369898
0.372285
0.3767
0.383918
0.395153
0.410401
0.431306
0.456583
0.485472
3.00001
3.00001
3.00001
3.00001
3
2.99999
2.99996
2.99995
2.99973
2.99929
2.99878
2.99543
2.9935
2.97536
2.94793
2.82773
2.64785
2.02548
1.10711
0.574689
0.360415
0.404782
0.453545
0.462539
0.452151
0.440497
0.432349
0.429193
0.426747
0.422671
0.417484
0.411932
0.40705
0.400856
0.393384
0.388679
0.38647
0.385872
0.388142
0.391808
0.395072
0.398811
0.404176
0.412324
0.424417
0.441928
0.467353
0.502315
0.553933
0.646648
3.00001
3.00001
3.00001
3.00001
3
2.99999
2.99993
2.99992
2.99956
2.99952
2.99783
2.99697
2.99085
2.98454
2.95614
2.86424
2.71142
2.12147
1.22828
0.640018
0.349681
0.401708
0.459432
0.471027
0.461467
0.451068
0.444949
0.443404
0.441517
0.438401
0.434419
0.4304
0.42695
0.422113
0.416564
0.413605
0.413287
0.41457
0.418885
0.425494
0.432124
0.439529
0.449272
0.462708
0.481768
0.509323
0.548895
0.609534
0.705231
0.850094
3.00001
3.00001
3.00001
3.00001
3
3
2.99995
2.99994
2.99959
2.99955
2.99723
2.99618
2.98397
2.98701
2.92782
3.00323
2.76422
2.31055
1.36997
0.684349
0.321457
0.393612
0.460377
0.47514
0.469125
0.462202
0.458255
0.456833
0.455476
0.45326
0.450543
0.448141
0.445814
0.442119
0.438941
0.438223
0.440064
0.443453
0.449756
0.458976
0.468585
0.479596
0.493281
0.511701
0.536502
0.571505
0.620847
0.689902
0.795826
0.9206
3.00001
3.00001
3.00001
3.00001
3.00001
3
2.99998
2.99997
2.9998
2.99974
2.99844
2.99791
2.98881
2.99864
2.92693
3.13288
2.80587
2.36037
1.48046
0.757445
0.317535
0.394871
0.457858
0.478821
0.478928
0.474512
0.470787
0.469359
0.468362
0.46705
0.465858
0.46484
0.463075
0.461096
0.460417
0.462011
0.466119
0.471648
0.480102
0.491761
0.503967
0.517924
0.534651
0.556116
0.584339
0.621273
0.671631
0.7353
0.8241
0.914416
3.00001
3.00001
3.00001
3.00001
3.00001
3.00001
3.00001
3.00001
2.99997
2.99995
2.99958
2.99942
2.99459
3.0045
2.94211
3.13976
2.84278
2.4376
1.60291
0.841617
0.34428
0.402129
0.453786
0.484617
0.490122
0.486775
0.483517
0.482112
0.481476
0.481185
0.481014
0.480308
0.479529
0.479692
0.481288
0.485037
0.490871
0.498039
0.508334
0.521656
0.535748
0.551363
0.56994
0.592216
0.620914
0.655928
0.701799
0.755357
0.825838
0.895169
3.00001
3.00001
3.00001
3.00001
3.00001
3.00001
3.00001
3.00004
3.00007
3.00031
3.00047
3.0018
3.00025
3.0101
2.95742
3.1435
2.87956
2.51886
1.7228
0.944373
0.383122
0.395786
0.44644
0.484433
0.495656
0.496163
0.495398
0.495498
0.496193
0.496457
0.49605
0.495677
0.496148
0.497733
0.500827
0.505982
0.512831
0.52138
0.533476
0.547807
0.562994
0.579289
0.598631
0.620421
0.647823
0.679653
0.719431
0.765615
0.821272
0.877737
3.00001
3.00001
3.00001
3.00001
3.00001
3.00001
3
3
3.00001
3.00006
3.00015
3.00105
3.00047
3.01037
2.97945
3.14134
2.88979
2.62352
1.86067
1.06538
0.442
0.406916
0.452727
0.494331
0.50833
0.511468
0.512398
0.512608
0.512506
0.511746
0.511118
0.511607
0.512834
0.514971
0.518674
0.524371
0.531837
0.542206
0.555976
0.570457
0.586196
0.602541
0.621741
0.642729
0.66809
0.696861
0.731407
0.770721
0.816503
0.862376
3.00001
3.00001
3.00001
3.00001
3.00001
3.00001
3
2.99998
2.99996
2.99972
2.99964
2.99751
2.99638
2.98282
2.98984
2.89067
3.06529
2.70669
2.04444
1.08053
0.586615
0.41009
0.452051
0.50218
0.522548
0.525599
0.524238
0.521907
0.519514
0.518184
0.518993
0.520748
0.523104
0.526515
0.531734
0.53938
0.549402
0.561455
0.57515
0.58939
0.604958
0.621051
0.639422
0.659428
0.682771
0.708799
0.739091
0.772921
0.811451
0.849672
3.00001
3.00001
3.00001
3.00001
3.00001
3.00001
3.00001
3.00001
3
2.99994
2.99988
2.99903
2.99873
2.99042
3.00144
2.9293
3.13269
2.79594
2.31645
1.43695
0.771952
0.408919
0.449141
0.499934
0.527484
0.530861
0.524847
0.519868
0.516904
0.516248
0.518455
0.522107
0.527064
0.533319
0.54167
0.551855
0.563333
0.575733
0.589426
0.603416
0.618559
0.634342
0.652085
0.671322
0.69299
0.716811
0.743712
0.773256
0.805704
0.837829
3.00001
3.00001
3.00001
3.00001
3.00001
3.00001
3.00001
3.00001
3.00002
3
3.00011
3.00011
3.00108
2.99882
3.00853
2.95223
3.14228
2.86295
2.47971
1.68023
0.911731
0.419651
0.450021
0.492844
0.524964
0.529266
0.523152
0.519076
0.518162
0.52054
0.524242
0.528783
0.534518
0.541773
0.550336
0.560538
0.572863
0.585847
0.599495
0.613443
0.628097
0.643478
0.659941
0.67796
0.697811
0.719735
0.743671
0.769696
0.797632
0.825171
3.00001
3.00001
3.00001
3.00001
3.00001
3.00001
3
3
2.99999
2.99998
2.99993
3.00011
3.00088
3.0002
3.01195
2.97659
3.14674
2.90012
2.62568
1.88032
1.09569
0.487279
0.451858
0.489544
0.521778
0.530065
0.529029
0.528305
0.52979
0.533334
0.537749
0.541759
0.546589
0.553117
0.56132
0.570504
0.581346
0.593903
0.606872
0.620167
0.63379
0.648214
0.663509
0.680061
0.698229
0.718176
0.739328
0.762093
0.786692
0.810719
3.00001
3.00001
3.00001
3.00001
3.00001
3.00001
3
3
2.99997
2.99996
2.99983
2.99972
2.99894
2.99843
2.99331
2.99065
2.96727
2.91945
2.70839
2.18553
1.35331
0.578574
0.450105
0.482343
0.517471
0.539154
0.547606
0.549863
0.550774
0.552632
0.555081
0.557362
0.560369
0.56477
0.570886
0.578165
0.586949
0.598674
0.611384
0.62421
0.637029
0.650382
0.664444
0.679616
0.696236
0.714261
0.733431
0.753911
0.775783
0.797057
3.00001
3.00001
3.00001
3.00001
3.00001
3.00001
3
3
2.99998
2.99997
2.99984
2.99978
2.99902
2.99883
2.99433
2.99267
2.96817
2.95397
2.79692
2.44241
1.64847
0.724799
0.47144
0.489167
0.525472
0.56144
0.574188
0.573689
0.569732
0.567317
0.566553
0.567476
0.569583
0.573113
0.578063
0.583933
0.591727
0.602568
0.614326
0.626626
0.639504
0.652861
0.666708
0.681235
0.696471
0.712565
0.729861
0.748434
0.768097
0.7872
3.00001
3.00001
3.00001
3.00001
3.00001
3.00001
3.00001
3
2.99999
2.99999
2.99993
2.99992
2.99976
3.00022
2.99892
3.00737
2.96662
3.14403
2.87248
2.57129
1.80988
1.0188
0.469564
0.447894
0.493697
0.540159
0.556778
0.558363
0.555243
0.554468
0.556684
0.560566
0.565322
0.571182
0.578058
0.58596
0.595386
0.606463
0.618222
0.630329
0.642604
0.655191
0.668432
0.68228
0.696714
0.712061
0.728102
0.745279
0.763258
0.780538
3.00001
3.00001
3.00001
3.00001
3.00001
3.00001
3.00001
3
3
2.99997
2.99996
2.99983
2.99964
2.99917
2.99734
2.99769
2.98329
3.03952
2.89777
2.72867
2.02575
1.24179
0.516557
0.417766
0.464638
0.512598
0.530998
0.536412
0.537785
0.539727
0.544153
0.550699
0.558062
0.566127
0.575277
0.58544
0.596195
0.60744
0.619024
0.63076
0.642954
0.655426
0.668359
0.681814
0.695584
0.710444
0.72562
0.741728
0.758562
0.77459
3.00001
3.00001
3.00001
3.00001
3.00001
3.00001
3.00001
3
3
2.99999
2.99998
2.99985
2.99977
2.99898
2.99823
2.99399
2.98848
2.96309
2.93081
2.7241
2.2823
1.45641
0.626224
0.426754
0.460586
0.502049
0.525304
0.534369
0.538009
0.540696
0.544355
0.550108
0.557286
0.564826
0.573512
0.583972
0.594917
0.605987
0.617344
0.628694
0.640299
0.652255
0.664376
0.677475
0.690695
0.704947
0.719591
0.734773
0.750856
0.765977
3.00001
3.00001
3.00001
3.00001
3.00001
3.00001
3.00001
3.00001
3.00001
3.00001
3.00001
2.99997
2.99995
2.99955
2.99958
2.99488
3.00456
2.9457
3.13699
2.84441
2.47434
1.6499
0.886198
0.446243
0.455126
0.491104
0.526105
0.539403
0.543733
0.546827
0.549113
0.552662
0.558495
0.565291
0.572521
0.581868
0.593016
0.603799
0.614687
0.625612
0.636697
0.648283
0.660028
0.672683
0.685556
0.699101
0.71325
0.727624
0.742774
0.757271
3.00001
3.00001
3.00001
3.00001
3.00001
3.00001
3.00001
3
3
3
2.99995
2.99993
2.99984
2.99912
2.99889
2.99511
2.9919
2.97236
2.94583
2.82343
2.58899
1.95732
0.989325
0.547173
0.443754
0.479948
0.523796
0.546375
0.552919
0.5551
0.557325
0.559176
0.562708
0.567961
0.573682
0.580844
0.590616
0.601221
0.61179
0.622439
0.633344
0.644675
0.656203
0.668364
0.68105
0.693983
0.707722
0.721534
0.736049
0.749804
3.00001
3.00001
3.00001
3.00001
3.00001
3.00001
3.00001
3.00001
3
2.99999
2.99994
2.99993
2.99964
2.99956
2.9983
2.99808
2.99198
2.98036
2.95999
2.8654
2.72323
2.19486
1.28505
0.700319
0.435396
0.46829
0.520301
0.55191
0.560745
0.561959
0.562618
0.5643
0.566639
0.570181
0.574547
0.580473
0.589113
0.598765
0.608908
0.619475
0.630401
0.641858
0.653522
0.665593
0.678035
0.691011
0.70425
0.718014
0.731855
0.745213
3.00001
3.00001
3.00001
3.00001
3.00001
3.00001
3.00001
3.00001
3
3
2.99996
2.99995
2.99967
2.99964
2.99777
2.9969
2.98531
2.99414
2.92013
3.1189
2.78769
2.33732
1.46257
0.771949
0.383909
0.440378
0.505457
0.544582
0.555191
0.555537
0.556068
0.559225
0.564199
0.569888
0.57591
0.582847
0.591319
0.601019
0.611338
0.622083
0.633189
0.644707
0.656355
0.66834
0.680318
0.6926
0.704821
0.717569
0.730295
0.742593
3.00001
3.00001
3.00001
3.00001
3.00001
3.00001
3.00001
3.00001
3.00001
3
2.99999
2.99998
2.99987
2.99983
2.99898
2.99879
2.99233
3.00253
2.93849
3.13859
2.83756
2.44235
1.59661
0.839026
0.360988
0.423425
0.485498
0.530642
0.544771
0.546978
0.549216
0.55483
0.56179
0.569118
0.577114
0.585975
0.595721
0.60614
0.617051
0.628363
0.63959
0.650765
0.661746
0.67292
0.683746
0.694923
0.705682
0.717002
0.728382
0.739401
3.00001
3.00001
3.00001
3.00001
3.00001
3.00001
3.00001
3.00001
3.00001
3
2.99999
2.99993
2.99991
2.99971
2.99908
2.99912
2.9951
2.99357
2.96627
2.9555
2.76301
2.50278
1.76851
0.734069
0.386295
0.410229
0.467619
0.514416
0.53319
0.540178
0.546083
0.553262
0.561169
0.569475
0.578368
0.587863
0.597959
0.608504
0.619179
0.6297
0.640139
0.650452
0.660499
0.670462
0.680264
0.690347
0.700294
0.710294
0.720583
0.730011
3.00001
3.00001
3.00001
3.00001
3.00001
3.00001
3.00001
3.00001
3.00001
3.00001
3
3
2.99999
3.00007
3.00006
3.00137
3.00034
3.01157
2.96518
3.15213
2.88398
2.56009
1.80089
1.01842
0.427912
0.400607
0.450395
0.499004
0.52133
0.531211
0.539914
0.550185
0.560425
0.570097
0.579307
0.588327
0.597357
0.606465
0.615656
0.624847
0.634092
0.643518
0.652934
0.662238
0.671496
0.680823
0.690354
0.699643
0.709352
0.718216
3.00001
3.00001
3.00001
3.00001
3.00001
3.00001
3.00001
3.00001
3.00001
3
3
2.99998
2.99998
2.99994
3.00003
3.00048
3.00079
3.00863
3.00064
3.05599
2.95595
2.73797
1.9661
1.14435
0.452772
0.391411
0.443266
0.497326
0.523951
0.535451
0.544075
0.553287
0.562611
0.572084
0.581369
0.590023
0.598138
0.606031
0.613965
0.621902
0.629845
0.637886
0.646166
0.654776
0.66345
0.671987
0.680491
0.688982
0.697685
0.70598
3.00001
3.00001
3.00001
3.00001
3.00001
3.00001
3.00001
3.00001
3.00001
3
3
2.99998
2.99996
2.99972
2.99965
2.99773
2.9968
2.98407
2.99091
2.90261
3.11302
2.71226
2.11844
1.17672
0.616006
0.388223
0.438806
0.50133
0.533316
0.543404
0.546984
0.550315
0.555745
0.56285
0.570588
0.578659
0.587027
0.595585
0.604161
0.61272
0.621183
0.62941
0.637584
0.645871
0.654256
0.662667
0.671237
0.680031
0.688728
0.696791
3.00001
3.00001
3.00001
3.00001
3.00001
3.00001
3.00001
3.00001
3.00001
3.00001
3.00001
3
2.99999
2.99992
2.99988
2.99914
2.999
2.99196
3.00262
2.93268
3.14004
2.8111
2.34897
1.47683
0.776635
0.366225
0.422733
0.485232
0.52222
0.531669
0.530229
0.529745
0.533963
0.541504
0.550827
0.560935
0.571481
0.582247
0.592949
0.603459
0.613517
0.623094
0.632217
0.64103
0.649669
0.658104
0.666548
0.675046
0.683513
0.691539
3.00001
3.00001
3.00001
3.00001
3.00001
3.00001
3.00001
3.00001
3.00001
3.00001
3.00001
3.00001
3.00002
3
3.00009
2.99999
3.00033
2.99689
3.00688
2.94902
3.14258
2.85398
2.47148
1.64159
0.868511
0.367978
0.409751
0.46307
0.506016
0.518101
0.517811
0.518604
0.523925
0.532417
0.54302
0.554748
0.567138
0.579643
0.591936
0.603894
0.615407
0.626192
0.636088
0.645132
0.653485
0.661447
0.669034
0.676356
0.683576
0.690541
3.00001
3.00001
3.00001
3.00001
3.00001
3.00001
3.00001
3.00001
3.00001
3.00001
3
2.99999
2.99994
2.99993
2.99963
2.99952
2.99797
2.99666
2.98955
2.97419
2.9525
2.77795
2.58407
1.86693
0.854304
0.446027
0.407625
0.457133
0.505461
0.525308
0.531037
0.534538
0.539668
0.54624
0.553784
0.562153
0.571285
0.58106
0.591377
0.6019
0.612311
0.622366
0.631923
0.641035
0.649432
0.656754
0.663696
0.670774
0.677895
0.684234
3.00001
3.00001
3.00001
3.00001
3.00001
3.00001
3.00001
3.00001
3.00001
3.00001
3
3
2.99999
2.99998
2.99997
2.99998
3.00032
3.0002
3.00614
2.99417
3.08184
2.9131
2.72875
1.93487
1.13142
0.425237
0.359307
0.419382
0.477878
0.504859
0.516944
0.525596
0.534263
0.543262
0.552418
0.561656
0.570956
0.580379
0.589801
0.599098
0.608273
0.617308
0.626101
0.634631
0.642958
0.650663
0.65758
0.664546
0.671638
0.678261
3.00001
3.00001
3.00001
3.00001
3.00001
3.00001
3.00001
3.00001
3.00001
3.00001
3
3
2.99998
2.99998
2.99986
2.99982
2.99898
2.99846
2.99548
2.98765
3.00004
2.94023
2.82018
2.08032
1.26616
0.47754
0.347497
0.406184
0.469578
0.50029
0.515981
0.527219
0.537957
0.549047
0.560221
0.571179
0.581456
0.590738
0.599078
0.606289
0.612757
0.619269
0.625701
0.632077
0.638921
0.64639
0.653844
0.661079
0.668215
0.674664
3.00001
3.00001
3.00001
3.00001
3.00001
3.00001
3.00001
3.00001
3.00001
3.00001
3
3
2.99997
2.99996
2.99977
2.99971
2.99836
2.99777
2.98841
2.99853
2.92199
3.14003
2.76865
2.27098
1.34404
0.672907
0.346529
0.408296
0.476913
0.517771
0.535638
0.541895
0.545209
0.54914
0.554133
0.559823
0.56592
0.572323
0.579141
0.58616
0.592846
0.599647
0.607045
0.614961
0.623006
0.63126
0.64029
0.649709
0.658872
0.667163
3.00001
3.00001
3.00001
3.00001
3.00001
3.00001
3.00001
3.00001
3.00001
3.00001
3
3
2.99997
2.99996
2.9998
2.99973
2.99876
2.99841
2.99296
2.98971
2.96285
2.94169
2.7303
2.42323
1.63204
0.607726
0.318814
0.385874
0.45627
0.510262
0.537447
0.548348
0.55385
0.558693
0.563819
0.569053
0.574077
0.578785
0.583373
0.587909
0.592507
0.597873
0.603987
0.610696
0.617957
0.625599
0.633917
0.642842
0.651916
0.66065
3.00001
3.00001
3.00001
3.00001
3.00001
3.00001
3.00001
3.00001
3.00001
3.00001
3
3
2.99998
2.99997
2.99986
2.99976
2.99906
2.99859
2.99451
2.99119
2.96914
2.93386
2.77766
2.45905
1.73508
0.717979
0.371727
0.38399
0.450161
0.514766
0.550288
0.567865
0.577719
0.58524
0.592018
0.597862
0.602417
0.604891
0.605637
0.606459
0.607785
0.609493
0.611954
0.616108
0.621594
0.627427
0.633948
0.641204
0.649158
0.657212
3.00001
3.00001
3.00001
3.00001
3.00001
3.00001
3.00001
3.00001
3.00001
3.00001
3
3
2.99998
2.99997
2.99987
2.99977
2.99907
2.99865
2.99459
2.99205
2.97046
2.93715
2.79833
2.4963
1.818
0.804217
0.411914
0.379307
0.444799
0.511057
0.549723
0.569224
0.580082
0.588432
0.595829
0.601569
0.605036
0.606922
0.607771
0.608143
0.608457
0.608931
0.609871
0.612575
0.617568
0.623391
0.630275
0.63782
0.64608
0.654405
3.00001
3.00001
3.00001
3.00001
3.00001
3.00001
3.00001
3.00001
3.00001
3.00001
3
3
2.99998
2.99997
2.99986
2.99979
2.99899
2.99868
2.99405
2.99074
2.9683
2.93663
2.79523
2.50543
1.83324
0.823855
0.423853
0.383434
0.440984
0.497868
0.528575
0.543339
0.55321
0.562345
0.570656
0.577352
0.583095
0.587887
0.591745
0.594709
0.597005
0.599096
0.601942
0.606835
0.612902
0.619828
0.627029
0.635013
0.643371
0.651876
3.00001
3.00001
3.00001
3.00001
3.00001
3.00001
3.00001
3.00001
3.00001
3.00001
3.00001
3.00001
3
2.99999
2.99993
2.99987
2.99944
2.99933
2.99539
3.00462
2.94957
3.13278
2.86867
2.52792
1.73767
0.982653
0.418755
0.391752
0.441548
0.486264
0.501595
0.50342
0.503733
0.506989
0.512782
0.520601
0.529149
0.537522
0.546282
0.555404
0.564647
0.573619
0.582598
0.592332
0.602379
0.612625
0.622675
0.632608
0.642442
0.651511
3.00001
3.00001
3.00001
3.00001
3.00001
3.00001
3.00001
3.00001
3.00001
3.00001
3.00001
3.00001
3
3
2.99995
2.99989
2.99955
2.99956
2.99683
3.00545
2.95435
3.13075
2.88373
2.5516
1.78766
1.03407
0.445634
0.40446
0.45044
0.490066
0.498482
0.492365
0.487201
0.486443
0.490212
0.496693
0.505608
0.516775
0.529123
0.541373
0.553462
0.565594
0.577732
0.589996
0.601968
0.613177
0.624023
0.63445
0.644579
0.653386
3.00001
3.00001
3.00001
3.00001
3.00001
3.00001
3.00001
3.00001
3.00001
3.00001
3.00001
3
2.99999
2.99999
2.9999
2.99985
2.99936
2.9992
2.9952
3.00427
2.95016
3.13008
2.87379
2.54397
1.76781
1.01928
0.448167
0.409017
0.452474
0.490477
0.498641
0.49416
0.49051
0.490254
0.493986
0.500479
0.509638
0.521152
0.534283
0.548014
0.561643
0.575092
0.588186
0.600865
0.613058
0.624615
0.635283
0.645019
0.654532
0.662714
3.00001
3.00001
3.00001
3.00001
3.00001
3.00001
3.00001
3.00001
3.00001
3.00001
3
3
2.99998
2.99997
2.99982
2.99977
2.99896
2.99854
2.99415
2.99129
2.96553
2.94046
2.78334
2.54288
1.89803
0.88758
0.468215
0.406679
0.454318
0.502484
0.524405
0.53179
0.53485
0.537214
0.539789
0.543684
0.548558
0.553581
0.558536
0.565325
0.573852
0.58228
0.59073
0.599338
0.608076
0.616899
0.625676
0.634241
0.642653
0.65015
3.00001
3.00001
3.00001
3.00001
3.00001
3.00001
3.00001
3.00001
3.00001
3.00001
3
3
2.99998
2.99997
2.99984
2.99975
2.99918
2.99851
2.99516
2.98994
2.96455
2.94177
2.76363
2.57138
1.88391
0.937506
0.501011
0.417086
0.461208
0.512334
0.539725
0.549535
0.551651
0.550425
0.548753
0.54981
0.553033
0.55595
0.559278
0.564974
0.571555
0.578439
0.585875
0.593835
0.60217
0.610812
0.619524
0.628446
0.637277
0.645775
3.00001
3.00001
3.00001
3.00001
3.00001
3.00001
3.00001
3.00001
3.00001
3.00001
3
3
2.99998
2.99997
2.99984
2.9998
2.99917
2.99856
2.9946
2.99135
2.96879
2.94309
2.77521
2.5569
1.87733
0.936595
0.505352
0.419746
0.464518
0.518373
0.547259
0.556764
0.557651
0.554582
0.550422
0.54892
0.550763
0.553543
0.557393
0.563743
0.570737
0.577933
0.585432
0.593254
0.60135
0.609746
0.618234
0.627084
0.635854
0.644547
1.10116
0.782972
0.332317
0.201491
0.17168
0.287858
0.323631
0.33006
0.319383
0.313996
0.313864
0.312034
0.308428
0.301209
0.288911
0.273017
0.253931
0.232992
0.210903
0.188169
0.165157
0.142017
0.118831
0.0956912
0.072633
0.0497566
0.0271767
0.00874424
0.0224767
0.0454663
0.0682798
0.0904718
0.112522
0.133836
0.154207
0.173801
0.194566
0.215542
0.235836
0.255532
0.274853
0.293781
0.31249
0.330853
0.34898
0.366761
0.384454
0.4016
0.418855
0.435517
0.45228
0.46853
0.484849
0.500714
0.516597
0.532133
0.547571
0.562756
0.577809
0.592559
0.607251
0.621561
0.635865
0.649746
0.663637
0.67711
0.690601
0.703658
0.716795
0.729453
0.742275
0.754586
0.767086
0.779105
0.791263
0.803035
0.814887
0.82638
0.837966
0.849141
0.860472
0.871316
0.882344
0.89284
0.903455
0.913568
0.923648
0.933263
0.942665
0.951581
0.960089
0.967994
0.975262
0.981639
0.98706
0.990884
0.993433
0.995623
0.997126
1.00233
1.02802
0.865706
0.643073
0.493945
0.430456
0.34673
0.271462
0.210037
0.14906
0.104689
0.0721958
0.045861
0.0521343
0.0631088
0.0726046
0.0876586
0.103853
0.121011
0.138679
0.156464
0.174231
0.191765
0.209227
0.226616
0.24387
0.261063
0.278098
0.294948
0.311316
0.327648
0.343857
0.36022
0.376464
0.392718
0.408308
0.423454
0.438928
0.455388
0.471509
0.487164
0.502355
0.517393
0.53215
0.546881
0.561133
0.575628
0.589468
0.603583
0.617201
0.630877
0.644245
0.657678
0.670838
0.684034
0.697044
0.709933
0.722756
0.735309
0.747873
0.760038
0.772293
0.784053
0.795939
0.807271
0.818763
0.829661
0.840744
0.851242
0.861916
0.872101
0.882394
0.892409
0.902353
0.91229
0.921963
0.931856
0.941327
0.951151
0.960394
0.970157
0.979249
0.988992
0.997919
1.00754
1.01624
1.0256
1.03399
1.04295
1.05086
1.05923
1.0664
1.07389
1.08002
1.08617
1.09057
1.09442
1.09625
1.09868
1.0996
1.10551
0.99235
0.959066
0.881657
0.817776
0.767368
0.717561
0.666288
0.620788
0.579307
0.54759
0.52274
0.508374
0.497799
0.493976
0.491794
0.491573
0.49603
0.503215
0.511983
0.521684
0.531942
0.542525
0.553207
0.563785
0.573851
0.583727
0.593792
0.603842
0.613723
0.623441
0.633076
0.642654
0.652289
0.662503
0.672522
0.68252
0.692636
0.703944
0.715454
0.726883
0.737793
0.74883
0.75961
0.770468
0.781267
0.792008
0.802838
0.813495
0.824303
0.834847
0.845639
0.85604
0.866762
0.877079
0.887695
0.897969
0.908463
0.918673
0.92908
0.93915
0.949437
0.959349
0.96941
0.97919
0.988898
0.998565
1.00784
1.01733
1.02619
1.03536
1.04393
1.05274
1.06099
1.06956
1.07765
1.08606
1.09398
1.1022
1.10992
1.11789
1.12534
1.13299
1.14012
1.14743
1.15425
1.16121
1.16766
1.17416
1.18013
1.186
1.19133
1.19625
1.20056
1.2042
1.20698
1.2085
1.20915
1.20982
1.20944
1.21346
0.977068
0.995526
0.985618
0.96801
0.949591
0.930554
0.907136
0.881993
0.855901
0.832855
0.816145
0.804886
0.799843
0.7974
0.79576
0.79281
0.79015
0.789654
0.79133
0.794773
0.798914
0.803701
0.809121
0.815049
0.821347
0.827898
0.834581
0.841258
0.847941
0.854578
0.861317
0.868031
0.87492
0.881703
0.888313
0.894294
0.900454
0.907106
0.914524
0.921653
0.928832
0.935821
0.943044
0.950222
0.957602
0.964984
0.972542
0.98012
0.987904
0.995628
1.00364
1.01147
1.01963
1.0276
1.03578
1.04397
1.05202
1.06048
1.06838
1.07701
1.08485
1.09348
1.10132
1.10986
1.11767
1.12613
1.13391
1.14231
1.15023
1.15858
1.16666
1.17489
1.18313
1.19117
1.19935
1.20709
1.21508
1.2226
1.23035
1.23768
1.24519
1.25233
1.2596
1.26654
1.27349
1.2802
1.2867
1.293
1.29891
1.30449
1.3096
1.31409
1.31795
1.32102
1.32283
1.32374
1.32407
1.32425
1.32276
1.3262
0.956652
0.997608
1.01837
1.02994
1.03598
1.03857
1.03655
1.029
1.01942
1.00956
1.00186
0.996376
0.992506
0.98978
0.988128
0.98542
0.981258
0.977466
0.975058
0.973967
0.973599
0.973763
0.97502
0.97675
0.978931
0.981484
0.984529
0.987833
0.991499
0.995329
0.99952
1.00379
1.00847
1.01315
1.01787
1.02208
1.02665
1.03155
1.03746
1.0431
1.04909
1.05468
1.06063
1.06643
1.07244
1.07858
1.08472
1.0912
1.09753
1.1043
1.1109
1.11791
1.12477
1.13197
1.13903
1.14639
1.15355
1.16101
1.16822
1.17571
1.183
1.19051
1.19788
1.20553
1.21303
1.22082
1.22837
1.23619
1.24365
1.25136
1.25867
1.26617
1.27337
1.28062
1.28773
1.29471
1.30176
1.30852
1.3155
1.32212
1.32898
1.33548
1.34213
1.34847
1.35482
1.36093
1.36684
1.37258
1.37792
1.383
1.38757
1.39156