/*--------------------------------*- C++ -*----------------------------------*\
| =========                 |                                                 |
| \\      /  F ield         | OpenFOAM: The Open Source CFD Toolbox           |
|  \\    /   O peration     | Version:  2412                                  |
|   \\  /    A nd           | Website:  www.openfoam.com                      |
|    \\/     M anipulation  |                                                 |
\*---------------------------------------------------------------------------*/
FoamFile
{
    version     2.0;
    format      ascii;
    arch        "LSB;label=32;scalar=64";
    class       volScalarField;
    location    "6";
    object      p;
}
// * * * * * * * * * * * * * * * * * * * * * * * * * * * * * * * * * * * * * //

dimensions      [1 -1 -2 0 0 0 0];

internalField   nonuniform List<scalar> 
7000
(
1
1
1
1
1.00001
1.00002
1.00007
1.00011
1.00035
1.00065
1.00069
1.0051
1.00251
1.01816
0.992799
0.869152
2.45968
2.69745
9.43906
10.997
10.4844
9.97352
9.84871
9.88844
9.99534
10.1294
10.2494
10.3553
10.443
10.5415
10.6188
10.6868
10.7488
10.7915
10.8374
10.8783
10.906
10.9352
10.9476
10.9523
10.9534
10.9532
10.9587
10.9744
11.0011
11.0359
11.0748
11.1129
11.1435
11.1641
1
1
1
1
1.00001
1.00002
1.00007
1.00009
1.00026
1.00067
1.00092
1.00458
1.0016
1.00837
0.991782
0.885031
2.45296
2.68601
9.37715
11.01
10.4941
9.97412
9.84926
9.88915
9.99631
10.1305
10.2502
10.3558
10.4434
10.5417
10.6188
10.6867
10.7487
10.7908
10.8367
10.8774
10.9049
10.9342
10.9465
10.9513
10.9524
10.9524
10.958
10.9738
11.0006
11.0355
11.0747
11.1129
11.1436
11.1643
1
1
1
1
1.00001
1.00002
1.00007
1.00008
1.00032
1.00046
1.00127
1.00605
0.996318
1.00913
1.01833
0.918745
2.43111
2.7561
9.3
11.0161
10.4958
9.97201
9.8487
9.88912
9.99747
10.1313
10.2508
10.3558
10.4431
10.5409
10.6175
10.6851
10.7468
10.7885
10.8341
10.8745
10.9016
10.9308
10.9431
10.9478
10.949
10.9492
10.9549
10.9708
10.9976
11.0326
11.0717
11.11
11.1406
11.1612
1
1
1
1
1.00001
1.00002
1.00007
1.00008
1.0004
1.00042
1.00191
1.0042
1.00495
1.03128
1.01877
0.934091
2.38678
2.65415
9.26285
11.0128
10.494
9.97134
9.85016
9.8907
9.99984
10.1326
10.2519
10.3562
10.4425
10.5395
10.6153
10.6822
10.7433
10.7846
10.8297
10.8695
10.8963
10.9252
10.9375
10.9423
10.9436
10.9439
10.9498
10.9657
10.9925
11.0274
11.0666
11.1048
11.1355
11.156
1
1
1
1
1.00001
1.00001
1.00007
1.00008
1.00041
1.00045
1.00157
1.00471
1.00272
1.02894
1.00692
0.94597
2.34236
2.62681
9.19047
11.0062
10.4936
9.97266
9.85288
9.89319
10.0011
10.1352
10.253
10.3562
10.441
10.5371
10.6117
10.6777
10.7379
10.7786
10.8231
10.8621
10.8886
10.9172
10.9295
10.9343
10.9356
10.9363
10.9422
10.9582
10.9848
11.0198
11.0589
11.0973
11.1279
11.1485
1
1
1
1
1.00001
1.00001
1.00007
1.00008
1.00039
1.00037
1.00192
1.00329
1.00623
1.02488
1.00036
0.930736
2.33152
2.54718
9.06375
10.9934
10.4938
9.97577
9.85721
9.89731
10.0041
10.138
10.2545
10.3563
10.4388
10.5338
10.6068
10.6716
10.7307
10.7705
10.8142
10.8522
10.8783
10.9066
10.9188
10.9236
10.9248
10.9257
10.9316
10.9476
10.9741
11.009
11.0482
11.0867
11.1175
11.1383
1
1
1
1
1.00001
1.00001
1.00007
1.0001
1.00038
1.00051
1.00185
1.00379
1.00458
1.02903
1.05121
0.935824
2.3199
2.61835
8.82017
10.9879
10.4962
9.97983
9.86204
9.90162
10.007
10.1406
10.2558
10.3559
10.4358
10.529
10.6001
10.6634
10.7212
10.7601
10.8028
10.8397
10.8653
10.8931
10.9051
10.9098
10.9109
10.9119
10.9178
10.9335
10.9598
10.9947
11.0339
11.0726
11.1035
11.1246
1
1
1
1
1.00001
1.00002
1.00007
1.00008
1.00041
1.00054
1.00164
1.00506
1.00236
1.03737
1.06122
1.01637
2.18861
2.52382
8.58683
10.9856
10.5106
9.98702
9.8692
9.90805
10.0118
10.1448
10.2581
10.3555
10.4323
10.5228
10.5915
10.653
10.709
10.7473
10.7887
10.8244
10.8494
10.8764
10.8881
10.8925
10.8933
10.8943
10.9
10.9155
10.9415
10.9762
11.0154
11.0543
11.0854
11.1068
1
1
1
1
1.00001
1.00002
1.00007
1.00009
1.00034
1.00045
1.00131
1.00555
1.0029
1.0257
1.00176
0.941511
2.23106
2.40286
8.40538
10.9907
10.5253
9.99465
9.8763
9.91406
10.0157
10.1489
10.2601
10.3541
10.4274
10.5146
10.5805
10.6399
10.6941
10.7314
10.7715
10.8058
10.8299
10.8559
10.8672
10.8712
10.8716
10.8725
10.8779
10.8929
10.9184
10.9528
10.992
11.031
11.0623
11.0842
1
1
1
1
1.00001
1.00001
1.00007
1.00008
1.00041
1.00044
1.00241
1.00275
1.01234
1.02137
1.05517
1.00109
2.11238
2.23842
8.10777
10.9886
10.5528
10.0143
9.89072
9.92562
10.0228
10.1548
10.2628
10.3522
10.4214
10.5046
10.5672
10.6242
10.6762
10.7121
10.7506
10.7833
10.8064
10.8313
10.8418
10.8453
10.8451
10.8458
10.8507
10.865
10.8898
10.9237
10.9626
11.0017
11.0332
11.0556
1
1
1
1
1.00001
1.00001
1.00007
1.00007
1.00041
1.00042
1.00241
1.0029
1.01296
1.02
1.08361
1.07502
1.98298
2.10197
7.67524
10.9898
10.597
10.0503
9.91504
9.94413
10.0319
10.1609
10.2646
10.3486
10.4138
10.4921
10.5511
10.6056
10.6552
10.6892
10.7258
10.7567
10.7784
10.8017
10.8113
10.814
10.8132
10.8135
10.8177
10.8309
10.8547
10.8878
10.9261
10.9651
10.9968
11.0197
1
1
1
1
1.00001
1.00001
1.00007
1.00007
1.00038
1.00042
1.00217
1.00252
1.01277
1.02004
1.08083
1.02928
1.95066
2.11919
7.18501
10.9855
10.64
10.0982
9.94793
9.9692
10.0434
10.1662
10.2649
10.3419
10.4043
10.4765
10.5319
10.5835
10.6306
10.6622
10.6965
10.7253
10.7453
10.7667
10.775
10.7767
10.775
10.7747
10.778
10.7896
10.8118
10.8436
10.881
10.9195
10.9511
10.9746
1
1
1
1
1.00001
1.00001
1.00007
1.0001
1.00039
1.00057
1.00221
1.0031
1.01301
1.02073
1.07909
1.04332
1.8541
1.93643
6.66793
10.9288
10.6802
10.1717
9.99118
10.0016
10.0579
10.1692
10.263
10.3322
10.3933
10.4575
10.5094
10.5578
10.6018
10.6308
10.6623
10.6887
10.7066
10.7256
10.7322
10.7324
10.7298
10.7283
10.7304
10.7397
10.7595
10.7894
10.825
10.8625
10.8937
10.9178
1
1
1
1
1.00001
1.00001
1.00007
1.00007
1.0004
1.00044
1.00228
1.00265
1.01215
1.01589
1.06924
1.07248
1.72986
1.81315
6.14402
10.8547
10.7016
10.2711
10.0417
10.0282
10.0706
10.1681
10.2578
10.3182
10.3798
10.4343
10.4832
10.5281
10.5686
10.5945
10.6228
10.6464
10.6614
10.6777
10.6819
10.6806
10.6766
10.6733
10.6736
10.6798
10.6957
10.7222
10.7552
10.7908
10.821
10.8455
1
1
1
1
1.00001
1.00001
1.00007
1.00007
1.00039
1.00038
1.00219
1.00212
1.01299
1.01822
1.07281
1.02013
1.71817
1.75061
5.63016
10.68
10.6878
10.3767
10.0892
10.0437
10.078
10.1641
10.2485
10.3013
10.3605
10.4079
10.453
10.4938
10.5306
10.5527
10.5773
10.5974
10.6095
10.6219
10.6234
10.6205
10.6144
10.6087
10.6052
10.6077
10.6179
10.6392
10.6678
10.7
10.7279
10.7526
1
1
1
1
1.00001
1.00001
1.00006
1.00007
1.00038
1.0004
1.00216
1.00231
1.01201
1.01664
1.07097
1.05624
1.64051
1.66752
5.30486
10.3123
10.7187
10.4371
10.1188
10.0482
10.0771
10.155
10.234
10.2797
10.3352
10.3769
10.4178
10.4544
10.4873
10.505
10.5254
10.5413
10.5499
10.557
10.5568
10.5514
10.5422
10.5329
10.523
10.5197
10.5235
10.5357
10.557
10.5827
10.6057
10.6295
1
1
1
1
1.00001
1.00001
1.00006
1.00006
1.00035
1.00034
1.00207
1.00224
1.01154
1.0173
1.06516
1.08459
1.54681
1.60328
4.98428
9.866
10.7501
10.4919
10.1391
10.0427
10.0698
10.1431
10.2133
10.2549
10.3038
10.34
10.3768
10.4093
10.438
10.4511
10.4666
10.4777
10.4824
10.4831
10.4822
10.4727
10.4588
10.443
10.426
10.4131
10.4063
10.408
10.4153
10.4282
10.441
10.4616
1
1
1
1
1.00001
1.00001
1.00005
1.00007
1.00032
1.00035
1.00194
1.00192
1.01101
1.01277
1.06333
1.07343
1.50966
1.54903
4.66675
9.35835
10.7825
10.5475
10.1545
10.0293
10.0563
10.1247
10.1851
10.2279
10.2648
10.2967
10.3294
10.3575
10.382
10.3903
10.4003
10.4062
10.4065
10.4019
10.3979
10.3829
10.3622
10.3382
10.3117
10.2858
10.2632
10.2454
10.2313
10.2204
10.2103
10.2171
1
1
1
1
1
1.00002
1.00002
1.00007
1.00023
1.00023
1.0017
1.00149
1.01062
1.01148
1.05941
1.06515
1.46296
1.48297
4.39427
8.82444
10.8399
10.6087
10.1627
10.0088
10.0337
10.099
10.1518
10.1941
10.2199
10.2475
10.2751
10.2985
10.3186
10.3221
10.3264
10.327
10.3238
10.3127
10.3036
10.2808
10.2517
10.2175
10.178
10.1345
10.0885
10.0415
9.98982
9.93257
9.86842
9.83033
1
1
1
1
1
1.00002
1.00003
1.00003
1.00026
1.00028
1.00151
1.00173
1.00732
1.01127
1.04989
1.07072
1.40731
1.53067
4.0101
8.24403
10.9351
10.6931
10.1758
9.98936
10.0074
10.063
10.1134
10.1506
10.1697
10.1916
10.2135
10.2316
10.2463
10.2459
10.2454
10.2416
10.2328
10.2139
10.1982
10.166
10.1269
10.0801
10.0236
9.95685
9.8789
9.78671
9.67369
9.52744
9.33619
9.1244
1
1
1
1
1
1.00002
1.00003
1.00013
1.00017
1.00068
1.00089
1.00282
1.00565
1.00665
1.04708
1.0512
1.33452
1.40856
3.63093
7.44043
11.0705
10.7932
10.1888
9.95893
9.97048
10.013
10.0643
10.0885
10.1028
10.1175
10.1318
10.1435
10.1513
10.1471
10.142
10.1326
10.1161
10.0883
10.0627
10.0198
9.96703
9.90219
9.82105
9.71999
9.5934
9.42963
9.20199
8.85503
8.24707
6.91636
1
1
1
1
1
1.00002
1.00001
1.00012
1.00012
1.00079
1.00088
1.00492
1.00694
1.02512
1.03451
1.03531
1.31314
1.21895
3.3886
6.41324
11.1259
10.8033
10.1447
9.90223
9.90834
9.94353
9.988
10.0073
10.0147
10.0209
10.0269
10.032
10.0331
10.026
10.0171
10.0008
9.97526
9.93829
9.90022
9.84449
9.77553
9.68921
9.57907
9.4385
9.25722
9.01661
8.6815
8.1909
7.46972
6.30663
1
1
1
1
1
1.00001
1.00001
1.00006
1.00005
1.00046
1.00051
1.00301
1.0047
1.02265
1.01071
1.06363
1.16189
1.08995
3.05087
5.42893
11.1226
10.7799
10.1348
9.84944
9.82586
9.84985
9.89207
9.90935
9.91195
9.9117
9.9122
9.91177
9.90721
9.89982
9.8864
9.86365
9.82942
9.78307
9.73388
9.66551
9.58008
9.47389
9.33957
9.1695
8.95304
8.67418
8.30913
7.82474
7.20957
6.39971
1
1
1
1
1
1
0.999999
1.00001
1
1.00012
1.00023
1.00102
1.00222
1.01069
1.00128
1.04185
1.11271
1.01521
2.87912
4.62085
10.8671
10.6331
10.1718
9.82197
9.74636
9.76235
9.79588
9.80909
9.80867
9.80713
9.80376
9.79566
9.78947
9.77814
9.75932
9.73113
9.6902
9.63606
9.578
9.4976
9.39947
9.27951
9.13117
8.94808
8.72238
8.44455
8.10469
7.68925
7.21077
6.61984
1
1
1
1
0.999999
0.999999
0.999992
0.999988
0.999922
0.999892
0.999486
0.999088
0.99765
0.999397
0.990944
1.02302
1.07377
0.969187
2.70326
4.07834
10.2435
10.4439
10.0987
9.74481
9.65295
9.66746
9.69959
9.71566
9.71669
9.7131
9.70414
9.6935
9.68167
9.66555
9.64222
9.60897
9.56377
9.50303
9.43856
9.3493
9.24333
9.11655
8.96399
8.78126
8.5633
8.30515
8.00174
7.64855
7.2434
6.79383
1
1
1
1
1
1
1
1
0.99999
1
0.99974
0.999434
0.997754
0.998099
0.980376
0.999309
1.02503
0.921637
2.54761
3.56613
9.69767
10.4615
10.118
9.71845
9.58914
9.59716
9.62183
9.63931
9.64042
9.63577
9.62442
9.60733
9.58872
9.5665
9.53888
9.50076
9.44889
9.39105
9.31498
9.22267
9.11393
8.98579
8.83538
8.65992
8.45618
8.22158
7.95366
7.65218
7.31515
6.94071
1
1
1
1
1
1
1.00001
1.00001
1.00007
1.00007
1.00067
1.00067
1.005
1.00682
1.03369
1.02714
1.14488
1.32438
1.31554
4.03988
8.14793
10.5195
10.2694
9.78059
9.58567
9.56616
9.5786
9.59362
9.59239
9.58278
9.56028
9.53308
9.50701
9.47924
9.44677
9.40891
9.35675
9.29158
9.21292
9.11984
9.01091
8.8847
8.73956
8.57389
8.38562
8.1731
7.93564
7.66938
7.384
7.06971
1
1
1
1
1
1
1
0.999999
1.00001
1
1.00026
1.00023
1.00242
1.00365
1.02152
1.00945
1.06471
1.17611
1.12953
3.12268
5.826
10.7438
10.5433
9.95973
9.62088
9.53821
9.54298
9.55196
9.54673
9.53011
9.49776
9.46682
9.43758
9.4062
9.37188
9.32733
9.27337
9.20813
9.13007
9.03812
8.93135
8.80969
8.67203
8.51685
8.34326
8.15101
7.93914
7.70616
7.45931
7.19168
1
1
1
1
1
1
1
0.999999
1
0.999971
0.999984
0.999994
0.999343
0.998868
1.00318
0.992622
1.03
1.09255
0.997993
2.79545
4.3465
10.5527
10.5053
10.108
9.68688
9.54732
9.53845
9.53707
9.52678
9.50167
9.46451
9.42887
9.39081
9.3515
9.30907
9.2622
9.20869
9.14287
9.06591
8.97631
8.87331
8.75614
8.62495
8.47979
8.32005
8.14595
7.95359
7.75045
7.53631
7.30528
1
1
1
1
1
1
1
1.00001
1.00001
1.00003
1.00005
0.999816
0.999623
0.997722
0.997815
0.978255
0.996056
1.02033
0.916919
2.52494
3.44821
9.59314
10.5159
10.1913
9.75947
9.57903
9.54003
9.527
9.50849
9.47884
9.44236
9.40055
9.35982
9.31736
9.27039
9.21731
9.16025
9.09296
9.01574
8.92872
8.83062
8.72036
8.59769
8.46272
8.31543
8.15396
7.98356
7.80331
7.61314
7.41022
1
1
1
1
1
1
1
1.00001
1.00001
1.00006
1.00006
1.00033
1.00036
1.00193
1.00314
1.00779
1.01854
1.067
0.99455
2.17657
2.47091
8.25251
10.6312
10.393
9.908
9.64514
9.54592
9.51889
9.50519
9.48112
9.44134
9.39416
9.34432
9.2933
9.24172
9.18435
9.12499
9.06299
8.98471
8.89868
8.80187
8.69565
8.57951
8.45434
8.31813
8.17005
8.01493
7.85233
7.68288
7.50351
1
1
1
1
1
1
1
1.00001
1.00001
1.00005
1.00007
1.0003
1.00034
1.00166
1.00226
1.00891
1.01331
1.0562
1.03399
1.72196
1.92185
6.12673
10.6973
10.6225
10.2375
9.80864
9.59663
9.53881
9.52266
9.49587
9.45076
9.39863
9.34486
9.29061
9.23382
9.17055
9.1062
9.03842
8.95977
8.87762
8.78876
8.68948
8.58041
8.4611
8.33404
8.20193
8.06095
7.91195
7.75685
7.59361
1
1
1
1
1
1
1
1
1.00001
1.00003
1.00003
1.00011
1.0001
1.00006
0.999145
1.00007
0.987167
1.01162
1.0494
0.955951
2.64866
3.88389
10.2678
10.8125
10.4107
9.84943
9.60378
9.54223
9.53072
9.50742
9.46089
9.40368
9.34279
9.28651
9.22795
9.16593
9.10181
9.03167
8.95484
8.87049
8.77929
8.68285
8.58021
8.46941
8.35192
8.22804
8.09748
7.96059
7.81856
7.66963
1
1
1
1
1
1
1
1
1.00001
1.00001
1.00006
1.00008
1.00034
1.00038
1.00188
1.00556
0.998241
1.01308
1.01668
0.897057
2.42774
2.83482
8.95957
10.7072
10.3634
9.82829
9.6005
9.54364
9.53371
9.51359
9.47001
9.41063
9.34729
9.28471
9.2239
9.15928
9.0915
9.01975
8.94326
8.86185
8.77533
8.68198
8.58294
8.47929
8.3699
8.25505
8.13434
8.00806
7.87737
7.74043
1
1
1
1
1
1
1
1
1.00001
1.00001
1.00002
1.0001
1.00029
1.00048
1.00182
1.00239
1.01227
1.01701
1.08016
1.02495
2.00731
2.16579
7.45558
10.6132
10.3881
9.89436
9.63446
9.55277
9.53835
9.51949
9.47919
9.41924
9.35286
9.28487
9.22065
9.15537
9.08623
9.01332
8.93677
8.85584
8.77063
8.68192
8.58871
8.49095
8.38799
8.27928
8.16557
8.04735
7.92528
7.79786
1
1
1
1
1
1
1
1
1
1
1
1.00001
1.00012
1.00018
1.00108
1.00197
1.00991
1.00059
1.03886
1.10296
1.01796
2.83766
4.5568
10.4568
10.5327
10.1781
9.76463
9.58701
9.53795
9.51751
9.47326
9.41743
9.35005
9.28008
9.2084
9.14605
9.07473
9.00281
8.92887
8.8507
8.76848
8.68221
8.59186
8.49728
8.39872
8.29633
8.19012
8.07997
7.96622
7.84749
1
1
1
1
1
1
1
1
1
1.00002
1.00002
1.00009
1.00023
1.00034
1.00134
1.00191
1.00951
1.01056
1.05952
1.05757
1.49749
1.49063
4.54505
8.99489
10.5598
10.3452
9.87053
9.60757
9.52108
9.49499
9.46093
9.40352
9.33792
9.26676
9.19435
9.12928
9.06388
8.99316
8.92071
8.84534
8.76534
8.68143
8.59406
8.50368
8.41022
8.3133
8.21275
8.10864
8.0013
7.8892
1
1
1
1
1
1
1
1
1
1.00002
1.00002
1.00011
1.00015
1.0005
1.00089
1.00131
1.00715
1.00694
1.04621
1.04693
1.3242
1.3338
3.59335
7.15809
10.7531
10.589
10.0705
9.66235
9.50483
9.46451
9.431
9.37989
9.3133
9.24412
9.17454
9.10866
9.04739
8.98001
8.91134
8.83866
8.76212
8.68148
8.59692
8.50944
8.41917
8.32588
8.22982
8.13103
8.02976
7.92458
1
1
1
1
1
1
1
1
1
1.00001
1.00002
1.00009
1.00012
1.00061
1.00071
1.00415
1.00628
1.02781
1.01791
1.07829
1.18954
1.13952
3.05835
5.59387
10.9303
10.7115
10.1089
9.64027
9.45556
9.4137
9.39093
9.34559
9.288
9.22406
9.16054
9.09906
9.03835
8.97557
8.90957
8.83952
8.76502
8.68623
8.60446
8.51958
8.43212
8.34254
8.25086
8.15706
8.0611
7.96177
1
1
1
1
1
1
1
1
1
1
1.00001
1.00003
1.00005
1.00029
1.00039
1.00194
1.00323
1.01421
1.0048
1.04607
1.11676
1.02102
2.88316
4.65812
10.7933
10.5679
10.0948
9.61478
9.41995
9.37814
9.35896
9.32192
9.26422
9.20308
9.1439
9.08511
9.02796
8.96934
8.90771
8.84141
8.77006
8.69418
8.61451
8.53167
8.44645
8.35964
8.2713
8.1815
8.09062
7.99753
1
1
1
1
1
1
1
1
1
1
1.00001
1.00005
1.0001
1.00015
1.0006
1.00163
1.00238
1.00233
1.02549
1.06255
1.0793
1.59381
1.67478
5.34263
10.2059
10.293
9.98694
9.5755
9.39146
9.35487
9.34134
9.31324
9.26269
9.20527
9.14685
9.08906
9.03193
8.97451
8.9133
8.84962
8.78156
8.70922
8.63311
8.55406
8.47182
8.38881
8.30359
8.21734
8.13045
8.04184
1
1
1
1
1
1
1
1
1
1
1
1.00001
0.999991
1.00001
1.0001
0.998903
0.997177
0.998006
0.984115
1.01108
1.05295
0.958109
2.58554
3.7481
9.72632
10.3312
9.99857
9.55226
9.35939
9.32031
9.31541
9.29936
9.26214
9.21113
9.15541
9.09882
9.04209
8.98514
8.92591
8.86436
8.79884
8.73109
8.65814
8.58184
8.50262
8.42157
8.33961
8.25696
8.17363
8.08947
1
1
1
1
1
1
1
1
1
1
1.00001
1.00001
1.00003
1.00004
0.99997
0.999768
0.998534
0.997376
0.984227
0.997189
0.985911
0.955901
2.37943
3.10297
9.24473
10.3883
10.0411
9.56692
9.36306
9.32163
9.31831
9.30564
9.27285
9.22653
9.17274
9.11733
9.06174
9.00599
8.94909
8.88975
8.82719
8.76067
8.69048
8.61709
8.54146
8.46398
8.38505
8.30535
8.22511
8.14438
1
1
1
1
1
1
1
1
1
1
1
1.00002
1.00008
1.00007
1.00063
1.00068
1.0043
1.00715
1.03039
1.02157
1.10534
1.28516
1.2702
3.81522
7.68185
10.6311
10.3514
9.74447
9.44991
9.36847
9.35645
9.3412
9.3096
9.26318
9.21033
9.15561
9.1008
9.04571
8.98897
8.92951
8.86686
8.8014
8.73303
8.6622
8.5891
8.51447
8.43852
8.36197
8.28503
8.20686
1
1
1
1
1
1
1
1
1
1
1
1
1.00002
1.00003
1.00023
1.00028
1.00196
1.00329
1.01637
1.00707
1.05661
1.15416
1.08179
3.0811
5.53349
10.9263
10.641
9.99307
9.57529
9.42114
9.39517
9.38464
9.35939
9.31353
9.26171
9.20825
9.15384
9.098
9.04027
8.98032
8.91794
8.85318
8.78591
8.71657
8.64533
8.57256
8.49885
8.42455
8.34973
8.27339
1
1
1
1
1
1
1
1
1
1
1
0.999998
0.999997
0.999982
0.999986
0.999954
1.0002
1.00101
1.00592
0.996844
1.03312
1.09564
0.999297
2.84331
4.50582
10.836
10.6576
10.2124
9.71841
9.5111
9.46698
9.45146
9.41806
9.37357
9.32026
9.26595
9.21042
9.15343
9.09466
9.0346
8.97198
8.90734
8.84045
8.77178
8.70127
8.62949
8.55674
8.48328
8.40929
8.33479
1
1
1
1
1
1
1
1
1
1
1
1.00002
1.00002
1.00011
1.00012
1.00062
1.00075
1.00368
1.00246
1.02634
1.0578
1.06253
1.50734
1.61697
4.93067
9.93344
10.6712
10.3506
9.84677
9.61191
9.55104
9.52997
9.49514
9.4443
9.38551
9.32503
9.26485
9.20479
9.14405
9.08199
9.01817
8.95282
8.88526
8.81741
8.74674
8.67438
8.60316
8.53082
8.45703
8.38348
1
1
1
1
1
1
1
1
1
1
1
1.00001
1.00001
1.00003
1.00003
0.999991
0.999898
0.998717
0.999541
0.985862
0.992439
1.01649
0.918642
2.53606
3.17715
9.53599
10.7688
10.4108
9.89347
9.6624
9.60289
9.5791
9.54179
9.48851
9.42728
9.36406
9.30119
9.23895
9.17633
9.11271
9.04791
8.98137
8.91327
8.84365
8.77431
8.70135
8.63011
8.5583
8.48609
8.41456
1
1
1
1
1
1
1
1
1
1
1
1
1.00002
1.00005
1.00007
1.0001
1.00075
1.00095
1.0056
1.00255
1.01562
0.991866
0.869955
2.3982
2.60261
9.0321
11.0215
10.6112
10.0194
9.74092
9.63928
9.5926
9.55151
9.49976
9.44112
9.3789
9.31611
9.25138
9.18865
9.12012
9.05288
8.9846
8.9153
8.84465
8.7762
8.70594
8.63631
8.56674
8.49721
8.42791
1
1
1
1
1
1
1
1
1
1
1
1.00001
1.00001
1.00007
1.00007
1.00048
1.00053
1.00306
1.00483
1.02336
1.01075
1.07151
1.1957
1.15999
3.40331
6.68196
11.4113
11.1066
10.3532
9.89021
9.67764
9.59256
9.54546
9.49559
9.43668
9.37274
9.30706
9.24065
9.17445
9.10715
9.03728
8.96908
8.90022
8.83107
8.7628
8.69397
8.62845
8.56006
8.4925
8.42504
1
1
1
1
1
1
1
1
1
1
1
1.00001
1.00001
1.00007
1.00007
1.00039
1.0004
1.00226
1.0024
1.01254
1.01495
1.07337
1.07227
1.76092
1.84306
6.36563
11.2197
11.0039
10.3879
9.89586
9.63773
9.53592
9.49054
9.44747
9.39384
9.33274
9.26833
9.20207
9.13776
9.07046
9.00349
8.93675
8.86896
8.80222
8.7356
8.66978
8.60577
8.54143
8.4775
8.41329
1
1
1
1
1
1
1
1
1
1
1
1.00001
1.00001
1.00005
1.00005
1.00031
1.00035
1.00174
1.00207
1.01048
1.01168
1.0706
1.02892
1.71641
1.71464
5.62007
10.6237
10.8198
10.4565
9.91038
9.60673
9.48551
9.43811
9.39948
9.3489
9.28765
9.22498
9.15531
9.09231
9.02907
8.96527
8.89982
8.83442
8.77242
8.70706
8.64319
8.58045
8.5185
8.45697
8.39506
1
1
1
1
1
1
1
1
1
1
1
1.00001
1.00001
1.00005
1.00005
1.0003
1.00035
1.00171
1.00212
1.00954
1.01118
1.06513
1.01939
1.66418
1.58004
5.24253
9.96399
10.6787
10.38
9.84223
9.53605
9.41635
9.37341
9.33981
9.29338
9.23182
9.1687
9.10683
9.04729
8.98845
8.92951
8.86858
8.80682
8.74813
8.68536
8.62318
8.5627
8.50259
8.44285
8.38246
1
1
1
1
1
1
1
1
1
1
1
1.00001
1.00001
1.00005
1.00005
1.00029
1.00041
1.00172
1.00239
1.01062
1.01169
1.0681
1.06298
1.60334
1.54679
5.03912
9.61585
10.3909
10.1323
9.67549
9.42916
9.3388
9.30415
9.27169
9.2239
9.17039
9.11579
9.06288
9.01175
8.95998
8.90685
8.85134
8.79386
8.7374
8.67661
8.61626
8.55585
8.49603
8.43649
8.37607
1
1
1
1
1
1
1
1
1
1
1
1
1
1.00002
1.00003
1.00018
1.00028
1.001
1.00194
1.00732
0.999285
1.03149
1.07989
0.97757
2.65248
3.94892
9.70597
10.4071
10.1091
9.63978
9.39908
9.31699
9.27539
9.22987
9.17522
9.12306
9.0702
9.02409
8.97991
8.93512
8.88879
8.83892
8.78644
8.7335
8.67606
8.61814
8.55945
8.50037
8.44102
8.37974
1
1
1
1
1
1
1
1
1
1
1
1
1
1.00002
1.00002
1.00013
1.00028
1.00075
1.00138
1.0046
0.996622
1.02581
1.06742
0.95783
2.57107
3.68136
9.29622
10.1638
9.8901
9.45055
9.25253
9.20807
9.19087
9.15892
9.1169
9.07292
9.03264
8.99459
8.95733
8.91655
8.8757
8.83077
8.78253
8.73161
8.677
8.62157
8.5644
8.50599
8.44691
8.38556
1
1
1
1
1
1
1
1
1
1
1
1
1
1.00003
1.00003
1.00021
1.00029
1.0011
1.00201
1.00744
0.999466
1.03038
1.07486
0.971425
2.59352
3.77147
9.32012
10.1253
9.85718
9.42677
9.22137
9.17442
9.15548
9.12606
9.08749
9.04553
9.00698
8.9708
8.93615
8.89956
8.86166
8.82044
8.77628
8.72949
8.67999
8.62931
8.57325
8.51705
8.46144
8.39983
1
1
1
1
1
1
1
1
1
1
1
1.00001
1.00001
1.00006
1.00006
1.00032
1.00041
1.0018
1.00222
1.01039
1.01454
1.06793
1.0582
1.55244
1.51361
4.70621
8.9823
9.92706
9.73294
9.34202
9.13757
9.07485
9.06588
9.05297
9.02839
8.99369
8.95585
8.9201
8.88491
8.86067
8.82639
8.79046
8.75284
8.71297
8.67032
8.62488
8.5754
8.52268
8.46652
8.40637
1
1
1
1
1
1
1
1
1
1
1
1.00001
1.00001
1.00005
1.00006
1.0003
1.00031
1.00172
1.00161
1.01098
1.0168
1.06215
1.11031
1.48021
1.68871
4.35686
8.75996
9.96009
9.77542
9.36967
9.11755
9.02717
9.01911
9.01581
9.0088
8.98972
8.95306
8.91073
8.8779
8.84987
8.81479
8.78039
8.74506
8.70838
8.66986
8.62849
8.58309
8.53269
8.47731
8.41701
1
1
1
1
1
1
1
1
1
1
1
1.00001
1.00001
1.00005
1.00006
1.00028
1.00028
1.00171
1.00222
1.00978
1.01252
1.06077
1.07975
1.51709
1.64363
4.44246
8.83301
9.99203
9.78594
9.34566
9.07389
8.98112
8.98139
8.98406
8.98259
8.97123
8.94368
8.90029
8.86914
8.83924
8.80502
8.77142
8.73724
8.70236
8.66619
8.62737
8.5843
8.53563
8.48141
8.42165
3.17903
3.10549
4.06501
4.37145
4.10468
3.99867
3.95361
3.94626
3.96303
3.97103
3.96854
3.96379
3.96273
3.97553
4.00591
4.04999
4.1018
4.15738
4.2137
4.26833
4.32013
4.36832
4.41349
4.45496
4.49282
4.52766
4.55924
4.58745
4.6135
4.63614
4.65466
4.66868
4.67831
4.68384
4.68468
4.683
4.67755
4.66696
4.6526
4.63477
4.61371
4.58978
4.56305
4.53381
4.50217
4.46838
4.43261
4.39531
4.35638
4.3164
4.27523
4.23333
4.19064
4.14749
4.10387
4.05999
4.01586
3.9716
3.92723
3.8828
3.8383
3.79378
3.74921
3.70465
3.66007
3.61554
3.57108
3.52676
3.48263
3.43875
3.39519
3.35202
3.3093
3.2671
3.22552
3.18461
3.14439
3.10497
3.06631
3.02851
2.99165
2.95574
2.92084
2.88699
2.85426
2.82273
2.79246
2.76359
2.73624
2.7106
2.68686
2.66532
2.64629
2.63032
2.61805
2.61043
2.61065
2.61181
2.61479
2.62172
4.27555
4.12759
4.34083
4.27375
4.08589
3.9736
3.9453
3.95876
3.99497
4.00609
3.99184
3.97077
3.9592
3.97066
4.00155
4.04472
4.09551
4.15074
4.20728
4.26254
4.31505
4.36412
4.40969
4.45184
4.49003
4.52499
4.55678
4.58519
4.61084
4.63297
4.6513
4.6651
4.6746
4.67996
4.68068
4.67934
4.67463
4.66413
4.64864
4.63067
4.60999
4.58632
4.55984
4.53076
4.49935
4.46573
4.43025
4.39305
4.3544
4.31449
4.27351
4.23165
4.18908
4.14596
4.10239
4.05851
4.01438
3.97011
3.92573
3.88129
3.83681
3.7923
3.74778
3.70327
3.65878
3.61434
3.56998
3.52576
3.48173
3.43796
3.3945
3.35144
3.30879
3.26671
3.22521
3.18437
3.1442
3.10482
3.06621
3.02837
2.99155
2.95574
2.92088
2.88713
2.85446
2.82304
2.79286
2.76414
2.73691
2.71146
2.68787
2.66655
2.64775
2.6321
2.62013
2.61317
2.61358
2.61514
2.61873
2.62679
5.32426
4.79278
4.63818
4.42319
4.22219
4.08603
4.0178
3.99374
3.98747
3.98211
3.97234
3.96862
3.97083
3.98262
4.01123
4.05523
4.10547
4.1591
4.21437
4.26876
4.32103
4.37021
4.41535
4.45748
4.49361
4.52792
4.55885
4.5865
4.61102
4.63226
4.64976
4.66249
4.67119
4.67655
4.67645
4.6752
4.67107
4.6616
4.64472
4.62583
4.60499
4.58146
4.55514
4.5262
4.49492
4.46151
4.4262
4.38922
4.35076
4.31104
4.27023
4.22849
4.18601
4.14289
4.09931
4.05537
4.0112
3.96686
3.92244
3.87797
3.8335
3.78902
3.74457
3.70017
3.65582
3.61157
3.56739
3.52342
3.47962
3.43613
3.39289
3.35007
3.30748
3.26559
3.22429
3.18363
3.14362
3.10439
3.06595
3.02851
2.99179
2.95606
2.92134
2.88773
2.85523
2.82397
2.79401
2.76551
2.73858
2.71343
2.69036
2.66958
2.65159
2.63696
2.62574
2.62075
2.62131
2.62344
2.6283
2.63888
5.84775
5.26466
4.92264
4.66256
4.44025
4.26636
4.15153
4.08982
4.06519
4.05786
4.04895
4.03744
4.03342
4.03554
4.04645
4.07395
4.12464
4.17584
4.22647
4.27605
4.32545
4.37239
4.41668
4.45717
4.49398
4.52733
4.55708
4.58368
4.60705
4.62717
4.6437
4.65607
4.66436
4.66828
4.66807
4.66679
4.66305
4.65457
4.6376
4.61774
4.59619
4.5725
4.54631
4.51763
4.48665
4.45358
4.41864
4.38201
4.34391
4.30449
4.26397
4.22247
4.1802
4.13725
4.09382
4.05002
4.00595
3.96175
3.91742
3.87311
3.82875
3.78448
3.74023
3.69614
3.65205
3.6081
3.56411
3.52046
3.47695
3.43377
3.39088
3.34837
3.30644
3.26482
3.22371
3.18322
3.14349
3.10444
3.06624
3.02887
2.99243
2.95695
2.92254
2.88921
2.85708
2.82622
2.79674
2.76879
2.74254
2.7182
2.69606
2.67654
2.65991
2.64677
2.63786
2.63636
2.63733
2.64046
2.64739
2.66218
6.18339
5.65621
5.25966
4.95282
4.70053
4.49448
4.34348
4.24521
4.18726
4.15257
4.12658
4.10484
4.09297
4.09394
4.10002
4.1172
4.15405
4.20196
4.24941
4.29522
4.3402
4.38334
4.42439
4.46206
4.49658
4.52803
4.55599
4.5808
4.60252
4.62105
4.63616
4.64753
4.65497
4.65786
4.65756
4.65621
4.65263
4.64475
4.62887
4.60862
4.58633
4.56217
4.53589
4.50736
4.47666
4.44394
4.40937
4.37313
4.33538
4.29634
4.25611
4.21493
4.17288
4.13018
4.0869
4.04327
3.99932
3.95526
3.91107
3.86695
3.82276
3.77861
3.73458
3.69073
3.64694
3.60337
3.56
3.51679
3.47375
3.43101
3.38855
3.34645
3.30477
3.26351
3.22279
3.18267
3.14327
3.10458
3.06674
3.02973
2.99369
2.95862
2.92465
2.89182
2.86024
2.83001
2.80126
2.77417
2.74893
2.72581
2.70512
2.68725
2.67283
2.6623
2.65775
2.65823
2.66018
2.66514
2.67544
2.6966
6.44616
5.99411
5.60004
5.26783
4.98794
4.75572
4.57315
4.43963
4.34681
4.28585
4.24371
4.21364
4.1946
4.18665
4.18737
4.19237
4.20676
4.23747
4.27782
4.31865
4.35818
4.39622
4.43219
4.46617
4.49735
4.52618
4.55187
4.57477
4.59474
4.61166
4.62537
4.63566
4.64223
4.64424
4.64387
4.64245
4.63888
4.63121
4.61604
4.59623
4.5737
4.54911
4.52257
4.49403
4.46352
4.43113
4.39694
4.36114
4.32381
4.28521
4.24537
4.2046
4.16287
4.12052
4.07753
4.03422
3.99057
3.94679
3.90286
3.8591
3.81533
3.77183
3.72823
3.68484
3.64152
3.59844
3.55548
3.51274
3.47014
3.42784
3.38581
3.34415
3.3029
3.26212
3.22187
3.1822
3.14325
3.10502
3.06764
3.03113
2.9956
2.96111
2.92777
2.89567
2.86491
2.83564
2.80802
2.78225
2.75858
2.73733
2.71887
2.70367
2.69237
2.68595
2.68611
2.68741
2.69109
2.69968
2.71485
2.74529
6.66241
6.27842
5.91133
5.57261
5.27775
5.02708
4.82011
4.65717
4.53492
4.44662
4.38339
4.33719
4.30418
4.28298
4.2719
4.27197
4.27494
4.2851
4.30792
4.34156
4.37628
4.40937
4.44053
4.47023
4.49739
4.52273
4.54562
4.56625
4.58433
4.59946
4.6118
4.62094
4.62661
4.62772
4.6273
4.62579
4.6221
4.61434
4.59969
4.58067
4.55848
4.5339
4.50723
4.47869
4.44828
4.41617
4.38233
4.34699
4.31013
4.27205
4.2327
4.19242
4.15115
4.10927
4.06675
4.02389
3.98074
3.93762
3.89431
3.85102
3.80771
3.76457
3.72142
3.67843
3.63553
3.59284
3.55032
3.50804
3.46598
3.4242
3.38274
3.34163
3.30093
3.2607
3.22101
3.18192
3.14357
3.10596
3.06922
3.03341
2.99863
2.96497
2.93253
2.90146
2.87189
2.844
2.818
2.79414
2.77274
2.75417
2.73888
2.72746
2.72057
2.72013
2.72117
2.72456
2.73227
2.7482
2.76709
2.80481
6.8481
6.51752
6.18313
5.85657
5.55706
5.2934
5.06989
4.88628
4.73969
4.62651
4.54096
4.47651
4.42851
4.39406
4.3708
4.35734
4.35181
4.35288
4.35818
4.37141
4.39699
4.42297
4.44877
4.47326
4.49638
4.5178
4.53744
4.55527
4.57113
4.58401
4.59504
4.60309
4.60789
4.60828
4.60782
4.60621
4.60234
4.59422
4.57984
4.56156
4.54008
4.51594
4.48946
4.46103
4.43072
4.39882
4.36527
4.33035
4.29397
4.25643
4.21763
4.17792
4.13721
4.09586
4.05401
4.01198
3.96952
3.92699
3.88427
3.84155
3.79875
3.75607
3.71344
3.67095
3.62861
3.58645
3.54451
3.50281
3.46137
3.42021
3.37939
3.33891
3.29888
3.25931
3.22031
3.18199
3.14436
3.10753
3.07162
3.03671
3.0029
2.97033
2.93911
2.90943
2.88147
2.85546
2.83167
2.81042
2.7921
2.77715
2.76611
2.75954
2.75914
2.76013
2.7634
2.77092
2.78606
2.80949
2.83037
2.87089
7.00887
6.71995
6.41747
6.1087
5.81469
5.54846
5.31457
5.11485
4.94915
4.815
4.70869
4.6253
4.56028
4.51027
4.47289
4.44575
4.4273
4.41576
4.41354
4.41511
4.42112
4.4347
4.45428
4.47349
4.49232
4.50997
4.52646
4.54131
4.55448
4.5654
4.57479
4.58159
4.58548
4.58546
4.58494
4.58319
4.57902
4.5703
4.55618
4.53875
4.51826
4.49494
4.46905
4.44098
4.41095
4.37931
4.3461
4.3116
4.27574
4.23879
4.20067
4.16163
4.12169
4.08129
4.04025
3.99895
3.95728
3.91545
3.87341
3.83133
3.78917
3.74707
3.70505
3.66316
3.62143
3.57988
3.53857
3.4975
3.45672
3.41624
3.37612
3.33638
3.2971
3.25832
3.2202
3.1827
3.14599
3.11015
3.07529
3.04152
3.00898
2.97783
2.94824
2.92044
2.89465
2.87119
2.85037
2.83262
2.8184
2.80817
2.80243
2.8026
2.80382
2.80737
2.81546
2.83175
2.85301
2.87941
2.90063
2.93828
7.14965
6.89331
6.61899
6.33
6.04633
5.78203
5.54387
5.33476
5.1555
5.00473
4.87994
4.77796
4.69548
4.62903
4.57758
4.53719
4.50613
4.48296
4.46769
4.4579
4.4564
4.45776
4.46245
4.47273
4.48592
4.49932
4.51272
4.52462
4.53501
4.54431
4.55192
4.5574
4.56016
4.56007
4.5594
4.55736
4.55267
4.54302
4.52937
4.51291
4.49349
4.47114
4.44606
4.4186
4.38905
4.35777
4.32495
4.29086
4.25554
4.21917
4.18175
4.14346
4.10448
4.065
4.02496
3.98453
3.94372
3.90267
3.86141
3.82005
3.77862
3.73721
3.69587
3.65465
3.61359
3.57273
3.53212
3.49177
3.45173
3.41204
3.37274
3.33387
3.29549
3.25772
3.22064
3.18421
3.14862
3.114
3.08046
3.04816
3.01728
2.98799
2.96055
2.93522
2.9123
2.89218
2.87523
2.862
2.85296
2.84847
2.84883
2.85054
2.85503
2.86467
2.88216
2.90401
2.92747
2.95274
2.97147
3.00246
7.27295
7.0426
6.79176
6.52172
6.25039
5.99183
5.75373
5.53966
5.351
5.18748
5.04787
4.93013
4.83199
4.75118
4.68408
4.62976
4.58598