/*--------------------------------*- C++ -*----------------------------------*\
| =========                 |                                                 |
| \\      /  F ield         | OpenFOAM: The Open Source CFD Toolbox           |
|  \\    /   O peration     | Version:  2412                                  |
|   \\  /    A nd           | Website:  www.openfoam.com                      |
|    \\/     M anipulation  |                                                 |
\*---------------------------------------------------------------------------*/
FoamFile
{
    version     2.0;
    format      ascii;
    arch        "LSB;label=32;scalar=64";
    class       surfaceScalarField;
    location    "6";
    object      phi;
}
// * * * * * * * * * * * * * * * * * * * * * * * * * * * * * * * * * * * * * //

dimensions      [1 0 -1 0 0 0 0];

oriented        oriented;

internalField   nonuniform List<scalar> 
13790
(
0.00290515
3.39134e-14
0.00290515
-3.18441e-11
0.00290515
-3.4536e-11
0.00290515
-1.13866e-10
0.00290515
-3.38618e-11
0.00290515
5.54313e-10
0.00290516
1.90211e-09
0.00290511
5.04518e-09
0.00290524
3.36026e-08
0.00290497
6.0477e-09
0.00290561
8.3439e-08
0.00290193
1.21883e-07
0.00290528
1.16345e-06
0.00291066
4.27247e-06
0.00294986
4.9707e-06
0.00328557
5.91491e-06
0.00299524
5.92208e-06
0.00284033
-4.01097e-06
0.00243545
0.000126248
0.00237495
9.61444e-05
0.00232167
6.57172e-05
0.00226493
5.7954e-05
0.00221778
5.16657e-05
0.00216922
4.85729e-05
0.00209804
4.84577e-05
0.00203036
4.96411e-05
0.00197984
5.32522e-05
0.00194188
5.85102e-05
0.00190997
6.41416e-05
0.00189508
6.932e-05
0.0018578
7.41351e-05
0.00180054
7.74027e-05
0.00172725
8.02478e-05
0.00162125
8.17225e-05
0.00152833
8.36383e-05
0.00144596
8.76977e-05
0.00137029
9.22231e-05
0.00129929
9.90404e-05
0.00121258
0.000103142
0.00111679
0.000104682
0.00101894
0.000104258
0.000919831
0.000103039
0.000824847
0.000102546
0.000728932
0.000103615
0.000628477
0.000106655
0.000519237
0.000111318
0.000400765
0.000116774
0.000274875
0.000122199
0.000141524
0.000128603
0.000136459
0.00301309
1.15558e-12
0.00301309
3.31754e-11
0.00301309
1.46533e-11
0.00301309
2.57271e-12
0.00301309
3.1103e-11
0.0030131
-5.09634e-11
0.00301311
-6.65763e-10
0.00301307
4.90298e-09
0.00301343
-1.34359e-08
0.00301247
7.37329e-08
0.00301431
-1.61264e-07
0.00301552
-2.20205e-07
0.00301071
8.38874e-07
0.00303558
-1.4343e-06
0.00305331
-1.28639e-05
0.00334717
-2.22094e-05
0.00315819
5.42448e-07
0.00304952
-3.54146e-05
0.00261913
0.000234202
0.00253886
0.000198985
0.00245602
0.000157073
0.00238878
0.000127669
0.00233662
0.000109893
0.00228292
0.000102332
0.00220375
0.000101127
0.00212741
0.000104633
0.00206945
0.000112363
0.00202506
0.000123456
0.00198662
0.000135482
0.00196552
0.00014747
0.0019198
0.000157893
0.00185268
0.000164798
0.00176895
0.000169006
0.00165536
0.000171042
0.00155853
0.00017362
0.00147377
0.000179416
0.00139788
0.000187071
0.0013276
0.000196147
0.00124354
0.000202823
0.00115128
0.000205831
0.00105601
0.000206365
0.00095709
0.000206271
0.000859848
0.000207676
0.000759537
0.000211906
0.000653291
0.000219316
0.00053762
0.000229155
0.000412669
0.000239986
0.000280483
0.000250582
0.000142314
0.000261874
0.000273552
0.00312505
5.02339e-13
0.00312505
-1.35209e-12
0.00312505
2.65707e-11
0.00312505
1.30667e-11
0.00312505
5.33034e-11
0.00312505
8.48838e-12
0.00312505
-9.43932e-10
0.00312506
2.275e-09
0.00312527
-2.8579e-08
0.00312461
1.00152e-08
0.00312679
-3.87622e-07
0.00311702
5.13246e-07
0.00314768
-3.60858e-06
0.00310173
-6.11917e-06
0.00314433
-1.10812e-05
0.00334194
-2.54899e-05
0.00317681
9.38539e-06
0.00298521
6.04098e-05
0.00265896
0.000251218
0.00258987
0.000293952
0.0025225
0.000231271
0.00246368
0.000187083
0.00241946
0.000159655
0.00237336
0.000149125
0.00229779
0.000150221
0.00222166
0.000157911
0.00216303
0.00017129
0.00211802
0.000189192
0.00207872
0.000208145
0.00205809
0.000227822
0.00201169
0.000244792
0.00194202
0.000256048
0.00185473
0.000262968
0.00173519
0.000265859
0.00163246
0.000268717
0.00154284
0.000275796
0.00146314
0.000285588
0.00139004
0.000296916
0.00130303
0.000306013
0.00120711
0.00031103
0.00110738
0.000313279
0.00100296
0.000315001
0.000899839
0.00031892
0.00079341
0.000326597
0.000681023
0.000338399
0.000559158
0.00035332
0.000428049
0.00036933
0.000289809
0.000384905
0.000146251
0.00040039
0.000414431
0.00324116
4.75209e-12
0.00324116
1.15846e-11
0.00324116
-1.71049e-12
0.00324116
1.74222e-11
0.00324116
-1.4476e-11
0.00324116
4.71123e-10
0.00324115
-1.28947e-10
0.00324116
-3.40206e-09
0.00324116
-4.63798e-09
0.00324099
-2.21357e-08
0.00324248
-8.51789e-09
0.00323652
-8.26765e-08
0.00325627
8.51082e-08
0.00319688
5.35527e-07
0.00331794
3.31463e-06
0.00345524
-1.80834e-06
0.00324808
1.86482e-05
0.00316453
3.85684e-05
0.00276423
0.00031672
0.00271133
0.000366652
0.00263871
0.000307447
0.00257971
0.000248113
0.00253511
0.000211808
0.00248804
0.000198481
0.00240918
0.000202798
0.00232728
0.000214638
0.00226358
0.000234306
0.00221458
0.00025902
0.00217216
0.000284528
0.00214992
0.000311974
0.00210171
0.000335561
0.00202938
0.000351188
0.00193914
0.000360903
0.00181432
0.000364132
0.00170688
0.000366789
0.00161403
0.000374894
0.00153154
0.000386561
0.0014568
0.000400679
0.00136709
0.000412904
0.00126725
0.000420647
0.00116281
0.000425333
0.00105275
0.000429558
0.00094368
0.000436414
0.000831076
0.000447783
0.000712399
0.000464062
0.000584167
0.000483984
0.000446581
0.000505142
0.000301861
0.000525622
0.000152075
0.00054501
0.000561004
0.00336158
7.64672e-13
0.00336158
3.5958e-12
0.00336158
1.61862e-11
0.00336158
2.0897e-11
0.00336158
3.43789e-11
0.00336158
1.84991e-10
0.00336158
5.94744e-10
0.00336159
5.91397e-10
0.0033616
3.8828e-09
0.00336142
1.15894e-08
0.00336419
-6.45798e-08
0.00335676
4.01126e-07
0.00337862
-6.67546e-07
0.00334945
1.77559e-06
0.00344033
2.87557e-06
0.00332178
4.8726e-06
0.00340199
1.96367e-05
0.00327761
5.47851e-05
0.0028481
0.000407261
0.00278236
0.00046043
0.00272249
0.000373955
0.00267053
0.000302162
0.0026289
0.000261078
0.00258048
0.000247929
0.00249765
0.000256015
0.00241398
0.000273839
0.00234884
0.000299778
0.00229786
0.000331605
0.00225422
0.000364031
0.00223083
0.000399392
0.00218076
0.000429125
0.00210658
0.000448407
0.00201471
0.000460149
0.00188707
0.000463164
0.00177775
0.000465348
0.00168403
0.000474411
0.00160054
0.000488073
0.00152613
0.000506038
0.00143517
0.000522447
0.00133223
0.000534084
0.00122338
0.000542374
0.00110761
0.000549882
0.000992354
0.000560263
0.000873268
0.000575744
0.000747887
0.000596718
0.000612671
0.000621822
0.000467943
0.000648097
0.000316051
0.000673445
0.000159142
0.000696651
0.000714536
0.00348648
6.53403e-12
0.00348648
6.85161e-12
0.00348648
1.76555e-11
0.00348648
-2.37576e-12
0.00348648
1.93027e-10
0.00348648
2.84151e-10
0.00348648
2.33034e-09
0.00348649
1.49269e-10
0.00348655
6.7802e-09
0.00348653
-1.53365e-08
0.00348772
-1.85281e-10
0.00348325
-1.42995e-07
0.00349452
1.50531e-07
0.00348706
-9.19392e-08
0.00357722
-1.65605e-05
0.00353583
-1.53569e-05
0.00358435
3.13206e-05
0.00351417
2.99292e-06
0.00295964
0.000603377
0.00288785
0.000571911
0.00282769
0.00044526
0.00277342
0.000357958
0.00272928
0.000312348
0.00267644
0.000300119
0.00258856
0.000312404
0.00250344
0.000335228
0.00243797
0.000367123
0.00238574
0.000406218
0.00234194
0.000446336
0.00231682
0.000489669
0.00226363
0.000525644
0.00218657
0.000548361
0.00209216
0.000561246
0.00196155
0.000563412
0.00185056
0.000564684
0.00175614
0.000574509
0.00167178
0.000590527
0.00159755
0.000612838
0.0015053
0.000634454
0.0013994
0.000651003
0.00128647
0.000663885
0.0011654
0.000675536
0.00104428
0.000690154
0.000918927
0.00071032
0.000786866
0.000736381
0.000644516
0.000767036
0.000492213
0.000798739
0.000332372
0.000829205
0.000167346
0.000856337
0.000876189
0.00361602
4.58194e-13
0.00361602
2.7819e-11
0.00361602
4.63758e-11
0.00361602
1.20964e-10
0.00361602
1.34502e-10
0.00361602
1.10981e-10
0.00361604
-8.27187e-10
0.00361592
5.57576e-09
0.00361607
-6.94168e-10
0.00361551
4.38484e-09
0.00361774
8.41759e-08
0.00361175
-3.57736e-07
0.0036351
6.20912e-07
0.00356621
-1.95394e-06
0.00369476
-2.0515e-06
0.00377648
-1.69921e-05
0.00366547
4.06245e-05
0.00350234
6.66841e-05
0.00302638
0.000626147
0.00294085
0.000668132
0.00288909
0.000510826
0.00284205
0.000411483
0.00280367
0.000361016
0.00275676
0.000348606
0.00267462
0.000365276
0.00259532
0.000393125
0.00253401
0.000431742
0.00248346
0.000479322
0.00244183
0.000528433
0.00241756
0.000580853
0.00236328
0.000623867
0.00228412
0.000650787
0.00218699
0.000665247
0.00205178
0.00066694
0.00193664
0.000667221
0.00183883
0.000677784
0.00175076
0.000696352
0.00167443
0.000723209
0.00157922
0.000750422
0.00146939
0.000772276
0.001352
0.000790152
0.00122582
0.000806439
0.00109919
0.00082575
0.000967929
0.000851153
0.000829388
0.000882907
0.000679775
0.000919783
0.000519263
0.000957643
0.000350746
0.000993613
0.000176645
0.00102504
0.00104708
0.00375038
1.32622e-11
0.00375038
1.1474e-12
0.00375038
9.04594e-11
0.00375038
1.05345e-10
0.00375038
4.46904e-10
0.00375037
2.33354e-10
0.00375037
2.24522e-09
0.00375036
-3.49696e-10
0.00375042
1.78781e-08
0.00374996
2.46056e-08
0.00375273
1.51157e-07
0.00374541
-2.04243e-08
0.00377769
-9.7717e-08
0.00369008
1.52168e-06
0.00369665
1.37438e-05
0.00370812
2.17136e-05
0.00383009
1.72361e-05
0.00362394
7.73968e-05
0.00319491
0.000678151
0.00311247
0.000763915
0.00304521
0.000598754
0.00299273
0.000476174
0.00295099
0.00041754
0.00289762
0.000405992
0.00280614
0.000425783
0.00271956
0.000457311
0.00265312
0.00050138
0.0025982
0.000556296
0.00255503
0.000613142
0.00253004
0.000674247
0.0024751
0.000724022
0.00239499
0.00075523
0.00229694
0.000772133
0.00215712
0.000774563
0.00203594
0.00077427
0.00193276
0.000785994
0.00183887
0.000807304
0.00175862
0.000838737
0.00165916
0.000871624
0.00154455
0.000898864
0.0014222
0.000921722
0.00129076
0.000942808
0.00115861
0.000967042
0.00102149
0.0009982
0.000876307
0.00103649
0.000719111
0.00108042
0.000550088
0.00112519
0.000371852
0.00116774
0.000187377
0.00120413
0.00122867
0.00388972
1.59169e-12
0.00388972
2.2686e-11
0.00388972
-1.81381e-11
0.00388972
2.4991e-11
0.00388972
-1.23123e-10
0.0038897
7.20362e-10
0.00388974
-1.50561e-09
0.00388961
1.14369e-09
0.00388984
-1.26064e-08
0.00388939
-4.48398e-09
0.00389245
-2.67994e-07
0.00388439
6.91821e-07
0.00390675
-2.6508e-06
0.00390724
6.7654e-07
0.00397
-1.65122e-05
0.00391999
-2.70781e-05
0.003962
5.17637e-05
0.00387284
0.000108972
0.00328696
0.000811854
0.00315858
0.000881342
0.00311962
0.000660731
0.00309576
0.000521852
0.00307238
0.000464113
0.00302992
0.000457735
0.00293885
0.000485857
0.00284775
0.000525419
0.00277559
0.000576471
0.00271448
0.000638558
0.00266908
0.000701665
0.00264287
0.000770386
0.00258784
0.000825819
0.00250778
0.000860598
0.00240996
0.00088002
0.00226708
0.000883794
0.00214134
0.000883798
0.00203375
0.000897679
0.00193442
0.000922489
0.00185051
0.000959013
0.00174708
0.000998111
0.00162763
0.00103091
0.00150004
0.00105893
0.001363
0.00108496
0.00122497
0.00111452
0.00108166
0.001152
0.000929439
0.0011977
0.000763793
0.00125004
0.000584947
0.00130282
0.000395996
0.00135263
0.000199619
0.00139489
0.00142246
0.00403424
2.20266e-12
0.00403424
2.36234e-12
0.00403424
5.22657e-11
0.00403424
1.28522e-10
0.00403424
2.78753e-10
0.00403424
-1.12076e-11
0.00403423
1.28202e-09
0.00403425
1.91316e-09
0.00403419
2.7317e-09
0.00403435
4.82964e-09
0.00403384
-2.24027e-08
0.00403417
8.90946e-08
0.00404122
-3.98467e-07
0.00402406
7.11842e-07
0.00414888
-7.77937e-06
0.00372321
-2.89207e-05
0.00398396
5.31129e-05
0.00406426
9.32688e-05
0.00348179
0.000852259
0.00338448
0.000961703
0.00333743
0.00074478
0.00330504
0.00058489
0.00327056
0.000524637
0.003215
0.000524197
0.00310856
0.000560295
0.00300326
0.000606378
0.00291918
0.000663188
0.00284691
0.000730523
0.00279691
0.00079773
0.00276583
0.000872696
0.00270721
0.00093139
0.00262496
0.000968269
0.00252579
0.000989506
0.00237947
0.000994302
0.00224984
0.000994879
0.00213906
0.00101137
0.00203588
0.00104027
0.00194985
0.00108255
0.00184359
0.00112847
0.00172018
0.00116747
0.00158772
0.00120129
0.00144513
0.00123296
0.00130085
0.00126863
0.00115056
0.00131343
0.000990592
0.00136734
0.000815663
0.00142928
0.000625683
0.0014918
0.000423903
0.00155051
0.000214196
0.00159916
0.00163077
0.00418414
1.54988e-11
0.00418414
8.90414e-12
0.00418414
7.52842e-11
0.00418414
1.0011e-10
0.00418414
3.30567e-10
0.00418413
5.06229e-10
0.00418413
1.31212e-09
0.00418414
1.76168e-09
0.00418406
9.68562e-09
0.00418427
7.37947e-09
0.0041837
8.96634e-08
0.0041838
1.74751e-07
0.00418607
2.73253e-07
0.00417996
5.31803e-07
0.0041759
1.72349e-06
0.00406243
5.59659e-06
0.00410959
3.6268e-05
0.00419898
3.41471e-05
0.00363508
0.000864383
0.00356138
0.00100768
0.00352095
0.000834582
0.00349237
0.000652769
0.00345246
0.000592168
0.00338782
0.000599825
0.00327123
0.000641911
0.00315736
0.000694072
0.00306671
0.000756241
0.00298682
0.000828256
0.00293643
0.000900353
0.00289976
0.00097982
0.00283558
0.00104091
0.00274915
0.00107911
0.00264665
0.00110127
0.00249591
0.00110633
0.00236261
0.00110728
0.00224932
0.00112631
0.00214341
0.00115949
0.00205652
0.00120785
0.0019489
0.00126142
0.0018227
0.00130755
0.00168612
0.00134809
0.00153839
0.00138657
0.00138788
0.00142946
0.0012303
0.00148283
0.00106124
0.00154677
0.000875948
0.00161934
0.000673748
0.0016933
0.000457441
0.00176269
0.000230911
0.00182026
0.00185579
0.0043396
4.89501e-12
0.0043396
3.01278e-11
0.0043396
2.97171e-11
0.0043396
1.09235e-10
0.0043396
5.33769e-11
0.0043396
3.28629e-10
0.0043396
2.04917e-10
0.00433961
-4.45239e-09
0.00433959
-6.83894e-10
0.0043397
-2.76368e-08
0.00433922
-4.4989e-09
0.00434081
-1.09933e-07
0.00434347
-1.7264e-08
0.0043304
9.88798e-08
0.00435484
1.98921e-06
0.00428052
-2.99609e-06
0.00430033
4.89071e-05
0.00417032
0.000100867
0.0037613
0.000762916
0.00364948
0.00108946
0.00362093
0.000921692
0.00361885
0.000712429
0.00358565
0.000657741
0.00352166
0.000675634
0.00340663
0.000721218
0.00329516
0.000779735
0.0032069
0.00084795
0.00312538
0.000925659
0.00307787
0.00100382
0.00303836
0.00108901
0.00297116
0.00115247
0.00288185
0.00119196
0.00277676
0.00121491
0.00262195
0.00122018
0.00248502
0.00122142
0.0023693
0.00124279
0.00226093
0.00128024
0.00217368
0.00133479
0.00206559
0.00139669
0.00193757
0.00145096
0.00179732
0.00149933
0.00164496
0.00154585
0.00148814
0.00159734
0.00132306
0.00166065
0.00114476
0.00173623
0.000947205
0.00182225
0.000730217
0.00190953
0.000497116
0.00199159
0.000252022
0.00205942
0.00210172
0.00450084
9.40654e-12
0.00450084
2.07573e-11
0.00450084
5.21571e-11
0.00450084
1.08264e-10
0.00450083
1.64672e-10
0.00450084
5.05173e-10
0.00450083
6.2034e-10
0.00450085
6.48372e-09
0.00450085
1.78596e-09
0.00450067
3.13227e-08
0.00450032
-4.94021e-09
0.0045005
7.61568e-08
0.00450062
2.63808e-07
0.00449664
1.70769e-06
0.00447969
3.20264e-06
0.00466161
-3.88443e-06
0.00445836
4.50352e-05
0.00461374
7.81703e-05
0.00404788
0.000670047
0.00389768
0.00115152
0.00382112
0.00102661
0.00381054
0.000794534
0.00376292
0.00073956
0.0036825
0.000765259
0.0035599
0.000805561
0.00344765
0.000865182
0.00336031
0.000939869
0.00327757
0.0010239
0.00323373
0.00111015
0.00319017
0.00120066
0.00311994
0.00126633
0.00302831
0.0013068
0.00292151
0.00133044
0.0027634
0.00133628
0.00262279
0.00133751
0.00250426
0.00136099
0.00239292
0.00140273
0.00230525
0.00146337
0.00219734
0.00153412
0.00206811
0.00159728
0.00192455
0.0016546
0.00176793
0.0017106
0.00160484
0.00177224
0.0014315
0.00184759
0.00124305
0.00193643
0.00103287
0.00203848
0.000799498
0.002143
0.000545758
0.00224155
0.000276926
0.00232272
0.0023724
0.00466806
2.3374e-11
0.00466806
8.5993e-12
0.00466806
1.11935e-10
0.00466807
3.33719e-11
0.00466806
5.15306e-10
0.00466807
6.48419e-10
0.00466805
2.01796e-09
0.00466809
3.52379e-09
0.00466801
6.54728e-09
0.00466821
2.77278e-08
0.00466757
5.11011e-08
0.00466708
1.5399e-07
0.00467101
1.54534e-07
0.00465267
2.16383e-07
0.00468443
1.21261e-06
0.00444511
6.96446e-06
0.00462795
2.87844e-05
0.00474034
4.99254e-05
0.00435002
0.000560489
0.0041289
0.00125657
0.00403758
0.00110245
0.00400967
0.000891019
0.00394892
0.000831916
0.00385448
0.000855488
0.00372277
0.000891912
0.00361134
0.000952092
0.00352433
0.00103401
0.003442
0.00112412
0.00340257
0.00122047
0.00335492
0.00131491
0.00328193
0.00138231
0.00318854
0.001423
0.00308079
0.00144687
0.00291909
0.00145298
0.00277403
0.001454
0.00265293
0.00147961
0.00253914
0.00152575
0.00245173
0.00159233
0.00234526
0.00167247
0.00221586
0.00174544
0.00207021
0.00181299
0.00191049
0.00187994
0.00174147
0.00195394
0.00156065
0.00204281
0.00136171
0.00214856
0.00113697
0.00226994
0.000884875
0.00239498
0.000607454
0.00251419
0.00030969
0.00261445
0.00267557
0.00484151
1.95052e-11
0.00484151
4.42303e-11
0.00484151
1.26096e-10
0.00484151
3.18519e-10
0.0048415
5.7718e-10
0.00484152
1.37305e-09
0.00484149
2.88775e-09
0.00484152
3.02045e-09
0.00484144
1.20712e-08
0.00484157
1.62807e-08
0.00484129
4.72023e-08
0.00484225
4.07273e-08
0.00483945
4.01787e-07
0.00485404
8.0555e-07
0.0048428
1.72965e-06
0.00506729
-4.35213e-06
0.004862
3.00243e-05
0.0048113
4.26534e-05
0.00470093
0.000451914
0.00437431
0.00128517
0.0043206
0.00114966
0.00425745
0.000991113
0.00417504
0.000926716
0.00405783
0.000948467
0.00390757
0.00098473
0.00378999
0.00104748
0.00369648
0.00113642
0.00361389
0.00123119
0.00357507
0.00133655
0.00352386
0.00143268
0.0034485
0.00149907
0.0033543
0.00153804
0.00324649
0.00156101
0.00308331
0.00156655
0.00293653
0.00156788
0.00281502
0.00159618
0.00270061
0.00164721
0.00261484
0.00171999
0.00251212
0.00181003
0.00238414
0.00189422
0.00223799
0.00197332
0.00207664
0.00205297
0.00190335
0.00214158
0.00171462
0.00224702
0.00150498
0.00237138
0.00126527
0.00251686
0.000991935
0.00266843
0.000686432
0.00281569
0.000351964
0.00294186
0.00302057
0.00502139
3.65558e-11
0.00502139
2.96982e-11
0.00502139
1.16906e-10
0.0050214
9.00366e-11
0.00502139
5.47871e-10
0.00502139
1.10016e-09
0.00502138
3.83057e-09
0.00502141
6.42754e-09
0.00502126
2.00656e-08
0.00502147
3.84285e-08
0.00502099
6.58741e-08
0.00502243
1.11383e-07
0.00502056
2.47512e-07
0.00503269
6.28023e-07
0.00499679
2.07047e-06
0.00521513
-8.34976e-07
0.00501825
3.20908e-05
0.00505081
4.69216e-05
0.00488298
0.000395492
0.00452346
0.0012843
0.00447287
0.00120661
0.00443528
0.00105494
0.00435797
0.00100145
0.00423308
0.00103019
0.00408291
0.00107114
0.00396845
0.00114435
0.00387248
0.00124312
0.00379669
0.00134427
0.00375689
0.00145737
0.00370004
0.00155214
0.00362105
0.00161474
0.00352642
0.00164992
0.00341923
0.00167051
0.00325626
0.0016748
0.00310996
0.00167684
0.00299028
0.00170823
0.00287825
0.00176462
0.00279611
0.00184408
0.00270028
0.00194402
0.00257679
0.00204116
0.00243251
0.00213361
0.00227226
0.00222783
0.0020971
0.00233255
0.00190243
0.00245774
0.00168148
0.00260674
0.00142881
0.00277793
0.00113301
0.0029649
0.000792797
0.00315193
0.000412109
0.00331633
0.00342531
0.00520796
4.90763e-11
0.00520796
-7.77811e-11
0.00520796
2.10208e-10
0.00520796
-2.35299e-10
0.00520796
5.63161e-10
0.00520797
4.07156e-10
0.00520795
2.87079e-09
0.005208
1.43984e-09
0.00520784
1.52592e-08
0.00520813
2.26253e-08
0.00520773
9.19254e-08
0.00520772
1.65383e-07
0.00520837
4.32048e-07
0.00519602
1.52352e-06
0.00521657
2.36883e-06
0.00500812
4.0327e-06
0.00515274
2.82497e-05
0.00516504
3.792e-05
0.00504676
0.000382303
0.00473177
0.00126845
0.00469851
0.00125454
0.00465599
0.00111757
0.00456332
0.00107492
0.00441529
0.00110688
0.00426953
0.00115922
0.00415817
0.00124668
0.00405771
0.00135446
0.00398975
0.00146424
0.00394604
0.0015819
0.00388496
0.0016719
0.00380448
0.00172832
0.00371135
0.00175771
0.00360662
0.0017745
0.00344641
0.00177708
0.00330253
0.00178013
0.0031858
0.00181492
0.00307786
0.00187693
0.00299966
0.00196267
0.0029133
0.00207325
0.00279711
0.00218442
0.00265834
0.00229161
0.00250228
0.00240197
0.00232666
0.00252528
0.0021297
0.00267147
0.00190487
0.0028449
0.00163812
0.00305356
0.00132111
0.00328348
0.000944167
0.00352434
0.000499398
0.00375375
0.00391677
0.00540147
1.28038e-11
0.00540147
-2.68198e-11
0.00540147
7.88617e-12
0.00540147
-2.8584e-10
0.00540146
8.6523e-10
0.00540147
-2.47046e-09
0.00540145
7.44499e-09
0.00540148
2.38273e-10
0.00540136
3.12175e-08
0.00540177
4.73285e-08
0.00540083
1.20293e-07
0.00540324
2.46062e-07
0.00540008
4.58599e-07
0.00541053
1.05357e-06
0.00540157
2.60075e-06
0.00543832
5.02766e-06
0.00533947
2.36837e-05
0.00539485
3.89784e-05
0.00527474
0.000334464
0.00497807
0.0012272
0.00494135
0.00131148
0.00488176
0.00118932
0.00476621
0.00115078
0.00460504
0.00118376
0.00446597
0.00125123
0.00435774
0.00135404
0.00425733
0.00147096
0.00420009
0.00159358
0.0041514
0.0017086
0.00408894
0.00179062
0.00401023
0.00183795
0.00392133
0.00185975
0.0038206
0.00187207
0.00366345
0.00187273
0.00352181
0.00187706
0.00340826
0.00191553
0.0033064
0.00198306
0.00323066
0.00207573
0.00315725
0.00219712
0.00305206
0.00232319
0.00292144
0.00244657
0.00277052
0.00257395
0.00260087
0.00271493
0.00240831
0.00288246
0.00218382
0.00308559
0.0019168
0.00333048
0.00158333
0.00361854
0.00116737
0.00393616
0.000647058
0.00426732
0.0045556
0.00560216
3.28911e-13
0.00560216
1.37251e-11
0.00560216
3.91445e-11
0.00560216
5.07327e-11
0.00560216
2.2858e-10
0.00560217
-5.10268e-10
0.00560216
9.99231e-11
0.00560213
3.6606e-09
0.00560189
2.09383e-09
0.00560237
-2.18108e-08
0.00560124
5.44549e-08
0.00560628
-5.40844e-08
0.00559984
7.67016e-07
0.00561463
5.91032e-07
0.00561278
3.74474e-06
0.00560371
3.27628e-06
0.00554445
2.24888e-05
0.0057176
2.52804e-05
0.00545476
0.000344774
0.00512558
0.00124444
0.00510615
0.00134513
0.00505835
0.00122261
0.00494017
0.00119573
0.00478941
0.00124916
0.00466857
0.00134032
0.00456661
0.00146503
0.00447943
0.0015947
0.00442984
0.00172537
0.00437778
0.00183277
0.00431599
0.00190286
0.004242
0.00193839
0.00416055
0.00195178
0.00406605
0.00196036
0.0039135
0.00196065
0.00377438
0.00196666
0.0036649
0.0020085
0.00356824
0.00208338
0.00349559
0.00218328
0.00343698
0.00231408
0.00334497
0.00245545
0.0032272
0.00259399
0.00308898
0.00273608
0.00293191
0.0028943
0.00275192
0.00308226
0.00254166
0.00331204
0.00228425
0.0035993
0.00195822
0.00394717
0.00152481
0.00436628
0.000919388
0.00486601
0.00546716
0.00581031
-4.60397e-12
0.00581031
3.96086e-11
0.00581031
6.49864e-11
0.00581031
1.61775e-10
0.0058103
3.42385e-10
0.00581032
-1.38727e-10
0.00581028
1.06759e-09
0.00581041
-1.39938e-08
0.00580996
1.29354e-08
0.00581111
-8.95384e-08
0.00581028
9.38313e-08
0.00581083
-3.79293e-07
0.00581422
3.05508e-07
0.00579717
-1.57053e-07
0.00580977
1.77731e-06
0.00570091
2.81517e-06
0.00584972
2.51728e-05
0.00529299
5.52772e-05
0.00576115
0.000308035
0.00546561
0.00116932
0.00542742
0.00136702
0.00531593
0.00126984
0.00515511
0.00125574
0.00501101
0.00133024
0.00489191
0.00144385
0.00478469
0.00158745
0.00470623
0.00172754
0.00466111
0.00185793
0.00461371
0.00195057
0.00455981
0.00200331
0.00449679
0.00202402
0.00442754
0.00202842
0.00434339
0.00203441
0.00419856
0.00203576
0.00406186
0.00204642
0.00395397
0.0020942
0.00386297
0.00217628
0.00379397
0.00228287
0.0037493
0.00242159
0.00367642
0.00257449
0.00357723
0.0027262
0.00345746
0.00288116
0.00332183
0.00305295
0.00316876
0.00325607
0.00299101
0.00350638
0.00277947
0.00382244
0.00250207
0.00423073
0.00211277
0.00475348
0.00151314
0.00546005
0.00697242
0.00840003
-1.71065e-12
0.00840003
6.16935e-11
0.00840003
1.12735e-10
0.00840003
4.65106e-10
0.00840002
7.96795e-10
0.00840002
2.42504e-09
0.00840001
4.28716e-09
0.00840005
9.24453e-09
0.0083999
2.08907e-08
0.00840056
1.17089e-08
0.0083984
6.69476e-08
0.00840578
-1.66856e-07
0.00838897
7.97274e-08
0.00845261
-2.57385e-06
0.00835412
2.30784e-06
0.0084723
1.97365e-06
0.0084801
1.97649e-05
0.00762793
5.45086e-05
0.00843586
0.000292645
0.00801961
0.0010639
0.0079149
0.00143195
0.00771982
0.0013992
0.00749256
0.00139575
0.00730286
0.00146989
0.00713673
0.00160841
0.00699544
0.00176906
0.00692677
0.00191807
0.00687988
0.00202602
0.00683367
0.00208602
0.00678128
0.00210654
0.00671939
0.00210393
0.00665057
0.00209807
0.00655097
0.00210186
0.00636646
0.00210759
0.00619081
0.00213243
0.00605314
0.00219372
0.00594344
0.00228728
0.00585983
0.00240219
0.00582925
0.00254603
0.00577507
0.00270744
0.00569017
0.00286817
0.00558315
0.00303117
0.0054642
0.00320702
0.00534007
0.0034102
0.00521944
0.0036522
0.0051087
0.003953
0.00503661
0.00431268
0.00506996
0.00472291
0.00543085
0.00509397
0.00499709
0.00739582
0.00840003
4.19205e-13
0.00840003
4.58773e-11
0.00840003
9.38376e-11
0.00840003
3.88353e-10
0.00840002
6.86367e-10
0.00840001
2.76599e-09
0.00840006
4.16051e-09
0.00839993
1.79336e-08
0.00839999
2.9121e-08
0.0083996
1.06662e-07
0.00839941
1.68541e-07
0.00839798
6.06553e-07
0.00840216
1.05437e-06
0.00844148
2.20909e-06
0.00831353
6.82225e-06
0.00903168
7.55964e-06
0.00872506
3.59684e-05
0.00926654
6.47202e-05
0.00812162
0.000200427
0.00768642
0.000755635
0.00768106
0.00139533
0.00755838
0.00153462
0.00746117
0.00149476
0.00731703
0.00161644
0.00716849
0.0017863
0.00708627
0.00194733
0.00704399
0.00207489
0.00701687
0.00214701
0.0069924
0.00216865
0.00696363
0.00215833
0.00692954
0.00213864
0.0068824
0.00212832
0.00678797
0.00213127
0.00663043
0.0021477
0.00648763
0.00219173
0.00637783
0.00226876
0.00629261
0.00237534
0.00622691
0.00249727
0.00622727
0.00264127
0.00622053
0.00280302
0.00619728
0.00296109
0.0061621
0.00311912
0.00612966
0.00328087
0.00611214
0.0034602
0.00613002
0.00366147
0.00621641
0.00388828
0.00640503
0.00413908
0.00677721
0.00435708
0.00733626
0.00453567
0.00425288
0.00807634
0.00840003
-9.7106e-13
0.00840003
7.62249e-12
0.00840003
2.20777e-11
0.00840003
1.30107e-10
0.00840003
2.92126e-10
0.00840002
1.54847e-09
0.00840006
3.08744e-09
0.00839996
1.31312e-08
0.00840023
2.17291e-08
0.00839969
9.73056e-08
0.00840014
1.51562e-07
0.00839794
6.43823e-07
0.00839953
1.17673e-06
0.00837412
4.01228e-06
0.00837055
5.73455e-06
0.0083354
1.37586e-05
0.00829017
2.19484e-05
0.00825538
3.76152e-05
0.00822191
0.000137518
0.00789604
0.000501671
0.00779674
0.00148527
0.00762274
0.0017244
0.00746421
0.0016991
0.00732269
0.001816
0.00722465
0.00197675
0.0071752
0.0021045
0.00715464
0.00218726
0.00714928
0.00221138
0.00714837
0.00219427
0.00714553
0.00216094
0.0071342
0.00213296
0.0070911
0.00212054
0.00698868
0.00212849
0.00687047
0.00216449
0.00676136
0.00223018
0.00668017
0.00232531
0.00661943
0.00244181
0.00658208
0.00256614
0.00661842
0.00270908
0.00665905
0.00286427
0.00669184
0.00301028
0.0067228
0.0031499
0.00676353
0.00328684
0.00683423
0.00342507
0.006947
0.0035752
0.00713455
0.00372102
0.00741107
0.00387679
0.00779679
0.00397929
0.00828069
0.00405321
0.00388075
0.00865052
0.00840003
-4.25898e-12
0.00840003
-6.16833e-12
0.00840003
-2.26631e-11
0.00840003
-2.62751e-11
0.00840003
-4.53401e-11
0.00840003
4.11967e-11
0.00840002
9.16408e-10
0.00840001
3.12299e-09
0.00840011
1.37202e-08
0.00839983
4.42569e-08
0.0083999
1.57124e-07
0.00839769
4.5228e-07
0.00839834
1.21395e-06
0.00839414
3.22917e-06
0.00838566
4.68393e-06
0.00834838
1.01832e-05
0.0083202
1.64963e-05
0.00832129
2.5128e-05
0.00830205
0.000112479
0.00811245
0.000357083
0.00786895
0.00158857
0.00768084
0.00183738
0.00746181
0.00197017
0.00735209
0.00202864
0.00730026
0.00213142
0.00728705
0.00220517
0.00729432
0.00223232
0.00731372
0.00221377
0.00733721
0.00217253
0.007352
0.00212986
0.00733182
0.00209924
0.00727089
0.00209238
0.00719039
0.00211846
0.00710223
0.0021756
0.00702497
0.00226027
0.00697082
0.00236843
0.00693325
0.00248907
0.00692602
0.00261279
0.00699135
0.00275238
0.00706805
0.00289316
0.00714386
0.00302109
0.00722565
0.00313406
0.00731905
0.00324267
0.00744318
0.00333795
0.007605
0.00343982
0.00782369
0.00352359
0.00810491
0.0036098
0.00843979
0.00365181
0.00885734
0.00363677
0.00356106
0.00917681
0.00840003
-2.47807e-12
0.00840003
-2.53022e-12
0.00840003
-2.15411e-11
0.00840003
-4.55611e-11
0.00840003
-2.21187e-10
0.00840003
-3.34074e-10
0.00840004
-2.07345e-09
0.00840003
-3.45896e-09
0.00840017
-1.4602e-08
0.00840017
-2.38755e-08
0.00839989
-8.23913e-08
0.00840046
-1.43958e-07
0.00839657
-3.28618e-07
0.00839232
-3.06026e-07
0.00838701
-6.23208e-07
0.00836789
1.18774e-06
0.00835433
4.70291e-06
0.00837818
-5.01871e-06
0.00828126
0.000130637
0.00801061
0.000312232
0.00758581
0.00174693
0.0073684
0.002115
0.00730434
0.00214847
0.00730516
0.00215654
0.00735716
0.00218549
0.00742571
0.00219905
0.00748446
0.00219046
0.00754226
0.00215612
0.00758082
0.0021136
0.00757369
0.0020769
0.00752613
0.00205707
0.00746214
0.00207057
0.00739221
0.00211745
0.00732354
0.00219254
0.00726808
0.00228938
0.00723118
0.00240287
0.00721217
0.00252187
0.00724137
0.00264381
0.00733448
0.00277791
0.00743907
0.00289833
0.00754527
0.00300442
0.00766284
0.00308862
0.00779168
0.00316796
0.00794422
0.00322723
0.00812662
0.00328772
0.0083442
0.00332783
0.0086061
0.00336269
0.00890688
0.00336143
0.00921528
0.00333085
0.00324272
0.00953363
0.00840003
6.99509e-12
0.00840003
9.69048e-12
0.00840003
3.88583e-11
0.00840003
5.20846e-11
0.00840003
1.3237e-10
0.00840003
2.33692e-10
0.00840002
-4.02534e-10
0.00840005
-6.01186e-10
0.0084001
-1.19415e-08
0.00839976
-1.50283e-08
0.00840061
-1.56564e-07
0.00840121
-2.71917e-07
0.00840574
-1.35093e-06
0.00840301
-2.1871e-06
0.0084609
-1.03444e-05
0.00834047
-9.81864e-06
0.00829324
-2.37398e-05
0.0085168
-8.43774e-05
0.0083131
0.00031069
0.00810175
0.000160518
0.00743127
0.00225753
0.00730775
0.00237904
0.00737021
0.00219565
0.00749111
0.00210813
0.00759919
0.00210914
0.00769624
0.0021144
0.00776272
0.00210009
0.00779838
0.00207867
0.00779606
0.00205324
0.00775468
0.00203851
0.00769861
0.00204741
0.00763943
0.00208321
0.00757888
0.00214431
0.00752066
0.00222654
0.00748009
0.00232508
0.0074561
0.00243524
0.00746659
0.00255126
0.0075487
0.00267152
0.00766102
0.00278714
0.00778577
0.00288286
0.0079125
0.00296365
0.00804972
0.00302001
0.0082
0.00306932
0.00836608
0.00309972
0.00855383
0.00312649
0.00876462
0.00313582
0.0090023
0.00313719