/*--------------------------------*- C++ -*----------------------------------*\
| =========                 |                                                 |
| \\      /  F ield         | OpenFOAM: The Open Source CFD Toolbox           |
|  \\    /   O peration     | Version:  2412                                  |
|   \\  /    A nd           | Website:  www.openfoam.com                      |
|    \\/     M anipulation  |                                                 |
\*---------------------------------------------------------------------------*/
FoamFile
{
    version     2.0;
    format      ascii;
    arch        "LSB;label=32;scalar=64";
    class       volScalarField;
    location    "6";
    object      T;
}
// * * * * * * * * * * * * * * * * * * * * * * * * * * * * * * * * * * * * * //

dimensions      [0 0 0 1 0 0 0];

internalField   nonuniform List<scalar> 
7000
(
1
1
1
1
1
1.00002
1.00003
1.00012
1.00012
1.00073
1.0001
1.00281
1.00592
0.996387
1.04917
1.01324
1.68705
2.62133
2.69554
2.66412
2.62903
2.60843
2.61115
2.62359
2.66003
2.7307
2.77896
2.79532
2.78906
2.75103
2.71038
2.6957
2.70066
2.74281
2.79501
2.81148
2.80315
2.76365
2.72872
2.71518
2.71559
2.72503
2.73027
2.7303
2.72626
2.72206
2.72307
2.72506
2.72746
2.73091
1
1
1
1
1
1.00002
1.00002
1.0001
1.00012
1.00051
1.00082
1.00141
1.00537
0.990469
1.04468
1.02791
1.67689
2.57003
2.67718
2.66357
2.62868
2.60394
2.6056
2.61745
2.65488
2.72863
2.77933
2.79698
2.79102
2.75246
2.71114
2.69722
2.70402
2.74937
2.79643
2.809
2.79835
2.75919
2.72816
2.71581
2.71597
2.72468
2.72981
2.72989
2.72599
2.72187
2.72289
2.72481
2.72719
2.73043
1
1
1
1
1
1.00002
1.00002
1.00011
1.00011
1.00044
1.00089
1.00213
1.00532
0.974494
1.07229
1.0655
1.6908
2.57131
2.6872
2.66159
2.62732
2.6044
2.60672
2.61843
2.65464
2.72828
2.78004
2.79846
2.79301
2.75503
2.71226
2.69704
2.70268
2.74579
2.79351
2.80679
2.79693
2.7585
2.72729
2.71485
2.71496
2.72382
2.72936
2.72955
2.72577
2.72162
2.72268
2.72462
2.72702
2.73023
1
1
1
1
1
1.00002
1.00002
1.00012
1.00012
1.00063
1.00083
1.00317
1.00507
1.01082
1.05132
1.02493
1.68284
2.60084
2.68319
2.66095
2.63088
2.60561
2.60712
2.61777
2.65233
2.72594
2.77881
2.79787
2.79276
2.75547
2.7121
2.69597
2.70076
2.74266
2.79238
2.80699
2.79787
2.7597
2.72746
2.71442
2.71431
2.723
2.72854
2.72878
2.7251
2.72113
2.72224
2.72414
2.72651
2.72964
1
1
1
1
1
1.00002
1.00002
1.00012
1.00014
1.0006
1.00074
1.00313
1.00533
1.00615
1.0531
1.02793
1.65481
2.58486
2.67881
2.66131
2.62789
2.6037
2.60586
2.61784
2.65559
2.72908
2.77957
2.79708
2.79124
2.75302
2.71005
2.6942
2.69908
2.74127
2.79209
2.80765
2.79943
2.76148
2.72752
2.71343
2.71285
2.72138
2.7275
2.72794
2.72445
2.72045
2.72165
2.72368
2.72608
2.72919
1
1
1
1
1
1.00002
1.00002
1.00011
1.00016
1.00046
1.00104
1.00174
1.00735
1.00061
1.04851
1.00841
1.63685
2.55519
2.66736
2.65848
2.62163
2.60175
2.60519
2.61907
2.6609
2.73377
2.78164
2.79726
2.7901
2.75036
2.7087
2.69373
2.699
2.74173
2.79244
2.80815
2.80018
2.76211
2.72712
2.71232
2.71137
2.71977
2.7263
2.7269
2.72366
2.71966
2.72083
2.72268
2.72502
2.72808
1
1
1
1
1
1.00002
1.00002
1.00011
1.00016
1.00061
1.00077
1.00315
1.00433
1.01258
1.05673
1.08316
1.63175
2.51396
2.65947
2.65657
2.63129
2.60941
2.61277
2.62652
2.66811
2.73814
2.78345
2.79767
2.78966
2.74858
2.70693
2.69218
2.69746
2.74022
2.7916
2.80784
2.80051
2.76289
2.72691
2.71147
2.71015
2.7182
2.72491
2.72562
2.72258
2.7185
2.71956
2.72176
2.72422
2.72729
1
1
1
1
1
1.00002
1.00002
1.00012
1.00013
1.00067
1.00074
1.00366
1.00434
1.01195
1.05667
1.1975
1.54325
2.46355
2.63786
2.65012
2.62853
2.60727
2.61115
2.62585
2.66988
2.74063
2.78527
2.79875
2.7903
2.74884
2.70689
2.69125
2.69516
2.73487
2.78778
2.80577
2.79965
2.76349
2.72684
2.71086
2.70911
2.71673
2.72359
2.72436
2.72134
2.71733
2.71837
2.7201
2.72248
2.72543
1
1
1
1
1
1.00002
1.00002
1.00011
1.00012
1.00053
1.00073
1.00245
1.00711
0.999136
1.04436
1.02899
1.59222
2.46691
2.63626
2.66341
2.6436
2.61274
2.615
2.62757
2.67077
2.74139
2.78516
2.79797
2.78901
2.74737
2.70548
2.68925
2.69238
2.72982
2.78347
2.80263
2.79769
2.76334
2.72615
2.70956
2.70755
2.71504
2.72215
2.72307
2.72
2.71558
2.71672
2.71879
2.72081
2.72411
1
1
1
1
1
1.00002
1.00002
1.00012
1.00013
1.00065
1.00094
1.00362
1.00568
1.01773
1.03314
1.03575
1.56346
2.4269
2.61996
2.6557
2.63649
2.60979
2.61369
2.62804
2.67278
2.74282
2.78494
2.7961
2.78577
2.74289
2.702
2.68623
2.68912
2.72545
2.77979
2.80004
2.79598
2.76288
2.72496
2.70784
2.70541
2.71252
2.71978
2.72081
2.71822
2.71314
2.71397
2.71629
2.71913
2.72126
1
1
1
1
1
1.00002
1.00002
1.00012
1.00012
1.00065
1.00082
1.00398
1.00515
1.02058
1.0322
1.14623
1.47819
2.3291
2.59006
2.6493
2.6331
2.61058
2.61594
2.63157
2.67866
2.74759
2.78684
2.79556
2.78222
2.73652
2.69762
2.68299
2.68609
2.72243
2.77721
2.79827
2.795
2.76313
2.72438
2.70649
2.70359
2.71002
2.71718
2.71815
2.71549
2.71127
2.71159
2.71291
2.71517
2.7191
1
1
1
1
1
1.00002
1.00002
1.00011
1.00012
1.00059
1.00087
1.00341
1.0051
1.01902
1.0391
1.10184
1.45855
2.20343
2.56383
2.66508
2.64429
2.61952
2.6251
2.64109
2.68938
2.75441
2.7891
2.79531
2.78018
2.73323
2.69538
2.68122
2.68426
2.71995
2.77485
2.79661
2.79407
2.76357
2.72386
2.70491
2.7013
2.70698
2.71387
2.71498
2.71218
2.70729
2.70824
2.71046
2.71246
2.71447
1
1
1
1
1
1.00002
1.00002
1.00012
1.00014
1.00066
1.0009
1.00372
1.00542
1.02027
1.03149
1.11258
1.4043
2.16474
2.50828
2.64643
2.64147
2.62685
2.63279
2.64995
2.69981
2.76021
2.79005
2.79349
2.77562
2.72796
2.69236
2.6789
2.68174
2.71601
2.77057
2.79308
2.7916
2.76326
2.72237
2.70218
2.69782
2.70257
2.70938
2.71049
2.70886
2.70396
2.704
2.70558
2.70812
2.71115
1
1
1
1
1
1.00002
1.00002
1.00011
1.00013
1.00062
1.0008
1.00372
1.00415
1.01912
1.02571
1.12703
1.34704
2.03521
2.4621
2.64867
2.64516
2.63914
2.64375
2.6608
2.71184
2.76704
2.79119
2.7912
2.76862
2.71964
2.68625
2.67362
2.67622
2.70903
2.76495
2.78949
2.78914
2.7634
2.72163
2.69996
2.69434
2.69779
2.70406
2.70532
2.70288
2.6987
2.69823
2.69944
2.70139
2.70366
1
1
1
1
1
1.00002
1.00002
1.00011
1.00011
1.00062
1.0007
1.00328
1.00502
1.01965
1.02786
1.08921
1.3354
1.95932
2.39313
2.6524
2.64992
2.6455
2.6485
2.66646
2.72218
2.77206
2.79099
2.78828
2.76035
2.7114
2.67985
2.66808
2.67082
2.70301
2.75898
2.78472
2.78564
2.76326
2.72072
2.69737
2.69045
2.6925
2.69793
2.69894
2.69774
2.69219
2.69284
2.69419
2.69481
2.69783
1
1
1
1
1
1.00002
1.00002
1.0001
1.00012
1.00061
1.00067
1.00348
1.00424
1.01902
1.02806
1.11485
1.28823
1.86648
2.33344
2.65454
2.66233
2.65445
2.6575
2.67672
2.73345
2.77584
2.78856
2.78143
2.7466
2.70089
2.67315
2.66335
2.66659
2.69865
2.75421
2.78082
2.78277
2.76315
2.72022
2.69452
2.6856
2.68622
2.69038
2.69147
2.68933
2.68608
2.6826
2.68299
2.68555
2.68543
1
1
1
1
1
1.00002
1.00002
1.00009
1.00011
1.00056
1.00065
1.00327
1.00434
1.01905
1.02334
1.12155
1.25386
1.80746
2.28484
2.64608
2.66917
2.66137
2.66651
2.69179
2.74926
2.78039
2.78656
2.77506
2.73561
2.6934
2.66874
2.66039
2.66391
2.69505
2.74883
2.77573
2.77878
2.7622
2.72022
2.69206
2.68067
2.67957
2.68183
2.68255
2.68177
2.67467
2.674
2.67202
2.66996
2.67303
1
1
1
1
1
1.00001
1.00002
1.00009
1.00012
1.00054
1.00061
1.00308
1.00382
1.01743
1.02338
1.10347
1.23755
1.71873
2.23808
2.63875
2.67849
2.67138
2.67888
2.70907
2.76102
2.78154
2.78213
2.7647
2.72194
2.68432
2.66264
2.6556
2.6594
2.68992
2.7427
2.77003
2.77388
2.76009
2.71943
2.68815
2.67425
2.67119
2.67254
2.67268
2.67058
2.66612
2.65686
2.65562
2.65321
2.6481
1
1
1
1
1.00001
1.00001
1.00002
1.00005
1.00012
1.00035
1.00063
1.00266
1.00367
1.01618
1.02103
1.09093
1.22481
1.63536
2.1995
2.62434
2.69184
2.68642
2.69632
2.72923
2.76854
2.77803
2.77239
2.74522
2.70425
2.67244
2.65467
2.6493
2.65334
2.68292
2.73463
2.76264
2.7676
2.75634
2.71696
2.68234
2.66527
2.65984
2.65905
2.6584
2.65634
2.6478
2.64282
2.63111
2.62101
2.61288
1
1
1
1
1.00001
1.00001
1.00003
1.00001
1.00015
1.00034
1.00058
1.00229
1.00291
1.01174
1.0271
1.08369
1.20209
1.63124
2.12604
2.59272
2.70261
2.70684
2.72421
2.74703
2.76947
2.77098
2.76185
2.72959
2.69059
2.66242
2.64717
2.64279
2.64667
2.67395
2.72412
2.75352
2.76004
2.75148
2.71591
2.67793
2.65674
2.64854
2.64604
2.6439
2.63986
2.63218
2.61358
2.60155
2.5744
2.50456
1
1
1
1
1.00001
1.00001
1.00004
1.00004
1.00023
1.0002
1.0011
1.00129
1.00474
1.00589
1.02255
1.06312
1.16505
1.54635
2.03745
2.5461
2.73854
2.74596
2.74836
2.75228
2.76128
2.75759
2.73839
2.70044
2.66802
2.6468
2.6368
2.63475
2.64006
2.66826
2.71407
2.74308
2.7509
2.74527
2.71549
2.67544
2.64803
2.6339
2.62575
2.62066
2.61375
2.59926
2.57964
2.53744
2.48686
2.37638
1
1
1
1
1
1
1.00003
1.00003
1.00021
1.00019
1.00143
1.0017
1.00814
1.0044
1.042
0.970828
1.14057
1.36791
1.99225
2.58116
2.79032
2.77491
2.74788
2.74149
2.74102
2.7274
2.69693
2.66627
2.64354
2.63114
2.6271
2.62802
2.63815
2.67056
2.70921
2.73307
2.73927
2.73554
2.71232
2.67251
2.64212
2.62104
2.6082
2.59594
2.58636
2.56791
2.53921
2.49947
2.41683
2.34508
1
1
1
1
1
1
1.00001
1.00002
1.00011
1.00012
1.00081
1.00091
1.00566
0.998994
1.04534
0.902145
1.12864
1.32758
1.97204
2.64065
2.79477
2.7657
2.7354
2.72641
2.70863
2.68331
2.65712
2.63651
2.624
2.61935
2.61976
2.62639
2.64727
2.67897
2.7093
2.72753
2.73121
2.72726
2.70491
2.66418
2.63166
2.60546
2.58766
2.57195
2.55543
2.5394
2.50659
2.47426
2.40334
2.35091
1
1
1
1
1
0.999999
1
1
1.00002
1.00003
1.00023
1.00023
1.00285
0.99665
1.037
0.902886
1.10837
1.27041
1.91691
2.67464
2.77756
2.74173
2.72634
2.69652
2.66511
2.64262
2.62549
2.61531
2.61184
2.61305
2.62042
2.63811
2.663
2.68817
2.70921
2.71992
2.72087
2.71583
2.6927
2.6537
2.61991
2.59338
2.57029
2.55421
2.53251
2.51737
2.48474
2.45999
2.40573
2.3654
1
1
1
1
1
0.999999
0.999997
0.999984
0.99997
0.999843
0.9998
0.999098
1.00019
0.994427
1.02855
0.904886
1.08692
1.21587
1.85047
2.68961
2.75602
2.73048
2.69894
2.66393
2.6314
2.61173
2.6035
2.60166
2.60357
2.61316
2.63288
2.6565
2.67738
2.69498
2.708
2.7129
2.71235
2.7044
2.67698
2.64029
2.60695
2.58215
2.55526
2.53919
2.5151
2.49985
2.47317
2.44861
2.41233
2.37486
1
1
1
1
1
1
1
1
0.999993
0.999973
0.999934
0.999441
0.999865
0.994547
1.01502
0.910065
1.08475
1.13954
1.77555
2.68708
2.69726
2.66176
2.62589
2.60085
2.59907
2.6014
2.6078
2.61706
2.62916
2.64566
2.66581
2.68015
2.69052
2.69904
2.7046
2.70519
2.70086
2.68403
2.64993
2.61861
2.58746
2.56641
2.54023
2.52348
2.50067
2.48426
2.46043
2.43868
2.41066
2.38451
1
1
1
1
1
1
1
1.00001
1.00002
1.00014
1.00017
1.00129
1.00163
1.00868
1.00288
1.06482
0.927885
1.18723
1.60806
2.19678
2.69388
2.7652
2.73814
2.66508
2.62106
2.61651
2.61945
2.6308
2.65004
2.66859
2.67932
2.68645
2.69099
2.69278
2.69043
2.68151
2.66467
2.64188
2.61465
2.59241
2.56887
2.55285
2.53256
2.51715
2.49718
2.48096
2.46035
2.44044
2.41553
2.39227
1
1
1
1
1
1
1
1
1
1.00003
1.00006
1.00051
1.00055
1.00492
0.997726
1.04442
0.902426
1.13526
1.36791
1.98638
2.64085
2.81288
2.78248
2.72259
2.66208
2.62914
2.6243
2.62619
2.63685
2.65604
2.66858
2.67454
2.67526
2.6721
2.66054
2.6437
2.62552
2.6092
2.59015
2.57666
2.56149
2.5503
2.53425
2.51954
2.50155
2.48477
2.46598
2.4467
2.42669
2.40607
1
1
1
1
1
1
1
1
0.999995
1
0.999928
0.999993
0.999462
1.00085
0.995126
1.03143
0.903966
1.09642
1.24259
1.87755
2.7079
2.79359
2.76178
2.72178
2.65828
2.61702
2.60611
2.6001
2.6006
2.60461
2.61704
2.63126
2.6416
2.6447
2.6432
2.6355
2.61789
2.60189
2.58614
2.57417
2.56286
2.55292
2.54293
2.53097
2.51661
2.50078
2.48403
2.46439
2.44658
2.42799
1
1
1
1
1
1
1
1
1.00001
1.00001
1.00005
0.999936
0.999518
0.999993
0.993562
1.01707
0.90688
1.07729
1.13882
1.76313
2.66337
2.72961
2.71095
2.66286
2.61589
2.58891
2.58106
2.57906
2.57847
2.58004
2.58869
2.61021
2.63164
2.64433
2.64676
2.64421
2.63239
2.61268
2.59471
2.57967
2.56882
2.55894
2.55023
2.54061
2.52897
2.51466
2.50092
2.48581
2.47
2.45367
1
1
1
1
1
1
1
1
1.00002
1.00002
1.00009
1.00014
1.00052
1.00069
1.00348
1.00401
1.0147
1.04961
1.11211
1.55225
2.44598
2.62364
2.65014
2.62524
2.60056
2.57775
2.57635
2.57855
2.58191
2.58756
2.60073
2.62405
2.64761
2.66438
2.67145
2.6714
2.66348
2.63873
2.61097
2.58677
2.56956
2.55619
2.5459
2.53635
2.52628
2.51453
2.50209
2.48847
2.47469
2.46061
1
1
1
1
1
1
1
1
1.00001
1.00002
1.00009
1.00011
1.0005
1.00049
1.00289
1.00323
1.01573
1.02397
1.08294
1.3456
2.07626
2.44057
2.63309
2.64046
2.63787
2.61823
2.61649
2.61971
2.6291
2.63793
2.65016
2.66117
2.67234
2.67978
2.68209
2.68011
2.66856
2.63982
2.6088
2.58012
2.55552
2.53537
2.5197
2.50735
2.49692
2.48766
2.47814
2.46716
2.45658
2.44551
1
1
1
1
1
1
1
1
1.00001
1.00001
1.00004
1.00003
1.00013
0.999825
1.0006
0.995768
1.02213
0.905897
1.09363
1.17444
1.81459
2.689
2.74622
2.69999
2.64587
2.61532
2.61657
2.62888
2.65563
2.67257
2.67793
2.67881
2.67735
2.6718
2.66352
2.65088
2.63233
2.60673
2.58072
2.55692
2.53701
2.52087
2.50695
2.49519
2.485
2.47452
2.46557
2.45469
2.44468
2.43507
1
1
1
1
1
1
1
1
1
1.00002
1.00002
1.00008
1.00019
1.00037
1.00116
1.00113
1.00889
0.969031
1.0749
1.07137
1.68927
2.56687
2.66783
2.66529
2.62499
2.58904
2.5884
2.59596
2.61635
2.64138
2.65672
2.66062
2.65996
2.65473
2.64168
2.62326
2.60392
2.58449
2.56632
2.55114
2.53693
2.52525
2.51426
2.50355
2.49518
2.48378
2.47486
2.46375
2.45256
2.44251
1
1
1
1
1
1
1
1
1
1.00001
1.00001
1.00008
1.0001
1.00051
1.00089
1.00287
1.00529
1.01735
1.03971
1.11653
1.47576
2.31653
2.55565
2.61372
2.60226
2.58889
2.58799
2.59293
2.60304
2.62436
2.64855
2.66115
2.66336
2.66115
2.64971
2.62696
2.60444
2.58499
2.56772
2.55514
2.54485
2.53613
2.53037
2.52159
2.51636
2.5076
2.49953
2.49073
2.47923
2.4695
1
1
1
1
1
1
1
1
1
1
1
1.00002
1.00002
1.00025
1.00014
1.00273
0.996683
1.03474
0.905476
1.1076
1.24129
1.90661
2.67752
2.70835
2.66685
2.62103
2.5847
2.58
2.58222
2.59236
2.62477
2.65525
2.66899
2.67127
2.66639
2.64564
2.61406
2.58842
2.56712
2.55136
2.54002
2.53044
2.52532
2.51841
2.51425
2.50877
2.50202
2.49631
2.48815
2.4797
1
1
1
1
1
1
1
1
1.00001
1
1.00003
1.00003
1.00008
1.00046
1.00051
1.00239
1.00381
1.01317
1.02775
1.0816
1.24798
1.68833
2.23678
2.66747
2.69186
2.66509
2.63517
2.61121
2.60435
2.60612
2.61774
2.64552
2.66494
2.66981
2.66761
2.6556
2.62711
2.5957
2.5697
2.54985
2.53462
2.52201
2.51344
2.50532
2.49832
2.49406
2.48774
2.48378
2.47783
2.47243
1
1
1
1
1
1
1
1
1.00001
1.00001
1.00004
1.00003
1.00019
1.00018
1.0009
1.00056
1.00414
1.00888
1.01982
1.06518
1.1584
1.47575
2.01117
2.52103
2.71596
2.71256
2.7043
2.68201
2.66398
2.64898
2.64442
2.64733
2.65546
2.65915
2.65832
2.65002
2.62735
2.60294
2.5805
2.56102
2.54443
2.52898
2.51683
2.50624
2.49744
2.48866
2.48118
2.4725
2.46582
2.45796
1
1
1
1
1
1
1
1
1
1
1.00002
1.00003
1.00017
1.00015
1.00115
1.00138
1.00742
1.00098
1.0486
0.907588
1.13737
1.34967
1.96132
2.5677
2.76756
2.73245
2.71045
2.69519
2.68682
2.67346
2.6579
2.64044
2.62476
2.61415
2.60844
2.60382
2.59503
2.58278
2.57047
2.55849
2.54674
2.53419
2.52302
2.51169
2.50251
2.49298
2.48559
2.47605
2.46858
2.45987
1
1
1
1
1
1
1
1
1
1
1.00001
1.00001
1.00007
1.00008
1.00053
1.00049
1.00394
0.997301
1.03883
0.902738
1.11104
1.26415
1.92628
2.66064
2.77455
2.73179
2.70535
2.66601
2.64309
2.6251
2.60882
2.58892
2.57614
2.57152
2.57101
2.57141
2.57101
2.56976
2.56707
2.56192
2.55697
2.55133
2.54603
2.53816
2.53207
2.52283
2.51657
2.50643
2.49665
2.48533
1
1
1
1
1
1
1
1
1
1.00001
1
1.00003
1.00004
1.00013
1.00046
1.00026
1.00279
1.00201
1.01571
1.02049
1.11727
1.30296
1.89898
2.38927
2.65043
2.6775
2.686
2.68034
2.66845
2.64132
2.61104
2.58761
2.57296
2.56456
2.55982
2.55754
2.55657
2.5565
2.55744
2.55939
2.56066
2.56075
2.56039
2.55868
2.55631
2.55057
2.5453
2.53893
2.53052
2.524
1
1
1
1
1
1
1
1
1
1
1
1
1.00001
0.999952
1.00002
0.999305
0.999987
0.993648
1.02401
0.901652
1.08543
1.18942
1.81021
2.65893
2.6957
2.68295
2.66227
2.65942
2.65716
2.65075
2.6337
2.60797
2.58726
2.57338
2.565
2.56021
2.55784
2.55727
2.55746
2.55791
2.55771
2.55628
2.55495
2.55414
2.55321
2.55104
2.54681
2.54401
2.53829
2.53424
1
1
1
1
1
1
1
1
1
1
1
1.00001
1.00001
1.00004
0.999978
0.999761
0.999619
0.995424
1.00109
0.965294
1.03863
1.07105
1.73284
2.68062
2.6445
2.62806
2.59281
2.59097
2.59984
2.61986
2.63309
2.63524
2.6327
2.62408
2.61187
2.60047
2.59127
2.58327
2.57529
2.5683
2.56289
2.55838
2.55316
2.54628
2.53995
2.53606
2.5339
2.53311
2.53188
2.5301
1
1
1
1
1
1
1
1
1
1
1
1.00001
1.00003
1.00015
1.00016
1.00118
1.0014
1.00813
1.00273
1.05848
0.902902
1.1875
1.54073
2.1374
2.69861
2.76681
2.72681
2.66919
2.62613
2.61971
2.62222
2.63016
2.63354
2.63317
2.63121
2.62641
2.61816
2.60788
2.5977
2.58787
2.5784
2.57013
2.56181
2.55261
2.54326
2.53491
2.52689
2.51874
2.5134
2.5106
1
1
1
1
1
1
1
1
1
1
1
1
1.00001
1.00004
1.00006
1.00045
1.0004
1.00418
0.997278
1.04256
0.899771
1.12736
1.33836
1.9818
2.67417
2.8155
2.77756
2.71899
2.66719
2.63775
2.62383
2.61677
2.60872
2.60421
2.60074
2.59813
2.5948
2.58999
2.58443
2.57787
2.57164
2.56553
2.55938
2.5525
2.54463
2.53677
2.52823
2.51966
2.51291
2.50714
1
1
1
1
1
1
1
1
1
1
1
1
0.999992
1.00001
0.999948
1.00003
0.999811
1.00185
0.995845
1.03324
0.903168
1.10252
1.24394
1.90327
2.69771
2.8103
2.75968
2.69849
2.63347
2.59969
2.58422
2.57627
2.5704
2.57015
2.5713
2.57272
2.57308
2.57292
2.57221
2.5703
2.56663
2.56256
2.55923
2.55663
2.55415
2.55027
2.54609
2.5419
2.53773
2.53149
1
1
1
1
1
1
1
1
1
1
1.00001
1.00001
1.00003
1.00003
1.00019
1.00021
1.001
1.00169
1.00468
1.01146
1.0251
1.1147
1.24068
1.7834
2.31052
2.72799
2.7464
2.72897
2.69371
2.66271
2.63584
2.61485
2.59949
2.59093
2.58688
2.58407
2.58047
2.57573
2.56964
2.56363
2.55875
2.5557
2.55443
2.55453
2.55673
2.56264
2.56835
2.57081
2.57109
2.57074
1
1
1
1
1
1
1
1
1
1
1
1
1.00001
1.00001
1.00002
1
0.999832
0.999899
0.996827
1.00474
0.946984
1.0671
1.06926
1.76956
2.65242
2.6977
2.70021
2.68507
2.67483
2.65938
2.64266
2.62999
2.62068
2.61411
2.609
2.60349
2.59658
2.58781
2.57858
2.57036
2.56359
2.55855
2.55562
2.55479
2.55553
2.5593
2.5668
2.57264
2.57593
2.57739
1
1
1
1
1
1
1
1
1
1
1
1
1.00001
1.00001
1.00009
1.00006
1.00053
1.00053
1.0023
1.00587
0.996631
1.0448
1.01139
1.65916
2.55872
2.64732
2.65885
2.63855
2.61703
2.61409
2.61553
2.61487
2.6111
2.60673
2.60293
2.59844
2.59424
2.59224
2.59289
2.59676
2.60125
2.60246
2.60223
2.60074
2.59548
2.58596
2.57697
2.57081
2.56632
2.56449
1
1
1
1
1
1
1
1
1
1
1
1
1.00002
1.00002
1.00012
1.00013
1.00085
1.00097
1.00586
0.998998
1.04834
0.896038
1.1534
1.38738
2.08851
2.74797
2.82678
2.75849
2.68354
2.63848
2.61974
2.61113
2.60378
2.59546
2.58741
2.58092
2.57667
2.57487
2.57496
2.57737
2.58479
2.59342
2.59871
2.59987
2.59933
2.5961
2.58656
2.57355
2.56151
2.55193
1
1
1
1
1
1
1
1
1
1
1
1
1.00002
1.00002
1.00011
1.00012
1.00063
1.00071
1.00354
1.00467
1.01812
1.02968
1.13127
1.36412
2.06747
2.50136
2.71546
2.70675
2.67805
2.64349
2.62761
2.61994
2.61297
2.60517
2.59743
2.59089
2.58661
2.58472
2.58492
2.58702
2.59107
2.5929
2.5927
2.59177
2.58958
2.5868
2.58102
2.57194
2.56287
2.5533
1
1
1
1
1
1
1
1
1
1
1
1
1.00001
1.00002
1.00007
1.00011
1.00047
1.00067
1.0027
1.00413
1.01433
1.03667
1.09876
1.33523
1.94069
2.41249
2.67516
2.67258
2.65513
2.62948
2.61476
2.60418
2.59774
2.59307
2.58894
2.58725
2.58886
2.59663
2.60986
2.61861
2.62154
2.62122
2.61758
2.60692
2.59236
2.58143
2.57203
2.56351
2.55557
2.54699
1
1
1
1
1
1
1
1
1
1
1
1
1.00001
1.00002
1.00007
1.00011
1.00047
1.00062
1.00269
1.00365
1.01381
1.03491
1.08697
1.31044
1.83716
2.35108
2.63824
2.66275
2.64834
2.62693
2.6027
2.59184
2.58995
2.58948
2.59038
2.59524
2.60542
2.61569
2.62379
2.6285
2.63014
2.62997
2.62751
2.61723
2.59638
2.57595
2.55609
2.5406
2.5287
2.51888
1
1
1
1
1
1
1
1
1
1
1
1
1.00001
1.00002
1.00007
1.0001
1.00052
1.0006
1.00297
1.00435
1.01494
1.03297
1.09266
1.30888
1.81526
2.33886
2.61728
2.6445
2.63211
2.6114
2.59602
2.59496
2.59602
2.59885
2.60729
2.62218
2.63421
2.64118
2.64402
2.6444
2.64355
2.64007
2.62961
2.60619
2.57866
2.55098
2.52997
2.51224
2.50144
2.49255
1
1
1
1
1
1
1
1
1
1
1
1
1.00001
1.00001
1.00004
1.00006
1.00029
1.00026
1.00242
0.996628
1.03219
0.908947
1.09172
1.20988
1.8302
2.605
2.66771
2.67019
2.65631
2.64265
2.62439
2.59938
2.58137
2.56853
2.56491
2.5665
2.574
2.58836
2.60101
2.60789
2.60952
2.60866
2.60403
2.59106
2.57425
2.55556
2.54007
2.52783
2.51909
2.51411
1
1
1
1
1
1
1
1
1
1
1
1
1
1
1.00003
1.00005
1.00023
1.00016
1.00172
0.996437
1.02937
0.911256
1.0827
1.19728
1.79456
2.5845
2.64429
2.65191
2.63924
2.63081
2.61616
2.60211
2.58141
2.56406
2.54698
2.53932
2.53776
2.53854
2.54306
2.55511
2.57088
2.58517
2.59543
2.59933
2.59935
2.59858
2.59481
2.58921
2.5803
2.57374
1
1
1
1
1
1
1
1
1
1
1
1
1.00001
1.00001
1.00005
1.00007
1.00033
1.00032
1.0025
0.996754
1.0317
0.910656
1.08812
1.20067
1.80626
2.574
2.63112
2.63905
2.62929
2.62547
2.61835
2.60034
2.57534
2.55817
2.54426
2.53904
2.5381
2.53863
2.54138
2.54941
2.5633
2.57908
2.5941
2.606
2.61345
2.61669
2.61629
2.61271
2.6019
2.59057
1
1
1
1
1
1
1
1
1
1
1
1
1.00002
1.00002
1.00009
1.00011
1.00052
1.00068
1.0029
1.00398
1.01681
1.03021
1.10476
1.27687
1.74344
2.30182
2.58273
2.60615
2.59112
2.5695
2.56919
2.57293
2.58097
2.5994
2.62412
2.64193
2.65083
2.65257
2.64844
2.63118
2.60474
2.58355
2.56899
2.55959
2.55372
2.54957
2.54607
2.54301
2.53902
2.53634
1
1
1
1
1
1
1
1
1
1
1
1
1.00002
1.00002
1.00008
1.00012
1.00039
1.00074
1.00224
1.00484
1.01768
1.02807
1.12347
1.24678
1.7784
2.23501
2.57098
2.60803
2.59086
2.56358
2.56085
2.56558
2.57842
2.60858
2.64305
2.66393
2.67084
2.67005
2.65978
2.6328
2.60197
2.57465
2.55162
2.53307
2.5192
2.50897
2.50263
2.49749
2.49493
2.49167
1
1
1
1
1
1
1
1
1
1
1
1
1.00001
1.00002
1.00008
1.00009
1.0004
1.00069
1.00265
1.00409
1.01489
1.02922
1.1119
1.2588
1.78367
2.23241
2.56508
2.60314
2.58872
2.55752
2.55196
2.55641
2.56819
2.59863
2.63529
2.65879
2.66609
2.66462
2.65288
2.62519
2.59529
2.56891
2.547
2.52929
2.51564
2.50496
2.49804
2.49177
2.48909
2.48469
2.21936
2.62749
2.76967
3.24506
3.24629
3.21132
3.19838
3.19577
3.20332
3.2098
3.21523
3.21752
3.21935
3.22245
3.22576
3.22925
3.23423
3.23753
3.2396
3.24049
3.23999
3.23654
3.23125
3.22507
3.2174
3.2091
3.19983
3.19025
3.17989
3.16902
3.15713
3.14545
3.13127
3.12084
3.10541
3.09658
3.08329
3.07146
3.05756
3.04371
3.02964
3.01675
3.00204
2.98803
2.9735
2.96029
2.94414
2.93235
2.91559
2.90357
2.88741
2.87491
2.85916
2.84641
2.83136
2.81802
2.80377
2.79014
2.7759
2.76268
2.74813
2.73521
2.72055
2.70776
2.6932
2.68041
2.66594
2.65335
2.63877
2.62645
2.61179
2.59968
2.58528
2.57322
2.55942
2.5474
2.53419
2.52258
2.50974
2.49872
2.48617
2.47583
2.46377
2.45397
2.44271
2.43331
2.42309
2.4142
2.4051
2.39697
2.38909
2.38208
2.37562
2.3703
2.36572
2.36285
2.36168
2.36063
2.36017
2.35728
2.22741
2.42686
2.53345
2.7567
2.9276
3.0853
3.18347
3.23376
3.22925
3.26993
3.51208
3.58621
3.52461
3.4389
3.39629
3.37035
3.34729
3.33061
3.31946
3.31216
3.30395
3.29761
3.29115
3.2819
3.27162
3.25898
3.24461
3.22748
3.21117
3.1919
3.17311
3.15111
3.12976
3.10682
3.08482
3.06126
3.04012
3.01705
2.99641
2.97518
2.95596
2.93655
2.91868
2.89968
2.88454
2.86579
2.85244
2.83537
2.82195
2.80711
2.79418
2.77987
2.76712
2.75336
2.74044
2.72779
2.71497
2.70347
2.69114
2.68086
2.66911
2.65988
2.64885
2.64054
2.63017
2.62261
2.61285
2.60571
2.59647
2.58919
2.58033
2.57221
2.56364
2.55432
2.54578
2.5354
2.52671
2.51557
2.50697
2.49512
2.48632
2.47385
2.46497
2.45207
2.44303
2.43002
2.4208
2.4079
2.39874
2.3862
2.37753
2.36573
2.35788
2.34732
2.34125
2.33271
2.32952
2.32288
2.32049
2.30995
2.26963
2.30359
2.36433
2.42728
2.49229
2.56573
2.65543
2.72705
2.79881
2.83603
2.87678
2.88502
2.87925
2.86144
2.83351
2.80978
2.78201
2.75887
2.74102
2.72773
2.71851
2.71241
2.70976
2.71067
2.71576
2.72201
2.72605
2.72822
2.72947
2.73037
2.73077
2.73026
2.72785
2.71999
2.71019
2.6958
2.68113
2.66318
2.64631
2.62781
2.61178
2.59464
2.57939
2.56372
2.54855
2.53387
2.51877
2.50491
2.4903
2.47745
2.46331
2.45166
2.43837
2.42754
2.41517
2.40476
2.3932
2.38314
2.37198
2.36245
2.35166
2.34255
2.33248
2.3235
2.31457
2.30556
2.29804
2.28921
2.28292
2.27495
2.26938
2.26261
2.25804
2.25208
2.2483
2.24323
2.24023
2.23589
2.23346
2.22984
2.22798
2.22492
2.22348
2.2209
2.21976
2.21755
2.21664
2.21481
2.21408
2.21269
2.21206
2.21133
2.211
2.21103
2.21149
2.21278
2.21482
2.21589
2.21861
2.21601
2.29639
2.28191
2.2901
2.30642
2.32941
2.35303
2.38777
2.42106
2.45685
2.48823
2.51116
2.52846
2.5329
2.53204
2.52957
2.52386
2.51571
2.50816
2.4981
2.48449
2.47233
2.46163
2.45196
2.44316
2.43514
2.42809
2.42196
2.41683
2.4122
2.40821
2.40406
2.40041
2.39623
2.39291
2.38916
2.38671
2.38323
2.38019
2.37556
2.37167
2.36656
2.36201
2.35626
2.35081
2.3445
2.33831
2.33145
2.32471
2.31722
2.3103
2.30235
2.29556
2.28754
2.28073
2.27323
2.26589
2.25936
2.2512
2.24551
2.23679
2.23132
2.22254
2.21685
2.20822
2.20231
2.19369
2.18756
2.17904
2.17239
2.16412
2.15687
2.14901
2.14108
2.13376
2.12566
2.1188
2.11085
2.10432
2.09681
2.09058
2.08355
2.0776
2.07103
2.0653
2.05932
2.05381
2.04858
2.0435
2.0391
2.035
2.03144
2.02872
2.02653
2.0252
2.02537
2.02617
2.0278
2.02892
2.03301
2.03178
2.32135
2.28599
2.27267
2.26451
2.26478
2.26715
2.27317
2.28776
2.30213
2.31739
2.32985
2.33954
2.34673
2.35044
2.35126
2.35134
2.35107
2.35038
2.34863
2.34514
2.34162
2.33884
2.33412
2.33003
2.32637
2.32348
2.32048
2.31806
2.31543
2.31329
2.31062
2.30857
2.30575
2.3036
2.30065
2.299
2.2958
2.29329
2.28865
2.28555
2.28055
2.27704
2.27204
2.26783
2.26291
2.25776
2.25284
2.24683
2.24169
2.23511
2.22959
2.2228
2.21694
2.21015
2.20422
2.19745
2.19171
2.18506
2.1795
2.17307
2.16754
2.16125
2.15567
2.14923
2.14348
2.13679
2.1309
2.12392
2.11797
2.11089
2.10487
2.09793
2.09175
2.08519
2.07882
2.07267
2.06609
2.06023
2.05354
2.04782
2.04121
2.03556
2.02923
2.02364
2.01777
2.01228
2.00698
2.00174
1.99708
1.99249
1.98851
1.98517
1.98234
1.98057
1.98033
1.98049
1.98137
1.98218
1.98654
1.9855
2.33538
2.30916
2.27875
2.26003
2.24627
2.23726
2.23037
2.23048
2.23206
2.23535
2.23923
2.24301
2.24571
2.24649
2.24643
2.24551
2.24511
2.2449
2.24504
2.24548
2.24564
2.24559
2.24539
2.24522
2.24514
2.24497
2.24409
2.2434
2.24272
2.24207
2.2411
2.24033
2.23883
2.23765
2.23595
2.23498
2.23299
2.23122
2.22758
2.22512
2.22074
2.21799
2.21309
2.20973
2.20461
2.20037
2.1954
2.19017
2.18554
2.17944
2.17512
2.16845
2.16427
2.15737
2.1531
2.14625
2.14189
2.13517
2.13081
2.12409
2.11971
2.11288
2.10836
2.10153
2.09682
2.08997
2.08496
2.07816
2.0728
2.06623
2.06047
2.05419
2.04802
2.042
2.03553
2.02966
2.02312
2.0172
2.01087
2.0048
1.99888
1.99283
1.9873
1.98163
1.97645
1.97145
1.96676
1.96249
1.95866
1.95513
1.95248
1.95015
1.94873
1.94861
1.94914
1.94997
1.95119
1.95323
1.95929
1.95967
2.35631
2.32662
2.30428
2.27552
2.25123
2.23378
2.22001
2.20957
2.20259
2.19819
2.19483
2.1931
2.19047
2.18969
2.18812
2.1881
2.18824
2.18957
2.1917
2.19462
2.19711
2.1993
2.2007
2.20203
2.20254
2.20285
2.20281
2.20265
2.20168
2.20066
2.19886
2.19753
2.19516
2.19338
2.19093
2.18955
2.18719
2.18498
2.18209
2.17845
2.17557
2.17105
2.16802
2.16277
2.15948
2.15383
2.15026
2.14428
2.14036
2.13397
2.12973
2.12304
2.11856
2.11173
2.10713
2.10034
2.09569
2.08908
2.0844
2.07805
2.07332
2.06725
2.06231
2.05648
2.05125
2.04559
2.0401
2.0345
2.02877
2.02317
2.01732
2.01164
2.00578
1.99995
1.99416
1.98819
1.98244
1.97649
1.97066
1.96492
1.95906
1.95353
1.94794
1.94257
1.93752
1.93255
1.92801
1.92392
1.91998
1.91704
1.91431
1.91266
1.91188
1.91218
1.91294
1.91361
1.91615
1.91881
1.92494
1.92601
2.3757
2.35229
2.32629
2.30048
2.274
2.24804
2.22628
2.20955
2.19647
2.18644
2.17897
2.17375
2.16959
2.16734
2.16591
2.16601
2.1663
2.16682
2.16788
2.16892
2.17061
2.17179
2.17189
2.17161
2.17098
2.16986
2.16788
2.16678
2.16493
2.16295
2.16063
2.15885
2.15627
2.15425
2.15184
2.15004
2.14789
2.14539
2.14253
2.13887
2.13586
2.13136
2.12824
2.12299
2.11986
2.11413
2.1109
2.10478
2.10127
2.09492
2.0911
2.08459
2.08044
2.07383
2.06932
2.06268
2.05791
2.0515
2.04657
2.04048
2.03541
2.02966
2.02443
2.01897
2.01359
2.00838
2.00294
1.99786
1.99242
1.9873
1.98187
1.97664
1.97117
1.96591
1.96033
1.95514
1.94953
1.94431
1.93892
1.9336
1.92852
1.92325
1.91843
1.91347
1.90896
1.90456
1.90046
1.89692
1.89351
1.89091
1.88886
1.88729
1.88702
1.88663
1.88644
1.8873
1.88983
1.89218
1.8972
1.89646
2.39989
2.37951
2.35574
2.32931
2.3018
2.27595
2.25175
2.23018
2.21233
2.19838
2.18719
2.17945
2.17368
2.16967
2.16636
2.16303
2.1605
2.1568
2.15405
2.15118
2.14829
2.14562
2.14359
2.14114
2.1387
2.13584
2.13304
2.13099
2.12809
2.12527
2.12287
2.12038
2.11812
2.11565
2.1137
2.11146
2.10949
2.10689
2.10426
2.10073
2.09773
2.09358
2.09033
2.08549
2.08204
2.07671
2.07315
2.06745
2.0637
2.05773
2.05378
2.04774
2.04361
2.03757
2.03319
2.0272
2.02249
2.01657
2.01151
2.00575
2.00041
1.9948
1.98929
1.98378
1.9782
1.97274
1.96715
1.96165
1.95601
1.95046
1.94472
1.93914
1.93334
1.92771
1.92205
1.91635
1.91088
1.90531
1.89997
1.89483
1.88965
1.88499
1.88031
1.87603
1.87212
1.8684
1.86539
1.86258
1.86057
1.85923
1.85842
1.85854
1.85888
1.85919
1.86077
1.86283
1.86714
1.86966
1.87482
1.8744
2.42783
2.40843
2.38622
2.35968
2.33174
2.30394
2.27826
2.25519
2.23523
2.21891
2.20541
2.19379
2.18314
2.17325
2.16511
2.15725
2.15041
2.14349
2.13696
2.13031
2.12409
2.11814
2.11243
2.10794
2.10411
2.10072
2.09835
2.09522
2.09321
2.09155
2.0906
2.08946
2.0888
2.08771
2.08688
2.08563
2.08419
2.08229
2.07977
2.07685
2.07365
2.06998
2.06635
2.06204
2.05816
2.05337
2.0493
2.04413
2.0398
2.03436
2.02973
2.02419
2.01927
2.01373
2.00858
2.00296
1.99758
1.99187
1.98636
1.9806
1.97501
1.96923
1.96352
1.95774
1.95186
1.94609
1.94007
1.93425
1.92821
1.9223
1.91636
1.91041
1.90464
1.89883
1.89323
1.88771
1.88233
1.87713
1.87213
1.86728
1.86274
1.85842
1.8544
1.8508
1.84752
1.84476
1.84257
1.84095
1.84005
1.84019
1.84054
1.84141
1.84236
1.84472
1.84876
1.85204
1.85732
1.85994
1.86538
1.86569
2.43825
2.41974
2.39817
2.37292
2.34568
2.31837
2.29232
2.26842
2.24662
2.22714
2.20911
2.19307
2.17882
2.16582
2.15362
2.14226
2.13129
2.12126
2.11189
2.10385
2.09687
2.09092
2.08615
2.08224
2.07949
2.07774
2.07709
2.0771
2.07739
2.07809
2.07887
2.07962
2.08003
2.08003
2.07984
2.07925
2.07806
2.0764
2.07385
2.07124
2.06781
2.06449
2.06048
2.05662
2.05225
2.04801
2.04334
2.03875