/*--------------------------------*- C++ -*----------------------------------*\
| =========                 |                                                 |
| \\      /  F ield         | OpenFOAM: The Open Source CFD Toolbox           |
|  \\    /   O peration     | Version:  2412                                  |
|   \\  /    A nd           | Website:  www.openfoam.com                      |
|    \\/     M anipulation  |                                                 |
\*---------------------------------------------------------------------------*/
FoamFile
{
    version     2.0;
    format      ascii;
    arch        "LSB;label=32;scalar=64";
    class       volVectorField;
    location    "6";
    object      U;
}
// * * * * * * * * * * * * * * * * * * * * * * * * * * * * * * * * * * * * * //

dimensions      [0 1 -1 0 0 0 0];

internalField   nonuniform List<vector> 
7000
(
(3 -1.72271e-09 0)
(3 -1.2374e-08 0)
(3 -2.22759e-08 0)
(3 -6.03094e-08 0)
(3 -6.16382e-08 0)
(2.99999 1.10461e-07 0)
(2.99998 6.54825e-07 0)
(2.99994 1.1875e-06 0)
(2.99989 1.25837e-05 0)
(2.99977 5.62959e-07 0)
(2.99926 6.07509e-05 0)
(2.9988 1.99793e-05 0)
(2.9961 0.000487873 0)
(2.99437 0.00192497 0)
(3.00431 0.00419359 0)
(2.8275 0.00741774 0)
(2.66027 0.00420246 0)
(1.98277 0.00208883 0)
(0.633609 0.0119013 0)
(0.438158 0.00831952 0)
(0.547327 0.00575788 0)
(0.623892 0.00493252 0)
(0.630591 0.00432139 0)
(0.615479 0.00397814 0)
(0.594471 0.003922 0)
(0.574273 0.00403709 0)
(0.558561 0.00432243 0)
(0.544678 0.00470644 0)
(0.52891 0.00508779 0)
(0.512488 0.00535391 0)
(0.495948 0.0055806 0)
(0.477734 0.00575534 0)
(0.460204 0.00597492 0)
(0.440683 0.00626577 0)
(0.418156 0.00666571 0)
(0.395497 0.00721639 0)
(0.371595 0.00777388 0)
(0.347624 0.00838683 0)
(0.323567 0.0087648 0)
(0.298484 0.00892388 0)
(0.273629 0.00890206 0)
(0.248885 0.00879397 0)
(0.224067 0.00872091 0)
(0.199155 0.0087936 0)
(0.173317 0.00908504 0)
(0.146141 0.00959435 0)
(0.117064 0.0102609 0)
(0.0861656 0.0109751 0)
(0.0517302 0.0118481 0)
(0.0225481 0.0130615 0)
(3 3.24022e-10 0)
(3 9.58622e-10 0)
(3 -5.79354e-09 0)
(3 -3.30164e-08 0)
(3 -5.63617e-09 0)
(2.99999 1.4512e-07 0)
(2.99998 4.02575e-07 0)
(2.99995 3.02712e-06 0)
(2.99989 7.11456e-06 0)
(2.99979 2.45846e-05 0)
(2.99927 2.48266e-06 0)
(2.99905 -2.66096e-05 0)
(2.99722 0.000848513 0)
(2.99661 0.000927145 0)
(3.00752 -0.00153116 0)
(2.8305 -0.00088325 0)
(2.6605 0.00200767 0)
(2.00408 -0.0157657 0)
(0.665906 0.0294242 0)
(0.457785 0.0213917 0)
(0.560173 0.0160533 0)
(0.633885 0.0140108 0)
(0.639065 0.0125523 0)
(0.623115 0.0118389 0)
(0.601371 0.0117956 0)
(0.580337 0.0123086 0)
(0.563657 0.0132568 0)
(0.548624 0.0144797 0)
(0.531456 0.0157067 0)
(0.513459 0.0166652 0)
(0.495248 0.0174359 0)
(0.475315 0.0179897 0)
(0.456132 0.0184521 0)
(0.435109 0.0189667 0)
(0.411498 0.0195791 0)
(0.388355 0.0203651 0)
(0.364747 0.0211608 0)
(0.341797 0.0219661 0)
(0.319228 0.0224498 0)
(0.295946 0.0226263 0)
(0.272805 0.022587 0)
(0.249334 0.0225109 0)
(0.225158 0.0225547 0)
(0.200275 0.0228542 0)
(0.174034 0.0234614 0)
(0.146261 0.0243205 0)
(0.116592 0.0253173 0)
(0.0852677 0.0262835 0)
(0.0505241 0.0273928 0)
(0.0213816 0.0286674 0)
(3 1.56178e-09 0)
(3 1.14439e-08 0)
(3 1.86315e-08 0)
(3 2.16411e-08 0)
(3 5.5534e-08 0)
(2.99999 -4.69862e-10 0)
(2.99998 -5.71984e-07 0)
(2.99995 2.69329e-06 0)
(2.9999 -1.44684e-05 0)
(2.99976 2.49135e-05 0)
(2.99923 -0.000197305 0)
(2.99931 9.43208e-05 0)
(2.99664 -0.00104792 0)
(2.99288 -0.00273886 0)
(3.00305 -0.0098978 0)
(2.82989 -0.0206814 0)
(2.64433 0.000559044 0)
(1.98051 0.0040452 0)
(0.666178 0.043535 0)
(0.444066 0.0361486 0)
(0.552409 0.0293433 0)
(0.629397 0.0248341 0)
(0.636972 0.0215798 0)
(0.62342 0.0201046 0)
(0.603596 0.020083 0)
(0.583881 0.0211977 0)
(0.568011 0.023007 0)
(0.553471 0.0252362 0)
(0.536552 0.0274297 0)
(0.518662 0.029259 0)
(0.500449 0.0306587 0)
(0.480338 0.0316396 0)
(0.460855 0.0323494 0)
(0.439469 0.0330859 0)
(0.415448 0.0339289 0)
(0.391935 0.0349459 0)
(0.368079 0.0360668 0)
(0.345007 0.0370275 0)
(0.32241 0.0377399 0)
(0.29911 0.0381399 0)
(0.27585 0.0383291 0)
(0.25208 0.0385553 0)
(0.227425 0.0389896 0)
(0.201981 0.0398029 0)
(0.175186 0.0410515 0)
(0.146916 0.0426549 0)
(0.116821 0.0444548 0)
(0.0851955 0.0462062 0)
(0.0502356 0.0480194 0)
(0.0208809 0.0498002 0)
(3 9.15421e-10 0)
(3 4.12084e-10 0)
(3 2.10048e-10 0)
(3 9.51935e-10 0)
(3 -2.11691e-09 0)
(2.99999 1.20658e-07 0)
(2.99998 -3.00354e-07 0)
(2.99994 -5.99674e-07 0)
(2.9999 -9.60967e-06 0)
(2.99968 -5.88121e-06 0)
(2.99932 -0.000115042 0)
(2.99851 7.29856e-05 0)
(2.99543 -0.000997106 0)
(2.99101 -0.00149973 0)
(2.99638 -0.00180944 0)
(2.83001 -0.00809329 0)
(2.66966 0.00733143 0)
(1.99707 0.0290955 0)
(0.664851 0.0514202 0)
(0.449379 0.0473949 0)
(0.558709 0.0403759 0)
(0.63541 0.0338551 0)
(0.642881 0.0291204 0)
(0.629397 0.0272024 0)
(0.609489 0.0277101 0)
(0.589452 0.0296928 0)
(0.57311 0.032589 0)
(0.558099 0.0359185 0)
(0.540762 0.0391174 0)
(0.522556 0.0419317 0)
(0.504107 0.0440997 0)
(0.483804 0.0456215 0)
(0.46421 0.0467173 0)
(0.442812 0.047732 0)
(0.418841 0.0488084 0)
(0.395466 0.0500399 0)
(0.371732 0.0513839 0)
(0.34874 0.052465 0)
(0.326193 0.0533669 0)
(0.302812 0.0540147 0)
(0.279349 0.0544993 0)
(0.255249 0.0550919 0)
(0.230143 0.0559619 0)
(0.204199 0.0572921 0)
(0.176903 0.0591505 0)
(0.148167 0.0614417 0)
(0.117646 0.0639787 0)
(0.0856851 0.0664452 0)
(0.0504518 0.0688671 0)
(0.0207281 0.0710182 0)
(3 8.03742e-10 0)
(3 5.0896e-09 0)
(3 7.03811e-09 0)
(3 1.90556e-08 0)
(3 1.16093e-08 0)
(2.99999 1.84572e-07 0)
(2.99998 7.36774e-08 0)
(2.99994 -1.39391e-06 0)
(2.9999 -5.69679e-07 0)
(2.9997 -5.94303e-06 0)
(2.99928 4.24875e-06 0)
(2.99876 9.15841e-05 0)
(2.99564 9.27448e-05 0)
(2.99241 0.000714311 0)
(2.99918 0.00435404 0)
(2.83178 0.00720718 0)
(2.67483 0.00959423 0)
(2.01476 0.0232436 0)
(0.66981 0.0627366 0)
(0.442231 0.0585576 0)
(0.553885 0.0509697 0)
(0.632598 0.0432936 0)
(0.641591 0.0375983 0)
(0.629249 0.0353186 0)
(0.609801 0.0362946 0)
(0.589809 0.0391471 0)
(0.573434 0.0431136 0)
(0.558278 0.0475177 0)
(0.540817 0.0516488 0)
(0.522554 0.0553431 0)
(0.504089 0.058152 0)
(0.483931 0.0600847 0)
(0.464692 0.0614783 0)
(0.443833 0.0627018 0)
(0.420538 0.063972 0)
(0.397911 0.0654132 0)
(0.374808 0.0669833 0)
(0.352305 0.0683041 0)
(0.33013 0.0695029 0)
(0.306886 0.0705211 0)
(0.283364 0.0714295 0)
(0.259028 0.0724858 0)
(0.23352 0.0738602 0)
(0.207087 0.0757363 0)
(0.179266 0.0781977 0)
(0.150008 0.0811443 0)
(0.118984 0.0843673 0)
(0.0865948 0.0874897 0)
(0.0509782 0.0904389 0)
(0.0207679 0.0928593 0)
(3 1.98402e-09 0)
(3 1.24423e-09 0)
(3 5.95742e-09 0)
(3 -4.5117e-09 0)
(3 5.57466e-08 0)
(2.99999 1.40745e-07 0)
(2.99998 1.00748e-06 0)
(2.99994 5.31576e-07 0)
(2.9999 4.41807e-06 0)
(2.99968 2.15008e-06 0)
(2.99939 -1.86044e-05 0)
(2.99856 0.000105442 0)
(2.99585 -0.000252682 0)
(2.99389 0.000560659 0)
(3.00071 -0.00452678 0)
(2.83523 -0.00525165 0)
(2.6889 0.0115977 0)
(2.04461 0.0126777 0)
(0.682097 0.0902751 0)
(0.441598 0.0732551 0)
(0.553682 0.0599835 0)
(0.632401 0.0507192 0)
(0.641441 0.0449646 0)
(0.62946 0.0432003 0)
(0.610262 0.0450877 0)
(0.59032 0.048982 0)
(0.574028 0.0539462 0)
(0.558897 0.0594029 0)
(0.541454 0.0645368 0)
(0.52318 0.0691327 0)
(0.504593 0.0725867 0)
(0.484436 0.0748875 0)
(0.465398 0.0764568 0)
(0.444918 0.0777739 0)
(0.422174 0.0791611 0)
(0.400204 0.0807826 0)
(0.377683 0.082627 0)
(0.355649 0.0843239 0)
(0.333857 0.0859833 0)
(0.310801 0.0875484 0)
(0.2873 0.0890585 0)
(0.262848 0.0907278 0)
(0.237079 0.0927298 0)
(0.210288 0.0952398 0)
(0.182037 0.0983526 0)
(0.152299 0.101983 0)
(0.12076 0.105903 0)
(0.0878721 0.109678 0)
(0.051751 0.113135 0)
(0.0209398 0.1158 0)
(3 1.65287e-09 0)
(3 8.19236e-09 0)
(3 9.63023e-09 0)
(3 1.78176e-08 0)
(3 7.25203e-08 0)
(2.99999 1.26573e-08 0)
(2.99998 1.86483e-07 0)
(2.99994 1.73493e-06 0)
(2.9999 4.84496e-07 0)
(2.99968 -5.86822e-06 0)
(2.99935 9.77396e-06 0)
(2.99861 -0.000191599 0)
(2.99596 0.000144248 0)
(2.98938 -0.000722937 0)
(2.99503 -0.00719449 0)
(2.8397 -0.0128178 0)
(2.68589 0.0165389 0)
(2.0534 0.0140107 0)
(0.706095 0.11403 0)
(0.428713 0.0912661 0)
(0.544911 0.0721855 0)
(0.625375 0.0599886 0)
(0.635498 0.053041 0)
(0.62551 0.0511515 0)
(0.608373 0.053759 0)
(0.590001 0.0586032 0)
(0.57499 0.0646482 0)
(0.560782 0.0713246 0)
(0.544005 0.0776629 0)
(0.526196 0.0832689 0)
(0.507825 0.0874374 0)
(0.48785 0.0901561 0)
(0.469028 0.091878 0)
(0.448784 0.093236 0)
(0.426235 0.0946993 0)
(0.404403 0.096472 0)
(0.381885 0.0986185 0)
(0.359782 0.100757 0)
(0.337955 0.102975 0)
(0.31482 0.105195 0)
(0.291218 0.107413 0)
(0.266655 0.109792 0)
(0.240728 0.112512 0)
(0.213711 0.115745 0)
(0.18515 0.119592 0)
(0.155003 0.123983 0)
(0.122953 0.128671 0)
(0.0894998 0.133156 0)
(0.0527539 0.137163 0)
(0.021224 0.140098 0)
(3 3.78237e-09 0)
(3 1.10749e-08 0)
(3 4.96826e-08 0)
(3 8.76006e-08 0)
(3 2.27305e-07 0)
(2.99999 1.67201e-07 0)
(2.99998 5.34959e-07 0)
(2.99994 1.83605e-06 0)
(2.99989 5.57218e-06 0)
(2.99969 1.00526e-05 0)
(2.99925 9.74138e-05 0)
(2.99866 -0.000111177 0)
(2.99545 0.000375056 0)
(2.98863 -9.48734e-05 0)
(2.99259 0.00613043 0)
(2.84791 0.00753595 0)
(2.70468 0.014278 0)
(2.08534 0.0353772 0)
(0.734357 0.119751 0)
(0.438222 0.101815 0)
(0.553119 0.0825371 0)
(0.633232 0.069315 0)
(0.643275 0.0617333 0)
(0.633541 0.0597252 0)
(0.616119 0.06277 0)
(0.596757 0.0682726 0)
(0.580893 0.0752696 0)
(0.566108 0.0831934 0)
(0.549075 0.0908199 0)
(0.531259 0.0975789 0)
(0.512955 0.102561 0)
(0.493158 0.105776 0)
(0.474573 0.107743 0)
(0.454573 0.109236 0)
(0.432123 0.110863 0)
(0.41021 0.112874 0)
(0.387415 0.115382 0)
(0.364931 0.117998 0)
(0.342805 0.120786 0)
(0.319404 0.123669 0)
(0.295588 0.126603 0)
(0.27088 0.129723 0)
(0.244818 0.133209 0)
(0.217618 0.137242 0)
(0.188785 0.141929 0)
(0.158243 0.147195 0)
(0.125654 0.152762 0)
(0.0915525 0.158054 0)
(0.0540332 0.162683 0)
(0.0216315 0.165932 0)
(3 3.67473e-09 0)
(3 4.8066e-09 0)
(3 1.61238e-08 0)
(3 2.92815e-08 0)
(3 6.52588e-08 0)
(2.99999 2.55092e-07 0)
(2.99998 1.38558e-07 0)
(2.99995 -1.03546e-07 0)
(2.99991 1.46805e-06 0)
(2.99975 5.98159e-06 0)
(2.99926 -3.78552e-05 0)
(2.99881 0.000211876 0)
(2.99599 -0.000801519 0)
(2.99379 0.00061003 0)
(3.00085 -0.000685915 0)
(2.84915 -0.00159492 0)
(2.71096 0.0160965 0)
(2.10986 0.0466104 0)
(0.753097 0.142708 0)
(0.425502 0.118276 0)
(0.544155 0.0935461 0)
(0.628818 0.0770483 0)
(0.643291 0.0690167 0)
(0.637587 0.0677954 0)
(0.622184 0.0720767 0)
(0.602741 0.0787588 0)
(0.586116 0.0868622 0)
(0.570505 0.0959298 0)
(0.553013 0.104579 0)
(0.535174 0.11232 0)
(0.517061 0.117987 0)
(0.497703 0.121632 0)
(0.479664 0.123893 0)
(0.460218 0.125646 0)
(0.438164 0.127571 0)
(0.416427 0.129972 0)
(0.393555 0.132949 0)
(0.370827 0.136114 0)
(0.348494 0.139504 0)
(0.324883 0.143052 0)
(0.300874 0.146705 0)
(0.276019 0.150587 0)
(0.249808 0.154891 0)
(0.222395 0.159809 0)
(0.19324 0.165457 0)
(0.162229 0.171746 0)
(0.128997 0.178342 0)
(0.0941039 0.184569 0)
(0.0556276 0.189916 0)
(0.0221714 0.193545 0)
(3 4.51622e-10 0)
(3 4.66203e-09 0)
(3 -2.62636e-09 0)
(3 2.17914e-08 0)
(3 -2.68158e-08 0)
(2.99999 4.30195e-08 0)
(2.99998 -4.85769e-07 0)
(2.99994 3.19634e-07 0)
(2.9999 -5.67197e-06 0)
(2.99966 -4.51855e-06 0)
(2.99941 -0.000116372 0)
(2.99805 0.0002 0)
(2.99575 -0.00105123 0)
(2.98853 0.00031591 0)
(2.99046 -0.0087131 0)
(2.86277 -0.0197065 0)
(2.74747 0.0281991 0)
(2.15759 0.0561445 0)
(0.786932 0.171075 0)
(0.440891 0.136685 0)
(0.559267 0.107119 0)
(0.643569 0.0866908 0)
(0.65836 0.0777158 0)
(0.652476 0.0770397 0)
(0.635815 0.0826372 0)
(0.613916 0.0906486 0)
(0.594898 0.0998611 0)
(0.577287 0.109871 0)
(0.558504 0.119168 0)
(0.540009 0.127593 0)
(0.521519 0.133684 0)
(0.502219 0.137623 0)
(0.484513 0.140175 0)
(0.465542 0.14227 0)
(0.443968 0.144614 0)
(0.422624 0.147547 0)
(0.399961 0.151122 0)
(0.377287 0.154949 0)
(0.355002 0.159019 0)
(0.331385 0.163284 0)
(0.307314 0.167714 0)
(0.282375 0.172419 0)
(0.256023 0.177634 0)
(0.228353 0.183563 0)
(0.198795 0.190315 0)
(0.167201 0.19779 0)
(0.13318 0.205606 0)
(0.0973039 0.212961 0)
(0.0576301 0.219171 0)
(0.0228874 0.223247 0)
(3 5.57961e-09 0)
(3 4.73947e-09 0)
(3 4.44288e-08 0)
(3 8.32316e-08 0)
(3 2.26523e-07 0)
(2.99999 2.53532e-07 0)
(2.99998 1.13442e-06 0)
(2.99994 2.01607e-06 0)
(2.9999 5.94461e-06 0)
(2.99966 8.75614e-06 0)
(2.99942 4.66981e-05 0)
(2.99808 9.26225e-05 0)
(2.99609 0.00018938 0)
(2.98767 0.000670864 0)
(2.98537 -0.000310465 0)
(2.87745 -0.00402788 0)
(2.77771 0.025127 0)
(2.20799 0.0322441 0)
(0.822863 0.175656 0)
(0.444812 0.140422 0)
(0.565157 0.11583 0)
(0.650162 0.095434 0)
(0.667344 0.0876891 0)
(0.663112 0.0885331 0)
(0.646646 0.0955285 0)
(0.623447 0.104673 0)
(0.603133 0.114708 0)
(0.584332 0.125351 0)
(0.564809 0.135055 0)
(0.545857 0.143827 0)
(0.52681 0.150085 0)
(0.507333 0.154153 0)
(0.489723 0.156877 0)
(0.471042 0.159248 0)
(0.449896 0.162011 0)
(0.429031 0.165508 0)
(0.406767 0.169749 0)
(0.384386 0.174333 0)
(0.362384 0.179183 0)
(0.338981 0.184278 0)
(0.315011 0.1896 0)
(0.290096 0.195252 0)
(0.263662 0.20152 0)
(0.235722 0.208631 0)
(0.205688 0.216693 0)
(0.173394 0.225572 0)
(0.138423 0.234835 0)
(0.101334 0.243521 0)
(0.0601497 0.250788 0)
(0.0237964 0.255438 0)
(3 5.61484e-09 0)
(3 1.06785e-08 0)
(3 2.83881e-08 0)
(3 6.13038e-08 0)
(3 1.02669e-07 0)
(2.99999 2.51171e-07 0)
(2.99998 3.98727e-07 0)
(2.99995 -1.50647e-06 0)
(2.9999 1.36397e-06 0)
(2.99969 -8.82893e-06 0)
(2.99948 1.9929e-05 0)
(2.99817 1.04098e-05 0)
(2.99623 3.61126e-05 0)
(2.9881 -7.52751e-05 0)
(2.9869 0.000834505 0)
(2.88234 0.000417699 0)
(2.77644 0.0205627 0)
(2.24695 0.0358636 0)
(0.871292 0.177274 0)
(0.438142 0.150957 0)
(0.556983 0.1294 0)
(0.642371 0.105501 0)
(0.665369 0.098321 0)
(0.665227 0.100735 0)
(0.650852 0.10881 0)
(0.62812 0.119037 0)
(0.608202 0.129906 0)
(0.589703 0.141251 0)
(0.570555 0.151531 0)
(0.551873 0.160685 0)
(0.532727 0.167093 0)
(0.513325 0.171252 0)
(0.495912 0.174077 0)
(0.477553 0.176643 0)
(0.456842 0.179783 0)
(0.436459 0.183825 0)
(0.414636 0.188757 0)
(0.392619 0.194176 0)
(0.370991 0.199913 0)
(0.347924 0.205973 0)
(0.324166 0.212339 0)
(0.29937 0.219115 0)
(0.272932 0.226629 0)
(0.244754 0.235146 0)
(0.214207 0.244777 0)
(0.18111 0.255351 0)
(0.144992 0.266384 0)
(0.106407 0.276716 0)
(0.0633711 0.285283 0)
(0.0250187 0.290645 0)
(3 4.353e-09 0)
(3 1.38874e-08 0)
(3 2.07916e-08 0)
(3 5.71317e-08 0)
(3 3.49301e-08 0)
(2.99999 1.52197e-07 0)
(2.99998 7.05839e-08 0)
(2.99994 2.51641e-08 0)
(2.9999 -3.63081e-07 0)
(2.99968 -1.58342e-06 0)
(2.99943 -1.44515e-05 0)
(2.99809 -3.99827e-05 0)
(2.99601 3.14978e-06 0)
(2.98835 0.000470239 0)
(2.98562 0.00148723 0)
(2.8941 -0.00142909 0)
(2.81185 0.0250766 0)
(2.32022 0.0520773 0)
(0.923514 0.17031 0)
(0.465464 0.162067 0)
(0.564253 0.143492 0)
(0.642842 0.115827 0)
(0.67065 0.109319 0)
(0.67217 0.113511 0)
(0.657939 0.122024 0)
(0.634643 0.132997 0)
(0.614499 0.144788 0)
(0.596094 0.157016 0)
(0.577342 0.168108 0)
(0.558977 0.177803 0)
(0.539812 0.184441 0)
(0.52064 0.188714 0)
(0.503542 0.191638 0)
(0.485602 0.194398 0)
(0.465381 0.197912 0)
(0.445485 0.202504 0)
(0.424118 0.208165 0)
(0.402471 0.214493 0)
(0.381235 0.221205 0)
(0.358564 0.228342 0)
(0.335089 0.235908 0)
(0.310493 0.244008 0)
(0.284139 0.253008 0)
(0.255785 0.263231 0)
(0.22472 0.274766 0)
(0.190751 0.287433 0)
(0.15333 0.30065 0)
(0.112916 0.313065 0)
(0.0674995 0.323332 0)
(0.0265863 0.32962 0)
(3 9.46753e-09 0)
(3 7.96991e-09 0)
(3 4.81486e-08 0)
(3 3.0314e-08 0)
(3 1.95964e-07 0)
(2.99999 3.25521e-07 0)
(2.99998 7.46697e-07 0)
(2.99994 3.48383e-06 0)
(2.9999 2.90252e-06 0)
(2.99968 1.81218e-05 0)
(2.99945 1.71265e-05 0)
(2.99819 8.19286e-05 0)
(2.99671 0.000171007 0)
(2.98945 0.000599291 0)
(2.98526 0.00144065 0)
(2.90543 0.0012659 0)
(2.8322 0.0193829 0)
(2.37496 0.0343004 0)
(0.984028 0.151654 0)
(0.498969 0.173805 0)
(0.56807 0.157375 0)
(0.640456 0.129283 0)
(0.676941 0.123115 0)
(0.680522 0.127793 0)
(0.66591 0.135859 0)
(0.642252 0.146999 0)
(0.621783 0.159733 0)
(0.603254 0.172898 0)
(0.584763 0.185036 0)
(0.566614 0.195194 0)
(0.547468 0.202069 0)
(0.528655 0.206422 0)
(0.512025 0.209429 0)
(0.494671 0.212406 0)
(0.47512 0.216332 0)
(0.455894 0.22154 0)
(0.43518 0.227989 0)
(0.414059 0.235306 0)
(0.39332 0.243085 0)
(0.371172 0.251395 0)
(0.348113 0.260318 0)
(0.323838 0.269948 0)
(0.29771 0.280728 0)
(0.269295 0.292967 0)
(0.237781 0.306844 0)
(0.2029 0.322142 0)
(0.16397 0.338103 0)
(0.121374 0.353179 0)
(0.0729948 0.365729 0)
(0.0287468 0.373347 0)
(3 1.20914e-08 0)
(3 1.46605e-08 0)
(3 7.15295e-08 0)
(3 1.04091e-07 0)
(3 3.38851e-07 0)
(2.99999 6.6643e-07 0)
(2.99998 1.55342e-06 0)
(2.99995 1.88103e-06 0)
(2.99991 4.79316e-06 0)
(2.99969 1.15946e-05 0)
(2.99949 2.74135e-05 0)
(2.99823 5.75997e-05 0)
(2.99648 0.000162938 0)
(2.98951 0.000127297 0)
(2.98619 0.000690636 0)
(2.91087 0.000199353 0)
(2.84444 0.0148823 0)
(2.42192 0.0256886 0)
(1.07123 0.132402 0)
(0.55239 0.18773 0)
(0.575894 0.167463 0)
(0.644234 0.143526 0)
(0.688489 0.137878 0)
(0.692747 0.14262 0)
(0.676314 0.150718 0)
(0.651287 0.162165 0)
(0.629592 0.17578 0)
(0.610378 0.189644 0)
(0.591824 0.202695 0)
(0.573693 0.213058 0)
(0.554722 0.219953 0)
(0.536449 0.224218 0)
(0.52052 0.227225 0)
(0.504019 0.230394 0)
(0.485461 0.234772 0)
(0.467261 0.240687 0)
(0.447589 0.248024 0)
(0.427346 0.256461 0)
(0.40736 0.265418 0)
(0.385992 0.275053 0)
(0.363579 0.285516 0)
(0.339851 0.296919 0)
(0.314138 0.309846 0)
(0.285857 0.32451 0)
(0.2541 0.341205 0)
(0.218353 0.359834 0)
(0.177759 0.379373 0)
(0.132592 0.398073 0)
(0.0804579 0.413839 0)
(0.0317565 0.423427 0)
(3 1.66494e-08 0)
(3 2.90781e-08 0)
(3 7.35024e-08 0)
(3 1.51118e-07 0)
(3 3.58076e-07 0)
(2.99999 6.93765e-07 0)
(2.99998 1.98751e-06 0)
(2.99995 2.86699e-06 0)
(2.99991 1.03732e-05 0)
(2.9997 1.7007e-05 0)
(2.99949 3.61515e-05 0)
(2.99832 4.38417e-05 0)
(2.99678 0.000172244 0)
(2.98996 0.000389388 0)
(2.98525 0.00107418 0)
(2.91814 -0.00114719 0)
(2.8568 0.0164676 0)
(2.45858 0.0254021 0)
(1.16882 0.114642 0)
(0.602218 0.195137 0)
(0.568661 0.174136 0)
(0.639746 0.154909 0)
(0.692125 0.150955 0)
(0.699576 0.156988 0)
(0.683258 0.16605 0)
(0.658314 0.178377 0)
(0.636234 0.193001 0)
(0.616905 0.207439 0)
(0.598627 0.221081 0)
(0.580552 0.231357 0)
(0.561934 0.237956 0)
(0.544394 0.241902 0)
(0.529355 0.244759 0)
(0.513904 0.248042 0)
(0.496609 0.252886 0)
(0.479746 0.259585 0)
(0.461494 0.267932 0)
(0.442488 0.277659 0)
(0.423564 0.287906 0)
(0.403313 0.299089 0)
(0.381866 0.311319 0)
(0.359042 0.324819 0)
(0.33409 0.34023 0)
(0.306215 0.35788 0)
(0.274591 0.378137 0)
(0.238274 0.400829 0)
(0.196046 0.42507 0)
(0.147988 0.448886 0)
(0.091097 0.469493 0)
(0.0362498 0.482311 0)
(3 2.66426e-08 0)
(3 -1.41789e-08 0)
(3 1.03549e-07 0)
(3 -4.29565e-08 0)
(3 3.31569e-07 0)
(2.99999 8.0113e-07 0)
(2.99999 2.00417e-06 0)
(2.99995 2.78845e-06 0)
(2.99992 9.37616e-06 0)
(2.99972 1.6195e-05 0)
(2.99952 4.35625e-05 0)
(2.99837 7.21989e-05 0)
(2.99682 0.000176883 0)
(2.9904 0.000535522 0)
(2.98476 0.00121734 0)
(2.9259 0.000650308 0)
(2.87209 0.0161034 0)
(2.49458 0.0258341 0)
(1.26098 0.112298 0)
(0.666599 0.203648 0)
(0.569721 0.182688 0)
(0.641502 0.164441 0)
(0.700239 0.162462 0)
(0.709204 0.170264 0)
(0.691721 0.181006 0)
(0.666366 0.194921 0)
(0.643596 0.210836 0)
(0.624153 0.226101 0)
(0.606238 0.240153 0)
(0.588232 0.250022 0)
(0.570207 0.256016 0)
(0.553625 0.259371 0)
(0.539642 0.261861 0)
(0.525395 0.265136 0)
(0.509518 0.270433 0)
(0.494126 0.277973 0)
(0.477509 0.287433 0)
(0.459919 0.298564 0)
(0.442302 0.310298 0)
(0.423545 0.323265 0)
(0.403439 0.337534 0)
(0.381928 0.353458 0)
(0.358243 0.371708 0)
(0.331435 0.392913 0)
(0.300405 0.417499 0)
(0.264049 0.445398 0)
(0.220784 0.475944 0)
(0.169836 0.50712 0)
(0.107058 0.535482 0)
(0.0433889 0.554301 0)
(3 1.74641e-08 0)
(3 -3.87189e-08 0)
(3 5.06863e-08 0)
(3 -1.93207e-07 0)
(3 3.90537e-07 0)
(2.99999 -6.7827e-07 0)
(2.99999 3.07775e-06 0)
(2.99996 2.09129e-07 0)
(2.99993 1.41008e-05 0)
(2.99974 2.13301e-05 0)
(2.99955 6.90295e-05 0)
(2.99846 0.000138074 0)
(2.99727 0.000287593 0)
(2.99103 0.000843851 0)
(2.98545 0.00146075 0)
(2.93313 0.00250013 0)
(2.8845 0.0137407 0)
(2.53422 0.0228843 0)
(1.38141 0.106937 0)
(0.744627 0.207315 0)
(0.571901 0.188617 0)
(0.642996 0.173749 0)
(0.708271 0.174756 0)
(0.718749 0.184298 0)
(0.700279 0.196955 0)
(0.674454 0.212607 0)
(0.651137 0.229636 0)
(0.632033 0.245905 0)
(0.614743 0.259789 0)
(0.597161 0.268847 0)
(0.580269 0.273869 0)
(0.56506 0.276341 0)
(0.552429 0.278285 0)
(0.539598 0.281462 0)
(0.525248 0.287234 0)
(0.511309 0.295682 0)
(0.496315 0.306307 0)
(0.48022 0.318934 0)
(0.464108 0.332401 0)
(0.447158 0.347342 0)
(0.428798 0.363892 0)
(0.409093 0.382528 0)
(0.387339 0.40398 0)
(0.362425 0.429174 0)
(0.333142 0.458841 0)
(0.298043 0.493339 0)
(0.255009 0.532457 0)
(0.202125 0.574606 0)
(0.132807 0.616204 0)
(0.0561672 0.64784 0)
(3 2.40021e-09 0)
(3 -3.60674e-09 0)
(3 -4.5929e-09 0)
(3 -7.88584e-08 0)
(3 2.86448e-07 0)
(3 -1.10898e-06 0)
(2.99999 2.04024e-06 0)
(2.99997 1.62181e-06 0)
(2.99995 1.07999e-05 0)
(2.99978 1.46023e-05 0)
(2.99965 5.59466e-05 0)
(2.9986 9.69749e-05 0)
(2.99757 0.000408721 0)
(2.99165 0.000611769 0)
(2.98652 0.00196694 0)
(2.93871 0.00255572 0)
(2.895 0.0122691 0)
(2.56815 0.017433 0)
(1.49114 0.105147 0)
(0.809456 0.217212 0)
(0.555542 0.196903 0)
(0.635056 0.182272 0)
(0.71179 0.185452 0)
(0.72597 0.197453 0)
(0.70773 0.212799 0)
(0.681758 0.230874 0)
(0.658605 0.249319 0)
(0.640346 0.266391 0)
(0.623898 0.279381 0)
(0.607501 0.287186 0)
(0.592388 0.290889 0)
(0.579059 0.292312 0)
(0.568125 0.293735 0)
(0.556966 0.296881 0)
(0.544283 0.303206 0)
(0.531702 0.312633 0)
(0.518288 0.324623 0)
(0.503805 0.338923 0)
(0.489372 0.354248 0)
(0.474533 0.371278 0)
(0.458373 0.390194 0)
(0.441051 0.411589 0)
(0.422026 0.436378 0)
(0.400295 0.465829 0)
(0.374502 0.50127 0)
(0.343106 0.5438 0)
(0.303414 0.594192 0)
(0.252046 0.652627 0)
(0.178218 0.717379 0)
(0.0821751 0.78042 0)
(3 -1.51678e-09 0)
(3 1.67421e-08 0)
(3 3.75559e-08 0)
(3 7.67355e-08 0)
(3 1.65258e-07 0)
(2.99999 -8.80959e-08 0)
(2.99999 2.63462e-08 0)
(2.99997 -3.88797e-06 0)
(2.99994 8.13727e-07 0)
(2.99978 -4.2559e-05 0)
(2.99964 2.72919e-05 0)
(2.99885 -0.000162874 0)
(2.99784 0.000286611 0)
(2.99276 0.00012619 0)
(2.9876 0.00166736 0)
(2.94367 0.00226141 0)
(2.90307 0.0131527 0)
(2.58683 0.0238325 0)
(1.61065 0.108034 0)
(0.897358 0.225906 0)
(0.556991 0.202052 0)
(0.638797 0.188273 0)
(0.722927 0.194296 0)
(0.73733 0.209877 0)
(0.716951 0.228408 0)
(0.689522 0.24946 0)
(0.666051 0.269509 0)
(0.648561 0.286661 0)
(0.633338 0.298112 0)
(0.618991 0.304121 0)
(0.606326 0.306183 0)
(0.595413 0.306478 0)
(0.586479 0.307516 0)
(0.577134 0.310771 0)
(0.566225 0.317724 0)
(0.555181 0.328253 0)
(0.543522 0.341786 0)
(0.530723 0.357796 0)
(0.518184 0.375029 0)
(0.505799 0.394035 0)
(0.492267 0.415138 0)
(0.478009 0.43904 0)
(0.462803 0.466974 0)
(0.445956 0.500611 0)
(0.4264 0.541939 0)
(0.402646 0.593244 0)
(0.372394 0.657401 0)
(0.331686 0.739192 0)
(0.266397 0.847917 0)
(0.143849 1.01321 0)
(3 -1.80487e-09 0)
(3 3.0689e-08 0)
(3 5.58963e-08 0)
(3 1.95657e-07 0)
(3 3.63169e-07 0)
(2.99999 6.00828e-07 0)
(2.99998 1.57052e-06 0)
(2.99997 -2.51504e-06 0)
(2.99989 9.28592e-06 0)
(2.99981 -2.93343e-05 0)
(2.99948 4.26019e-05 0)
(2.9989 -0.000215229 0)
(2.99791 -3.5879e-05 0)
(2.99331 -0.00126761 0)
(2.98928 0.000497644 0)
(2.95324 -0.000452821 0)
(2.92661 0.0108359 0)
(2.63791 0.0308983 0)
(1.75003 0.10597 0)
(0.994544 0.231989 0)
(0.539123 0.210249 0)
(0.634073 0.202641 0)
(0.731577 0.211922 0)
(0.746749 0.230217 0)
(0.724213 0.252054 0)
(0.696378 0.275896 0)
(0.673829 0.296811 0)
(0.658594 0.311731 0)
(0.646445 0.319691 0)
(0.636265 0.322287 0)
(0.627752 0.321778 0)
(0.620625 0.32077 0)
(0.614586 0.321756 0)
(0.607692 0.325788 0)
(0.599401 0.33418 0)
(0.590817 0.346683 0)
(0.581831 0.36241 0)
(0.571824 0.380578 0)
(0.562429 0.40018 0)
(0.553975 0.421289 0)
(0.544949 0.444407 0)
(0.536155 0.470497 0)
(0.528076 0.501128 0)
(0.520809 0.538363 0)
(0.514484 0.58477 0)
(0.50997 0.643584 0)
(0.509683 0.719325 0)
(0.521697 0.818882 0)
(0.574669 0.952153 0)
(0.641299 1.14282 0)
(3 5.20275e-11 0)
(3 3.32224e-08 0)
(3 6.55694e-08 0)
(3 2.69048e-07 0)
(3 4.84885e-07 0)
(3 1.67534e-06 0)
(2.99999 2.82887e-06 0)
(2.99998 9.28003e-06 0)
(2.9999 1.72759e-05 0)
(2.99984 4.21952e-05 0)
(2.99936 7.77218e-05 0)
(2.99871 0.000143706 0)
(2.99608 0.000292551 0)
(2.99356 -0.000240057 0)
(2.98866 0.00257751 0)
(2.95909 0.00187606 0)
(2.95207 0.0155073 0)
(2.70214 0.034894 0)
(1.93135 0.0946906 0)
(1.07619 0.225048 0)
(0.493658 0.211276 0)
(0.617834 0.219539 0)
(0.727038 0.231985 0)
(0.744943 0.252928 0)
(0.725015 0.27855 0)
(0.70048 0.303282 0)
(0.680194 0.321997 0)
(0.667749 0.33249 0)
(0.65998 0.335928 0)
(0.654575 0.334787 0)
(0.650411 0.332015 0)
(0.646969 0.330475 0)
(0.643426 0.332162 0)
(0.638647 0.337846 0)
(0.63292 0.348413 0)
(0.626842 0.363213 0)
(0.620595 0.38123 0)
(0.613847 0.401417 0)
(0.608148 0.42285 0)
(0.603946 0.445235 0)
(0.600013 0.469165 0)
(0.597571 0.49576 0)
(0.59771 0.526672 0)
(0.601404 0.563938 0)
(0.610203 0.609991 0)
(0.626971 0.667555 0)
(0.657138 0.739531 0)
(0.708832 0.828982 0)
(0.810509 0.93474 0)
(0.946608 1.0447 0)
(3 -1.10526e-10 0)
(3 1.47184e-08 0)
(3 3.35994e-08 0)
(3 1.51815e-07 0)
(3 2.90086e-07 0)
(3 1.30404e-06 0)
(2.99999 2.24992e-06 0)
(2.99999 9.56533e-06 0)
(2.99995 1.59099e-05 0)
(2.99991 6.34251e-05 0)
(2.99965 0.000101932 0)
(2.99926 0.000396037 0)
(2.99725 0.000732441 0)
(2.99713 0.00206455 0)
(2.99253 0.00428108 0)
(2.97564 0.0067141 0)
(2.98083 0.0184879 0)
(2.71941 0.033727 0)
(2.07791 0.0670928 0)
(1.2185 0.173892 0)
(0.489656 0.205005 0)
(0.610941 0.240801 0)
(0.712235 0.257199 0)
(0.738942 0.281145 0)
(0.72545 0.308226 0)
(0.703961 0.329564 0)
(0.686735 0.342516 0)
(0.678499 0.347064 0)
(0.675446 0.34551 0)
(0.674577 0.341052 0)
(0.674508 0.337025 0)
(0.674257 0.335971 0)
(0.672788 0.33916 0)
(0.669996 0.347384 0)
(0.666496 0.360706 0)
(0.662748 0.378107 0)
(0.65929 0.398417 0)
(0.655789 0.420264 0)
(0.653784 0.442763 0)
(0.653911 0.465479 0)
(0.655211 0.488971 0)
(0.659055 0.51434 0)
(0.66692 0.543047 0)
(0.680262 0.576761 0)
(0.701163 0.617189 0)
(0.732729 0.665779 0)
(0.779735 0.72298 0)
(0.846882 0.787737 0)
(0.949502 0.854778 0)
(1.07099 0.904821 0)
(3 -1.52696e-09 0)
(3 -1.62257e-09 0)
(3 -4.5312e-09 0)
(3 1.84584e-08 0)
(3 5.0077e-08 0)
(3 3.88091e-07 0)
(3 1.17719e-06 0)
(3 4.71886e-06 0)
(2.99999 1.15671e-05 0)
(2.99998 4.38116e-05 0)
(2.99992 0.000105589 0)
(2.99976 0.000354826 0)
(2.99885 0.000812458 0)
(2.99946 0.00232275 0)
(2.99603 0.00356405 0)
(2.9834 0.00644484 0)
(2.99282 0.0120773 0)
(2.7474 0.0200364 0)
(2.21862 0.0533887 0)
(1.36945 0.138228 0)
(0.525789 0.229706 0)
(0.607804 0.271903 0)
(0.689516 0.293215 0)
(0.729944 0.316966 0)
(0.724975 0.338558 0)
(0.709058 0.35129 0)
(0.697949 0.355913 0)
(0.694833 0.353673 0)
(0.696099 0.347732 0)
(0.698898 0.341408 0)
(0.70167 0.337574 0)
(0.703074 0.338062 0)
(0.702979 0.343757 0)
(0.701838 0.354938 0)
(0.699973 0.370932 0)
(0.698095 0.390578 0)
(0.696782 0.412429 0)
(0.696013 0.434977 0)
(0.697452 0.45756 0)
(0.70154 0.479558 0)
(0.707537 0.501366 0)
(0.716821 0.523978 0)
(0.730763 0.548537 0)
(0.750831 0.576249 0)
(0.778831 0.608102 0)
(0.817084 0.64455 0)
(0.868674 0.684971 0)
(0.935489 0.726935 0)
(1.02606 0.766763 0)
(1.12712 0.790603 0)
(3 -2.67028e-09 0)
(3 -4.26861e-09 0)
(3 -1.92481e-08 0)
(3 -3.66497e-08 0)
(3 -1.25911e-07 0)
(3 -2.24359e-07 0)
(3 -6.36482e-07 0)
(3.00001 -9.54018e-07 0)
(3.00001 -1.65177e-06 0)
(3.00007 1.81157e-06 0)
(3.00017 1.97808e-05 0)
(3.00044 7.84819e-05 0)
(3.00053 0.000287595 0)
(3.00169 0.000924428 0)
(2.99933 0.00192424 0)
(2.99026 0.00430454 0)
(3.00207 0.00963055 0)
(2.7774 0.0150267 0)
(2.34312 0.0447896 0)
(1.54421 0.118748 0)
(0.58384 0.252317 0)
(0.585721 0.290945 0)
(0.661503 0.316753 0)
(0.715109 0.337307 0)
(0.723133 0.351492 0)
(0.718136 0.356689 0)
(0.715891 0.355593 0)
(0.71859 0.349828 0)
(0.723597 0.342671 0)
(0.728355 0.336986 0)
(0.731882 0.334974 0)
(0.73366 0.338273 0)
(0.733788 0.347308 0)
(0.732791 0.361477 0)
(0.731473 0.379716 0)
(0.730674 0.400829 0)
(0.730911 0.423203 0)
(0.732653 0.445389 0)
(0.73731 0.467151 0)
(0.744841 0.48738 0)
(0.75478 0.506562 0)
(0.768345 0.525498 0)
(0.786531 0.545036 0)
(0.810548 0.566037 0)
(0.841717 0.589094 0)
(0.881714 0.614266 0)
(0.932355 0.640917 0)
(0.995252 0.666904 0)
(1.07277 0.690109 0)
(1.15563 0.702958 0)
(3 1.72325e-09 0)
(3 3.1018e-09 0)
(3 8.07491e-09 0)
(3 7.25685e-09 0)
(3 -1.75633e-08 0)
(3 -1.26892e-08 0)
(3 -8.42896e-07 0)
(3 -1.53253e-06 0)
(3 -9.95148e-06 0)
(3.00001 -1.6858e-05 0)
(3.00004 -9.43661e-05 0)
(3.00021 -0.000184716 0)
(3.00026 -0.000696279 0)
(3.00214 -0.00121443 0)
(3.00173 -0.0042673 0)
(2.99674 -0.00434383 0)
(3.00973 -0.00858464 0)
(2.80034 -0.0370017 0)
(2.47701 0.107287 0)
(1.74423 0.0871845 0)
(0.626298 0.367008 0)
(0.545021 0.379057 0)
(0.634937 0.367505 0)
(0.711723 0.359166 0)
(0.738518 0.355225 0)
(0.746204 0.351712 0)
(0.751049 0.347281 0)
(0.75547 0.341963 0)
(0.759505 0.337241 0)
(0.762062 0.334836 0)
(0.763676 0.336479 0)
(0.764044 0.343131 0)
(0.762795 0.354605 0)
(0.760723 0.370224 0)
(0.759167 0.388921 0)
(0.758978 0.409613 0)
(0.760351 0.431048 0)
(0.764677 0.452037 0)
(0.772374 0.471754 0)
(0.782712 0.489394 0)
(0.796025 0.505428 0)
(0.812951 0.520438 0)
(0.83407 0.53505 0)
(0.860254 0.54992 0)
(0.892404 0.565483 0)
(0.931635 0.581761 0)
(0.978938 0.598244 0)
(1.0354 0.613634 0)
(1.10249 0.625814 0)
(1.17217 0.631938 0)
(3 2.6943e-09 0)
(3 4.62136e-09 0)
(3 1.73942e-08 0)
(3 3.35017e-08 0)
(3 9.98098e-08 0)
(3 1.70604e-07 0)
(3 5.18741e-07 0)
(2.99999 9.35756e-07 0)
(2.99999 1.17643e-06 0)
(2.99993 3.21221e-06 0)
(2.99989 -1.88476e-05 0)
(2.99944 -3.97977e-05 0)
(2.99882 -0.000273943 0)
(2.99573 -0.000468601 0)
(2.99413 -0.00289592 0)
(2.98288 -0.00272689 0)
(2.95269 -0.00465777 0)
(2.94912 -0.0219969 0)
(2.59066 0.098315 0)